 Entering Gaussian System, Link 0=g16
 Initial command:
 /sw/apps/gaussian-16.0/g16/l1.exe "/tmp/Gau-257966.inp" -scrdir="/tmp/"
 Entering Link 1 = /sw/apps/gaussian-16.0/g16/l1.exe PID=    257967.
  
 Copyright (c) 1988,1990,1992,1993,1995,1998,2003,2009,2016,
            Gaussian, Inc.  All Rights Reserved.
  
 This is part of the Gaussian(R) 16 program.  It is based on
 the Gaussian(R) 09 system (copyright 2009, Gaussian, Inc.),
 the Gaussian(R) 03 system (copyright 2003, Gaussian, Inc.),
 the Gaussian(R) 98 system (copyright 1998, Gaussian, Inc.),
 the Gaussian(R) 94 system (copyright 1995, Gaussian, Inc.),
 the Gaussian 92(TM) system (copyright 1992, Gaussian, Inc.),
 the Gaussian 90(TM) system (copyright 1990, Gaussian, Inc.),
 the Gaussian 88(TM) system (copyright 1988, Gaussian, Inc.),
 the Gaussian 86(TM) system (copyright 1986, Carnegie Mellon
 University), and the Gaussian 82(TM) system (copyright 1983,
 Carnegie Mellon University). Gaussian is a federally registered
 trademark of Gaussian, Inc.
  
 This software contains proprietary and confidential information,
 including trade secrets, belonging to Gaussian, Inc.
  
 This software is provided under written license and may be
 used, copied, transmitted, or stored only in accord with that
 written license.
  
 The following legend is applicable only to US Government
 contracts under FAR:
  
                    RESTRICTED RIGHTS LEGEND
  
 Use, reproduction and disclosure by the US Government is
 subject to restrictions as set forth in subparagraphs (a)
 and (c) of the Commercial Computer Software - Restricted
 Rights clause in FAR 52.227-19.
  
 Gaussian, Inc.
 340 Quinnipiac St., Bldg. 40, Wallingford CT 06492
  
  
 ---------------------------------------------------------------
 Warning -- This program may not be used in any manner that
 competes with the business of Gaussian, Inc. or will provide
 assistance to any competitor of Gaussian, Inc.  The licensee
 of this program is prohibited from giving any competitor of
 Gaussian, Inc. access to this program.  By using this program,
 the user acknowledges that Gaussian, Inc. is engaged in the
 business of creating and licensing software in the field of
 computational chemistry and represents and warrants to the
 licensee that it is not a competitor of Gaussian, Inc. and that
 it will not use this program in any manner prohibited above.
 ---------------------------------------------------------------
  

 Cite this work as:
 Gaussian 16, Revision A.03,
 M. J. Frisch, G. W. Trucks, H. B. Schlegel, G. E. Scuseria, 
 M. A. Robb, J. R. Cheeseman, G. Scalmani, V. Barone, 
 G. A. Petersson, H. Nakatsuji, X. Li, M. Caricato, A. V. Marenich, 
 J. Bloino, B. G. Janesko, R. Gomperts, B. Mennucci, H. P. Hratchian, 
 J. V. Ortiz, A. F. Izmaylov, J. L. Sonnenberg, D. Williams-Young, 
 F. Ding, F. Lipparini, F. Egidi, J. Goings, B. Peng, A. Petrone, 
 T. Henderson, D. Ranasinghe, V. G. Zakrzewski, J. Gao, N. Rega, 
 G. Zheng, W. Liang, M. Hada, M. Ehara, K. Toyota, R. Fukuda, 
 J. Hasegawa, M. Ishida, T. Nakajima, Y. Honda, O. Kitao, H. Nakai, 
 T. Vreven, K. Throssell, J. A. Montgomery, Jr., J. E. Peralta, 
 F. Ogliaro, M. J. Bearpark, J. J. Heyd, E. N. Brothers, K. N. Kudin, 
 V. N. Staroverov, T. A. Keith, R. Kobayashi, J. Normand, 
 K. Raghavachari, A. P. Rendell, J. C. Burant, S. S. Iyengar, 
 J. Tomasi, M. Cossi, J. M. Millam, M. Klene, C. Adamo, R. Cammi, 
 J. W. Ochterski, R. L. Martin, K. Morokuma, O. Farkas, 
 J. B. Foresman, and D. J. Fox, Gaussian, Inc., Wallingford CT, 2016.
 
 ******************************************
 Gaussian 16:  ES64L-G16RevA.03 25-Dec-2016
                27-Apr-2022 
 ******************************************
 %nproc=24
 Will use up to   24 processors via shared memory.
 %mem=75GB
 --------------------------------
 #p wB97XD/Def2SVP td=(nstates=5)
 --------------------------------
 1/38=1,172=1/1;
 2/12=2,17=6,18=5,40=1/2;
 3/5=43,7=101,11=9,25=1,30=1,74=-58/1,2,3,8;
 4//1;
 5/5=2,38=5/2;
 8/6=1,10=1,108=5/1;
 9/41=5,42=1,70=2/14;
 6/7=2,8=2,9=2,10=2/1;
 99/5=1,9=1/99;
 Leave Link    1 at Wed Apr 27 15:03:48 2022, MaxMem= 10066329600 cpu:               0.6 elap:               0.0
 (Enter /sw/apps/gaussian-16.0/g16/l101.exe)
 ----------------------------------------------------
 step_1201_chromophore_7 TDDFT with wB97XD functional
 ----------------------------------------------------
 Symbolic Z-matrix:
 Charge =  0 Multiplicity = 1
 Mg                    25.944    0.123     29.595 
 C                     27.705   -0.518     32.657 
 C                     23.019    0.059     31.666 
 C                     24.111   -0.072     26.843 
 C                     28.772   -0.805     27.891 
 N                     25.426   -0.206     31.918 
 C                     26.372   -0.295     32.937 
 C                     25.743   -0.137     34.273 
 C                     24.224   -0.373     33.938 
 C                     24.216   -0.129     32.41 
 C                     23.682   -1.816     34.123 
 C                     26.116    1.268     34.9 
 C                     26.556    1.275     36.374 
 C                     25.88     0.397     37.39 
 O                     24.799   -0.145     37.232 
 O                     26.693    0.292     38.529 
 N                     23.893    0.195     29.277 
 C                     22.895    0.211     30.291 
 C                     21.596    0.431     29.615 
 C                     21.862    0.48      28.228 
 C                     23.363    0.116     28.081 
 C                     20.3      0.683     30.383 
 C                     20.869    0.713     27.103 
 O                     21.162    0.576     25.974 
 C                     19.338    0.832     27.458 
 N                     26.315   -0.605     27.627 
 C                     25.43    -0.427     26.648 
 C                     26.169   -0.359     25.247 
 C                     27.66    -0.324     25.729 
 C                     27.609   -0.538     27.171 
 C                     25.869   -1.561     24.266 
 C                     28.429    0.961     25.369 
 C                     29.782    0.696     24.608 
 N                     27.822   -0.441     30.088 
 C                     28.902   -0.745     29.304 
 C                     30.089   -0.857     30.062 
 C                     29.653   -0.819     31.385 
 C                     28.25    -0.633     31.356 
 C                     31.52    -0.986     29.617 
 C                     30.135   -0.906     32.782 
 O                     31.257   -1.032     33.221 
 C                     28.838   -0.759     33.673 
 C                     28.747   -1.964     34.46 
 O                     27.973   -2.874     34.233 
 O                     29.579   -1.875     35.552 
 C                     29.115   -2.606     36.683 
 C                     26.207   -0.57      39.591 
 C                     26.021    0.139     40.881 
 C                     24.932    0.658     41.441 
 C                     23.529    0.756     40.857 
 C                     24.972    1.073     42.928 
 C                     24.563    0.018     43.93 
 C                     23.16     0.106     44.506 
 C                     23.149    0.551     46.021 
 C                     22.61    -0.538     46.993 
 C                     22.461    1.944     46.238 
 C                     23.207    2.721     47.338 
 C                     22.183    3.206     48.253 
 C                     22.657    4.149     49.352 
 C                     22.374    3.635     50.785 
 C                     22.131    5.625     49.288 
 C                     22.785    6.506     48.161 
 C                     21.996    7.784     47.802 
 C                     22.643    8.684     46.777 
 C                     23.153    10.044    47.479 
 C                     21.878    8.979     45.512 
 H                     22.14     0.222     32.293 
 H                     23.595   -0.092     25.881 
 H                     29.702   -1.004     27.355 
 H                     26.144   -0.938     34.894 
 H                     23.611    0.428     34.353 
 H                     23.421   -2.283     33.173 
 H                     22.752   -1.802     34.69 
 H                     24.425   -2.473     34.576 
 H                     25.23     1.89      34.771 
 H                     26.867    1.704     34.242 
 H                     26.404    2.26      36.814 
 H                     27.626    1.069     36.368 
 H                     19.836    1.618     30.073 
 H                     20.517    0.744     31.449 
 H                     19.589   -0.127     30.219 
 H                     18.986   -0.036     28.015 
 H                     18.794    0.619     26.538 
 H                     19.       1.802     27.821 
 H                     25.892    0.579     24.767 
 H                     28.077   -1.272     25.39 
 H                     24.793   -1.697     24.158 
 H                     26.422   -2.437     24.605 
 H                     26.304   -1.381     23.283 
 H                     28.624    1.436     26.331 
 H                     27.8      1.633     24.787 
 H                     30.564    1.447     24.714 
 H                     29.559    0.735     23.542 
 H                     30.073   -0.334     24.814 
 H                     31.584   -1.258     28.563 
 H                     31.892   -1.844     30.177 
 H                     32.256   -0.264     29.972 
 H                     28.914    0.112     34.325 
 H                     30.004   -2.712     37.306 
 H                     28.868   -3.648     36.477 
 H                     28.34    -2.05      37.211 
 H                     26.917   -1.394     39.517 
 H                     25.212   -0.881     39.272 
 H                     26.848   -0.22      41.494 
 H                     22.882   -0.12      40.892 
 H                     23.569    1.013     39.798 
 H                     22.959    1.577     41.292 
 H                     24.287    1.914     43.033 
 H                     25.98     1.422     43.152 
 H                     25.402    0.007     44.626 
 H                     24.663   -0.963     43.466 
 H                     22.824   -0.931     44.49 
 H                     22.582    0.757     43.849 
 H                     24.202    0.747     46.22 
 H                     21.618   -0.279     47.363 
 H                     23.334   -0.601     47.806 
 H                     22.578   -1.523     46.527 
 H                     21.382    1.926     46.393 
 H                     22.648    2.628     45.41 
 H                     23.853    3.504     46.94 
 H                     23.788    2.003     47.918 
 H                     21.615    2.394     48.708 
 H                     21.546    3.829     47.626 
 H                     23.727    4.343     49.43 
 H                     22.401    2.546     50.765 
 H                     21.417    3.833     51.268 
 H                     23.045    3.895     51.604 
 H                     22.291    5.927     50.323 
 H                     21.043    5.692     49.297 
 H                     22.772    5.95      47.224 
 H                     23.783    6.848     48.438 
 H                     21.817    8.25      48.771 
 H                     21.08     7.362     47.389 
 H                     23.561    8.157     46.52 
 H                     22.962    10.018    48.552 
 H                     22.642    10.875    46.992 
 H                     24.221    10.248    47.41 
 H                     22.312    8.302     44.776 
 H                     21.811    10.036    45.255 
 H                     20.825    8.698     45.506 
 
 ITRead=  0  0  0  0  0  0  0  0  0  0  0  0  0  0  0  0  0  0  0  0
 ITRead=  0  0  0  0  0  0  0  0  0  0  0  0  0  0  0  0  0  0  0  0
 ITRead=  0  0  0  0  0  0  0  0  0  0  0  0  0  0  0  0  0  0  0  0
 ITRead=  0  0  0  0  0  0  0  0  0  0  0  0  0  0  0  0  0  0  0  0
 ITRead=  0  0  0  0  0  0  0  0  0  0  0  0  0  0  0  0  0  0  0  0
 ITRead=  0  0  0  0  0  0  0  0  0  0  0  0  0  0  0  0  0  0  0  0
 ITRead=  0  0  0  0  0  0  0  0  0  0  0  0  0  0  0  0  0  0  0  0
 MicOpt= -1 -1 -1 -1 -1 -1 -1 -1 -1 -1 -1 -1 -1 -1 -1 -1 -1 -1 -1 -1
 MicOpt= -1 -1 -1 -1 -1 -1 -1 -1 -1 -1 -1 -1 -1 -1 -1 -1 -1 -1 -1 -1
 MicOpt= -1 -1 -1 -1 -1 -1 -1 -1 -1 -1 -1 -1 -1 -1 -1 -1 -1 -1 -1 -1
 MicOpt= -1 -1 -1 -1 -1 -1 -1 -1 -1 -1 -1 -1 -1 -1 -1 -1 -1 -1 -1 -1
 MicOpt= -1 -1 -1 -1 -1 -1 -1 -1 -1 -1 -1 -1 -1 -1 -1 -1 -1 -1 -1 -1
 MicOpt= -1 -1 -1 -1 -1 -1 -1 -1 -1 -1 -1 -1 -1 -1 -1 -1 -1 -1 -1 -1
 MicOpt= -1 -1 -1 -1 -1 -1 -1 -1 -1 -1 -1 -1 -1 -1 -1 -1 -1 -1 -1 -1
 NAtoms=    140 NQM=      140 NQMF=       0 NMMI=      0 NMMIF=      0
                NMic=       0 NMicF=      0.
                    Isotopes and Nuclear Properties:
 (Nuclear quadrupole moments (NQMom) in fm**2, nuclear magnetic moments (NMagM)
  in nuclear magnetons)

  Atom         1           2           3           4           5           6           7           8           9          10
 IAtWgt=          24          12          12          12          12          14          12          12          12          12
 AtmWgt=  23.9850450  12.0000000  12.0000000  12.0000000  12.0000000  14.0030740  12.0000000  12.0000000  12.0000000  12.0000000
 NucSpn=           0           0           0           0           0           2           0           0           0           0
 AtZEff=  -0.0000000  -0.0000000  -0.0000000  -0.0000000  -0.0000000  -0.0000000  -0.0000000  -0.0000000  -0.0000000  -0.0000000
 NQMom=    0.0000000   0.0000000   0.0000000   0.0000000   0.0000000   2.0440000   0.0000000   0.0000000   0.0000000   0.0000000
 NMagM=    0.0000000   0.0000000   0.0000000   0.0000000   0.0000000   0.4037610   0.0000000   0.0000000   0.0000000   0.0000000
 AtZNuc=  12.0000000   6.0000000   6.0000000   6.0000000   6.0000000   7.0000000   6.0000000   6.0000000   6.0000000   6.0000000

  Atom        11          12          13          14          15          16          17          18          19          20
 IAtWgt=          12          12          12          12          16          16          14          12          12          12
 AtmWgt=  12.0000000  12.0000000  12.0000000  12.0000000  15.9949146  15.9949146  14.0030740  12.0000000  12.0000000  12.0000000
 NucSpn=           0           0           0           0           0           0           2           0           0           0
 AtZEff=  -0.0000000  -0.0000000  -0.0000000  -0.0000000  -0.0000000  -0.0000000  -0.0000000  -0.0000000  -0.0000000  -0.0000000
 NQMom=    0.0000000   0.0000000   0.0000000   0.0000000   0.0000000   0.0000000   2.0440000   0.0000000   0.0000000   0.0000000
 NMagM=    0.0000000   0.0000000   0.0000000   0.0000000   0.0000000   0.0000000   0.4037610   0.0000000   0.0000000   0.0000000
 AtZNuc=   6.0000000   6.0000000   6.0000000   6.0000000   8.0000000   8.0000000   7.0000000   6.0000000   6.0000000   6.0000000

  Atom        21          22          23          24          25          26          27          28          29          30
 IAtWgt=          12          12          12          16          12          14          12          12          12          12
 AtmWgt=  12.0000000  12.0000000  12.0000000  15.9949146  12.0000000  14.0030740  12.0000000  12.0000000  12.0000000  12.0000000
 NucSpn=           0           0           0           0           0           2           0           0           0           0
 AtZEff=  -0.0000000  -0.0000000  -0.0000000  -0.0000000  -0.0000000  -0.0000000  -0.0000000  -0.0000000  -0.0000000  -0.0000000
 NQMom=    0.0000000   0.0000000   0.0000000   0.0000000   0.0000000   2.0440000   0.0000000   0.0000000   0.0000000   0.0000000
 NMagM=    0.0000000   0.0000000   0.0000000   0.0000000   0.0000000   0.4037610   0.0000000   0.0000000   0.0000000   0.0000000
 AtZNuc=   6.0000000   6.0000000   6.0000000   8.0000000   6.0000000   7.0000000   6.0000000   6.0000000   6.0000000   6.0000000

  Atom        31          32          33          34          35          36          37          38          39          40
 IAtWgt=          12          12          12          14          12          12          12          12          12          12
 AtmWgt=  12.0000000  12.0000000  12.0000000  14.0030740  12.0000000  12.0000000  12.0000000  12.0000000  12.0000000  12.0000000
 NucSpn=           0           0           0           2           0           0           0           0           0           0
 AtZEff=  -0.0000000  -0.0000000  -0.0000000  -0.0000000  -0.0000000  -0.0000000  -0.0000000  -0.0000000  -0.0000000  -0.0000000
 NQMom=    0.0000000   0.0000000   0.0000000   2.0440000   0.0000000   0.0000000   0.0000000   0.0000000   0.0000000   0.0000000
 NMagM=    0.0000000   0.0000000   0.0000000   0.4037610   0.0000000   0.0000000   0.0000000   0.0000000   0.0000000   0.0000000
 AtZNuc=   6.0000000   6.0000000   6.0000000   7.0000000   6.0000000   6.0000000   6.0000000   6.0000000   6.0000000   6.0000000

  Atom        41          42          43          44          45          46          47          48          49          50
 IAtWgt=          16          12          12          16          16          12          12          12          12          12
 AtmWgt=  15.9949146  12.0000000  12.0000000  15.9949146  15.9949146  12.0000000  12.0000000  12.0000000  12.0000000  12.0000000
 NucSpn=           0           0           0           0           0           0           0           0           0           0
 AtZEff=  -0.0000000  -0.0000000  -0.0000000  -0.0000000  -0.0000000  -0.0000000  -0.0000000  -0.0000000  -0.0000000  -0.0000000
 NQMom=    0.0000000   0.0000000   0.0000000   0.0000000   0.0000000   0.0000000   0.0000000   0.0000000   0.0000000   0.0000000
 NMagM=    0.0000000   0.0000000   0.0000000   0.0000000   0.0000000   0.0000000   0.0000000   0.0000000   0.0000000   0.0000000
 AtZNuc=   8.0000000   6.0000000   6.0000000   8.0000000   8.0000000   6.0000000   6.0000000   6.0000000   6.0000000   6.0000000

  Atom        51          52          53          54          55          56          57          58          59          60
 IAtWgt=          12          12          12          12          12          12          12          12          12          12
 AtmWgt=  12.0000000  12.0000000  12.0000000  12.0000000  12.0000000  12.0000000  12.0000000  12.0000000  12.0000000  12.0000000
 NucSpn=           0           0           0           0           0           0           0           0           0           0
 AtZEff=  -0.0000000  -0.0000000  -0.0000000  -0.0000000  -0.0000000  -0.0000000  -0.0000000  -0.0000000  -0.0000000  -0.0000000
 NQMom=    0.0000000   0.0000000   0.0000000   0.0000000   0.0000000   0.0000000   0.0000000   0.0000000   0.0000000   0.0000000
 NMagM=    0.0000000   0.0000000   0.0000000   0.0000000   0.0000000   0.0000000   0.0000000   0.0000000   0.0000000   0.0000000
 AtZNuc=   6.0000000   6.0000000   6.0000000   6.0000000   6.0000000   6.0000000   6.0000000   6.0000000   6.0000000   6.0000000

  Atom        61          62          63          64          65          66          67          68          69          70
 IAtWgt=          12          12          12          12          12          12           1           1           1           1
 AtmWgt=  12.0000000  12.0000000  12.0000000  12.0000000  12.0000000  12.0000000   1.0078250   1.0078250   1.0078250   1.0078250
 NucSpn=           0           0           0           0           0           0           1           1           1           1
 AtZEff=  -0.0000000  -0.0000000  -0.0000000  -0.0000000  -0.0000000  -0.0000000  -0.0000000  -0.0000000  -0.0000000  -0.0000000
 NQMom=    0.0000000   0.0000000   0.0000000   0.0000000   0.0000000   0.0000000   0.0000000   0.0000000   0.0000000   0.0000000
 NMagM=    0.0000000   0.0000000   0.0000000   0.0000000   0.0000000   0.0000000   2.7928460   2.7928460   2.7928460   2.7928460
 AtZNuc=   6.0000000   6.0000000   6.0000000   6.0000000   6.0000000   6.0000000   1.0000000   1.0000000   1.0000000   1.0000000

  Atom        71          72          73          74          75          76          77          78          79          80
 IAtWgt=           1           1           1           1           1           1           1           1           1           1
 AtmWgt=   1.0078250   1.0078250   1.0078250   1.0078250   1.0078250   1.0078250   1.0078250   1.0078250   1.0078250   1.0078250
 NucSpn=           1           1           1           1           1           1           1           1           1           1
 AtZEff=  -0.0000000  -0.0000000  -0.0000000  -0.0000000  -0.0000000  -0.0000000  -0.0000000  -0.0000000  -0.0000000  -0.0000000
 NQMom=    0.0000000   0.0000000   0.0000000   0.0000000   0.0000000   0.0000000   0.0000000   0.0000000   0.0000000   0.0000000
 NMagM=    2.7928460   2.7928460   2.7928460   2.7928460   2.7928460   2.7928460   2.7928460   2.7928460   2.7928460   2.7928460
 AtZNuc=   1.0000000   1.0000000   1.0000000   1.0000000   1.0000000   1.0000000   1.0000000   1.0000000   1.0000000   1.0000000

  Atom        81          82          83          84          85          86          87          88          89          90
 IAtWgt=           1           1           1           1           1           1           1           1           1           1
 AtmWgt=   1.0078250   1.0078250   1.0078250   1.0078250   1.0078250   1.0078250   1.0078250   1.0078250   1.0078250   1.0078250
 NucSpn=           1           1           1           1           1           1           1           1           1           1
 AtZEff=  -0.0000000  -0.0000000  -0.0000000  -0.0000000  -0.0000000  -0.0000000  -0.0000000  -0.0000000  -0.0000000  -0.0000000
 NQMom=    0.0000000   0.0000000   0.0000000   0.0000000   0.0000000   0.0000000   0.0000000   0.0000000   0.0000000   0.0000000
 NMagM=    2.7928460   2.7928460   2.7928460   2.7928460   2.7928460   2.7928460   2.7928460   2.7928460   2.7928460   2.7928460
 AtZNuc=   1.0000000   1.0000000   1.0000000   1.0000000   1.0000000   1.0000000   1.0000000   1.0000000   1.0000000   1.0000000

  Atom        91          92          93          94          95          96          97          98          99         100
 IAtWgt=           1           1           1           1           1           1           1           1           1           1
 AtmWgt=   1.0078250   1.0078250   1.0078250   1.0078250   1.0078250   1.0078250   1.0078250   1.0078250   1.0078250   1.0078250
 NucSpn=           1           1           1           1           1           1           1           1           1           1
 AtZEff=  -0.0000000  -0.0000000  -0.0000000  -0.0000000  -0.0000000  -0.0000000  -0.0000000  -0.0000000  -0.0000000  -0.0000000
 NQMom=    0.0000000   0.0000000   0.0000000   0.0000000   0.0000000   0.0000000   0.0000000   0.0000000   0.0000000   0.0000000
 NMagM=    2.7928460   2.7928460   2.7928460   2.7928460   2.7928460   2.7928460   2.7928460   2.7928460   2.7928460   2.7928460
 AtZNuc=   1.0000000   1.0000000   1.0000000   1.0000000   1.0000000   1.0000000   1.0000000   1.0000000   1.0000000   1.0000000

  Atom       101         102         103         104         105         106         107         108         109         110
 IAtWgt=           1           1           1           1           1           1           1           1           1           1
 AtmWgt=   1.0078250   1.0078250   1.0078250   1.0078250   1.0078250   1.0078250   1.0078250   1.0078250   1.0078250   1.0078250
 NucSpn=           1           1           1           1           1           1           1           1           1           1
 AtZEff=  -0.0000000  -0.0000000  -0.0000000  -0.0000000  -0.0000000  -0.0000000  -0.0000000  -0.0000000  -0.0000000  -0.0000000
 NQMom=    0.0000000   0.0000000   0.0000000   0.0000000   0.0000000   0.0000000   0.0000000   0.0000000   0.0000000   0.0000000
 NMagM=    2.7928460   2.7928460   2.7928460   2.7928460   2.7928460   2.7928460   2.7928460   2.7928460   2.7928460   2.7928460
 AtZNuc=   1.0000000   1.0000000   1.0000000   1.0000000   1.0000000   1.0000000   1.0000000   1.0000000   1.0000000   1.0000000

  Atom       111         112         113         114         115         116         117         118         119         120
 IAtWgt=           1           1           1           1           1           1           1           1           1           1
 AtmWgt=   1.0078250   1.0078250   1.0078250   1.0078250   1.0078250   1.0078250   1.0078250   1.0078250   1.0078250   1.0078250
 NucSpn=           1           1           1           1           1           1           1           1           1           1
 AtZEff=  -0.0000000  -0.0000000  -0.0000000  -0.0000000  -0.0000000  -0.0000000  -0.0000000  -0.0000000  -0.0000000  -0.0000000
 NQMom=    0.0000000   0.0000000   0.0000000   0.0000000   0.0000000   0.0000000   0.0000000   0.0000000   0.0000000   0.0000000
 NMagM=    2.7928460   2.7928460   2.7928460   2.7928460   2.7928460   2.7928460   2.7928460   2.7928460   2.7928460   2.7928460
 AtZNuc=   1.0000000   1.0000000   1.0000000   1.0000000   1.0000000   1.0000000   1.0000000   1.0000000   1.0000000   1.0000000

  Atom       121         122         123         124         125         126         127         128         129         130
 IAtWgt=           1           1           1           1           1           1           1           1           1           1
 AtmWgt=   1.0078250   1.0078250   1.0078250   1.0078250   1.0078250   1.0078250   1.0078250   1.0078250   1.0078250   1.0078250
 NucSpn=           1           1           1           1           1           1           1           1           1           1
 AtZEff=  -0.0000000  -0.0000000  -0.0000000  -0.0000000  -0.0000000  -0.0000000  -0.0000000  -0.0000000  -0.0000000  -0.0000000
 NQMom=    0.0000000   0.0000000   0.0000000   0.0000000   0.0000000   0.0000000   0.0000000   0.0000000   0.0000000   0.0000000
 NMagM=    2.7928460   2.7928460   2.7928460   2.7928460   2.7928460   2.7928460   2.7928460   2.7928460   2.7928460   2.7928460
 AtZNuc=   1.0000000   1.0000000   1.0000000   1.0000000   1.0000000   1.0000000   1.0000000   1.0000000   1.0000000   1.0000000

  Atom       131         132         133         134         135         136         137         138         139         140
 IAtWgt=           1           1           1           1           1           1           1           1           1           1
 AtmWgt=   1.0078250   1.0078250   1.0078250   1.0078250   1.0078250   1.0078250   1.0078250   1.0078250   1.0078250   1.0078250
 NucSpn=           1           1           1           1           1           1           1           1           1           1
 AtZEff=  -0.0000000  -0.0000000  -0.0000000  -0.0000000  -0.0000000  -0.0000000  -0.0000000  -0.0000000  -0.0000000  -0.0000000
 NQMom=    0.0000000   0.0000000   0.0000000   0.0000000   0.0000000   0.0000000   0.0000000   0.0000000   0.0000000   0.0000000
 NMagM=    2.7928460   2.7928460   2.7928460   2.7928460   2.7928460   2.7928460   2.7928460   2.7928460   2.7928460   2.7928460
 AtZNuc=   1.0000000   1.0000000   1.0000000   1.0000000   1.0000000   1.0000000   1.0000000   1.0000000   1.0000000   1.0000000
 Leave Link  101 at Wed Apr 27 15:03:48 2022, MaxMem= 10066329600 cpu:               3.2 elap:               0.2
 (Enter /sw/apps/gaussian-16.0/g16/l202.exe)
 Stoichiometry    C55H74MgN4O6
 Framework group  C1[X(C55H74MgN4O6)]
 Deg. of freedom   414
 Full point group                 C1      NOp   1
 Largest Abelian subgroup         C1      NOp   1
 Largest concise Abelian subgroup C1      NOp   1
                         Standard orientation:                         
 ---------------------------------------------------------------------
 Center     Atomic      Atomic             Coordinates (Angstroms)
 Number     Number       Type             X           Y           Z
 ---------------------------------------------------------------------
      1         12           0        6.111836    0.592652    0.465896
      2          6           0        3.609593   -1.977902    0.328507
      3          6           0        3.654679    2.594902   -1.208061
      4          6           0        8.494175    2.794604   -0.202900
      5          6           0        8.425614   -1.836699    1.177987
      6          7           0        3.871108    0.323603   -0.358508
      7          6           0        3.069754   -0.792709   -0.128562
      8          6           0        1.647571   -0.512181   -0.451361
      9          6           0        1.771308    0.794544   -1.318794
     10          6           0        3.181243    1.286881   -0.913734
     11          6           0        1.831246    0.609630   -2.859070
     12          6           0        0.788929   -0.399234    0.873879
     13          6           0       -0.554615   -1.148055    0.895842
     14          6           0       -1.442545   -1.184989   -0.316730
     15          8           0       -1.346851   -0.433453   -1.272410
     16          8           0       -2.377452   -2.222259   -0.177673
     17          7           0        6.061410    2.488758   -0.379767
     18          6           0        4.919431    3.111063   -0.956896
     19          6           0        5.303470    4.504447   -1.279031
     20          6           0        6.667616    4.640390   -0.936171
     21          6           0        7.139563    3.215966   -0.541976
     22          6           0        4.294794    5.547654   -1.755723
     23          6           0        7.530284    5.885079   -1.048044
     24          8           0        8.693438    5.854277   -0.888727
     25          6           0        6.909283    7.179933   -1.697550
     26          7           0        8.227168    0.453636    0.249800
     27          6           0        8.980042    1.544487    0.121064
     28          6           0       10.431571    1.280059    0.701313
     29          6           0       10.207682   -0.124103    1.360732
     30          6           0        8.863728   -0.530857    0.965639
     31          6           0       11.596034    1.277972   -0.366950
     32          6           0       10.389089   -0.159971    2.889781
     33          6           0       11.403424   -1.260068    3.380561
     34          7           0        6.077227   -1.404766    0.777591
     35          6           0        7.077315   -2.277873    1.110726
     36          6           0        6.571556   -3.548525    1.465309
     37          6           0        5.220987   -3.483601    1.128235
     38          6           0        4.974536   -2.175834    0.645685
     39          6           0        7.264663   -4.738019    2.071225
     40          6           0        3.979610   -4.289521    1.096993
     41          8           0        3.772449   -5.429719    1.449860
     42          6           0        2.876518   -3.320637    0.512056
     43          6           0        2.379307   -3.948132   -0.687405
     44          8           0        2.675454   -3.602423   -1.815007
     45          8           0        1.448669   -4.908097   -0.363383
     46          6           0        0.452105   -5.096202   -1.363531
     47          6           0       -3.281727   -2.429387   -1.294126
     48          6           0       -4.711397   -2.289969   -0.922665
     49          6           0       -5.546725   -1.262023   -1.042819
     50          6           0       -5.240532    0.147295   -1.531837
     51          6           0       -7.061428   -1.493097   -0.849755
     52          6           0       -7.851617   -1.833950   -2.092225
     53          6           0       -8.656530   -0.718950   -2.737840
     54          6           0      -10.213347   -0.899917   -2.545634
     55          6           0      -10.988541   -1.134446   -3.874279
     56          6           0      -10.851281    0.234454   -1.669779
     57          6           0      -11.959815   -0.361469   -0.783058
     58          6           0      -13.117411    0.506707   -0.948190
     59          6           0      -14.307622    0.218153   -0.041625
     60          6           0      -15.613301   -0.111268   -0.806123
     61          6           0      -14.667868    1.316842    1.017834
     62          6           0      -13.677720    1.401962    2.237000
     63          6           0      -13.753443    2.719666    3.038629
     64          6           0      -12.866660    2.793416    4.258224
     65          6           0      -13.764419    2.749258    5.597844
     66          6           0      -11.845956    3.900798    4.324113
     67          1           0        2.870502    3.272561   -1.551840
     68          1           0        9.336673    3.476070   -0.336693
     69          1           0        9.139048   -2.596763    1.502196
     70          1           0        1.299485   -1.355657   -1.047539
     71          1           0        1.089964    1.563563   -0.952768
     72          1           0        2.805762    0.876866   -3.268477
     73          1           0        1.130003    1.283653   -3.349515
     74          1           0        1.668338   -0.428726   -3.149218
     75          1           0        0.625137    0.667818    1.025844
     76          1           0        1.445872   -0.704186    1.687814
     77          1           0       -1.225404   -0.708884    1.633474
     78          1           0       -0.325128   -2.165540    1.211172
     79          1           0        4.303576    6.424926   -1.110791
     80          1           0        3.293713    5.117915   -1.737616
     81          1           0        4.518224    5.865063   -2.774471
     82          1           0        6.513238    6.979859   -2.692887
     83          1           0        7.750595    7.793605   -2.018958
     84          1           0        6.285027    7.793989   -1.049358
     85          1           0       10.633777    2.038265    1.457097
     86          1           0       10.816984   -0.803649    0.765347
     87          1           0       11.552514    2.184462   -0.970537
     88          1           0       11.560765    0.340910   -0.922625
     89          1           0       12.570677    1.221148    0.117568
     90          1           0        9.390322   -0.369347    3.274126
     91          1           0       10.691270    0.817715    3.262293
     92          1           0       11.260786   -1.649771    4.387808
     93          1           0       12.380839   -0.782786    3.447398
     94          1           0       11.487379   -2.000878    2.585470
     95          1           0        8.348554   -4.645281    1.996563
     96          1           0        6.983250   -5.565107    1.419396
     97          1           0        6.881998   -5.162204    3.000009
     98          1           0        2.065819   -3.181278    1.228203
     99          1           0        0.025258   -6.071042   -1.124417
    100          1           0        0.845213   -5.270543   -2.365669
    101          1           0       -0.308949   -4.318044   -1.301809
    102          1           0       -2.906413   -3.377887   -1.678885
    103          1           0       -3.069651   -1.614727   -1.986845
    104          1           0       -5.081541   -3.315380   -0.932910
    105          1           0       -5.182551    0.331275   -2.604217
    106          1           0       -4.275752    0.486047   -1.152923
    107          1           0       -5.938493    0.882330   -1.130912
    108          1           0       -7.466213   -0.566926   -0.442462
    109          1           0       -7.188788   -2.279240   -0.105578
    110          1           0       -8.378341   -2.743300   -1.802221
    111          1           0       -7.167303   -2.220142   -2.847358
    112          1           0       -8.461643   -0.861183   -3.801000
    113          1           0       -8.269164    0.224192   -2.350585
    114          1           0      -10.274577   -1.783743   -1.911657
    115          1           0      -11.566508   -0.253486   -4.153399
    116          1           0      -11.634798   -1.994912   -3.698031
    117          1           0      -10.323238   -1.406878   -4.693765
    118          1           0      -11.174481    1.127723   -2.204758
    119          1           0      -10.180709    0.568123   -0.877688
    120          1           0      -11.648467   -0.493157    0.253537
    121          1           0      -12.257588   -1.316321   -1.217885
    122          1           0      -13.463988    0.543942   -1.981385
    123          1           0      -12.762252    1.481877   -0.616630
    124          1           0      -14.249450   -0.651065    0.613887
    125          1           0      -15.342730   -0.590625   -1.746366
    126          1           0      -16.280106    0.685140   -1.136952
    127          1           0      -16.347319   -0.790392   -0.371829
    128          1           0      -15.703267    1.046480    1.224917
    129          1           0      -14.871697    2.290429    0.571858
    130          1           0      -12.654473    1.412314    1.862657
    131          1           0      -13.856017    0.608311    2.963654
    132          1           0      -14.818763    2.830429    3.241073
    133          1           0      -13.412908    3.442063    2.297084
    134          1           0      -12.348630    1.835227    4.253596
    135          1           0      -14.819993    2.636258    5.349890
    136          1           0      -13.569947    3.667712    6.152346
    137          1           0      -13.567755    1.922774    6.279935
    138          1           0      -10.914244    3.420410    4.024915
    139          1           0      -11.850024    4.470718    5.253070
    140          1           0      -11.950696    4.700390    3.590976
 ---------------------------------------------------------------------
 Rotational constants (GHZ):           0.0490152           0.0081901           0.0076404
 Leave Link  202 at Wed Apr 27 15:03:48 2022, MaxMem= 10066329600 cpu:               0.2 elap:               0.0
 (Enter /sw/apps/gaussian-16.0/g16/l301.exe)
 Standard basis: def2SVP (5D, 7F)
 Ernie: Thresh=  0.10000D-02 Tol=  0.10000D-05 Strict=F.
 There are  1364 symmetry adapted cartesian basis functions of A   symmetry.
 There are  1298 symmetry adapted basis functions of A   symmetry.
  1298 basis functions,  2180 primitive gaussians,  1364 cartesian basis functions
   246 alpha electrons      246 beta electrons
       nuclear repulsion energy      9390.6908548232 Hartrees.
 IExCor= 4639 DFT=T Ex+Corr=wB97XD ExCW=0 ScaHFX=  1.000000
 ScaDFX=  1.000000  1.000000  1.000000  1.000000 ScalE2=  1.000000  1.000000
 IRadAn=      5 IRanWt=     -1 IRanGd=            0 ICorTp=0 IEmpDi=121
 HFx  wShort=  0.000000 wLong=  0.200000 cFull=  0.222036 cShort=  0.000000 cLong=  0.777964
 DFx  wShort=  0.000000 wLong=  0.200000 cFull=  0.000000 cShort=  0.000000 cLong=  1.000000
 NAtoms=  140 NActive=  140 NUniq=  140 SFac= 1.00D+00 NAtFMM=   60 NAOKFM=T Big=T
 Integral buffers will be    131072 words long.
 Raffenetti 1 integral format.
 Two-electron integral symmetry is turned on.
 R6Disp:  Grimme-D2 Dispersion energy=       -0.1337134896 Hartrees.
 Nuclear repulsion after empirical dispersion term =     9390.5571413335 Hartrees.
 Leave Link  301 at Wed Apr 27 15:03:48 2022, MaxMem= 10066329600 cpu:               1.3 elap:               0.1
 (Enter /sw/apps/gaussian-16.0/g16/l302.exe)
 NPDir=0 NMtPBC=     1 NCelOv=     1 NCel=       1 NClECP=     1 NCelD=      1
         NCelK=      1 NCelE2=     1 NClLst=     1 CellRange=     0.0.
 One-electron integrals computed using PRISM.
 One-electron integral symmetry used in STVInt
   1 Symmetry operations used in ECPInt.
 ECPInt:  NShTT=  192510 NPrTT=  683786 LenC2=   89844 LenP2D=  199444.
 LDataN:  DoStor=T MaxTD1= 4 Len=   56
 NBasis=  1298 RedAO= T EigKep=  2.65D-04  NBF=  1298
 NBsUse=  1298 1.00D-06 EigRej= -1.00D+00 NBFU=  1298
 Precomputing XC quadrature grid using
 IXCGrd= 4 IRadAn=           5 IRanWt=          -1 IRanGd=           0 AccXCQ= 0.00D+00.
 Generated NRdTot=       0 NPtTot=           0 NUsed=           0 NTot=          32
 NSgBfM=   984   971   980   980   984 MxSgAt=   140 MxSgA2=   140.
 Leave Link  302 at Wed Apr 27 15:03:52 2022, MaxMem= 10066329600 cpu:              74.6 elap:               3.1
 (Enter /sw/apps/gaussian-16.0/g16/l303.exe)
 DipDrv:  MaxL=1.
 Leave Link  303 at Wed Apr 27 15:03:52 2022, MaxMem= 10066329600 cpu:               6.5 elap:               0.3
 (Enter /sw/apps/gaussian-16.0/g16/l308.exe)
 Leave Link  308 at Wed Apr 27 15:03:52 2022, MaxMem= 10066329600 cpu:              10.1 elap:               0.5
 (Enter /sw/apps/gaussian-16.0/g16/l401.exe)
 ExpMin= 3.36D-02 ExpMax= 4.95D+03 ExpMxC= 7.45D+02 IAcc=3 IRadAn=         5 AccDes= 0.00D+00
 Harris functional with IExCor= 4639 and IRadAn=       5 diagonalized for initial guess.
 HarFok:  IExCor= 4639 AccDes= 0.00D+00 IRadAn=         5 IDoV= 1 UseB2=F ITyADJ=14
 ICtDFT=  3500011 ScaDFX=  1.000000  1.000000  1.000000  1.000000
 FoFCou: FMM=F IPFlag=           0 FMFlag=      100000 FMFlg1=        2001
         NFxFlg=           0 DoJE=T BraDBF=F KetDBF=T FulRan=T
         wScrn=  0.000000 ICntrl=       500 IOpCl=  0 I1Cent=   200000004 NGrid=           0
         NMat0=    1 NMatS0=      1 NMatT0=    0 NMatD0=    1 NMtDS0=    0 NMtDT0=    0
 Petite list used in FoFCou.
 Harris En= -2877.95664908645    
 JPrj=0 DoOrth=F DoCkMO=F.
 Leave Link  401 at Wed Apr 27 15:03:58 2022, MaxMem= 10066329600 cpu:             135.3 elap:               5.7
 (Enter /sw/apps/gaussian-16.0/g16/l502.exe)
 Integral symmetry usage will be decided dynamically.
 Closed shell SCF:
 Using DIIS extrapolation, IDIIS=  1040.
 NGot= 10066329600 LenX= 10062561258 LenY= 10060699398
 Requested convergence on RMS density matrix=1.00D-08 within 128 cycles.
 Requested convergence on MAX density matrix=1.00D-06.
 Requested convergence on             energy=1.00D-06.
 No special actions if energy rises.
 Fock matrices will be formed incrementally for  20 cycles.

 Cycle   1  Pass 1  IDiag  1:
 FoFJK:  IHMeth= 1 ICntrl=       0 DoSepK=T KAlg= 0 I1Cent=           0 FoldK=F
 IRaf=         1 NMat=       1 IRICut=       1 DoRegI=T DoRafI=F ISym2E= 0 IDoP0=0 IntGTp=1.
 FoFCou: FMM=T IPFlag=           0 FMFlag=      100000 FMFlg1=        2001
         NFxFlg=           0 DoJE=T BraDBF=F KetDBF=F FulRan=T
         wScrn=  0.000000 ICntrl=       500 IOpCl=  0 I1Cent=           0 NGrid=           0
         NMat0=    1 NMatS0=      1 NMatT0=    0 NMatD0=    1 NMtDS0=    0 NMtDT0=    0
 Symmetry not used in FoFCou.
 FMM levels:  10  Number of levels for PrismC:   9
 E= -3007.20491393546    
 DIIS: error= 2.32D-02 at cycle   1 NSaved=   1.
 NSaved= 1 IEnMin= 1 EnMin= -3007.20491393546     IErMin= 1 ErrMin= 2.32D-02
 ErrMax= 2.32D-02  0.00D+00 EMaxC= 1.00D-01 BMatC= 1.46D+00 BMatP= 1.46D+00
 IDIUse=3 WtCom= 7.68D-01 WtEn= 2.32D-01
 Coeff-Com:  0.100D+01
 Coeff-En:   0.100D+01
 Coeff:      0.100D+01
 Gap=     0.147 Goal=   None    Shift=    0.000
 GapD=    0.147 DampG=1.000 DampE=0.500 DampFc=0.5000 IDamp=-1.
 Damping current iteration by 5.00D-01
 RMSDP=1.50D-03 MaxDP=1.70D-01              OVMax= 1.86D-01

 Cycle   2  Pass 1  IDiag  1:
 RMSU=  7.39D-04    CP:  9.87D-01
 E= -3007.51791106476     Delta-E=       -0.312997129296 Rises=F Damp=T
 DIIS: error= 1.24D-02 at cycle   2 NSaved=   2.
 NSaved= 2 IEnMin= 2 EnMin= -3007.51791106476     IErMin= 2 ErrMin= 1.24D-02
 ErrMax= 1.24D-02  0.00D+00 EMaxC= 1.00D-01 BMatC= 2.86D-01 BMatP= 1.46D+00
 IDIUse=3 WtCom= 8.76D-01 WtEn= 1.24D-01
 Coeff-Com: -0.391D+00 0.139D+01
 Coeff-En:   0.000D+00 0.100D+01
 Coeff:     -0.343D+00 0.134D+01
 Gap=     0.177 Goal=   None    Shift=    0.000
 RMSDP=6.96D-04 MaxDP=7.80D-02 DE=-3.13D-01 OVMax= 1.72D-01

 Cycle   3  Pass 1  IDiag  1:
 RMSU=  6.42D-04    CP:  9.79D-01  1.35D+00
 E= -3007.74612245152     Delta-E=       -0.228211386766 Rises=F Damp=F
 DIIS: error= 1.54D-02 at cycle   3 NSaved=   3.
 NSaved= 3 IEnMin= 3 EnMin= -3007.74612245152     IErMin= 2 ErrMin= 1.24D-02
 ErrMax= 1.54D-02  0.00D+00 EMaxC= 1.00D-01 BMatC= 1.24D-01 BMatP= 2.86D-01
 IDIUse=3 WtCom= 8.46D-01 WtEn= 1.54D-01
 Coeff-Com: -0.318D+00 0.697D+00 0.622D+00
 Coeff-En:   0.000D+00 0.000D+00 0.100D+01
 Coeff:     -0.269D+00 0.589D+00 0.680D+00
 Gap=     0.159 Goal=   None    Shift=    0.000
 RMSDP=4.20D-04 MaxDP=4.27D-02 DE=-2.28D-01 OVMax= 1.11D-01

 Cycle   4  Pass 1  IDiag  1:
 RMSU=  2.15D-04    CP:  9.75D-01  1.65D+00  5.60D-01
 E= -3007.83587692783     Delta-E=       -0.089754476301 Rises=F Damp=F
 DIIS: error= 5.79D-03 at cycle   4 NSaved=   4.
 NSaved= 4 IEnMin= 4 EnMin= -3007.83587692783     IErMin= 4 ErrMin= 5.79D-03
 ErrMax= 5.79D-03  0.00D+00 EMaxC= 1.00D-01 BMatC= 2.05D-02 BMatP= 1.24D-01
 IDIUse=3 WtCom= 9.42D-01 WtEn= 5.79D-02
 Coeff-Com: -0.118D+00 0.237D+00 0.378D+00 0.504D+00
 Coeff-En:   0.000D+00 0.000D+00 0.116D+00 0.884D+00
 Coeff:     -0.111D+00 0.223D+00 0.362D+00 0.526D+00
 Gap=     0.160 Goal=   None    Shift=    0.000
 RMSDP=1.38D-04 MaxDP=1.45D-02 DE=-8.98D-02 OVMax= 3.87D-02

 Cycle   5  Pass 1  IDiag  1:
 RMSU=  6.07D-05    CP:  9.75D-01  1.61D+00  7.01D-01  6.40D-01
 E= -3007.85302459604     Delta-E=       -0.017147668212 Rises=F Damp=F
 DIIS: error= 6.40D-04 at cycle   5 NSaved=   5.
 NSaved= 5 IEnMin= 5 EnMin= -3007.85302459604     IErMin= 5 ErrMin= 6.40D-04
 ErrMax= 6.40D-04  0.00D+00 EMaxC= 1.00D-01 BMatC= 4.39D-04 BMatP= 2.05D-02
 IDIUse=3 WtCom= 9.94D-01 WtEn= 6.40D-03
 Coeff-Com: -0.302D-01 0.578D-01 0.122D+00 0.230D+00 0.620D+00
 Coeff-En:   0.000D+00 0.000D+00 0.000D+00 0.000D+00 0.100D+01
 Coeff:     -0.300D-01 0.574D-01 0.122D+00 0.229D+00 0.622D+00
 Gap=     0.160 Goal=   None    Shift=    0.000
 RMSDP=2.58D-05 MaxDP=4.25D-03 DE=-1.71D-02 OVMax= 4.96D-03

 Cycle   6  Pass 1  IDiag  1:
 RMSU=  2.13D-05    CP:  9.75D-01  1.61D+00  7.00D-01  6.96D-01  8.93D-01
 E= -3007.85339297829     Delta-E=       -0.000368382256 Rises=F Damp=F
 DIIS: error= 2.91D-04 at cycle   6 NSaved=   6.
 NSaved= 6 IEnMin= 6 EnMin= -3007.85339297829     IErMin= 6 ErrMin= 2.91D-04
 ErrMax= 2.91D-04  0.00D+00 EMaxC= 1.00D-01 BMatC= 6.39D-05 BMatP= 4.39D-04
 IDIUse=3 WtCom= 9.97D-01 WtEn= 2.91D-03
 Coeff-Com:  0.108D-01-0.231D-01-0.202D-01 0.102D-04 0.289D+00 0.743D+00
 Coeff-En:   0.000D+00 0.000D+00 0.000D+00 0.000D+00 0.000D+00 0.100D+01
 Coeff:      0.108D-01-0.230D-01-0.202D-01 0.102D-04 0.288D+00 0.744D+00
 Gap=     0.161 Goal=   None    Shift=    0.000
 RMSDP=1.27D-05 MaxDP=1.31D-03 DE=-3.68D-04 OVMax= 6.27D-03

 Cycle   7  Pass 1  IDiag  1:
 RMSU=  8.91D-06    CP:  9.75D-01  1.62D+00  7.06D-01  7.10D-01  1.02D+00
                    CP:  9.70D-01
 E= -3007.85348839872     Delta-E=       -0.000095420432 Rises=F Damp=F
 DIIS: error= 8.70D-05 at cycle   7 NSaved=   7.
 NSaved= 7 IEnMin= 7 EnMin= -3007.85348839872     IErMin= 7 ErrMin= 8.70D-05
 ErrMax= 8.70D-05  0.00D+00 EMaxC= 1.00D-01 BMatC= 6.91D-06 BMatP= 6.39D-05
 IDIUse=1 WtCom= 1.00D+00 WtEn= 0.00D+00
 Coeff-Com:  0.654D-02-0.132D-01-0.184D-01-0.229D-01 0.328D-01 0.267D+00
 Coeff-Com:  0.748D+00
 Coeff:      0.654D-02-0.132D-01-0.184D-01-0.229D-01 0.328D-01 0.267D+00
 Coeff:      0.748D+00
 Gap=     0.161 Goal=   None    Shift=    0.000
 RMSDP=6.17D-06 MaxDP=8.87D-04 DE=-9.54D-05 OVMax= 3.18D-03

 Cycle   8  Pass 1  IDiag  1:
 RMSU=  4.05D-06    CP:  9.75D-01  1.62D+00  7.08D-01  7.15D-01  1.05D+00
                    CP:  1.14D+00  1.19D+00
 E= -3007.85351022900     Delta-E=       -0.000021830278 Rises=F Damp=F
 DIIS: error= 8.33D-05 at cycle   8 NSaved=   8.
 NSaved= 8 IEnMin= 8 EnMin= -3007.85351022900     IErMin= 8 ErrMin= 8.33D-05
 ErrMax= 8.33D-05  0.00D+00 EMaxC= 1.00D-01 BMatC= 2.05D-06 BMatP= 6.91D-06
 IDIUse=1 WtCom= 1.00D+00 WtEn= 0.00D+00
 Coeff-Com:  0.708D-03-0.113D-02-0.446D-02-0.110D-01-0.521D-01-0.373D-01
 Coeff-Com:  0.315D+00 0.790D+00
 Coeff:      0.708D-03-0.113D-02-0.446D-02-0.110D-01-0.521D-01-0.373D-01
 Coeff:      0.315D+00 0.790D+00
 Gap=     0.161 Goal=   None    Shift=    0.000
 RMSDP=4.51D-06 MaxDP=2.84D-04 DE=-2.18D-05 OVMax= 3.18D-03

 Cycle   9  Pass 1  IDiag  1:
 RMSU=  2.25D-06    CP:  9.75D-01  1.62D+00  7.08D-01  7.16D-01  1.07D+00
                    CP:  1.21D+00  1.53D+00  1.37D+00
 E= -3007.85352249899     Delta-E=       -0.000012269984 Rises=F Damp=F
 DIIS: error= 5.08D-05 at cycle   9 NSaved=   9.
 NSaved= 9 IEnMin= 9 EnMin= -3007.85352249899     IErMin= 9 ErrMin= 5.08D-05
 ErrMax= 5.08D-05  0.00D+00 EMaxC= 1.00D-01 BMatC= 7.23D-07 BMatP= 2.05D-06
 IDIUse=1 WtCom= 1.00D+00 WtEn= 0.00D+00
 Coeff-Com: -0.206D-02 0.418D-02 0.498D-02 0.594D-02-0.214D-01-0.893D-01
 Coeff-Com: -0.210D+00 0.178D+00 0.113D+01
 Coeff:     -0.206D-02 0.418D-02 0.498D-02 0.594D-02-0.214D-01-0.893D-01
 Coeff:     -0.210D+00 0.178D+00 0.113D+01
 Gap=     0.161 Goal=   None    Shift=    0.000
 RMSDP=4.80D-06 MaxDP=3.24D-04 DE=-1.23D-05 OVMax= 3.39D-03

 Cycle  10  Pass 1  IDiag  1:
 RMSU=  1.32D-06    CP:  9.75D-01  1.62D+00  7.08D-01  7.17D-01  1.08D+00
                    CP:  1.28D+00  1.83D+00  2.07D+00  1.72D+00
 E= -3007.85353077754     Delta-E=       -0.000008278555 Rises=F Damp=F
 DIIS: error= 3.57D-05 at cycle  10 NSaved=  10.
 NSaved=10 IEnMin=10 EnMin= -3007.85353077754     IErMin=10 ErrMin= 3.57D-05
 ErrMax= 3.57D-05  0.00D+00 EMaxC= 1.00D-01 BMatC= 2.95D-07 BMatP= 7.23D-07
 IDIUse=1 WtCom= 1.00D+00 WtEn= 0.00D+00
 Coeff-Com: -0.120D-02 0.231D-02 0.388D-02 0.768D-02 0.125D-01-0.211D-01
 Coeff-Com: -0.239D+00-0.244D+00 0.509D+00 0.970D+00
 Coeff:     -0.120D-02 0.231D-02 0.388D-02 0.768D-02 0.125D-01-0.211D-01
 Coeff:     -0.239D+00-0.244D+00 0.509D+00 0.970D+00
 Gap=     0.161 Goal=   None    Shift=    0.000
 RMSDP=3.67D-06 MaxDP=2.44D-04 DE=-8.28D-06 OVMax= 2.70D-03

 Cycle  11  Pass 1  IDiag  1:
 RMSU=  7.75D-07    CP:  9.75D-01  1.62D+00  7.08D-01  7.17D-01  1.09D+00
                    CP:  1.32D+00  2.07D+00  2.54D+00  2.54D+00  1.50D+00
 E= -3007.85353425051     Delta-E=       -0.000003472973 Rises=F Damp=F
 DIIS: error= 1.25D-05 at cycle  11 NSaved=  11.
 NSaved=11 IEnMin=11 EnMin= -3007.85353425051     IErMin=11 ErrMin= 1.25D-05
 ErrMax= 1.25D-05  0.00D+00 EMaxC= 1.00D-01 BMatC= 8.63D-08 BMatP= 2.95D-07
 IDIUse=1 WtCom= 1.00D+00 WtEn= 0.00D+00
 Coeff-Com:  0.904D-04-0.228D-03 0.138D-03 0.181D-02 0.115D-01 0.189D-01
 Coeff-Com: -0.439D-01-0.156D+00-0.119D+00 0.363D+00 0.923D+00
 Coeff:      0.904D-04-0.228D-03 0.138D-03 0.181D-02 0.115D-01 0.189D-01
 Coeff:     -0.439D-01-0.156D+00-0.119D+00 0.363D+00 0.923D+00
 Gap=     0.161 Goal=   None    Shift=    0.000
 RMSDP=1.99D-06 MaxDP=1.29D-04 DE=-3.47D-06 OVMax= 1.40D-03

 Cycle  12  Pass 1  IDiag  1:
 RMSU=  4.09D-07    CP:  9.75D-01  1.62D+00  7.08D-01  7.18D-01  1.09D+00
                    CP:  1.34D+00  2.17D+00  2.81D+00  2.97D+00  2.02D+00
                    CP:  1.37D+00
 E= -3007.85353511657     Delta-E=       -0.000000866052 Rises=F Damp=F
 DIIS: error= 7.12D-06 at cycle  12 NSaved=  12.
 NSaved=12 IEnMin=12 EnMin= -3007.85353511657     IErMin=12 ErrMin= 7.12D-06
 ErrMax= 7.12D-06  0.00D+00 EMaxC= 1.00D-01 BMatC= 2.90D-08 BMatP= 8.63D-08
 IDIUse=1 WtCom= 1.00D+00 WtEn= 0.00D+00
 Coeff-Com:  0.482D-03-0.956D-03-0.140D-02-0.188D-02 0.134D-03 0.160D-01
 Coeff-Com:  0.691D-01 0.281D-01-0.222D+00-0.239D+00 0.454D+00 0.897D+00
 Coeff:      0.482D-03-0.956D-03-0.140D-02-0.188D-02 0.134D-03 0.160D-01
 Coeff:      0.691D-01 0.281D-01-0.222D+00-0.239D+00 0.454D+00 0.897D+00
 Gap=     0.161 Goal=   None    Shift=    0.000
 RMSDP=9.85D-07 MaxDP=9.44D-05 DE=-8.66D-07 OVMax= 7.08D-04

 Cycle  13  Pass 1  IDiag  1:
 RMSU=  5.20D-07    CP:  9.75D-01  1.62D+00  7.08D-01  7.18D-01  1.09D+00
                    CP:  1.35D+00  2.22D+00  2.91D+00  3.00D+00  2.31D+00
                    CP:  1.85D+00  1.21D+00
 E= -3007.85353529558     Delta-E=       -0.000000179014 Rises=F Damp=F
 DIIS: error= 2.60D-06 at cycle  13 NSaved=  13.
 NSaved=13 IEnMin=13 EnMin= -3007.85353529558     IErMin=13 ErrMin= 2.60D-06
 ErrMax= 2.60D-06  0.00D+00 EMaxC= 1.00D-01 BMatC= 5.14D-09 BMatP= 2.90D-08
 IDIUse=1 WtCom= 1.00D+00 WtEn= 0.00D+00
 Coeff-Com:  0.217D-03-0.424D-03-0.700D-03-0.118D-02-0.187D-02 0.412D-02
 Coeff-Com:  0.400D-01 0.379D-01-0.830D-01-0.188D+00 0.646D-01 0.414D+00
 Coeff-Com:  0.715D+00
 Coeff:      0.217D-03-0.424D-03-0.700D-03-0.118D-02-0.187D-02 0.412D-02
 Coeff:      0.400D-01 0.379D-01-0.830D-01-0.188D+00 0.646D-01 0.414D+00
 Coeff:      0.715D+00
 Gap=     0.161 Goal=   None    Shift=    0.000
 RMSDP=3.24D-07 MaxDP=1.97D-05 DE=-1.79D-07 OVMax= 2.10D-04

 Cycle  14  Pass 1  IDiag  1:
 RMSU=  9.80D-08    CP:  9.75D-01  1.62D+00  7.08D-01  7.18D-01  1.09D+00
                    CP:  1.35D+00  2.23D+00  2.94D+00  3.00D+00  2.40D+00
                    CP:  2.01D+00  1.40D+00  1.30D+00
 E= -3007.85353531468     Delta-E=       -0.000000019096 Rises=F Damp=F
 DIIS: error= 8.06D-07 at cycle  14 NSaved=  14.
 NSaved=14 IEnMin=14 EnMin= -3007.85353531468     IErMin=14 ErrMin= 8.06D-07
 ErrMax= 8.06D-07  0.00D+00 EMaxC= 1.00D-01 BMatC= 6.03D-10 BMatP= 5.14D-09
 IDIUse=1 WtCom= 1.00D+00 WtEn= 0.00D+00
 Coeff-Com: -0.104D-04 0.235D-04 0.697D-05-0.614D-04-0.671D-03-0.165D-02
 Coeff-Com:  0.134D-02 0.787D-02 0.148D-01-0.254D-01-0.549D-01-0.204D-01
 Coeff-Com:  0.242D+00 0.837D+00
 Coeff:     -0.104D-04 0.235D-04 0.697D-05-0.614D-04-0.671D-03-0.165D-02
 Coeff:      0.134D-02 0.787D-02 0.148D-01-0.254D-01-0.549D-01-0.204D-01
 Coeff:      0.242D+00 0.837D+00
 Gap=     0.161 Goal=   None    Shift=    0.000
 RMSDP=8.37D-08 MaxDP=1.44D-05 DE=-1.91D-08 OVMax= 5.35D-05

 Cycle  15  Pass 1  IDiag  1:
 RMSU=  4.03D-08    CP:  9.75D-01  1.62D+00  7.08D-01  7.18D-01  1.09D+00
                    CP:  1.35D+00  2.24D+00  2.94D+00  3.00D+00  2.43D+00
                    CP:  2.06D+00  1.46D+00  1.38D+00  9.36D-01
 E= -3007.85353531666     Delta-E=       -0.000000001986 Rises=F Damp=F
 DIIS: error= 3.40D-07 at cycle  15 NSaved=  15.
 NSaved=15 IEnMin=15 EnMin= -3007.85353531666     IErMin=15 ErrMin= 3.40D-07
 ErrMax= 3.40D-07  0.00D+00 EMaxC= 1.00D-01 BMatC= 1.76D-10 BMatP= 6.03D-10
 IDIUse=1 WtCom= 1.00D+00 WtEn= 0.00D+00
 Coeff-Com: -0.444D-04 0.885D-04 0.132D-03 0.185D-03 0.190D-04-0.155D-02
 Coeff-Com: -0.659D-02-0.383D-02 0.217D-01 0.223D-01-0.335D-01-0.849D-01
 Coeff-Com: -0.279D-01 0.402D+00 0.712D+00
 Coeff:     -0.444D-04 0.885D-04 0.132D-03 0.185D-03 0.190D-04-0.155D-02
 Coeff:     -0.659D-02-0.383D-02 0.217D-01 0.223D-01-0.335D-01-0.849D-01
 Coeff:     -0.279D-01 0.402D+00 0.712D+00
 Gap=     0.161 Goal=   None    Shift=    0.000
 RMSDP=3.11D-08 MaxDP=2.09D-06 DE=-1.99D-09 OVMax= 1.48D-05

 Cycle  16  Pass 1  IDiag  1:
 RMSU=  1.82D-08    CP:  9.75D-01  1.62D+00  7.08D-01  7.18D-01  1.09D+00
                    CP:  1.35D+00  2.24D+00  2.95D+00  3.00D+00  2.43D+00
                    CP:  2.07D+00  1.49D+00  1.40D+00  1.02D+00  1.17D+00
 E= -3007.85353531698     Delta-E=       -0.000000000318 Rises=F Damp=F
 DIIS: error= 1.33D-07 at cycle  16 NSaved=  16.
 NSaved=16 IEnMin=16 EnMin= -3007.85353531698     IErMin=16 ErrMin= 1.33D-07
 ErrMax= 1.33D-07  0.00D+00 EMaxC= 1.00D-01 BMatC= 1.86D-11 BMatP= 1.76D-10
 IDIUse=1 WtCom= 1.00D+00 WtEn= 0.00D+00
 Coeff-Com: -0.127D-04 0.247D-04 0.432D-04 0.686D-04 0.115D-03-0.252D-03
 Coeff-Com: -0.233D-02-0.258D-02 0.545D-02 0.116D-01-0.384D-02-0.274D-01
 Coeff-Com: -0.498D-01 0.122D-01 0.220D+00 0.836D+00
 Coeff:     -0.127D-04 0.247D-04 0.432D-04 0.686D-04 0.115D-03-0.252D-03
 Coeff:     -0.233D-02-0.258D-02 0.545D-02 0.116D-01-0.384D-02-0.274D-01
 Coeff:     -0.498D-01 0.122D-01 0.220D+00 0.836D+00
 Gap=     0.161 Goal=   None    Shift=    0.000
 RMSDP=1.32D-08 MaxDP=1.61D-06 DE=-3.18D-10 OVMax= 7.37D-06

 Cycle  17  Pass 1  IDiag  1:
 RMSU=  6.76D-09    CP:  9.75D-01  1.62D+00  7.08D-01  7.18D-01  1.09D+00
                    CP:  1.35D+00  2.24D+00  2.95D+00  3.00D+00  2.43D+00
                    CP:  2.08D+00  1.49D+00  1.41D+00  1.05D+00  1.37D+00
                    CP:  1.20D+00
 E= -3007.85353531705     Delta-E=       -0.000000000069 Rises=F Damp=F
 DIIS: error= 1.20D-07 at cycle  17 NSaved=  17.
 NSaved=17 IEnMin=17 EnMin= -3007.85353531705     IErMin=17 ErrMin= 1.20D-07
 ErrMax= 1.20D-07  0.00D+00 EMaxC= 1.00D-01 BMatC= 4.67D-12 BMatP= 1.86D-11
 IDIUse=1 WtCom= 1.00D+00 WtEn= 0.00D+00
 Coeff-Com:  0.459D-05-0.935D-05-0.114D-04-0.143D-04 0.385D-04 0.222D-03
 Coeff-Com:  0.557D-03-0.194D-03-0.263D-02-0.318D-03 0.538D-02 0.815D-02
 Coeff-Com: -0.915D-02-0.709D-01-0.790D-01 0.267D+00 0.881D+00
 Coeff:      0.459D-05-0.935D-05-0.114D-04-0.143D-04 0.385D-04 0.222D-03
 Coeff:      0.557D-03-0.194D-03-0.263D-02-0.318D-03 0.538D-02 0.815D-02
 Coeff:     -0.915D-02-0.709D-01-0.790D-01 0.267D+00 0.881D+00
 Gap=     0.161 Goal=   None    Shift=    0.000
 RMSDP=7.30D-09 MaxDP=4.70D-07 DE=-6.91D-11 OVMax= 4.32D-06

 SCF Done:  E(RwB97XD) =  -3007.85353532     A.U. after   17 cycles
            NFock= 17  Conv=0.73D-08     -V/T= 2.0106
 KE= 2.976449581132D+03 PE=-2.577485628715D+04 EE= 1.039999602937D+04
 Leave Link  502 at Wed Apr 27 15:10:09 2022, MaxMem= 10066329600 cpu:            8519.7 elap:             371.4
 (Enter /sw/apps/gaussian-16.0/g16/l801.exe)
 DoSCS=F DFT=T ScalE2(SS,OS)=  1.000000  1.000000
 ExpMin= 3.36D-02 ExpMax= 4.95D+03 ExpMxC= 7.45D+02 IAcc=3 IRadAn=         5 AccDes= 0.00D+00
 HarFok:  IExCor=  205 AccDes= 0.00D+00 IRadAn=         5 IDoV=-2 UseB2=F ITyADJ=14
 ICtDFT= 12500011 ScaDFX=  1.000000  1.000000  1.000000  1.000000
 GSVD:  LWork=       -5460 too small for GESVD, short by       25550 words or       25550 for optimal perf.
 Largest valence mixing into a core orbital is  1.72D-04
 Largest core mixing into a valence orbital is  5.63D-05
 Range of M.O.s used for correlation:    71  1298
 NBasis=  1298 NAE=   246 NBE=   246 NFC=    70 NFV=     0
 NROrb=   1228 NOA=   176 NOB=   176 NVA=  1052 NVB=  1052
 Leave Link  801 at Wed Apr 27 15:10:10 2022, MaxMem= 10066329600 cpu:               6.5 elap:               0.3
 (Enter /sw/apps/gaussian-16.0/g16/l914.exe)
 RHF ground state
 Two-electron integrals replicated using symmetry.
 MDV= 10066329600 DFT=T DoStab=F Mixed=T DoRPA=T DoScal=F NonHer=T
 Making orbital integer symmetry assigments:
 Orbital symmetries:
       Occupied  (A) (A) (A) (A) (A) (A) (A) (A) (A) (A) (A) (A)
                 (A) (A) (A) (A) (A) (A) (A) (A) (A) (A) (A) (A)
                 (A) (A) (A) (A) (A) (A) (A) (A) (A) (A) (A) (A)
                 (A) (A) (A) (A) (A) (A) (A) (A) (A) (A) (A) (A)
                 (A) (A) (A) (A) (A) (A) (A) (A) (A) (A) (A) (A)
                 (A) (A) (A) (A) (A) (A) (A) (A) (A) (A) (A) (A)
                 (A) (A) (A) (A) (A) (A) (A) (A) (A) (A) (A) (A)
                 (A) (A) (A) (A) (A) (A) (A) (A) (A) (A) (A) (A)
                 (A) (A) (A) (A) (A) (A) (A) (A) (A) (A) (A) (A)
                 (A) (A) (A) (A) (A) (A) (A) (A) (A) (A) (A) (A)
                 (A) (A) (A) (A) (A) (A) (A) (A) (A) (A) (A) (A)
                 (A) (A) (A) (A) (A) (A) (A) (A) (A) (A) (A) (A)
                 (A) (A) (A) (A) (A) (A) (A) (A) (A) (A) (A) (A)
                 (A) (A) (A) (A) (A) (A) (A) (A) (A) (A) (A) (A)
                 (A) (A) (A) (A) (A) (A) (A) (A) (A) (A) (A) (A)
                 (A) (A) (A) (A) (A) (A) (A) (A) (A) (A) (A) (A)
                 (A) (A) (A) (A) (A) (A) (A) (A) (A) (A) (A) (A)
                 (A) (A) (A) (A) (A) (A) (A) (A) (A) (A) (A) (A)
                 (A) (A) (A) (A) (A) (A) (A) (A) (A) (A) (A) (A)
                 (A) (A) (A) (A) (A) (A) (A) (A) (A) (A) (A) (A)
                 (A) (A) (A) (A) (A) (A)
       Virtual   (A) (A) (A) (A) (A) (A) (A) (A) (A) (A) (A) (A)
                 (A) (A) (A) (A) (A) (A) (A) (A) (A) (A) (A) (A)
                 (A) (A) (A) (A) (A) (A) (A) (A) (A) (A) (A) (A)
                 (A) (A) (A) (A) (A) (A) (A) (A) (A) (A) (A) (A)
                 (A) (A) (A) (A) (A) (A) (A) (A) (A) (A) (A) (A)
                 (A) (A) (A) (A) (A) (A) (A) (A) (A) (A) (A) (A)
                 (A) (A) (A) (A) (A) (A) (A) (A) (A) (A) (A) (A)
                 (A) (A) (A) (A) (A) (A) (A) (A) (A) (A) (A) (A)
                 (A) (A) (A) (A) (A) (A) (A) (A) (A) (A) (A) (A)
                 (A) (A) (A) (A) (A) (A) (A) (A) (A) (A) (A) (A)
                 (A) (A) (A) (A) (A) (A) (A) (A) (A) (A) (A) (A)
                 (A) (A) (A) (A) (A) (A) (A) (A) (A) (A) (A) (A)
                 (A) (A) (A) (A) (A) (A) (A) (A) (A) (A) (A) (A)
                 (A) (A) (A) (A) (A) (A) (A) (A) (A) (A) (A) (A)
                 (A) (A) (A) (A) (A) (A) (A) (A) (A) (A) (A) (A)
                 (A) (A) (A) (A) (A) (A) (A) (A) (A) (A) (A) (A)
                 (A) (A) (A) (A) (A) (A) (A) (A) (A) (A) (A) (A)
                 (A) (A) (A) (A) (A) (A) (A) (A) (A) (A) (A) (A)
                 (A) (A) (A) (A) (A) (A) (A) (A) (A) (A) (A) (A)
                 (A) (A) (A) (A) (A) (A) (A) (A) (A) (A) (A) (A)
                 (A) (A) (A) (A) (A) (A) (A) (A) (A) (A) (A) (A)
                 (A) (A) (A) (A) (A) (A) (A) (A) (A) (A) (A) (A)
                 (A) (A) (A) (A) (A) (A) (A) (A) (A) (A) (A) (A)
                 (A) (A) (A) (A) (A) (A) (A) (A) (A) (A) (A) (A)
                 (A) (A) (A) (A) (A) (A) (A) (A) (A) (A) (A) (A)
                 (A) (A) (A) (A) (A) (A) (A) (A) (A) (A) (A) (A)
                 (A) (A) (A) (A) (A) (A) (A) (A) (A) (A) (A) (A)
                 (A) (A) (A) (A) (A) (A) (A) (A) (A) (A) (A) (A)
                 (A) (A) (A) (A) (A) (A) (A) (A) (A) (A) (A) (A)
                 (A) (A) (A) (A) (A) (A) (A) (A) (A) (A) (A) (A)
                 (A) (A) (A) (A) (A) (A) (A) (A) (A) (A) (A) (A)
                 (A) (A) (A) (A) (A) (A) (A) (A) (A) (A) (A) (A)
                 (A) (A) (A) (A) (A) (A) (A) (A) (A) (A) (A) (A)
                 (A) (A) (A) (A) (A) (A) (A) (A) (A) (A) (A) (A)
                 (A) (A) (A) (A) (A) (A) (A) (A) (A) (A) (A) (A)
                 (A) (A) (A) (A) (A) (A) (A) (A) (A) (A) (A) (A)
                 (A) (A) (A) (A) (A) (A) (A) (A) (A) (A) (A) (A)
                 (A) (A) (A) (A) (A) (A) (A) (A) (A) (A) (A) (A)
                 (A) (A) (A) (A) (A) (A) (A) (A) (A) (A) (A) (A)
                 (A) (A) (A) (A) (A) (A) (A) (A) (A) (A) (A) (A)
                 (A) (A) (A) (A) (A) (A) (A) (A) (A) (A) (A) (A)
                 (A) (A) (A) (A) (A) (A) (A) (A) (A) (A) (A) (A)
                 (A) (A) (A) (A) (A) (A) (A) (A) (A) (A) (A) (A)
                 (A) (A) (A) (A) (A) (A) (A) (A) (A) (A) (A) (A)
                 (A) (A) (A) (A) (A) (A) (A) (A) (A) (A) (A) (A)
                 (A) (A) (A) (A) (A) (A) (A) (A) (A) (A) (A) (A)
                 (A) (A) (A) (A) (A) (A) (A) (A) (A) (A) (A) (A)
                 (A) (A) (A) (A) (A) (A) (A) (A) (A) (A) (A) (A)
                 (A) (A) (A) (A) (A) (A) (A) (A) (A) (A) (A) (A)
                 (A) (A) (A) (A) (A) (A) (A) (A) (A) (A) (A) (A)
                 (A) (A) (A) (A) (A) (A) (A) (A) (A) (A) (A) (A)
                 (A) (A) (A) (A) (A) (A) (A) (A) (A) (A) (A) (A)
                 (A) (A) (A) (A) (A) (A) (A) (A) (A) (A) (A) (A)
                 (A) (A) (A) (A) (A) (A) (A) (A) (A) (A) (A) (A)
                 (A) (A) (A) (A) (A) (A) (A) (A) (A) (A) (A) (A)
                 (A) (A) (A) (A) (A) (A) (A) (A) (A) (A) (A) (A)
                 (A) (A) (A) (A) (A) (A) (A) (A) (A) (A) (A) (A)
                 (A) (A) (A) (A) (A) (A) (A) (A) (A) (A) (A) (A)
                 (A) (A) (A) (A) (A) (A) (A) (A) (A) (A) (A) (A)
                 (A) (A) (A) (A) (A) (A) (A) (A) (A) (A) (A) (A)
                 (A) (A) (A) (A) (A) (A) (A) (A) (A) (A) (A) (A)
                 (A) (A) (A) (A) (A) (A) (A) (A) (A) (A) (A) (A)
                 (A) (A) (A) (A) (A) (A) (A) (A) (A) (A) (A) (A)
                 (A) (A) (A) (A) (A) (A) (A) (A) (A) (A) (A) (A)
                 (A) (A) (A) (A) (A) (A) (A) (A) (A) (A) (A) (A)
                 (A) (A) (A) (A) (A) (A) (A) (A) (A) (A) (A) (A)
                 (A) (A) (A) (A) (A) (A) (A) (A) (A) (A) (A) (A)
                 (A) (A) (A) (A) (A) (A) (A) (A) (A) (A) (A) (A)
                 (A) (A) (A) (A) (A) (A) (A) (A) (A) (A) (A) (A)
                 (A) (A) (A) (A) (A) (A) (A) (A) (A) (A) (A) (A)
                 (A) (A) (A) (A) (A) (A) (A) (A) (A) (A) (A) (A)
                 (A) (A) (A) (A) (A) (A) (A) (A) (A) (A) (A) (A)
                 (A) (A) (A) (A) (A) (A) (A) (A) (A) (A) (A) (A)
                 (A) (A) (A) (A) (A) (A) (A) (A) (A) (A) (A) (A)
                 (A) (A) (A) (A) (A) (A) (A) (A) (A) (A) (A) (A)
                 (A) (A) (A) (A) (A) (A) (A) (A) (A) (A) (A) (A)
                 (A) (A) (A) (A) (A) (A) (A) (A) (A) (A) (A) (A)
                 (A) (A) (A) (A) (A) (A) (A) (A) (A) (A) (A) (A)
                 (A) (A) (A) (A) (A) (A) (A) (A) (A) (A) (A) (A)
                 (A) (A) (A) (A) (A) (A) (A) (A) (A) (A) (A) (A)
                 (A) (A) (A) (A) (A) (A) (A) (A) (A) (A) (A) (A)
                 (A) (A) (A) (A) (A) (A) (A) (A) (A) (A) (A) (A)
                 (A) (A) (A) (A) (A) (A) (A) (A) (A) (A) (A) (A)
                 (A) (A) (A) (A) (A) (A) (A) (A) (A) (A) (A) (A)
                 (A) (A) (A) (A) (A) (A) (A) (A) (A) (A) (A) (A)
                 (A) (A) (A) (A) (A) (A) (A) (A) (A) (A) (A) (A)
                 (A) (A) (A) (A) (A) (A) (A) (A) (A) (A) (A) (A)
                 (A) (A) (A) (A) (A) (A) (A) (A)
    20 initial guesses have been made.
 Convergence on wavefunction:    0.001000000000000
 Davidson Disk Diagonalization:  ConvIn= 1.00D-03 SkipCon=T Conv= 1.00D-03.
 Max sub-space:  2000 roots to seek:    20 dimension of matrix:       370304
 Iteration     1 Dimension    20 NMult     0 NNew     20
 CISAX will form    20 AO SS matrices at one time.
 NMat=    20 NSing=    20 JSym2X= 0.
 FoFJK:  IHMeth= 1 ICntrl=       0 DoSepK=T KAlg= 0 I1Cent=           0 FoldK=F
 IRaf=         1 NMat=      40 IRICut=       1 DoRegI=T DoRafI=F ISym2E= 0 IDoP0=3 IntGTp=3.
 FoFCou: FMM=T IPFlag=           0 FMFlag=      100000 FMFlg1=        2001
         NFxFlg=           0 DoJE=F BraDBF=F KetDBF=F FulRan=T
         wScrn=  0.000000 ICntrl=       500 IOpCl=  0 I1Cent=           0 NGrid=           0
         NMat0=   20 NMatS0=     20 NMatT0=    0 NMatD0=   20 NMtDS0=    0 NMtDT0=    0
 Symmetry not used in FoFCou.
 FMM levels:  10  Number of levels for PrismC:   9
 New state      3 was old state      6
 New state      4 was old state      5
 New state      5 was old state      8
 Excitation Energies [eV] at current iteration:
 Root      1 :     2.230498334056044
 Root      2 :     2.714493517862893
 Root      3 :     3.794240673340356
 Root      4 :     4.037542518387272
 Root      5 :     4.049520882852605
 Root      6 :     4.331917749064088
 Root      7 :     4.439261296598318
 Root      8 :     4.527247682829239
 Root      9 :     4.616362761981549
 Root     10 :     4.645343962270105
 Root     11 :     4.745818901931960
 Root     12 :     5.052490703259700
 Root     13 :     5.062907122842914
 Root     14 :     5.267766995544239
 Root     15 :     5.335032093460471
 Root     16 :     5.535952983351101
 Root     17 :     5.944970400772344
 Root     18 :     6.076651915566812
 Root     19 :     6.246820825933969
 Root     20 :     7.225072442095767
 Iteration     2 Dimension    30 NMult    20 NNew     10
 CISAX will form    10 AO SS matrices at one time.
 NMat=    10 NSing=    10 JSym2X= 0.
 Root      1 not converged, maximum delta is    0.070133113656097
 Root      2 not converged, maximum delta is    0.048001516103837
 New state      3 was old state      5
 Root      3 not converged, maximum delta is    0.155605696954420
 New state      4 was old state      3
 Root      4 not converged, maximum delta is    0.248321307213096
 New state      5 was old state      4
 Root      5 not converged, maximum delta is    0.294649875291275
 Excitation Energies [eV] at current iteration:
 Root      1 :     1.764969069089827   Change is   -0.465529264966217
 Root      2 :     2.337813915969768   Change is   -0.376679601893125
 Root      3 :     3.540647847357332   Change is   -0.508873035495272
 Root      4 :     3.690306542120830   Change is   -0.103934131219526
 Root      5 :     3.721469052058289   Change is   -0.316073466328983
 Iteration     3 Dimension    40 NMult    30 NNew     10
 CISAX will form    10 AO SS matrices at one time.
 NMat=    10 NSing=    10 JSym2X= 0.
 Root      1 not converged, maximum delta is    0.023668933791152
 Root      2 not converged, maximum delta is    0.012170813756267
 Root      3 not converged, maximum delta is    0.095868357502728
 Root      4 not converged, maximum delta is    0.101330109395386
 Root      5 not converged, maximum delta is    0.102044378126664
 Excitation Energies [eV] at current iteration:
 Root      1 :     1.727174389574136   Change is   -0.037794679515691
 Root      2 :     2.319951153272442   Change is   -0.017862762697326
 Root      3 :     3.471312179569857   Change is   -0.069335667787475
 Root      4 :     3.674422161200674   Change is   -0.015884380920155
 Root      5 :     3.707796933548519   Change is   -0.013672118509770
 Iteration     4 Dimension    50 NMult    40 NNew     10
 CISAX will form    10 AO SS matrices at one time.
 NMat=    10 NSing=    10 JSym2X= 0.
 Root      1 not converged, maximum delta is    0.005862312428687
 Root      2 not converged, maximum delta is    0.004328917736118
 Root      3 not converged, maximum delta is    0.040222801168105
 Root      4 not converged, maximum delta is    0.056195062632830
 Root      5 not converged, maximum delta is    0.033048868023875
 Excitation Energies [eV] at current iteration:
 Root      1 :     1.722966538982361   Change is   -0.004207850591775
 Root      2 :     2.317670071549628   Change is   -0.002281081722814
 Root      3 :     3.455939458022814   Change is   -0.015372721547043
 Root      4 :     3.666483583589507   Change is   -0.007938577611167
 Root      5 :     3.705194613637480   Change is   -0.002602319911040
 Iteration     5 Dimension    60 NMult    50 NNew     10
 CISAX will form    10 AO SS matrices at one time.
 NMat=    10 NSing=    10 JSym2X= 0.
 Root      1 not converged, maximum delta is    0.001234680268078
 Root      2 has converged.
 Root      3 not converged, maximum delta is    0.006974476743654
 Root      4 not converged, maximum delta is    0.035459819123240
 Root      5 not converged, maximum delta is    0.013897408650089
 Excitation Energies [eV] at current iteration:
 Root      1 :     1.722583673581846   Change is   -0.000382865400516
 Root      2 :     2.317477562094045   Change is   -0.000192509455583
 Root      3 :     3.453585097249752   Change is   -0.002354360773062
 Root      4 :     3.661607520905227   Change is   -0.004876062684280
 Root      5 :     3.704697341763989   Change is   -0.000497271873490
 Iteration     6 Dimension    68 NMult    60 NNew      8
 CISAX will form     8 AO SS matrices at one time.
 NMat=     8 NSing=     8 JSym2X= 0.
 Root      1 has converged.
 Root      2 has converged.
 Root      3 not converged, maximum delta is    0.001986827452081
 Root      4 not converged, maximum delta is    0.043246206480676
 Root      5 not converged, maximum delta is    0.013213902205455
 Excitation Energies [eV] at current iteration:
 Root      1 :     1.722546615228123   Change is   -0.000037058353723
 Root      2 :     2.317474326242627   Change is   -0.000003235851418
 Root      3 :     3.453179755822851   Change is   -0.000405341426901
 Root      4 :     3.657512017122936   Change is   -0.004095503782292
 Root      5 :     3.704539092494121   Change is   -0.000158249269868
 Iteration     7 Dimension    74 NMult    68 NNew      6
 CISAX will form     6 AO SS matrices at one time.
 NMat=     6 NSing=     6 JSym2X= 0.
 Root      1 has converged.
 Root      2 has converged.
 Root      3 has converged.
 Root      4 not converged, maximum delta is    0.015641741664425
 Root      5 not converged, maximum delta is    0.006820446820323
 Excitation Energies [eV] at current iteration:
 Root      1 :     1.722546401687207   Change is   -0.000000213540916
 Root      2 :     2.317473578833431   Change is   -0.000000747409196
 Root      3 :     3.453118870890294   Change is   -0.000060884932556
 Root      4 :     3.656298018762228   Change is   -0.001213998360708
 Root      5 :     3.704477092658809   Change is   -0.000061999835312
 Iteration     8 Dimension    78 NMult    74 NNew      4
 CISAX will form     4 AO SS matrices at one time.
 NMat=     4 NSing=     4 JSym2X= 0.
 Root      1 has converged.
 Root      2 has converged.
 Root      3 has converged.
 Root      4 not converged, maximum delta is    0.003343850623001
 Root      5 not converged, maximum delta is    0.001598671262164
 Excitation Energies [eV] at current iteration:
 Root      1 :     1.722546243380502   Change is   -0.000000158306705
 Root      2 :     2.317473453467151   Change is   -0.000000125366280
 Root      3 :     3.453118448384204   Change is   -0.000000422506091
 Root      4 :     3.656101673507496   Change is   -0.000196345254732
 Root      5 :     3.704461805773015   Change is   -0.000015286885794
 Iteration     9 Dimension    82 NMult    78 NNew      4
 CISAX will form     4 AO SS matrices at one time.
 NMat=     4 NSing=     4 JSym2X= 0.
 Root      1 has converged.
 Root      2 has converged.
 Root      3 has converged.
 Root      4 has converged.
 Root      5 has converged.
 Excitation Energies [eV] at current iteration:
 Root      1 :     1.722545980549516   Change is   -0.000000262830986
 Root      2 :     2.317473191815937   Change is   -0.000000261651213
 Root      3 :     3.453118273869201   Change is   -0.000000174515003
 Root      4 :     3.656071549803480   Change is   -0.000030123704016
 Root      5 :     3.704458847846436   Change is   -0.000002957926580
 Convergence achieved on expansion vectors.
 ***********************************************************************
 Excited states from <AA,BB:AA,BB> singles matrix:
 ***********************************************************************
 
 1PDM for each excited state written to RWF  633
 Ground to excited state transition densities written to RWF  633
 Ground to excited state transition electric dipole moments (Au):
       state          X           Y           Z        Dip. S.      Osc.
         1        -0.3373      2.7363     -0.9682      8.5388      0.3604
         2         1.0061      0.2661      0.1200      1.0974      0.0623
         3        -2.5518     -0.9691     -0.2003      7.4909      0.6337
         4        -0.6429     -0.4532     -0.0050      0.6187      0.0554
         5        -0.1200     -0.1991     -0.0018      0.0540      0.0049
 Ground to excited state transition velocity dipole moments (Au):
       state          X           Y           Z        Dip. S.      Osc.
         1         0.0191     -0.1678      0.0605      0.0322      0.3388
         2        -0.0797     -0.0214     -0.0094      0.0069      0.0540
         3         0.3142      0.1200      0.0250      0.1138      0.5977
         4         0.0846      0.0578      0.0002      0.0105      0.0521
         5         0.0100      0.0273     -0.0004      0.0008      0.0041
 Ground to excited state transition magnetic dipole moments (Au):
       state          X           Y           Z
         1         0.0108     -0.6440     -1.8054
         2        -0.2004      0.3522      0.8581
         3        -0.1615     -0.0133      1.6967
         4         0.4822     -0.4370     -0.5003
         5         0.0655      0.1303      0.3485
 Ground to excited state transition velocity quadrupole moments (Au):
       state          XX          YY          ZZ          XY          XZ          YZ
         1         0.5157     -0.3280      0.0274     -1.8877      0.7280      0.0466
         2        -1.7709      0.0236      0.0082     -0.2470     -0.1089     -0.0036
         3         6.5717     -0.1427     -0.0011      1.3511      0.3594      0.0069
         4         1.5330      0.6949     -0.0116      0.9708     -0.0367     -0.0900
         5         0.2462     -0.1971     -0.0408      0.5306     -0.0566      0.1343
 <0|del|b> * <b|rxdel|0> + <0|del|b> * <b|delr+rdel|0>
 Rotatory Strengths (R) in cgs (10**-40 erg-esu-cm/Gauss)
       state          XX          YY          ZZ    R(velocity)    E-M Angle
         1        38.5032     33.9198    -82.5439     -3.3736       90.15
         2       -64.7495     24.3644     43.5405      1.0518       89.72
         3        87.7443   -111.3568    -31.7161    -18.4429       90.99
         4       -60.5901     86.3636     55.3187     27.0307       79.44
         5        12.3023      5.3738      3.4514      7.0425       68.29
 1/2[<0|r|b>*<b|rxdel|0> + (<0|rxdel|b>*<b|r|0>)*]
 Rotatory Strengths (R) in cgs (10**-40 erg-esu-cm/Gauss)
       state          XX          YY          ZZ     R(length)
         1         2.5870   1246.2186  -1236.1605      4.2150
         2       142.5700    -66.2597    -72.8305      1.1599
         3      -291.4970     -9.1099    240.2975    -20.1031
         4       219.2422   -140.0361     -1.7530     25.8177
         5         5.5574     18.3486      0.4468      8.1176
  1/2[<0|del|b>*<b|r|0> + (<0|r|b>*<b|del|0>)*] (Au)
       state          X           Y           Z        Dip. S.   Osc.(frdel)
         1        -0.0064     -0.4591     -0.0586      0.5241      0.3494
         2        -0.0802     -0.0057     -0.0011      0.0870      0.0580
         3        -0.8019     -0.1163     -0.0050      0.9232      0.6154
         4        -0.0544     -0.0262     -0.0000      0.0806      0.0537
         5        -0.0012     -0.0054      0.0000      0.0066      0.0044

 Excitation energies and oscillator strengths:
 
 Excited State   1:      Singlet-A      1.7225 eV  719.77 nm  f=0.3604  <S**2>=0.000
     245 -> 248       -0.16983
     246 -> 247        0.68559
     245 <- 248       -0.10844
 This state for optimization and/or second-order correction.
 Total Energy, E(TD-HF/TD-DFT) =  -3007.79023292    
 Copying the excited state density for this state as the 1-particle RhoCI density.
 
 Excited State   2:      Singlet-A      2.3175 eV  535.00 nm  f=0.0623  <S**2>=0.000
     245 -> 247        0.60078
     246 -> 248        0.35533
 
 Excited State   3:      Singlet-A      3.4531 eV  359.05 nm  f=0.6337  <S**2>=0.000
     242 -> 247       -0.19990
     245 -> 247       -0.31083
     246 -> 248        0.56572
 
 Excited State   4:      Singlet-A      3.6561 eV  339.12 nm  f=0.0554  <S**2>=0.000
     241 -> 247       -0.14002
     242 -> 247        0.41821
     243 -> 247        0.22195
     244 -> 247       -0.24873
     246 -> 249       -0.21323
     246 -> 250       -0.28881
 
 Excited State   5:      Singlet-A      3.7045 eV  334.69 nm  f=0.0049  <S**2>=0.000
     242 -> 247        0.13688
     244 -> 247       -0.41771
     246 -> 249        0.23908
     246 -> 250        0.44613
     246 -> 251        0.14307
 SavETr:  write IOETrn=   770 NScale= 10 NData=  16 NLR=1 NState=    5 LETran=     100.
 Leave Link  914 at Wed Apr 27 15:28:54 2022, MaxMem= 10066329600 cpu:           26735.9 elap:            1123.9
 (Enter /sw/apps/gaussian-16.0/g16/l601.exe)
 Copying SCF densities to generalized density rwf, IOpCl= 0 IROHF=0.
 Hyperfine terms turned off by default for NAtoms > 100.

 **********************************************************************

            Population analysis using the SCF density.

 **********************************************************************

 Orbital symmetries:
       Occupied  (A) (A) (A) (A) (A) (A) (A) (A) (A) (A) (A) (A)
                 (A) (A) (A) (A) (A) (A) (A) (A) (A) (A) (A) (A)
                 (A) (A) (A) (A) (A) (A) (A) (A) (A) (A) (A) (A)
                 (A) (A) (A) (A) (A) (A) (A) (A) (A) (A) (A) (A)
                 (A) (A) (A) (A) (A) (A) (A) (A) (A) (A) (A) (A)
                 (A) (A) (A) (A) (A) (A) (A) (A) (A) (A) (A) (A)
                 (A) (A) (A) (A) (A) (A) (A) (A) (A) (A) (A) (A)
[...]
 Alpha virt. eigenvalues --    1.22047   1.22439   1.22689   1.23252   1.23824
 Alpha virt. eigenvalues --    1.25037   1.25132   1.25570   1.25853   1.26470
 Alpha virt. eigenvalues --    1.27468   1.27619   1.27750   1.28170   1.28454
 Alpha virt. eigenvalues --    1.28730   1.29007   1.29827   1.30673   1.31390
 Alpha virt. eigenvalues --    1.31577   1.31674   1.31853   1.32302   1.32668
 Alpha virt. eigenvalues --    1.33805   1.34366   1.34871   1.35604   1.35917
 Alpha virt. eigenvalues --    1.36724   1.37379   1.37578   1.38030   1.38107
 Alpha virt. eigenvalues --    1.38790   1.39508   1.39703   1.40083   1.40228
 Alpha virt. eigenvalues --    1.40281   1.40430   1.40889   1.41081   1.41583
 Alpha virt. eigenvalues --    1.41908   1.42054   1.42375   1.42811   1.42862
 Alpha virt. eigenvalues --    1.44586   1.44705   1.44766   1.45204   1.45360
 Alpha virt. eigenvalues --    1.45996   1.46269   1.46607   1.47760   1.47881
 Alpha virt. eigenvalues --    1.47938   1.48608   1.49022   1.49372   1.49412
 Alpha virt. eigenvalues --    1.49830   1.50205   1.50790   1.51143   1.51381
 Alpha virt. eigenvalues --    1.51668   1.51938   1.52822   1.53091   1.54154
 Alpha virt. eigenvalues --    1.54424   1.54861   1.55430   1.55609   1.55962
 Alpha virt. eigenvalues --    1.56556   1.56791   1.57245   1.57806   1.57935
 Alpha virt. eigenvalues --    1.58748   1.59193   1.59574   1.59795   1.59842
 Alpha virt. eigenvalues --    1.60398   1.60658   1.60677   1.61065   1.61143
 Alpha virt. eigenvalues --    1.61290   1.61588   1.61847   1.62411   1.62616
 Alpha virt. eigenvalues --    1.62891   1.63041   1.63294   1.63818   1.64140
 Alpha virt. eigenvalues --    1.64309   1.64389   1.64581   1.64911   1.64961
 Alpha virt. eigenvalues --    1.65207   1.65735   1.65909   1.66247   1.67222
 Alpha virt. eigenvalues --    1.67500   1.67939   1.68201   1.68623   1.68827
 Alpha virt. eigenvalues --    1.69033   1.69740   1.70297   1.70456   1.71721
 Alpha virt. eigenvalues --    1.72055   1.72295   1.72683   1.73211   1.73888
 Alpha virt. eigenvalues --    1.74164   1.74942   1.75059   1.75501   1.75748
 Alpha virt. eigenvalues --    1.76126   1.76536   1.76675   1.76793   1.77313
 Alpha virt. eigenvalues --    1.78027   1.78192   1.78658   1.78805   1.79007
 Alpha virt. eigenvalues --    1.79376   1.79570   1.79895   1.80191   1.80844
 Alpha virt. eigenvalues --    1.81164   1.81287   1.81754   1.81953   1.82445
 Alpha virt. eigenvalues --    1.82701   1.82937   1.82967   1.83381   1.83537
 Alpha virt. eigenvalues --    1.83612   1.83672   1.83920   1.84202   1.84542
 Alpha virt. eigenvalues --    1.84728   1.84821   1.84943   1.85175   1.85565
 Alpha virt. eigenvalues --    1.86019   1.86192   1.86413   1.86558   1.86681
 Alpha virt. eigenvalues --    1.86878   1.87061   1.87223   1.87484   1.87600
 Alpha virt. eigenvalues --    1.87918   1.88008   1.88145   1.88366   1.88438
 Alpha virt. eigenvalues --    1.88587   1.89037   1.89196   1.89649   1.89823
 Alpha virt. eigenvalues --    1.90052   1.90088   1.90217   1.90298   1.90575
 Alpha virt. eigenvalues --    1.90789   1.90907   1.91501   1.91697   1.91892
 Alpha virt. eigenvalues --    1.91993   1.92126   1.92260   1.92319   1.92629
 Alpha virt. eigenvalues --    1.92782   1.92830   1.93270   1.93345   1.93491
 Alpha virt. eigenvalues --    1.93647   1.93884   1.94013   1.94115   1.94291
 Alpha virt. eigenvalues --    1.94357   1.94705   1.95593   1.95819   1.95880
 Alpha virt. eigenvalues --    1.96002   1.96208   1.96477   1.96719   1.97129
 Alpha virt. eigenvalues --    1.97274   1.97551   1.97828   1.98306   1.98442
 Alpha virt. eigenvalues --    1.98452   1.98555   1.98785   1.99037   1.99433
 Alpha virt. eigenvalues --    1.99502   1.99835   2.00123   2.00179   2.00305
 Alpha virt. eigenvalues --    2.00595   2.00771   2.01220   2.01332   2.01655
 Alpha virt. eigenvalues --    2.02050   2.02271   2.02449   2.02810   2.03151
 Alpha virt. eigenvalues --    2.03356   2.03759   2.03844   2.04093   2.04176
 Alpha virt. eigenvalues --    2.04393   2.04962   2.05256   2.05561   2.05805
 Alpha virt. eigenvalues --    2.06363   2.06521   2.06750   2.07075   2.07404
 Alpha virt. eigenvalues --    2.07671   2.07893   2.08185   2.08522   2.08974
 Alpha virt. eigenvalues --    2.09117   2.09560   2.09952   2.10274   2.10432
 Alpha virt. eigenvalues --    2.10473   2.10759   2.11257   2.11904   2.11943
 Alpha virt. eigenvalues --    2.12540   2.12678   2.12921   2.13036   2.13141
 Alpha virt. eigenvalues --    2.13345   2.13629   2.13724   2.13968   2.14338
 Alpha virt. eigenvalues --    2.14512   2.14963   2.15181   2.16109   2.16247
 Alpha virt. eigenvalues --    2.16917   2.17333   2.17585   2.17819   2.17997
 Alpha virt. eigenvalues --    2.18292   2.18398   2.18550   2.19150   2.19446
 Alpha virt. eigenvalues --    2.19585   2.19724   2.19887   2.20442   2.21413
 Alpha virt. eigenvalues --    2.21592   2.21802   2.21983   2.22347   2.22583
 Alpha virt. eigenvalues --    2.22826   2.23264   2.23535   2.23966   2.24357
 Alpha virt. eigenvalues --    2.24623   2.25019   2.25229   2.25534   2.26654
 Alpha virt. eigenvalues --    2.26790   2.26925   2.27297   2.27925   2.28923
 Alpha virt. eigenvalues --    2.29146   2.29606   2.29840   2.30444   2.30960
 Alpha virt. eigenvalues --    2.31008   2.31784   2.32145   2.32284   2.32653
 Alpha virt. eigenvalues --    2.33163   2.33597   2.33812   2.34225   2.34459
 Alpha virt. eigenvalues --    2.34973   2.35190   2.36058   2.36494   2.37212
 Alpha virt. eigenvalues --    2.37747   2.38283   2.39219   2.39426   2.39487
 Alpha virt. eigenvalues --    2.40097   2.40301   2.40556   2.40991   2.41373
 Alpha virt. eigenvalues --    2.41836   2.41931   2.42046   2.42232   2.42364
 Alpha virt. eigenvalues --    2.43227   2.43440   2.43625   2.44370   2.44770
 Alpha virt. eigenvalues --    2.45015   2.45030   2.45099   2.45913   2.46134
 Alpha virt. eigenvalues --    2.46349   2.46651   2.47457   2.47468   2.47824
 Alpha virt. eigenvalues --    2.48295   2.48840   2.48952   2.49113   2.49216
 Alpha virt. eigenvalues --    2.49589   2.49926   2.50222   2.50675   2.50888
 Alpha virt. eigenvalues --    2.51471   2.52022   2.52684   2.53219   2.53377
 Alpha virt. eigenvalues --    2.54424   2.54777   2.54870   2.55056   2.55595
 Alpha virt. eigenvalues --    2.55762   2.56467   2.56686   2.56752   2.56799
 Alpha virt. eigenvalues --    2.57138   2.57321   2.57664   2.58042   2.59117
 Alpha virt. eigenvalues --    2.59743   2.60339   2.60807   2.61427   2.61770
 Alpha virt. eigenvalues --    2.61814   2.61951   2.62946   2.63754   2.63907
 Alpha virt. eigenvalues --    2.64288   2.64541   2.64688   2.65168   2.65265
 Alpha virt. eigenvalues --    2.65790   2.65944   2.66705   2.66848   2.67023
 Alpha virt. eigenvalues --    2.67804   2.68204   2.69274   2.69552   2.69884
 Alpha virt. eigenvalues --    2.70249   2.70351   2.70530   2.70680   2.70958
 Alpha virt. eigenvalues --    2.71602   2.72023   2.72150   2.72486   2.73328
 Alpha virt. eigenvalues --    2.73632   2.73686   2.74438   2.74806   2.75447
 Alpha virt. eigenvalues --    2.75790   2.76679   2.77021   2.77199   2.77892
 Alpha virt. eigenvalues --    2.78076   2.78474   2.78562   2.79199   2.79493
 Alpha virt. eigenvalues --    2.80100   2.80491   2.81074   2.81698   2.81942
 Alpha virt. eigenvalues --    2.82663   2.82948   2.83377   2.83747   2.83881
 Alpha virt. eigenvalues --    2.84135   2.84682   2.84748   2.84873   2.85347
 Alpha virt. eigenvalues --    2.85448   2.85565   2.86482   2.87005   2.88360
 Alpha virt. eigenvalues --    2.88429   2.89018   2.89256   2.90496   2.90831
 Alpha virt. eigenvalues --    2.91108   2.91827   2.92245   2.92450   2.92829
 Alpha virt. eigenvalues --    2.94063   2.94379   2.94559   2.95651   2.95956
 Alpha virt. eigenvalues --    2.96288   2.96426   2.97129   2.97738   2.97808
 Alpha virt. eigenvalues --    2.98645   2.99517   2.99576   2.99825   2.99925
 Alpha virt. eigenvalues --    3.00021   3.00124   3.00372   3.01687   3.01767
 Alpha virt. eigenvalues --    3.02084   3.02316   3.02734   3.02782   3.03240
 Alpha virt. eigenvalues --    3.03316   3.03598   3.03844   3.04692   3.04733
 Alpha virt. eigenvalues --    3.04970   3.05316   3.05483   3.05666   3.06163
 Alpha virt. eigenvalues --    3.06366   3.06677   3.07636   3.07784   3.08024
 Alpha virt. eigenvalues --    3.08384   3.08441   3.08744   3.09268   3.09848
 Alpha virt. eigenvalues --    3.10155   3.10668   3.10877   3.10975   3.11283
 Alpha virt. eigenvalues --    3.11870   3.12360   3.12637   3.12922   3.13311
 Alpha virt. eigenvalues --    3.13681   3.13744   3.13933   3.14768   3.14921
 Alpha virt. eigenvalues --    3.15032   3.15444   3.16087   3.16169   3.16981
 Alpha virt. eigenvalues --    3.17054   3.17685   3.17892   3.18982   3.19138
 Alpha virt. eigenvalues --    3.19500   3.21380   3.21664   3.22946   3.23101
 Alpha virt. eigenvalues --    3.24639   3.25527   3.26229   3.26822   3.27540
 Alpha virt. eigenvalues --    3.27837   3.28844   3.29446   3.31140   3.31888
 Alpha virt. eigenvalues --    3.34878   3.36302   3.47171   3.47345   3.49066
 Alpha virt. eigenvalues --    3.49580   3.53187   3.54145   3.57972   3.59449
 Alpha virt. eigenvalues --    3.63442   3.67427   3.72980   3.73928   3.75641
 Alpha virt. eigenvalues --    3.76267   3.76284
          Condensed to atoms (all electrons):
 Mulliken charges:
               1
     1  Mg   0.971197
     2  C   -0.044076
     3  C   -0.092556
     4  C   -0.085515
     5  C   -0.092173
     6  N   -0.261619
     7  C   -0.050223
     8  C   -0.069469
     9  C   -0.079927
    10  C   -0.027215
    11  C    0.046235
    12  C    0.076338
    13  C   -0.015521
    14  C    0.216934
    15  O   -0.254150
    16  O   -0.389830
    17  N   -0.458590
    18  C    0.216120
    19  C   -0.175824
    20  C   -0.094352
    21  C    0.177085
    22  C    0.086590
    23  C    0.047554
    24  O   -0.175619
    25  C   -0.052178
    26  N   -0.371483
    27  C    0.063841
    28  C   -0.115034
    29  C   -0.068607
    30  C    0.050999
    31  C    0.017875
    32  C    0.021763
    33  C   -0.053674
    34  N   -0.456320
    35  C    0.116738
    36  C   -0.199401
    37  C   -0.055229
    38  C    0.170144
    39  C    0.094103
    40  C    0.118974
    41  O   -0.184347
    42  C   -0.085498
    43  C    0.271152
    44  O   -0.235421
    45  O   -0.353224
    46  C    0.134067
    47  C    0.230347
    48  C   -0.108901
    49  C   -0.167091
    50  C    0.011726
    51  C    0.014552
    52  C   -0.041979
    53  C    0.049546
    54  C   -0.190290
    55  C    0.013250
    56  C    0.005311
    57  C   -0.037557
    58  C    0.034964
    59  C   -0.147633
    60  C   -0.034621
    61  C   -0.002722
    62  C   -0.048911
    63  C    0.004678
    64  C   -0.197628
    65  C   -0.020538
    66  C    0.013879
    67  H    0.001928
    68  H    0.020898
    69  H   -0.012232
    70  H    0.029994
    71  H    0.026345
    72  H    0.042800
    73  H    0.041228
    74  H    0.056931
    75  H    0.021186
    76  H    0.039586
    77  H    0.070288
    78  H    0.063478
    79  H    0.053777
    80  H    0.033681
    81  H    0.055558
    82  H    0.049383
    83  H    0.039281
    84  H    0.064341
    85  H    0.037409
    86  H    0.028568
    87  H    0.051951
    88  H    0.036877
    89  H    0.035576
    90  H    0.037566
    91  H    0.028523
    92  H    0.044662
    93  H    0.027688
    94  H    0.037514
    95  H    0.024784
    96  H    0.039320
    97  H    0.052245
    98  H    0.068500
    99  H    0.045541
   100  H    0.057122
   101  H    0.044664
   102  H    0.039191
   103  H    0.040075
   104  H    0.016544
   105  H    0.062890
   106  H    0.042024
   107  H    0.029543
   108  H    0.014240
   109  H    0.028756
   110  H    0.022327
   111  H    0.013593
   112  H    0.010202
   113  H    0.020549
   114  H    0.022496
   115  H    0.037692
   116  H    0.034270
   117  H    0.028809
   118  H    0.028735
   119  H    0.008857
   120  H    0.030308
   121  H    0.014529
   122  H    0.020719
   123  H    0.008233
   124  H    0.017891
   125  H    0.011337
   126  H    0.018901
   127  H    0.025790
   128  H    0.006101
   129  H    0.005053
   130  H    0.017601
   131  H    0.026501
   132  H    0.021979
   133  H    0.008701
   134  H    0.023768
   135  H    0.024572
   136  H    0.024777
   137  H    0.030857
   138  H    0.032601
   139  H    0.032071
   140  H    0.018936
 Sum of Mulliken charges =  -0.00000
 Mulliken charges with hydrogens summed into heavy atoms:
               1
     1  Mg   0.971197
     2  C   -0.044076
     3  C   -0.090627
     4  C   -0.064617
     5  C   -0.104405
     6  N   -0.261619
     7  C   -0.050223
     8  C   -0.039475
     9  C   -0.053582
    10  C   -0.027215
    11  C    0.187194
    12  C    0.137111
    13  C    0.118245
    14  C    0.216934
    15  O   -0.254150
    16  O   -0.389830
    17  N   -0.458590
    18  C    0.216120
    19  C   -0.175824
    20  C   -0.094352
    21  C    0.177085
    22  C    0.229607
    23  C    0.047554
    24  O   -0.175619
    25  C    0.100828
    26  N   -0.371483
    27  C    0.063841
    28  C   -0.077626
    29  C   -0.040039
    30  C    0.050999
    31  C    0.142279
    32  C    0.087852
    33  C    0.056190
    34  N   -0.456320
    35  C    0.116738
    36  C   -0.199401
    37  C   -0.055229
    38  C    0.170144
    39  C    0.210452
    40  C    0.118974
    41  O   -0.184347
    42  C   -0.016998
    43  C    0.271152
    44  O   -0.235421
    45  O   -0.353224
    46  C    0.281394
    47  C    0.309614
    48  C   -0.092357
    49  C   -0.167091
    50  C    0.146182
    51  C    0.057549
    52  C   -0.006059
    53  C    0.080298
    54  C   -0.167795
    55  C    0.114020
    56  C    0.042903
    57  C    0.007280
    58  C    0.063917
    59  C   -0.129742
    60  C    0.021407
    61  C    0.008432
    62  C   -0.004810
    63  C    0.035358
    64  C   -0.173859
    65  C    0.059669
    66  C    0.097487
 Electronic spatial extent (au):  <R**2>=         138807.6672
 Charge=             -0.0000 electrons
 Dipole moment (field-independent basis, Debye):
    X=             -4.3364    Y=              4.5642    Z=              0.7306  Tot=              6.3380
 Quadrupole moment (field-independent basis, Debye-Ang):
   XX=           -388.4278   YY=           -413.4390   ZZ=           -399.0764
   XY=             13.5198   XZ=             23.0037   YZ=              2.8343
 Traceless Quadrupole moment (field-independent basis, Debye-Ang):
   XX=             11.8866   YY=            -13.1246   ZZ=              1.2380
   XY=             13.5198   XZ=             23.0037   YZ=              2.8343
 Octapole moment (field-independent basis, Debye-Ang**2):
  XXX=            115.0613  YYY=            133.6929  ZZZ=            -17.8164  XYY=           -144.2090
  XXY=           -235.9198  XXZ=            101.9125  XZZ=             28.6568  YZZ=             16.5315
  YYZ=           -109.7765  XYZ=            -24.7672
 Hexadecapole moment (field-independent basis, Debye-Ang**3):
 XXXX=        -159954.2404 YYYY=         -19617.3216 ZZZZ=          -8803.5330 XXXY=          -1271.9371
 XXXZ=           2246.6978 YYYX=            560.6434 YYYZ=            100.1353 ZZZX=            157.4171
 ZZZY=            -66.8565 XXYY=         -31945.0177 XXZZ=         -28536.3532 YYZZ=          -4635.2301
 XXYZ=            -94.9543 YYXZ=           -153.7902 ZZXY=            273.3293
 N-N= 9.390557141334D+03 E-N=-2.577485629721D+04  KE= 2.976449581132D+03
 Leave Link  601 at Wed Apr 27 15:28:55 2022, MaxMem= 10066329600 cpu:              11.8 elap:               0.6
 (Enter /sw/apps/gaussian-16.0/g16/l9999.exe)
 1\1\GINC-BP1-COMPUTE070\SP\RwB97XD TD-FC\def2SVP\C55H74Mg1N4O6\OF15641
 \27-Apr-2022\0\\#p wB97XD/Def2SVP td=(nstates=5)\\step_1201_chromophor
 e_7 TDDFT with wB97XD functional\\0,1\Mg,0,25.944,0.123,29.595\C,0,27.
 705,-0.518,32.657\C,0,23.019,0.059,31.666\C,0,24.111,-0.072,26.843\C,0
 ,28.772,-0.805,27.891\N,0,25.426,-0.206,31.918\C,0,26.372,-0.295,32.93
 7\C,0,25.743,-0.137,34.273\C,0,24.224,-0.373,33.938\C,0,24.216,-0.129,
 32.41\C,0,23.682,-1.816,34.123\C,0,26.116,1.268,34.9\C,0,26.556,1.275,
 36.374\C,0,25.88,0.397,37.39\O,0,24.799,-0.145,37.232\O,0,26.693,0.292
 ,38.529\N,0,23.893,0.195,29.277\C,0,22.895,0.211,30.291\C,0,21.596,0.4
 31,29.615\C,0,21.862,0.48,28.228\C,0,23.363,0.116,28.081\C,0,20.3,0.68
 3,30.383\C,0,20.869,0.713,27.103\O,0,21.162,0.576,25.974\C,0,19.338,0.
 832,27.458\N,0,26.315,-0.605,27.627\C,0,25.43,-0.427,26.648\C,0,26.169
 ,-0.359,25.247\C,0,27.66,-0.324,25.729\C,0,27.609,-0.538,27.171\C,0,25
 .869,-1.561,24.266\C,0,28.429,0.961,25.369\C,0,29.782,0.696,24.608\N,0
 ,27.822,-0.441,30.088\C,0,28.902,-0.745,29.304\C,0,30.089,-0.857,30.06
 2\C,0,29.653,-0.819,31.385\C,0,28.25,-0.633,31.356\C,0,31.52,-0.986,29
 .617\C,0,30.135,-0.906,32.782\O,0,31.257,-1.032,33.221\C,0,28.838,-0.7
 59,33.673\C,0,28.747,-1.964,34.46\O,0,27.973,-2.874,34.233\O,0,29.579,
 -1.875,35.552\C,0,29.115,-2.606,36.683\C,0,26.207,-0.57,39.591\C,0,26.
 021,0.139,40.881\C,0,24.932,0.658,41.441\C,0,23.529,0.756,40.857\C,0,2
 4.972,1.073,42.928\C,0,24.563,0.018,43.93\C,0,23.16,0.106,44.506\C,0,2
 3.149,0.551,46.021\C,0,22.61,-0.538,46.993\C,0,22.461,1.944,46.238\C,0
 ,23.207,2.721,47.338\C,0,22.183,3.206,48.253\C,0,22.657,4.149,49.352\C
 ,0,22.374,3.635,50.785\C,0,22.131,5.625,49.288\C,0,22.785,6.506,48.161
 \C,0,21.996,7.784,47.802\C,0,22.643,8.684,46.777\C,0,23.153,10.044,47.
 479\C,0,21.878,8.979,45.512\H,0,22.14,0.222,32.293\H,0,23.595,-0.092,2
 5.881\H,0,29.702,-1.004,27.355\H,0,26.144,-0.938,34.894\H,0,23.611,0.4
 28,34.353\H,0,23.421,-2.283,33.173\H,0,22.752,-1.802,34.69\H,0,24.425,
 -2.473,34.576\H,0,25.23,1.89,34.771\H,0,26.867,1.704,34.242\H,0,26.404
 ,2.26,36.814\H,0,27.626,1.069,36.368\H,0,19.836,1.618,30.073\H,0,20.51
 7,0.744,31.449\H,0,19.589,-0.127,30.219\H,0,18.986,-0.036,28.015\H,0,1
 8.794,0.619,26.538\H,0,19.,1.802,27.821\H,0,25.892,0.579,24.767\H,0,28
 .077,-1.272,25.39\H,0,24.793,-1.697,24.158\H,0,26.422,-2.437,24.605\H,
 0,26.304,-1.381,23.283\H,0,28.624,1.436,26.331\H,0,27.8,1.633,24.787\H
 ,0,30.564,1.447,24.714\H,0,29.559,0.735,23.542\H,0,30.073,-0.334,24.81
 4\H,0,31.584,-1.258,28.563\H,0,31.892,-1.844,30.177\H,0,32.256,-0.264,
 29.972\H,0,28.914,0.112,34.325\H,0,30.004,-2.712,37.306\H,0,28.868,-3.
 648,36.477\H,0,28.34,-2.05,37.211\H,0,26.917,-1.394,39.517\H,0,25.212,
 -0.881,39.272\H,0,26.848,-0.22,41.494\H,0,22.882,-0.12,40.892\H,0,23.5
 69,1.013,39.798\H,0,22.959,1.577,41.292\H,0,24.287,1.914,43.033\H,0,25
 .98,1.422,43.152\H,0,25.402,0.007,44.626\H,0,24.663,-0.963,43.466\H,0,
 22.824,-0.931,44.49\H,0,22.582,0.757,43.849\H,0,24.202,0.747,46.22\H,0
 ,21.618,-0.279,47.363\H,0,23.334,-0.601,47.806\H,0,22.578,-1.523,46.52
 7\H,0,21.382,1.926,46.393\H,0,22.648,2.628,45.41\H,0,23.853,3.504,46.9
 4\H,0,23.788,2.003,47.918\H,0,21.615,2.394,48.708\H,0,21.546,3.829,47.
 626\H,0,23.727,4.343,49.43\H,0,22.401,2.546,50.765\H,0,21.417,3.833,51
 .268\H,0,23.045,3.895,51.604\H,0,22.291,5.927,50.323\H,0,21.043,5.692,
 49.297\H,0,22.772,5.95,47.224\H,0,23.783,6.848,48.438\H,0,21.817,8.25,
 48.771\H,0,21.08,7.362,47.389\H,0,23.561,8.157,46.52\H,0,22.962,10.018
 ,48.552\H,0,22.642,10.875,46.992\H,0,24.221,10.248,47.41\H,0,22.312,8.
 302,44.776\H,0,21.811,10.036,45.255\H,0,20.825,8.698,45.506\\Version=E
 S64L-G16RevA.03\State=1-A\HF=-3007.8535353\RMSD=7.302e-09\PG=C01 [X(C5
 5H74Mg1N4O6)]\\@


 IF AT FIRST YOU DON'T SUCCEED, TRY, TRY AGAIN.
 THEN GIVE UP;
 THERE'S NO USE BEING A DAMN FOOL ABOUT IT.

                                 -- W. C. FIELDS
 Job cpu time:       0 days  9 hours 51 minutes 53.8 seconds.
 Elapsed time:       0 days  0 hours 25 minutes  6.4 seconds.
 File lengths (MBytes):  RWF=   8929 Int=      0 D2E=      0 Chk=    390 Scr=      1
 Normal termination of Gaussian 16 at Wed Apr 27 15:28:55 2022.
