 Entering Gaussian System, Link 0=g16
 Initial command:
 /sw/apps/gaussian-16.0/g16/l1.exe "/tmp/Gau-79996.inp" -scrdir="/tmp/"
 Entering Link 1 = /sw/apps/gaussian-16.0/g16/l1.exe PID=     79997.
  
 Copyright (c) 1988,1990,1992,1993,1995,1998,2003,2009,2016,
            Gaussian, Inc.  All Rights Reserved.
  
 This is part of the Gaussian(R) 16 program.  It is based on
 the Gaussian(R) 09 system (copyright 2009, Gaussian, Inc.),
 the Gaussian(R) 03 system (copyright 2003, Gaussian, Inc.),
 the Gaussian(R) 98 system (copyright 1998, Gaussian, Inc.),
 the Gaussian(R) 94 system (copyright 1995, Gaussian, Inc.),
 the Gaussian 92(TM) system (copyright 1992, Gaussian, Inc.),
 the Gaussian 90(TM) system (copyright 1990, Gaussian, Inc.),
 the Gaussian 88(TM) system (copyright 1988, Gaussian, Inc.),
 the Gaussian 86(TM) system (copyright 1986, Carnegie Mellon
 University), and the Gaussian 82(TM) system (copyright 1983,
 Carnegie Mellon University). Gaussian is a federally registered
 trademark of Gaussian, Inc.
  
 This software contains proprietary and confidential information,
 including trade secrets, belonging to Gaussian, Inc.
  
 This software is provided under written license and may be
 used, copied, transmitted, or stored only in accord with that
 written license.
  
 The following legend is applicable only to US Government
 contracts under FAR:
  
                    RESTRICTED RIGHTS LEGEND
  
 Use, reproduction and disclosure by the US Government is
 subject to restrictions as set forth in subparagraphs (a)
 and (c) of the Commercial Computer Software - Restricted
 Rights clause in FAR 52.227-19.
  
 Gaussian, Inc.
 340 Quinnipiac St., Bldg. 40, Wallingford CT 06492
  
  
 ---------------------------------------------------------------
 Warning -- This program may not be used in any manner that
 competes with the business of Gaussian, Inc. or will provide
 assistance to any competitor of Gaussian, Inc.  The licensee
 of this program is prohibited from giving any competitor of
 Gaussian, Inc. access to this program.  By using this program,
 the user acknowledges that Gaussian, Inc. is engaged in the
 business of creating and licensing software in the field of
 computational chemistry and represents and warrants to the
 licensee that it is not a competitor of Gaussian, Inc. and that
 it will not use this program in any manner prohibited above.
 ---------------------------------------------------------------
  

 Cite this work as:
 Gaussian 16, Revision A.03,
 M. J. Frisch, G. W. Trucks, H. B. Schlegel, G. E. Scuseria, 
 M. A. Robb, J. R. Cheeseman, G. Scalmani, V. Barone, 
 G. A. Petersson, H. Nakatsuji, X. Li, M. Caricato, A. V. Marenich, 
 J. Bloino, B. G. Janesko, R. Gomperts, B. Mennucci, H. P. Hratchian, 
 J. V. Ortiz, A. F. Izmaylov, J. L. Sonnenberg, D. Williams-Young, 
 F. Ding, F. Lipparini, F. Egidi, J. Goings, B. Peng, A. Petrone, 
 T. Henderson, D. Ranasinghe, V. G. Zakrzewski, J. Gao, N. Rega, 
 G. Zheng, W. Liang, M. Hada, M. Ehara, K. Toyota, R. Fukuda, 
 J. Hasegawa, M. Ishida, T. Nakajima, Y. Honda, O. Kitao, H. Nakai, 
 T. Vreven, K. Throssell, J. A. Montgomery, Jr., J. E. Peralta, 
 F. Ogliaro, M. J. Bearpark, J. J. Heyd, E. N. Brothers, K. N. Kudin, 
 V. N. Staroverov, T. A. Keith, R. Kobayashi, J. Normand, 
 K. Raghavachari, A. P. Rendell, J. C. Burant, S. S. Iyengar, 
 J. Tomasi, M. Cossi, J. M. Millam, M. Klene, C. Adamo, R. Cammi, 
 J. W. Ochterski, R. L. Martin, K. Morokuma, O. Farkas, 
 J. B. Foresman, and D. J. Fox, Gaussian, Inc., Wallingford CT, 2016.
 
 ******************************************
 Gaussian 16:  ES64L-G16RevA.03 25-Dec-2016
                30-Apr-2022 
 ******************************************
 %nproc=24
 Will use up to   24 processors via shared memory.
 %mem=50gb
 --------------------
 #p ZINDO=(nstates=5)
 --------------------
 1/38=1,172=1/1;
 2/12=2,17=6,18=5,40=1/2;
 3/5=2,25=1,41=400000/1,2,3,8;
 4/5=3,35=1/1;
 5/5=2,35=1,38=5/2;
 8/6=1,108=5/1;
 9/41=5,42=1,49=10/14;
 6/7=2,8=2,9=2,10=2/1;
 99/5=1,9=1/99;
 Leave Link    1 at Sat Apr 30 07:49:04 2022, MaxMem=  6710886400 cpu:               0.8 elap:               0.0
 (Enter /sw/apps/gaussian-16.0/g16/l101.exe)
 -----------------------------
 step_651_chromophore_14 ZINDO
 -----------------------------
 Symbolic Z-matrix:
 Charge =  0 Multiplicity = 1
 Mg                    46.504    44.971    42.905 
 C                     43.118    44.239    42.477 
 C                     47.305    41.654    42.674 
 C                     49.758    45.869    42.439 
 C                     45.766    48.501    42.441 
 N                     45.352    43.136    42.679 
 C                     43.937    43.124    42.508 
 C                     43.46     41.702    42.317 
 C                     44.752    40.857    42.617 
 C                     45.88     41.918    42.63 
 C                     44.825    40.154    44.008 
 C                     42.811    41.324    40.956 
 C                     43.165    42.164    39.641 
 C                     43.055    41.36     38.303 
 O                     42.673    40.199    38.242 
 O                     43.695    42.049    37.296 
 N                     48.297    43.853    42.579 
 C                     48.409    42.516    42.425 
 C                     49.716    42.181    42.216 
 C                     50.543    43.323    42.164 
 C                     49.526    44.452    42.422 
 C                     50.089    40.707    41.937 
 C                     52.012    43.445    41.837 
 O                     52.643    42.392    41.778 
 C                     52.734    44.709    41.527 
 N                     47.599    46.974    42.289 
 C                     48.925    46.971    42.475 
 C                     49.425    48.459    42.501 
 C                     48.196    49.329    42.339 
 C                     47.103    48.18     42.324 
 C                     50.375    48.795    43.692 
 C                     48.167    50.23     41.061 
 C                     47.545    51.604    41.242 
 N                     44.805    46.207    42.559 
 C                     44.623    47.566    42.468 
 C                     43.159    47.884    42.469 
 C                     42.572    46.583    42.472 
 C                     43.587    45.626    42.5 
 C                     42.588    49.139    42.51 
 C                     41.298    45.871    42.42 
 O                     40.124    46.281    42.381 
 C                     41.626    44.378    42.566 
 C                     41.094    43.881    43.815 
 O                     40.214    43.046    43.912 
 O                     41.629    44.477    44.896 
 C                     41.032    44.284    46.218 
 C                     43.911    41.248    36.064 
 C                     44.424    42.41     35.174 
 C                     45.145    42.344    34.08 
 C                     45.709    41.032    33.444 
 C                     45.541    43.552    33.325 
 C                     44.776    43.766    31.972 
 C                     45.657    44.056    30.705 
 C                     44.86     43.778    29.361 
 C                     43.411    44.382    29.343 
 C                     44.608    42.261    29.166 
 C                     45.065    41.78     27.77 
 C                     44.002    42.061    26.618 
 C                     44.62     43.228    25.731 
 C                     43.796    44.483    26.014 
 C                     44.543    42.846    24.187 
 C                     45.631    43.528    23.336 
 C                     46.204    42.49     22.293 
 C                     47.682    42.691    21.73 
 C                     47.684    42.532    20.199 
 C                     48.75     41.744    22.309 
 H                     47.522    40.6      42.864 
 H                     50.808    46.054    42.205 
 H                     45.611    49.565    42.628 
 H                     42.632    41.561    43.012 
 H                     44.937    40.199    41.768 
 H                     43.861    40.359    44.474 
 H                     45.647    40.543    44.608 
 H                     44.962    39.092    43.804 
 H                     41.744    41.402    41.165 
 H                     42.979    40.262    40.778 
 H                     44.216    42.448    39.59 
 H                     42.448    42.984    39.595 
 H                     49.343    39.976    42.247 
 H                     50.908    40.342    42.556 
 H                     50.499    40.519    40.945 
 H                     52.674    45.29     42.447 
 H                     52.25     45.188    40.675 
 H                     53.774    44.408    41.398 
 H                     50.012    48.593    41.592 
 H                     47.983    49.882    43.254 
 H                     51.432    48.817    43.425 
 H                     50.239    48.045    44.47 
 H                     50.111    49.813    43.977 
 H                     47.556    49.587    40.427 
 H                     49.117    50.483    40.59 
 H                     47.19     51.859    42.24 
 H                     46.782    51.77     40.482 
 H                     48.245    52.435    41.158 
 H                     42.81     49.642    41.569 
 H                     42.98     49.689    43.365 
 H                     41.501    49.223    42.52 
 H                     41.141    43.688    41.877 
 H                     39.951    44.264    46.078 
 H                     41.269    45.153    46.832 
 H                     41.38     43.407    46.764 
 H                     42.965    40.865    35.68 
 H                     44.576    40.387    36.127 
 H                     44.227    43.426    35.514 
 H                     45.035    40.227    33.736 
 H                     46.635    40.881    34. 
 H                     45.865    41.042    32.365 
 H                     46.614    43.472    33.155 
 H                     45.472    44.427    33.97 
 H                     44.057    44.579    32.074 
 H                     44.443    42.746    31.781 
 H                     46.582    43.479    30.719 
 H                     45.924    45.103    30.845 
 H                     45.463    44.098    28.511 
 H                     42.783    44.223    28.466 
 H                     43.455    45.444    29.58 
 H                     42.898    43.986    30.219 
 H                     43.535    42.07     29.141 
 H                     45.041    41.667    29.971 
 H                     45.33     40.724    27.72 
 H                     46.003    42.276    27.522 
 H                     43.054    42.248    27.123 
 H                     43.814    41.179    26.007 
 H                     45.597    43.629    26. 
 H                     42.719    44.372    26.143 
 H                     43.904    45.111    25.13 
 H                     44.168    44.942    26.93 
 H                     43.534    43.07     23.843 
 H                     44.634    41.761    24.135 
 H                     46.369    43.954    24.015 
 H                     45.101    44.3      22.778 
 H                     45.432    42.446    21.525 
 H                     46.252    41.473    22.683 
 H                     48.043    43.686    21.989 
 H                     46.673    42.578    19.796 
 H                     48.011    41.547    19.867 
 H                     48.307    43.306    19.75 
 H                     48.322    40.742    22.273 
 H                     48.996    41.965    23.347 
 H                     49.667    41.942    21.753 
 
 ITRead=  0  0  0  0  0  0  0  0  0  0  0  0  0  0  0  0  0  0  0  0
 ITRead=  0  0  0  0  0  0  0  0  0  0  0  0  0  0  0  0  0  0  0  0
 ITRead=  0  0  0  0  0  0  0  0  0  0  0  0  0  0  0  0  0  0  0  0
 ITRead=  0  0  0  0  0  0  0  0  0  0  0  0  0  0  0  0  0  0  0  0
 ITRead=  0  0  0  0  0  0  0  0  0  0  0  0  0  0  0  0  0  0  0  0
 ITRead=  0  0  0  0  0  0  0  0  0  0  0  0  0  0  0  0  0  0  0  0
 ITRead=  0  0  0  0  0  0  0  0  0  0  0  0  0  0  0  0  0  0  0  0
 MicOpt= -1 -1 -1 -1 -1 -1 -1 -1 -1 -1 -1 -1 -1 -1 -1 -1 -1 -1 -1 -1
 MicOpt= -1 -1 -1 -1 -1 -1 -1 -1 -1 -1 -1 -1 -1 -1 -1 -1 -1 -1 -1 -1
 MicOpt= -1 -1 -1 -1 -1 -1 -1 -1 -1 -1 -1 -1 -1 -1 -1 -1 -1 -1 -1 -1
 MicOpt= -1 -1 -1 -1 -1 -1 -1 -1 -1 -1 -1 -1 -1 -1 -1 -1 -1 -1 -1 -1
 MicOpt= -1 -1 -1 -1 -1 -1 -1 -1 -1 -1 -1 -1 -1 -1 -1 -1 -1 -1 -1 -1
 MicOpt= -1 -1 -1 -1 -1 -1 -1 -1 -1 -1 -1 -1 -1 -1 -1 -1 -1 -1 -1 -1
 MicOpt= -1 -1 -1 -1 -1 -1 -1 -1 -1 -1 -1 -1 -1 -1 -1 -1 -1 -1 -1 -1
 NAtoms=    140 NQM=      140 NQMF=       0 NMMI=      0 NMMIF=      0
                NMic=       0 NMicF=      0.
                    Isotopes and Nuclear Properties:
 (Nuclear quadrupole moments (NQMom) in fm**2, nuclear magnetic moments (NMagM)
  in nuclear magnetons)

  Atom         1           2           3           4           5           6           7           8           9          10
 IAtWgt=          24          12          12          12          12          14          12          12          12          12
 AtmWgt=  23.9850450  12.0000000  12.0000000  12.0000000  12.0000000  14.0030740  12.0000000  12.0000000  12.0000000  12.0000000
 NucSpn=           0           0           0           0           0           2           0           0           0           0
 AtZEff=  -0.0000000  -0.0000000  -0.0000000  -0.0000000  -0.0000000  -0.0000000  -0.0000000  -0.0000000  -0.0000000  -0.0000000
 NQMom=    0.0000000   0.0000000   0.0000000   0.0000000   0.0000000   2.0440000   0.0000000   0.0000000   0.0000000   0.0000000
 NMagM=    0.0000000   0.0000000   0.0000000   0.0000000   0.0000000   0.4037610   0.0000000   0.0000000   0.0000000   0.0000000
 AtZNuc=  12.0000000   6.0000000   6.0000000   6.0000000   6.0000000   7.0000000   6.0000000   6.0000000   6.0000000   6.0000000

  Atom        11          12          13          14          15          16          17          18          19          20
 IAtWgt=          12          12          12          12          16          16          14          12          12          12
 AtmWgt=  12.0000000  12.0000000  12.0000000  12.0000000  15.9949146  15.9949146  14.0030740  12.0000000  12.0000000  12.0000000
 NucSpn=           0           0           0           0           0           0           2           0           0           0
 AtZEff=  -0.0000000  -0.0000000  -0.0000000  -0.0000000  -0.0000000  -0.0000000  -0.0000000  -0.0000000  -0.0000000  -0.0000000
 NQMom=    0.0000000   0.0000000   0.0000000   0.0000000   0.0000000   0.0000000   2.0440000   0.0000000   0.0000000   0.0000000
 NMagM=    0.0000000   0.0000000   0.0000000   0.0000000   0.0000000   0.0000000   0.4037610   0.0000000   0.0000000   0.0000000
 AtZNuc=   6.0000000   6.0000000   6.0000000   6.0000000   8.0000000   8.0000000   7.0000000   6.0000000   6.0000000   6.0000000

  Atom        21          22          23          24          25          26          27          28          29          30
 IAtWgt=          12          12          12          16          12          14          12          12          12          12
 AtmWgt=  12.0000000  12.0000000  12.0000000  15.9949146  12.0000000  14.0030740  12.0000000  12.0000000  12.0000000  12.0000000
 NucSpn=           0           0           0           0           0           2           0           0           0           0
 AtZEff=  -0.0000000  -0.0000000  -0.0000000  -0.0000000  -0.0000000  -0.0000000  -0.0000000  -0.0000000  -0.0000000  -0.0000000
 NQMom=    0.0000000   0.0000000   0.0000000   0.0000000   0.0000000   2.0440000   0.0000000   0.0000000   0.0000000   0.0000000
 NMagM=    0.0000000   0.0000000   0.0000000   0.0000000   0.0000000   0.4037610   0.0000000   0.0000000   0.0000000   0.0000000
 AtZNuc=   6.0000000   6.0000000   6.0000000   8.0000000   6.0000000   7.0000000   6.0000000   6.0000000   6.0000000   6.0000000

  Atom        31          32          33          34          35          36          37          38          39          40
 IAtWgt=          12          12          12          14          12          12          12          12          12          12
 AtmWgt=  12.0000000  12.0000000  12.0000000  14.0030740  12.0000000  12.0000000  12.0000000  12.0000000  12.0000000  12.0000000
 NucSpn=           0           0           0           2           0           0           0           0           0           0
 AtZEff=  -0.0000000  -0.0000000  -0.0000000  -0.0000000  -0.0000000  -0.0000000  -0.0000000  -0.0000000  -0.0000000  -0.0000000
 NQMom=    0.0000000   0.0000000   0.0000000   2.0440000   0.0000000   0.0000000   0.0000000   0.0000000   0.0000000   0.0000000
 NMagM=    0.0000000   0.0000000   0.0000000   0.4037610   0.0000000   0.0000000   0.0000000   0.0000000   0.0000000   0.0000000
 AtZNuc=   6.0000000   6.0000000   6.0000000   7.0000000   6.0000000   6.0000000   6.0000000   6.0000000   6.0000000   6.0000000

  Atom        41          42          43          44          45          46          47          48          49          50
 IAtWgt=          16          12          12          16          16          12          12          12          12          12
 AtmWgt=  15.9949146  12.0000000  12.0000000  15.9949146  15.9949146  12.0000000  12.0000000  12.0000000  12.0000000  12.0000000
 NucSpn=           0           0           0           0           0           0           0           0           0           0
 AtZEff=  -0.0000000  -0.0000000  -0.0000000  -0.0000000  -0.0000000  -0.0000000  -0.0000000  -0.0000000  -0.0000000  -0.0000000
 NQMom=    0.0000000   0.0000000   0.0000000   0.0000000   0.0000000   0.0000000   0.0000000   0.0000000   0.0000000   0.0000000
 NMagM=    0.0000000   0.0000000   0.0000000   0.0000000   0.0000000   0.0000000   0.0000000   0.0000000   0.0000000   0.0000000
 AtZNuc=   8.0000000   6.0000000   6.0000000   8.0000000   8.0000000   6.0000000   6.0000000   6.0000000   6.0000000   6.0000000

  Atom        51          52          53          54          55          56          57          58          59          60
 IAtWgt=          12          12          12          12          12          12          12          12          12          12
 AtmWgt=  12.0000000  12.0000000  12.0000000  12.0000000  12.0000000  12.0000000  12.0000000  12.0000000  12.0000000  12.0000000
 NucSpn=           0           0           0           0           0           0           0           0           0           0
 AtZEff=  -0.0000000  -0.0000000  -0.0000000  -0.0000000  -0.0000000  -0.0000000  -0.0000000  -0.0000000  -0.0000000  -0.0000000
 NQMom=    0.0000000   0.0000000   0.0000000   0.0000000   0.0000000   0.0000000   0.0000000   0.0000000   0.0000000   0.0000000
 NMagM=    0.0000000   0.0000000   0.0000000   0.0000000   0.0000000   0.0000000   0.0000000   0.0000000   0.0000000   0.0000000
 AtZNuc=   6.0000000   6.0000000   6.0000000   6.0000000   6.0000000   6.0000000   6.0000000   6.0000000   6.0000000   6.0000000

  Atom        61          62          63          64          65          66          67          68          69          70
 IAtWgt=          12          12          12          12          12          12           1           1           1           1
 AtmWgt=  12.0000000  12.0000000  12.0000000  12.0000000  12.0000000  12.0000000   1.0078250   1.0078250   1.0078250   1.0078250
 NucSpn=           0           0           0           0           0           0           1           1           1           1
 AtZEff=  -0.0000000  -0.0000000  -0.0000000  -0.0000000  -0.0000000  -0.0000000  -0.0000000  -0.0000000  -0.0000000  -0.0000000
 NQMom=    0.0000000   0.0000000   0.0000000   0.0000000   0.0000000   0.0000000   0.0000000   0.0000000   0.0000000   0.0000000
 NMagM=    0.0000000   0.0000000   0.0000000   0.0000000   0.0000000   0.0000000   2.7928460   2.7928460   2.7928460   2.7928460
 AtZNuc=   6.0000000   6.0000000   6.0000000   6.0000000   6.0000000   6.0000000   1.0000000   1.0000000   1.0000000   1.0000000

  Atom        71          72          73          74          75          76          77          78          79          80
 IAtWgt=           1           1           1           1           1           1           1           1           1           1
 AtmWgt=   1.0078250   1.0078250   1.0078250   1.0078250   1.0078250   1.0078250   1.0078250   1.0078250   1.0078250   1.0078250
 NucSpn=           1           1           1           1           1           1           1           1           1           1
 AtZEff=  -0.0000000  -0.0000000  -0.0000000  -0.0000000  -0.0000000  -0.0000000  -0.0000000  -0.0000000  -0.0000000  -0.0000000
 NQMom=    0.0000000   0.0000000   0.0000000   0.0000000   0.0000000   0.0000000   0.0000000   0.0000000   0.0000000   0.0000000
 NMagM=    2.7928460   2.7928460   2.7928460   2.7928460   2.7928460   2.7928460   2.7928460   2.7928460   2.7928460   2.7928460
 AtZNuc=   1.0000000   1.0000000   1.0000000   1.0000000   1.0000000   1.0000000   1.0000000   1.0000000   1.0000000   1.0000000

  Atom        81          82          83          84          85          86          87          88          89          90
 IAtWgt=           1           1           1           1           1           1           1           1           1           1
 AtmWgt=   1.0078250   1.0078250   1.0078250   1.0078250   1.0078250   1.0078250   1.0078250   1.0078250   1.0078250   1.0078250
 NucSpn=           1           1           1           1           1           1           1           1           1           1
 AtZEff=  -0.0000000  -0.0000000  -0.0000000  -0.0000000  -0.0000000  -0.0000000  -0.0000000  -0.0000000  -0.0000000  -0.0000000
 NQMom=    0.0000000   0.0000000   0.0000000   0.0000000   0.0000000   0.0000000   0.0000000   0.0000000   0.0000000   0.0000000
 NMagM=    2.7928460   2.7928460   2.7928460   2.7928460   2.7928460   2.7928460   2.7928460   2.7928460   2.7928460   2.7928460
 AtZNuc=   1.0000000   1.0000000   1.0000000   1.0000000   1.0000000   1.0000000   1.0000000   1.0000000   1.0000000   1.0000000

  Atom        91          92          93          94          95          96          97          98          99         100
 IAtWgt=           1           1           1           1           1           1           1           1           1           1
 AtmWgt=   1.0078250   1.0078250   1.0078250   1.0078250   1.0078250   1.0078250   1.0078250   1.0078250   1.0078250   1.0078250
 NucSpn=           1           1           1           1           1           1           1           1           1           1
 AtZEff=  -0.0000000  -0.0000000  -0.0000000  -0.0000000  -0.0000000  -0.0000000  -0.0000000  -0.0000000  -0.0000000  -0.0000000
 NQMom=    0.0000000   0.0000000   0.0000000   0.0000000   0.0000000   0.0000000   0.0000000   0.0000000   0.0000000   0.0000000
 NMagM=    2.7928460   2.7928460   2.7928460   2.7928460   2.7928460   2.7928460   2.7928460   2.7928460   2.7928460   2.7928460
 AtZNuc=   1.0000000   1.0000000   1.0000000   1.0000000   1.0000000   1.0000000   1.0000000   1.0000000   1.0000000   1.0000000

  Atom       101         102         103         104         105         106         107         108         109         110
 IAtWgt=           1           1           1           1           1           1           1           1           1           1
 AtmWgt=   1.0078250   1.0078250   1.0078250   1.0078250   1.0078250   1.0078250   1.0078250   1.0078250   1.0078250   1.0078250
 NucSpn=           1           1           1           1           1           1           1           1           1           1
 AtZEff=  -0.0000000  -0.0000000  -0.0000000  -0.0000000  -0.0000000  -0.0000000  -0.0000000  -0.0000000  -0.0000000  -0.0000000
 NQMom=    0.0000000   0.0000000   0.0000000   0.0000000   0.0000000   0.0000000   0.0000000   0.0000000   0.0000000   0.0000000
 NMagM=    2.7928460   2.7928460   2.7928460   2.7928460   2.7928460   2.7928460   2.7928460   2.7928460   2.7928460   2.7928460
 AtZNuc=   1.0000000   1.0000000   1.0000000   1.0000000   1.0000000   1.0000000   1.0000000   1.0000000   1.0000000   1.0000000

  Atom       111         112         113         114         115         116         117         118         119         120
 IAtWgt=           1           1           1           1           1           1           1           1           1           1
 AtmWgt=   1.0078250   1.0078250   1.0078250   1.0078250   1.0078250   1.0078250   1.0078250   1.0078250   1.0078250   1.0078250
 NucSpn=           1           1           1           1           1           1           1           1           1           1
 AtZEff=  -0.0000000  -0.0000000  -0.0000000  -0.0000000  -0.0000000  -0.0000000  -0.0000000  -0.0000000  -0.0000000  -0.0000000
 NQMom=    0.0000000   0.0000000   0.0000000   0.0000000   0.0000000   0.0000000   0.0000000   0.0000000   0.0000000   0.0000000
 NMagM=    2.7928460   2.7928460   2.7928460   2.7928460   2.7928460   2.7928460   2.7928460   2.7928460   2.7928460   2.7928460
 AtZNuc=   1.0000000   1.0000000   1.0000000   1.0000000   1.0000000   1.0000000   1.0000000   1.0000000   1.0000000   1.0000000

  Atom       121         122         123         124         125         126         127         128         129         130
 IAtWgt=           1           1           1           1           1           1           1           1           1           1
 AtmWgt=   1.0078250   1.0078250   1.0078250   1.0078250   1.0078250   1.0078250   1.0078250   1.0078250   1.0078250   1.0078250
 NucSpn=           1           1           1           1           1           1           1           1           1           1
 AtZEff=  -0.0000000  -0.0000000  -0.0000000  -0.0000000  -0.0000000  -0.0000000  -0.0000000  -0.0000000  -0.0000000  -0.0000000
 NQMom=    0.0000000   0.0000000   0.0000000   0.0000000   0.0000000   0.0000000   0.0000000   0.0000000   0.0000000   0.0000000
 NMagM=    2.7928460   2.7928460   2.7928460   2.7928460   2.7928460   2.7928460   2.7928460   2.7928460   2.7928460   2.7928460
 AtZNuc=   1.0000000   1.0000000   1.0000000   1.0000000   1.0000000   1.0000000   1.0000000   1.0000000   1.0000000   1.0000000

  Atom       131         132         133         134         135         136         137         138         139         140
 IAtWgt=           1           1           1           1           1           1           1           1           1           1
 AtmWgt=   1.0078250   1.0078250   1.0078250   1.0078250   1.0078250   1.0078250   1.0078250   1.0078250   1.0078250   1.0078250
 NucSpn=           1           1           1           1           1           1           1           1           1           1
 AtZEff=  -0.0000000  -0.0000000  -0.0000000  -0.0000000  -0.0000000  -0.0000000  -0.0000000  -0.0000000  -0.0000000  -0.0000000
 NQMom=    0.0000000   0.0000000   0.0000000   0.0000000   0.0000000   0.0000000   0.0000000   0.0000000   0.0000000   0.0000000
 NMagM=    2.7928460   2.7928460   2.7928460   2.7928460   2.7928460   2.7928460   2.7928460   2.7928460   2.7928460   2.7928460
 AtZNuc=   1.0000000   1.0000000   1.0000000   1.0000000   1.0000000   1.0000000   1.0000000   1.0000000   1.0000000   1.0000000
 Leave Link  101 at Sat Apr 30 07:49:04 2022, MaxMem=  6710886400 cpu:               2.8 elap:               0.1
 (Enter /sw/apps/gaussian-16.0/g16/l202.exe)
 Stoichiometry    C55H74MgN4O6
 Framework group  C1[X(C55H74MgN4O6)]
 Deg. of freedom   414
 Full point group                 C1      NOp   1
 Largest Abelian subgroup         C1      NOp   1
 Largest concise Abelian subgroup C1      NOp   1
                         Standard orientation:                         
 ---------------------------------------------------------------------
 Center     Atomic      Atomic             Coordinates (Angstroms)
 Number     Number       Type             X           Y           Z
 ---------------------------------------------------------------------
      1         12           0        5.337684    0.860325   -0.112152
      2          6           0        4.807383   -2.569359    0.262084
      3          6           0        4.665248    0.653105   -3.459142
      4          6           0        5.004065    4.251003   -0.176004
      5          6           0        5.350163    1.220106    3.506030
      6          7           0        4.864651   -0.772364   -1.474493
      7          6           0        4.690292   -2.118997   -1.041147
      8          6           0        4.308970   -2.986829   -2.219092
      9          6           0        4.495799   -2.016592   -3.442621
     10          6           0        4.653776   -0.626789   -2.777968
     11          6           0        5.779972   -2.213809   -4.306580
     12          6           0        2.908031   -3.660384   -2.209159
     13          6           0        1.718560   -3.018369   -1.352937
     14          6           0        0.284466   -3.304573   -1.909913
     15          8           0        0.067234   -4.010030   -2.885980
     16          8           0       -0.619404   -2.447345   -1.321230
     17          7           0        4.868693    2.254392   -1.663820
     18          6           0        4.536821    1.972220   -2.942127
     19          6           0        4.287777    3.129211   -3.622938
     20          6           0        4.391518    4.258489   -2.783435
     21          6           0        4.796410    3.611085   -1.444620
     22          6           0        3.814250    3.060867   -5.092886
     23          6           0        4.087284    5.710282   -3.065418
     24          8           0        3.888895    6.003391   -4.242355
     25          6           0        3.951499    6.786378   -2.046271
     26          7           0        4.998770    2.523970    1.533421
     27          6           0        5.185771    3.780598    1.110577
     28          6           0        5.412503    4.696891    2.365097
     29          6           0        5.365928    3.788328    3.575853
     30          6           0        5.194235    2.405974    2.817768
     31          6           0        6.640044    5.652458    2.247149
     32          6           0        4.220421    4.081332    4.599516
     33          6           0        4.582828    3.886620    6.061799
     34          7           0        5.156826   -0.380678    1.608666
     35          6           0        5.248707   -0.148426    2.959925
     36          6           0        5.288988   -1.451465    3.698090
     37          6           0        5.115900   -2.396682    2.642730
     38          6           0        5.017508   -1.712405    1.430731
     39          6           0        5.496803   -1.626789    5.050430
     40          6           0        4.965798   -3.820903    2.356748
     41          8           0        4.979470   -4.818285    3.100347
     42          6           0        4.910766   -3.955804    0.828114
     43          6           0        6.080476   -4.663407    0.357893
     44          8           0        6.062427   -5.754338   -0.181161
     45          8           0        7.232959   -4.022289    0.623889
     46          6           0        8.515677   -4.705069    0.451297
     47          6           0       -1.947296   -2.426051   -1.986310
     48          6           0       -2.672010   -1.555026   -0.927244
     49          6           0       -3.763282   -0.840196   -1.065719
     50          6           0       -4.568377   -0.663227   -2.394041
     51          6           0       -4.348314   -0.072929    0.054613
     52          6           0       -5.662105   -0.682368    0.658076
     53          6           0       -6.876635    0.297801    0.830516
     54          6           0       -8.247645   -0.488122    0.977091
     55          6           0       -8.187755   -1.691425    1.983677
     56          6           0       -8.645163   -1.169177   -0.357437
     57          6           0      -10.092039   -0.816278   -0.771004
     58          6           0      -11.198348   -1.698782   -0.040729
     59          6           0      -11.919173   -0.726205    0.991301
     60          6           0      -11.472139   -1.153210    2.388411
     61          6           0      -13.500659   -0.847342    0.849821
     62          6           0      -14.249839    0.428733    1.278108
     63          6           0      -15.421435    0.712588    0.258102
     64          6           0      -15.948902    2.206334    0.078221
     65          6           0      -17.487378    2.226013    0.122375
     66          6           0      -15.499819    2.920820   -1.210385
     67          1           0        4.712505    0.540300   -4.545027
     68          1           0        4.799472    5.317650   -0.285032
     69          1           0        5.677978    1.379076    4.534794
     70          1           0        4.976813   -3.848121   -2.193555
     71          1           0        3.566567   -1.998786   -4.012008
     72          1           0        6.267032   -3.092821   -3.883983
     73          1           0        6.428685   -1.339691   -4.260826
     74          1           0        5.435538   -2.388644   -5.325906
     75          1           0        3.123126   -4.664383   -1.843133
     76          1           0        2.589433   -3.806737   -3.241064
     77          1           0        1.708605   -1.929224   -1.391958
     78          1           0        1.781413   -3.458038   -0.357274
     79          1           0        4.021548    2.119564   -5.600778
     80          1           0        4.380540    3.708235   -5.761748
     81          1           0        2.806948    3.438499   -5.266793
     82          1           0        4.941040    6.862071   -1.596115
     83          1           0        3.170408    6.502289   -1.340020
     84          1           0        3.785673    7.695246   -2.625324
     85          1           0        4.531098    5.335188    2.432242
     86          1           0        6.346398    3.709942    4.045893
     87          1           0        6.380879    6.678956    1.986078
     88          1           0        7.309973    5.267839    1.479331
     89          1           0        7.058541    5.689651    3.252495
     90          1           0        3.504401    3.334859    4.254815
     91          1           0        3.789872    5.082702    4.614892
     92          1           0        5.605201    3.581043    6.281868
     93          1           0        3.850225    3.239783    6.543692
     94          1           0        4.612803    4.804044    6.649210
     95          1           0        4.632385   -1.226280    5.579720
     96          1           0        6.418823   -1.126177    5.344463
     97          1           0        5.515459   -2.639674    5.453469
     98          1           0        4.134227   -4.593614    0.408314
     99          1           0        8.371742   -5.736648    0.773303
    100          1           0        9.241353   -4.247788    1.124063
    101          1           0        8.939781   -4.655564   -0.551715
    102          1           0       -2.381449   -3.425870   -2.016859
    103          1           0       -1.998929   -2.048855   -3.007374
    104          1           0       -2.199124   -1.456816    0.049177
    105          1           0       -4.388685   -1.556952   -2.991143
    106          1           0       -4.035532    0.152233   -2.884464
    107          1           0       -5.635896   -0.465720   -2.293690
    108          1           0       -4.525017    0.934553   -0.320068
    109          1           0       -3.591826    0.092802    0.820557
    110          1           0       -5.453537   -1.132283    1.628855
    111          1           0       -5.989112   -1.293844   -0.182717
    112          1           0       -6.938084    1.009213    0.006583
    113          1           0       -6.596694    0.856441    1.723070
    114          1           0       -9.045572    0.217976    1.207842
    115          1           0       -9.079623   -2.300636    2.132767
    116          1           0       -7.810198   -1.345261    2.944702
    117          1           0       -7.374059   -2.335224    1.650837
    118          1           0       -8.698083   -2.248583   -0.214200
    119          1           0       -7.926207   -0.965792   -1.151216
    120          1           0      -10.282764   -0.873709   -1.842539
    121          1           0      -10.269006    0.236095   -0.550647
    122          1           0      -10.675021   -2.569502    0.355092
    123          1           0      -11.922683   -2.113276   -0.740817
    124          1           0      -11.596489    0.313391    1.044265
    125          1           0      -11.361721   -2.219284    2.588876
    126          1           0      -12.263554   -0.826920    3.062727
    127          1           0      -10.501938   -0.701190    2.594585
    128          1           0      -13.813815   -1.729385    1.407070
    129          1           0      -13.697666   -1.079314   -0.196882
    130          1           0      -13.518069    1.230294    1.373892
    131          1           0      -14.700358    0.174990    2.237741
    132          1           0      -16.190184   -0.004630    0.545098
    133          1           0      -15.171415    0.440989   -0.767771
    134          1           0      -15.557802    2.834254    0.878336
    135          1           0      -17.882906    1.291896    0.519399
    136          1           0      -17.947871    2.260694   -0.864601
    137          1           0      -17.826930    3.068545    0.725411
    138          1           0      -15.671034    2.217450   -2.025517
    139          1           0      -14.440974    3.177019   -1.207190
    140          1           0      -16.022059    3.878024   -1.226329
 ---------------------------------------------------------------------
 Rotational constants (GHZ):           0.0361194           0.0095632           0.0090164
 Leave Link  202 at Sat Apr 30 07:49:04 2022, MaxMem=  6710886400 cpu:               0.2 elap:               0.0
 (Enter /sw/apps/gaussian-16.0/g16/l301.exe)
 Standard basis: VSTO-6G (5D, 7F)
 Ernie: Thresh=  0.10000D-02 Tol=  0.10000D-05 Strict=F.
 There are   338 symmetry adapted cartesian basis functions of A   symmetry.
 There are   338 symmetry adapted basis functions of A   symmetry.
   338 basis functions,  2028 primitive gaussians,   338 cartesian basis functions
   176 alpha electrons      176 beta electrons
       nuclear repulsion energy      4765.4034461706 Hartrees.
 IExCor=    0 DFT=F Ex=HF Corr=None ExCW=0 ScaHFX=  1.000000
 ScaDFX=  1.000000  1.000000  1.000000  1.000000 ScalE2=  1.000000  1.000000
 IRadAn=      5 IRanWt=     -1 IRanGd=            0 ICorTp=0 IEmpDi=  4
 Integral buffers will be    131072 words long.
 Regular integral format.
 Two-electron integral symmetry is turned off.
 Leave Link  301 at Sat Apr 30 07:49:04 2022, MaxMem=  6710886400 cpu:               1.3 elap:               0.1
 (Enter /sw/apps/gaussian-16.0/g16/l302.exe)
 Do NDO integrals.
 NPDir=0 NMtPBC=     1 NCelOv=     1 NCel=       1 NClECP=     1 NCelD=      1
         NCelK=      1 NCelE2=     1 NClLst=     1 CellRange=     0.0.
 One-electron integrals computed using PRISM.
 Generate ZINDO/S integrals.
 NDO Nuclear repulsion=  4287.355459073940 Hartrees.
 NBasis=   338 RedAO= F EigKep=  0.00D+00  NBF=   338
 NBsUse=   338 1.00D-04 EigRej=  0.00D+00 NBFU=   338
 Leave Link  302 at Sat Apr 30 07:49:04 2022, MaxMem=  6710886400 cpu:               7.9 elap:               0.3
 (Enter /sw/apps/gaussian-16.0/g16/l303.exe)
 DipDrv:  MaxL=1.
 DipDrv:  will hold  3 matrices at once.
 Leave Link  303 at Sat Apr 30 07:49:04 2022, MaxMem=  6710886400 cpu:               0.5 elap:               0.0
 (Enter /sw/apps/gaussian-16.0/g16/l308.exe)
 Leave Link  308 at Sat Apr 30 07:49:04 2022, MaxMem=  6710886400 cpu:               4.4 elap:               0.2
 (Enter /sw/apps/gaussian-16.0/g16/l401.exe)
 Simple Huckel Guess.
 JPrj=0 DoOrth=F DoCkMO=F.
 Leave Link  401 at Sat Apr 30 07:49:05 2022, MaxMem=  6710886400 cpu:               2.4 elap:               0.1
 (Enter /sw/apps/gaussian-16.0/g16/l502.exe)
 Two-electron integral symmetry not used.
 Closed shell SCF:
 Using DIIS extrapolation, IDIIS=  1040.
 Overlap will be assumed to be unity.
 NGot=  6710886400 LenX=  6710643598 LenY=  6710528913
 Requested convergence on RMS density matrix=1.00D-08 within 128 cycles.
 Requested convergence on MAX density matrix=1.00D-06.
 Requested convergence on             energy=1.00D-06.
 No special actions if energy rises.
 Fock matrices will be formed incrementally for  20 cycles.

 Cycle   1  Pass 1  IDiag  1:
 E= -472.213264280355    
 DIIS: error= 5.73D-02 at cycle   1 NSaved=   1.
 NSaved= 1 IEnMin= 1 EnMin= -472.213264280355     IErMin= 1 ErrMin= 5.73D-02
 ErrMax= 5.73D-02  0.00D+00 EMaxC= 1.00D-01 BMatC= 8.42D-01 BMatP= 8.42D-01
 IDIUse=3 WtCom= 4.27D-01 WtEn= 5.73D-01
 Coeff-Com:  0.100D+01
 Coeff-En:   0.100D+01
 Coeff:      0.100D+01
 GapD=    2.000 DampG=2.000 DampE=0.500 DampFc=1.0000 IDamp=-1.
 RMSDP=4.05D-03 MaxDP=1.77D-01              OVMax= 0.00D+00

 Cycle   2  Pass 1  IDiag  1:
 RMSU=  4.04D-03    CP:  9.95D-01
 E= -474.065577177154     Delta-E=       -1.852312896798 Rises=F Damp=F
 DIIS: error= 2.12D-02 at cycle   2 NSaved=   2.
 NSaved= 2 IEnMin= 2 EnMin= -474.065577177154     IErMin= 2 ErrMin= 2.12D-02
 ErrMax= 2.12D-02  0.00D+00 EMaxC= 1.00D-01 BMatC= 5.43D-02 BMatP= 8.42D-01
 IDIUse=3 WtCom= 7.88D-01 WtEn= 2.12D-01
 Coeff-Com: -0.646D-01 0.106D+01
 Coeff-En:   0.000D+00 0.100D+01
 Coeff:     -0.509D-01 0.105D+01
 RMSDP=1.13D-03 MaxDP=6.26D-02 DE=-1.85D+00 OVMax= 0.00D+00

 Cycle   3  Pass 1  IDiag  1:
 RMSU=  1.08D-03    CP:  9.93D-01  1.08D+00
 E= -474.169783186396     Delta-E=       -0.104206009242 Rises=F Damp=F
 DIIS: error= 9.07D-03 at cycle   3 NSaved=   3.
 NSaved= 3 IEnMin= 3 EnMin= -474.169783186396     IErMin= 3 ErrMin= 9.07D-03
 ErrMax= 9.07D-03  0.00D+00 EMaxC= 1.00D-01 BMatC= 7.83D-03 BMatP= 5.43D-02
 IDIUse=3 WtCom= 9.09D-01 WtEn= 9.07D-02
 Coeff-Com: -0.685D-01 0.245D+00 0.824D+00
 Coeff-En:   0.000D+00 0.000D+00 0.100D+01
 Coeff:     -0.623D-01 0.223D+00 0.840D+00
 RMSDP=3.93D-04 MaxDP=1.91D-02 DE=-1.04D-01 OVMax= 0.00D+00

 Cycle   4  Pass 1  IDiag  1:
 RMSU=  2.56D-04    CP:  9.93D-01  1.15D+00  9.20D-01
 E= -474.183816587845     Delta-E=       -0.014033401450 Rises=F Damp=F
 DIIS: error= 1.78D-03 at cycle   4 NSaved=   4.
 NSaved= 4 IEnMin= 4 EnMin= -474.183816587845     IErMin= 4 ErrMin= 1.78D-03
 ErrMax= 1.78D-03  0.00D+00 EMaxC= 1.00D-01 BMatC= 3.13D-04 BMatP= 7.83D-03
 IDIUse=3 WtCom= 9.82D-01 WtEn= 1.78D-02
 Coeff-Com:  0.393D-03-0.369D-01 0.183D-01 0.102D+01
 Coeff-En:   0.000D+00 0.000D+00 0.000D+00 0.100D+01
 Coeff:      0.386D-03-0.362D-01 0.180D-01 0.102D+01
 RMSDP=1.47D-04 MaxDP=8.15D-03 DE=-1.40D-02 OVMax= 0.00D+00

 Cycle   5  Pass 1  IDiag  1:
 RMSU=  9.77D-05    CP:  9.92D-01  1.16D+00  1.01D+00  1.16D+00
 E= -474.185061929992     Delta-E=       -0.001245342147 Rises=F Damp=F
 DIIS: error= 4.92D-04 at cycle   5 NSaved=   5.
 NSaved= 5 IEnMin= 5 EnMin= -474.185061929992     IErMin= 5 ErrMin= 4.92D-04
 ErrMax= 4.92D-04  0.00D+00 EMaxC= 1.00D-01 BMatC= 6.16D-05 BMatP= 3.13D-04
 IDIUse=3 WtCom= 9.95D-01 WtEn= 4.92D-03
 Coeff-Com:  0.592D-02-0.229D-01-0.933D-01 0.140D+00 0.970D+00
 Coeff-En:   0.000D+00 0.000D+00 0.000D+00 0.000D+00 0.100D+01
 Coeff:      0.589D-02-0.228D-01-0.929D-01 0.139D+00 0.971D+00
 RMSDP=8.73D-05 MaxDP=3.73D-03 DE=-1.25D-03 OVMax= 0.00D+00

 Cycle   6  Pass 1  IDiag  1:
 RMSU=  4.45D-05    CP:  9.92D-01  1.16D+00  1.03D+00  1.40D+00  1.39D+00
 E= -474.185402688741     Delta-E=       -0.000340758749 Rises=F Damp=F
 DIIS: error= 3.09D-04 at cycle   6 NSaved=   6.
 NSaved= 6 IEnMin= 6 EnMin= -474.185402688741     IErMin= 6 ErrMin= 3.09D-04
 ErrMax= 3.09D-04  0.00D+00 EMaxC= 1.00D-01 BMatC= 1.36D-05 BMatP= 6.16D-05
 IDIUse=3 WtCom= 9.97D-01 WtEn= 3.09D-03
 Coeff-Com: -0.917D-03 0.939D-02-0.279D-02-0.141D+00-0.522D-01 0.119D+01
 Coeff-En:   0.000D+00 0.000D+00 0.000D+00 0.000D+00 0.000D+00 0.100D+01
 Coeff:     -0.914D-03 0.936D-02-0.278D-02-0.141D+00-0.521D-01 0.119D+01
 RMSDP=7.60D-05 MaxDP=3.71D-03 DE=-3.41D-04 OVMax= 0.00D+00

 Cycle   7  Pass 1  IDiag  1:
 RMSU=  2.19D-05    CP:  9.92D-01  1.16D+00  1.04D+00  1.52D+00  1.91D+00
                    CP:  1.87D+00
 E= -474.185575380565     Delta-E=       -0.000172691824 Rises=F Damp=F
 DIIS: error= 1.57D-04 at cycle   7 NSaved=   7.
 NSaved= 7 IEnMin= 7 EnMin= -474.185575380565     IErMin= 7 ErrMin= 1.57D-04
 ErrMax= 1.57D-04  0.00D+00 EMaxC= 1.00D-01 BMatC= 5.84D-06 BMatP= 1.36D-05
 IDIUse=3 WtCom= 9.98D-01 WtEn= 1.57D-03
 Coeff-Com: -0.106D-02 0.246D-02 0.211D-01 0.116D-01-0.201D+00-0.321D+00
 Coeff-Com:  0.149D+01
 Coeff-En:   0.000D+00 0.000D+00 0.000D+00 0.000D+00 0.000D+00 0.000D+00
 Coeff-En:   0.100D+01
 Coeff:     -0.106D-02 0.246D-02 0.211D-01 0.116D-01-0.201D+00-0.321D+00
 Coeff:      0.149D+01
 RMSDP=7.88D-05 MaxDP=3.33D-03 DE=-1.73D-04 OVMax= 0.00D+00

 Cycle   8  Pass 1  IDiag  1:
 RMSU=  9.24D-06    CP:  9.92D-01  1.16D+00  1.05D+00  1.63D+00  2.39D+00
                    CP:  2.97D+00  2.21D+00
 E= -474.185702052568     Delta-E=       -0.000126672003 Rises=F Damp=F
 DIIS: error= 1.19D-04 at cycle   8 NSaved=   8.
 NSaved= 8 IEnMin= 8 EnMin= -474.185702052568     IErMin= 8 ErrMin= 1.19D-04
 ErrMax= 1.19D-04  0.00D+00 EMaxC= 1.00D-01 BMatC= 2.82D-06 BMatP= 5.84D-06
 IDIUse=3 WtCom= 9.99D-01 WtEn= 1.19D-03
 Coeff-Com:  0.778D-03-0.600D-02-0.154D-02 0.698D-01 0.751D-01-0.517D+00
 Coeff-Com: -0.613D+00 0.199D+01
 Coeff-En:   0.000D+00 0.000D+00 0.000D+00 0.000D+00 0.000D+00 0.000D+00
 Coeff-En:   0.000D+00 0.100D+01
 Coeff:      0.777D-03-0.599D-02-0.154D-02 0.697D-01 0.750D-01-0.517D+00
 Coeff:     -0.612D+00 0.199D+01
 RMSDP=1.08D-04 MaxDP=4.64D-03 DE=-1.27D-04 OVMax= 0.00D+00

 Cycle   9  Pass 1  IDiag  1:
 RMSU=  7.05D-05    CP:  9.92D-01  1.16D+00  1.05D+00  1.77D+00  3.00D+00
                    CP:  3.00D+00  3.00D+00  2.50D+00
 E= -474.185803907089     Delta-E=       -0.000101854522 Rises=F Damp=F
 DIIS: error= 7.87D-05 at cycle   9 NSaved=   9.
 NSaved= 9 IEnMin= 9 EnMin= -474.185803907089     IErMin= 9 ErrMin= 7.87D-05
 ErrMax= 7.87D-05  0.00D+00 EMaxC= 1.00D-01 BMatC= 7.47D-07 BMatP= 2.82D-06
 IDIUse=1 WtCom= 1.00D+00 WtEn= 0.00D+00
 Coeff-Com:  0.415D-03-0.108D-02-0.758D-02-0.745D-02 0.897D-01 0.135D+00
 Coeff-Com: -0.749D+00 0.273D+00 0.127D+01
 Coeff:      0.415D-03-0.108D-02-0.758D-02-0.745D-02 0.897D-01 0.135D+00
 Coeff:     -0.749D+00 0.273D+00 0.127D+01
 RMSDP=5.73D-05 MaxDP=2.44D-03 DE=-1.02D-04 OVMax= 0.00D+00

 Cycle  10  Pass 1  IDiag  1:
 RMSU=  3.23D-05    CP:  9.92D-01  1.16D+00  1.06D+00  1.84D+00  3.00D+00
                    CP:  3.00D+00  3.00D+00  3.00D+00  1.61D+00
 E= -474.185825895303     Delta-E=       -0.000021988213 Rises=F Damp=F
 DIIS: error= 2.97D-05 at cycle  10 NSaved=  10.
 NSaved=10 IEnMin=10 EnMin= -474.185825895303     IErMin=10 ErrMin= 2.97D-05
 ErrMax= 2.97D-05  0.00D+00 EMaxC= 1.00D-01 BMatC= 1.11D-07 BMatP= 7.47D-07
 IDIUse=1 WtCom= 1.00D+00 WtEn= 0.00D+00
 Coeff-Com: -0.198D-03 0.143D-02 0.758D-03-0.180D-01-0.131D-01 0.115D+00
 Coeff-Com:  0.139D+00-0.374D+00-0.204D+00 0.135D+01
 Coeff:     -0.198D-03 0.143D-02 0.758D-03-0.180D-01-0.131D-01 0.115D+00
 Coeff:      0.139D+00-0.374D+00-0.204D+00 0.135D+01
 RMSDP=1.79D-05 MaxDP=7.66D-04 DE=-2.20D-05 OVMax= 0.00D+00

 Cycle  11  Pass 1  IDiag  1:
 RMSU=  4.71D-06    CP:  9.92D-01  1.17D+00  1.06D+00  1.86D+00  3.00D+00
                    CP:  3.00D+00  3.00D+00  3.00D+00  1.79D+00  1.31D+00
 E= -474.185828355371     Delta-E=       -0.000002460069 Rises=F Damp=F
 DIIS: error= 1.99D-05 at cycle  11 NSaved=  11.
 NSaved=11 IEnMin=11 EnMin= -474.185828355371     IErMin=11 ErrMin= 1.99D-05
 ErrMax= 1.99D-05  0.00D+00 EMaxC= 1.00D-01 BMatC= 2.79D-08 BMatP= 1.11D-07
 IDIUse=1 WtCom= 1.00D+00 WtEn= 0.00D+00
 Coeff-Com: -0.623D-04 0.207D-03 0.117D-02-0.739D-03-0.111D-01-0.148D-01
 Coeff-Com:  0.960D-01-0.322D-01-0.266D+00 0.209D+00 0.102D+01
 Coeff:     -0.623D-04 0.207D-03 0.117D-02-0.739D-03-0.111D-01-0.148D-01
 Coeff:      0.960D-01-0.322D-01-0.266D+00 0.209D+00 0.102D+01
 RMSDP=6.54D-06 MaxDP=3.06D-04 DE=-2.46D-06 OVMax= 0.00D+00

 Cycle  12  Pass 1  IDiag  1:
 RMSU=  1.08D-06    CP:  9.92D-01  1.17D+00  1.06D+00  1.87D+00  3.00D+00
                    CP:  3.00D+00  3.00D+00  3.00D+00  1.86D+00  1.42D+00
                    CP:  1.43D+00
 E= -474.185828696258     Delta-E=       -0.000000340887 Rises=F Damp=F
 DIIS: error= 7.02D-06 at cycle  12 NSaved=  12.
 NSaved=12 IEnMin=12 EnMin= -474.185828696258     IErMin=12 ErrMin= 7.02D-06
 ErrMax= 7.02D-06  0.00D+00 EMaxC= 1.00D-01 BMatC= 7.73D-09 BMatP= 2.79D-08
 IDIUse=1 WtCom= 1.00D+00 WtEn= 0.00D+00
 Coeff-Com:  0.391D-04-0.310D-03 0.593D-05 0.410D-02 0.209D-02-0.281D-01
 Coeff-Com: -0.228D-01 0.116D+00-0.221D-01-0.281D+00-0.229D-01 0.126D+01
 Coeff:      0.391D-04-0.310D-03 0.593D-05 0.410D-02 0.209D-02-0.281D-01
 Coeff:     -0.228D-01 0.116D+00-0.221D-01-0.281D+00-0.229D-01 0.126D+01
 RMSDP=2.15D-06 MaxDP=1.57D-04 DE=-3.41D-07 OVMax= 0.00D+00

 Cycle  13  Pass 1  IDiag  1:
 RMSU=  8.55D-07    CP:  9.92D-01  1.17D+00  1.06D+00  1.87D+00  3.00D+00
                    CP:  3.00D+00  3.00D+00  3.00D+00  1.86D+00  1.42D+00
                    CP:  1.79D+00  1.89D+00
 E= -474.185828797470     Delta-E=       -0.000000101212 Rises=F Damp=F
 DIIS: error= 4.11D-06 at cycle  13 NSaved=  13.
 NSaved=13 IEnMin=13 EnMin= -474.185828797470     IErMin=13 ErrMin= 4.11D-06
 ErrMax= 4.11D-06  0.00D+00 EMaxC= 1.00D-01 BMatC= 2.97D-09 BMatP= 7.73D-09
 IDIUse=1 WtCom= 1.00D+00 WtEn= 0.00D+00
 Coeff-Com:  0.134D-04-0.365D-04-0.351D-03 0.209D-03 0.257D-02 0.549D-02
 Coeff-Com: -0.330D-01 0.140D-01 0.470D-01 0.732D-02-0.326D+00 0.140D-01
 Coeff-Com:  0.127D+01
 Coeff:      0.134D-04-0.365D-04-0.351D-03 0.209D-03 0.257D-02 0.549D-02
 Coeff:     -0.330D-01 0.140D-01 0.470D-01 0.732D-02-0.326D+00 0.140D-01
 Coeff:      0.127D+01
 RMSDP=1.87D-06 MaxDP=9.84D-05 DE=-1.01D-07 OVMax= 0.00D+00

 Cycle  14  Pass 1  IDiag  1:
 RMSU=  3.53D-07    CP:  9.92D-01  1.17D+00  1.06D+00  1.87D+00  3.00D+00
                    CP:  3.00D+00  3.00D+00  3.00D+00  1.87D+00  1.44D+00
                    CP:  1.97D+00  2.67D+00  1.68D+00
 E= -474.185828841581     Delta-E=       -0.000000044111 Rises=F Damp=F
 DIIS: error= 2.47D-06 at cycle  14 NSaved=  14.
 NSaved=14 IEnMin=14 EnMin= -474.185828841581     IErMin=14 ErrMin= 2.47D-06
 ErrMax= 2.47D-06  0.00D+00 EMaxC= 1.00D-01 BMatC= 1.03D-09 BMatP= 2.97D-09
 IDIUse=1 WtCom= 1.00D+00 WtEn= 0.00D+00
 Coeff-Com: -0.253D-04 0.182D-03 0.306D-04-0.204D-02-0.263D-02 0.170D-01
 Coeff-Com:  0.160D-01-0.525D-01-0.123D-01 0.173D+00-0.112D-01-0.544D+00
 Coeff-Com: -0.213D+00 0.163D+01
 Coeff:     -0.253D-04 0.182D-03 0.306D-04-0.204D-02-0.263D-02 0.170D-01
 Coeff:      0.160D-01-0.525D-01-0.123D-01 0.173D+00-0.112D-01-0.544D+00
 Coeff:     -0.213D+00 0.163D+01
 RMSDP=1.42D-06 MaxDP=7.32D-05 DE=-4.41D-08 OVMax= 0.00D+00

 Cycle  15  Pass 1  IDiag  1:
 RMSU=  4.54D-07    CP:  9.92D-01  1.17D+00  1.06D+00  1.87D+00  3.00D+00
                    CP:  3.00D+00  3.00D+00  3.00D+00  1.86D+00  1.44D+00
                    CP:  2.12D+00  3.00D+00  2.58D+00  1.98D+00
 E= -474.185828862131     Delta-E=       -0.000000020549 Rises=F Damp=F
 DIIS: error= 1.35D-06 at cycle  15 NSaved=  15.
 NSaved=15 IEnMin=15 EnMin= -474.185828862131     IErMin=15 ErrMin= 1.35D-06
 ErrMax= 1.35D-06  0.00D+00 EMaxC= 1.00D-01 BMatC= 2.49D-10 BMatP= 1.03D-09
 IDIUse=1 WtCom= 1.00D+00 WtEn= 0.00D+00
 Coeff-Com: -0.544D-05 0.268D-04 0.882D-04-0.190D-03-0.141D-02 0.172D-02
 Coeff-Com:  0.673D-02-0.726D-02-0.153D-01 0.221D-01 0.576D-01-0.281D-01
 Coeff-Com: -0.412D+00 0.266D+00 0.111D+01
 Coeff:     -0.544D-05 0.268D-04 0.882D-04-0.190D-03-0.141D-02 0.172D-02
 Coeff:      0.673D-02-0.726D-02-0.153D-01 0.221D-01 0.576D-01-0.281D-01
 Coeff:     -0.412D+00 0.266D+00 0.111D+01
 RMSDP=6.53D-07 MaxDP=3.43D-05 DE=-2.05D-08 OVMax= 0.00D+00

 Cycle  16  Pass 1  IDiag  1:
 RMSU=  9.02D-08    CP:  9.92D-01  1.17D+00  1.06D+00  1.87D+00  3.00D+00
                    CP:  3.00D+00  3.00D+00  3.00D+00  1.87D+00  1.45D+00
                    CP:  2.18D+00  3.00D+00  2.90D+00  2.55D+00  1.67D+00
 E= -474.185828865317     Delta-E=       -0.000000003186 Rises=F Damp=F
 DIIS: error= 4.57D-07 at cycle  16 NSaved=  16.
 NSaved=16 IEnMin=16 EnMin= -474.185828865317     IErMin=16 ErrMin= 4.57D-07
 ErrMax= 4.57D-07  0.00D+00 EMaxC= 1.00D-01 BMatC= 2.49D-11 BMatP= 2.49D-10
 IDIUse=1 WtCom= 1.00D+00 WtEn= 0.00D+00
 Coeff-Com:  0.448D-05-0.330D-04 0.592D-05 0.401D-03 0.153D-03-0.246D-02
 Coeff-Com: -0.279D-02 0.105D-01-0.107D-03-0.301D-01 0.533D-02 0.113D+00
 Coeff-Com: -0.189D-01-0.256D+00 0.471D-01 0.113D+01
 Coeff:      0.448D-05-0.330D-04 0.592D-05 0.401D-03 0.153D-03-0.246D-02
 Coeff:     -0.279D-02 0.105D-01-0.107D-03-0.301D-01 0.533D-02 0.113D+00
 Coeff:     -0.189D-01-0.256D+00 0.471D-01 0.113D+01
 RMSDP=1.56D-07 MaxDP=9.53D-06 DE=-3.19D-09 OVMax= 0.00D+00

 Cycle  17  Pass 1  IDiag  1:
 RMSU=  4.20D-08    CP:  9.92D-01  1.17D+00  1.06D+00  1.87D+00  3.00D+00
                    CP:  3.00D+00  3.00D+00  3.00D+00  1.87D+00  1.45D+00
                    CP:  2.19D+00  3.00D+00  2.99D+00  2.71D+00  1.85D+00
                    CP:  1.04D+00
 E= -474.185828865588     Delta-E=       -0.000000000271 Rises=F Damp=F
 DIIS: error= 1.63D-07 at cycle  17 NSaved=  17.
 NSaved=17 IEnMin=17 EnMin= -474.185828865588     IErMin=17 ErrMin= 1.63D-07
 ErrMax= 1.63D-07  0.00D+00 EMaxC= 1.00D-01 BMatC= 3.56D-12 BMatP= 2.49D-11
 IDIUse=1 WtCom= 1.00D+00 WtEn= 0.00D+00
 Coeff-Com:  0.102D-05-0.595D-05-0.122D-04 0.644D-04 0.140D-03-0.280D-03
 Coeff-Com: -0.144D-02 0.201D-02 0.182D-02-0.499D-02-0.475D-02 0.881D-02
 Coeff-Com:  0.440D-01-0.481D-01-0.139D+00 0.107D+00 0.103D+01
 Coeff:      0.102D-05-0.595D-05-0.122D-04 0.644D-04 0.140D-03-0.280D-03
 Coeff:     -0.144D-02 0.201D-02 0.182D-02-0.499D-02-0.475D-02 0.881D-02
 Coeff:      0.440D-01-0.481D-01-0.139D+00 0.107D+00 0.103D+01
 RMSDP=4.36D-08 MaxDP=1.93D-06 DE=-2.71D-10 OVMax= 0.00D+00

 Cycle  18  Pass 1  IDiag  1:
 RMSU=  1.54D-08    CP:  9.92D-01  1.17D+00  1.06D+00  1.87D+00  3.00D+00
                    CP:  3.00D+00  3.00D+00  3.00D+00  1.87D+00  1.45D+00
                    CP:  2.19D+00  3.00D+00  3.00D+00  2.75D+00  1.90D+00
                    CP:  1.11D+00  1.39D+00
 E= -474.185828865643     Delta-E=       -0.000000000055 Rises=F Damp=F
 DIIS: error= 1.18D-07 at cycle  18 NSaved=  18.
 NSaved=18 IEnMin=18 EnMin= -474.185828865643     IErMin=18 ErrMin= 1.18D-07
 ErrMax= 1.18D-07  0.00D+00 EMaxC= 1.00D-01 BMatC= 5.01D-13 BMatP= 3.56D-12
 IDIUse=1 WtCom= 1.00D+00 WtEn= 0.00D+00
 Coeff-Com: -0.865D-06 0.627D-05-0.166D-05-0.704D-04-0.480D-04 0.501D-03
 Coeff-Com:  0.443D-03-0.176D-02-0.170D-03 0.511D-02 0.113D-04-0.218D-01
 Coeff-Com:  0.481D-02 0.475D-01-0.368D-02-0.180D+00-0.977D-01 0.125D+01
 Coeff:     -0.865D-06 0.627D-05-0.166D-05-0.704D-04-0.480D-04 0.501D-03
 Coeff:      0.443D-03-0.176D-02-0.170D-03 0.511D-02 0.113D-04-0.218D-01
 Coeff:      0.481D-02 0.475D-01-0.368D-02-0.180D+00-0.977D-01 0.125D+01
 RMSDP=1.24D-08 MaxDP=9.22D-07 DE=-5.55D-11 OVMax= 0.00D+00

 Cycle  19  Pass 1  IDiag  1:
 RMSU=  5.20D-09    CP:  9.92D-01  1.17D+00  1.06D+00  1.87D+00  3.00D+00
                    CP:  3.00D+00  3.00D+00  3.00D+00  1.87D+00  1.45D+00
                    CP:  2.19D+00  3.00D+00  3.00D+00  2.75D+00  1.91D+00
                    CP:  1.12D+00  1.64D+00  1.20D+00
 E= -474.185828865637     Delta-E=        0.000000000006 Rises=F Damp=F
 DIIS: error= 6.21D-08 at cycle  19 NSaved=  19.
 NSaved=19 IEnMin=18 EnMin= -474.185828865643     IErMin=19 ErrMin= 6.21D-08
 ErrMax= 6.21D-08  0.00D+00 EMaxC= 1.00D-01 BMatC= 8.39D-14 BMatP= 5.01D-13
 IDIUse=1 WtCom= 1.00D+00 WtEn= 0.00D+00
 Coeff-Com: -0.176D-06 0.113D-05 0.161D-05-0.119D-04-0.206D-04 0.649D-04
 Coeff-Com:  0.159D-03-0.302D-03-0.253D-03 0.932D-03 0.924D-03-0.233D-02
 Coeff-Com: -0.530D-02 0.684D-02 0.164D-01-0.140D-01-0.179D+00 0.740D-01
 Coeff-Com:  0.110D+01
 Coeff:     -0.176D-06 0.113D-05 0.161D-05-0.119D-04-0.206D-04 0.649D-04
 Coeff:      0.159D-03-0.302D-03-0.253D-03 0.932D-03 0.924D-03-0.233D-02
 Coeff:     -0.530D-02 0.684D-02 0.164D-01-0.140D-01-0.179D+00 0.740D-01
 Coeff:      0.110D+01
 RMSDP=5.99D-09 MaxDP=5.02D-07 DE= 6.37D-12 OVMax= 0.00D+00

 SCF Done:  E(RZINDO/S) =  -474.185828866     A.U. after   19 cycles
            NFock= 19  Conv=0.60D-08     -V/T= 0.9487
 KE=-9.248501818831D+03 PE=-1.526859705336D-07 EE= 4.486960531044D+03
 Leave Link  502 at Sat Apr 30 07:49:05 2022, MaxMem=  6710886400 cpu:              17.9 elap:               0.8
 (Enter /sw/apps/gaussian-16.0/g16/l801.exe)
 Range of M.O.s used for correlation:     1   338
 NBasis=   338 NAE=   176 NBE=   176 NFC=     0 NFV=     0
 NROrb=    338 NOA=   176 NOB=   176 NVA=   162 NVB=   162
 Leave Link  801 at Sat Apr 30 07:49:05 2022, MaxMem=  6710886400 cpu:               0.4 elap:               0.0
 (Enter /sw/apps/gaussian-16.0/g16/l914.exe)
 RHF ground state
 Two-electron integral symmetry not used.
 MDV=  6710886400 DFT=F DoStab=F Mixed=F DoRPA=F DoScal=F NonHer=F
 Making orbital integer symmetry assigments:
 Orbital symmetries:
       Occupied  (A) (A) (A) (A) (A) (A) (A) (A) (A) (A) (A) (A)
                 (A) (A) (A) (A) (A) (A) (A) (A) (A) (A) (A) (A)
                 (A) (A) (A) (A) (A) (A) (A) (A) (A) (A) (A) (A)
                 (A) (A) (A) (A) (A) (A) (A) (A) (A) (A) (A) (A)
                 (A) (A) (A) (A) (A) (A) (A) (A) (A) (A) (A) (A)
                 (A) (A) (A) (A) (A) (A) (A) (A) (A) (A) (A) (A)
                 (A) (A) (A) (A) (A) (A) (A) (A) (A) (A) (A) (A)
                 (A) (A) (A) (A) (A) (A) (A) (A) (A) (A) (A) (A)
                 (A) (A) (A) (A) (A) (A) (A) (A) (A) (A) (A) (A)
                 (A) (A) (A) (A) (A) (A) (A) (A) (A) (A) (A) (A)
                 (A) (A) (A) (A) (A) (A) (A) (A) (A) (A) (A) (A)
                 (A) (A) (A) (A) (A) (A) (A) (A) (A) (A) (A) (A)
                 (A) (A) (A) (A) (A) (A) (A) (A) (A) (A) (A) (A)
                 (A) (A) (A) (A) (A) (A) (A) (A) (A) (A) (A) (A)
                 (A) (A) (A) (A) (A) (A) (A) (A)
       Virtual   (A) (A) (A) (A) (A) (A) (A) (A) (A) (A) (A) (A)
                 (A) (A) (A) (A) (A) (A) (A) (A) (A) (A) (A) (A)
                 (A) (A) (A) (A) (A) (A) (A) (A) (A) (A) (A) (A)
                 (A) (A) (A) (A) (A) (A) (A) (A) (A) (A) (A) (A)
                 (A) (A) (A) (A) (A) (A) (A) (A) (A) (A) (A) (A)
                 (A) (A) (A) (A) (A) (A) (A) (A) (A) (A) (A) (A)
                 (A) (A) (A) (A) (A) (A) (A) (A) (A) (A) (A) (A)
                 (A) (A) (A) (A) (A) (A) (A) (A) (A) (A) (A) (A)
                 (A) (A) (A) (A) (A) (A) (A) (A) (A) (A) (A) (A)
                 (A) (A) (A) (A) (A) (A) (A) (A) (A) (A) (A) (A)
                 (A) (A) (A) (A) (A) (A) (A) (A) (A) (A) (A) (A)
                 (A) (A) (A) (A) (A) (A) (A) (A) (A) (A) (A) (A)
                 (A) (A) (A) (A) (A) (A) (A) (A) (A) (A) (A) (A)
                 (A) (A) (A) (A) (A) (A)
    20 initial guesses have been made.
 Convergence on wavefunction:    0.001000000000000
 Davidson Disk Diagonalization:  ConvIn= 1.00D-03 SkipCon=T Conv= 1.00D-03.
 Max sub-space:  2000 roots to seek:    20 dimension of matrix:        57024
 Iteration     1 Dimension    20 NMult     0 NNew     20
 CISAX will form    20 AO SS matrices at one time.
 NMat=    20 NSing=    20 JSym2X= 0.
 New state      3 was old state      5
 New state      5 was old state      3
 Excitation Energies [eV] at current iteration:
 Root      1 :     1.633841973829395
 Root      2 :     2.160519742103014
 Root      3 :     2.855519903604173
 Root      4 :     3.326520351264278
 Root      5 :     3.336390409349953
 Root      6 :     3.499256203223484
 Root      7 :     3.652010577297771
 Root      8 :     3.840079751157349
 Root      9 :     3.948225463006996
 Root     10 :     3.961304454999331
 Root     11 :     4.052263338913800
 Root     12 :     4.149827588589970
 Root     13 :     4.300434976757978
 Root     14 :     4.407667223598185
 Root     15 :     4.477941967058869
 Root     16 :     4.548484752791929
 Root     17 :     4.577605318892543
 Root     18 :     4.643730589733474
 Root     19 :     4.776392097509804
 Root     20 :     4.883894545361935
 Iteration     2 Dimension    40 NMult    20 NNew     20
 CISAX will form    20 AO SS matrices at one time.
 NMat=    20 NSing=    20 JSym2X= 0.
 Root      1 not converged, maximum delta is    0.037169408089223
 Root      2 not converged, maximum delta is    0.036896041664432
 Root      3 not converged, maximum delta is    0.091410929658063
 New state      4 was old state      5
 Root      4 not converged, maximum delta is    0.291157554039832
 New state      5 was old state      4
 Root      5 not converged, maximum delta is    0.206263106909841
 Excitation Energies [eV] at current iteration:
 Root      1 :     1.321884727982375   Change is   -0.311957245847019
 Root      2 :     1.948115824643491   Change is   -0.212403917459523
 Root      3 :     2.821438419884480   Change is   -0.034081483719693
 Root      4 :     2.987424692588129   Change is   -0.348965716761824
 Root      5 :     3.097725247777598   Change is   -0.228795103486680
 Root      6 :     3.296612522752576   Change is   -0.202643680470908
 Root      7 :     3.440959848469236   Change is   -0.211050728828535
 Root      8 :     3.600404514234032   Change is   -0.347820948772963
 Root      9 :     3.610489380957710   Change is   -0.229590370199639
 Root     10 :     3.637736658345983   Change is   -0.769930565252202
 Root     11 :     3.770393704027364   Change is   -0.190910750971967
 Root     12 :     3.797597924600058   Change is   -0.352229663989913
 Root     13 :     3.939902508572593   Change is   -0.112360830341207
 Root     14 :     4.035049996127386   Change is   -0.741342101382418
 Root     15 :     4.052502200890074   Change is   -0.247932775867904
 Root     16 :     4.230053072459888   Change is   -0.247888894598980
 Root     17 :     4.335135150140623   Change is   -0.213349602651306
 Root     18 :     4.425057142187248   Change is   -0.218673447546226
 Root     19 :     4.538650429877679   Change is   -0.038954889014864
 Root     20 :     4.881080975649084   Change is   -0.002813569712851
 Iteration     3 Dimension    45 NMult    40 NNew      5
 CISAX will form     5 AO SS matrices at one time.
 NMat=     5 NSing=     5 JSym2X= 0.
 Root      1 not converged, maximum delta is    0.010816428068584
 Root      2 not converged, maximum delta is    0.018077488522608
 Root      3 not converged, maximum delta is    0.015351783202547
 Root      4 not converged, maximum delta is    0.020095364444221
 Root      5 not converged, maximum delta is    0.031307741733722
 Excitation Energies [eV] at current iteration:
 Root      1 :     1.307118705436594   Change is   -0.014766022545781
 Root      2 :     1.920414475150511   Change is   -0.027701349492980
 Root      3 :     2.816109246068872   Change is   -0.005329173815608
 Root      4 :     2.969516943624042   Change is   -0.017907748964088
 Root      5 :     3.063831797361679   Change is   -0.033893450415919
 Iteration     4 Dimension    50 NMult    45 NNew      5
 CISAX will form     5 AO SS matrices at one time.
 NMat=     5 NSing=     5 JSym2X= 0.
 Root      1 not converged, maximum delta is    0.001899231099561
 Root      2 not converged, maximum delta is    0.002057807064390
 Root      3 not converged, maximum delta is    0.003752697780867
 Root      4 not converged, maximum delta is    0.006885019204206
 Root      5 not converged, maximum delta is    0.007316235975513
 Excitation Energies [eV] at current iteration:
 Root      1 :     1.306294501658296   Change is   -0.000824203778299
 Root      2 :     1.919660084776827   Change is   -0.000754390373684
 Root      3 :     2.815637847420326   Change is   -0.000471398648546
 Root      4 :     2.967031107278455   Change is   -0.002485836345586
 Root      5 :     3.060821983130142   Change is   -0.003009814231537
 Iteration     5 Dimension    55 NMult    50 NNew      5
 CISAX will form     5 AO SS matrices at one time.
 NMat=     5 NSing=     5 JSym2X= 0.
 Root      1 has converged.
 Root      2 has converged.
 Root      3 not converged, maximum delta is    0.001106028056880
 Root      4 not converged, maximum delta is    0.002848886219480
 Root      5 not converged, maximum delta is    0.003526630477649
 Excitation Energies [eV] at current iteration:
 Root      1 :     1.306244498128573   Change is   -0.000050003529723
 Root      2 :     1.919621603673563   Change is   -0.000038481103264
 Root      3 :     2.815582914694626   Change is   -0.000054932725699
 Root      4 :     2.966562840947672   Change is   -0.000468266330784
 Root      5 :     3.060151503433894   Change is   -0.000670479696248
 Iteration     6 Dimension    58 NMult    55 NNew      3
 CISAX will form     3 AO SS matrices at one time.
 NMat=     3 NSing=     3 JSym2X= 0.
 Root      1 has converged.
 Root      2 has converged.
 Root      3 has converged.
 Root      4 not converged, maximum delta is    0.002633698185733
 Root      5 not converged, maximum delta is    0.007464078854196
 Excitation Energies [eV] at current iteration:
 Root      1 :     1.306244347444181   Change is   -0.000000150684392
 Root      2 :     1.919620957891163   Change is   -0.000000645782400
 Root      3 :     2.815573562293055   Change is   -0.000009352401572
 Root      4 :     2.966412056542092   Change is   -0.000150784405581
 Root      5 :     3.059708618442456   Change is   -0.000442884991437
 Iteration     7 Dimension    60 NMult    58 NNew      2
 CISAX will form     2 AO SS matrices at one time.
 NMat=     2 NSing=     2 JSym2X= 0.
 Root      1 has converged.
 Root      2 has converged.
 Root      3 has converged.
 Root      4 not converged, maximum delta is    0.010201873812216
 Root      5 not converged, maximum delta is    0.056062696329113
 Excitation Energies [eV] at current iteration:
 Root      1 :     1.306244340828646   Change is   -0.000000006615534
 Root      2 :     1.919620800026115   Change is   -0.000000157865048
 Root      3 :     2.815569915031721   Change is   -0.000003647261334
 Root      4 :     2.966144106582568   Change is   -0.000267949959523
 Root      5 :     3.057290970228118   Change is   -0.002417648214338
 Iteration     8 Dimension    62 NMult    60 NNew      2
 CISAX will form     2 AO SS matrices at one time.
 NMat=     2 NSing=     2 JSym2X= 0.
 Root      1 has converged.
 Root      2 has converged.
 Root      3 has converged.
 Root      4 not converged, maximum delta is    0.125536039106813
 Root      5 not converged, maximum delta is    0.451620815076650
 Excitation Energies [eV] at current iteration:
 Root      1 :     1.306244292308464   Change is   -0.000000048520183
 Root      2 :     1.919620793076438   Change is   -0.000000006949677
 Root      3 :     2.815568130593985   Change is   -0.000001784437735
 Root      4 :     2.963076045726295   Change is   -0.003068060856273
 Root      5 :     2.979745125445993   Change is   -0.077545844782125
 Iteration     9 Dimension    64 NMult    62 NNew      2
 CISAX will form     2 AO SS matrices at one time.
 NMat=     2 NSing=     2 JSym2X= 0.
 Root      1 has converged.
 Root      2 has converged.
 Root      3 has converged.
 New state      4 was old state      5
 Root      4 not converged, maximum delta is    0.297449044236223
 New state      5 was old state      4
 Root      5 not converged, maximum delta is    0.188579238104623
 Excitation Energies [eV] at current iteration:
 Root      1 :     1.306244142592506   Change is   -0.000000149715958
 Root      2 :     1.919620686272631   Change is   -0.000000106803807
 Root      3 :     2.815567204427254   Change is   -0.000000926166732
 Root      4 :     2.923874482593301   Change is   -0.055870642852692
 Root      5 :     2.967362438212648   Change is    0.004286392486353
 Iteration    10 Dimension    66 NMult    64 NNew      2
 CISAX will form     2 AO SS matrices at one time.
 NMat=     2 NSing=     2 JSym2X= 0.
 Root      1 has converged.
 Root      2 has converged.
 Root      3 has converged.
 Root      4 not converged, maximum delta is    0.055154823237803
 Root      5 not converged, maximum delta is    0.022458011870205
 Excitation Energies [eV] at current iteration:
 Root      1 :     1.306244106616582   Change is   -0.000000035975924
 Root      2 :     1.919620570473314   Change is   -0.000000115799317
 Root      3 :     2.815566505585591   Change is   -0.000000698841663
 Root      4 :     2.892400830655343   Change is   -0.031473651937958
 Root      5 :     2.966830900979818   Change is   -0.000531537232830
 Iteration    11 Dimension    68 NMult    66 NNew      2
 CISAX will form     2 AO SS matrices at one time.
 NMat=     2 NSing=     2 JSym2X= 0.
 Root      1 has converged.
 Root      2 has converged.
 Root      3 has converged.
 Root      4 not converged, maximum delta is    0.020792561213570
 Root      5 not converged, maximum delta is    0.004795229856565
 Excitation Energies [eV] at current iteration:
 Root      1 :     1.306244104435604   Change is   -0.000000002180977
 Root      2 :     1.919620518384655   Change is   -0.000000052088659
 Root      3 :     2.815566104421587   Change is   -0.000000401164004
 Root      4 :     2.881281458754341   Change is   -0.011119371901002
 Root      5 :     2.966717930785570   Change is   -0.000112970194248
 Iteration    12 Dimension    70 NMult    68 NNew      2
 CISAX will form     2 AO SS matrices at one time.
 NMat=     2 NSing=     2 JSym2X= 0.
 Root      1 has converged.
 Root      2 has converged.
 Root      3 has converged.
 Root      4 not converged, maximum delta is    0.004548859408252
 Root      5 has converged.
 Excitation Energies [eV] at current iteration:
 Root      1 :     1.306244103789989   Change is   -0.000000000645615
 Root      2 :     1.919620501280380   Change is   -0.000000017104275
 Root      3 :     2.815566012386888   Change is   -0.000000092034699
 Root      4 :     2.879579391489598   Change is   -0.001702067264743
 Root      5 :     2.966702289032762   Change is   -0.000015641752808
 Iteration    13 Dimension    71 NMult    70 NNew      1
 CISAX will form     1 AO SS matrices at one time.
 NMat=     1 NSing=     1 JSym2X= 0.
 Root      1 has converged.
 Root      2 has converged.
 Root      3 has converged.
 Root      4 not converged, maximum delta is    0.001801221786440
 Root      5 has converged.
 Excitation Energies [eV] at current iteration:
 Root      1 :     1.306244089020163   Change is   -0.000000014769827
 Root      2 :     1.919620492124875   Change is   -0.000000009155506
 Root      3 :     2.815566007498699   Change is   -0.000000004888189
 Root      4 :     2.879336452318270   Change is   -0.000242939171328
 Root      5 :     2.966700146634411   Change is   -0.000002142398350
 Iteration    14 Dimension    72 NMult    71 NNew      1
 CISAX will form     1 AO SS matrices at one time.
 NMat=     1 NSing=     1 JSym2X= 0.
 Root      1 has converged.
 Root      2 has converged.
 Root      3 has converged.
 Root      4 has converged.
 Root      5 has converged.
 Excitation Energies [eV] at current iteration:
 Root      1 :     1.306244083280847   Change is   -0.000000005739315
 Root      2 :     1.919620490601554   Change is   -0.000000001523320
 Root      3 :     2.815566007093139   Change is   -0.000000000405561
 Root      4 :     2.879307450309585   Change is   -0.000029002008685
 Root      5 :     2.966699894328901   Change is   -0.000000252305510
 Convergence achieved on expansion vectors.
 ***********************************************************************
 Excited states from <AA,BB:AA,BB> singles matrix:
 ***********************************************************************
 
 1PDM for each excited state written to RWF  633
 Ground to excited state transition densities written to RWF  633
 Ground to excited state transition electric dipole moments (Au):
       state          X           Y           Z        Dip. S.      Osc.
         1         0.3446     -2.1641      3.4812     16.9212      0.5415
         2         0.0741     -1.1503     -0.5082      1.5869      0.0746
         3        -0.1077     -0.8827     -0.2124      0.8359      0.0577
         4        -0.0089      0.1037      0.0245      0.0114      0.0008
         5        -0.2943     -3.2321     -1.7650     13.6482      0.9920
 Ground to excited state transition velocity dipole moments (Au):
       state          X           Y           Z        Dip. S.      Osc.
         1         0.0057     -0.0047      0.0549      0.0031      0.0427
         2        -0.0016      0.0237      0.0019      0.0006      0.0054
         3         0.0064      0.0336      0.0053      0.0012      0.0077
         4        -0.0032     -0.0060      0.0016      0.0000      0.0003
         5         0.0226      0.1096      0.0453      0.0146      0.0891
 Ground to excited state transition magnetic dipole moments (Au):
       state          X           Y           Z
         1        -0.4273     -0.4604      0.0299
         2         1.2257     -0.0585      0.1105
         3        -0.3371     -0.0503      0.3240
         4        -0.1126      0.2659     -0.7208
         5         0.1755     -0.5663      1.1398
 Ground to excited state transition velocity quadrupole moments (Au):
       state          XX          YY          ZZ          XY          XZ          YZ
         1         0.0466     -0.0860      0.0648     -0.0411      0.4798     -0.0588
         2        -0.1018      0.0620      0.0852      0.2619      0.0554     -0.0259
         3         0.0911      0.0102      0.0860      0.4173      0.0741      0.1718
         4        -0.0342     -0.0726     -0.0186     -0.1253      0.0107      0.0305
         5        -0.0248      0.2830      0.2035      1.1301      0.4334      0.0491
 <0|del|b> * <b|rxdel|0> + <0|del|b> * <b|delr+rdel|0>
 Rotatory Strengths (R) in cgs (10**-40 erg-esu-cm/Gauss)
       state          XX          YY          ZZ    R(velocity)    E-M Angle
         1        28.2475      8.1452    -16.2715      6.7071       87.75
         2       -10.0774    -10.7725    -10.1271    -10.3257       96.03
         3        -0.9126     -5.2926     -8.3867     -4.8640       97.55
         4        -9.6585     -2.3286     -3.9784     -5.3218      116.16
         5       -21.5537     17.9008    -37.9799    -13.8776       92.37
 1/2[<0|r|b>*<b|rxdel|0> + (<0|rxdel|b>*<b|r|0>)*]
 Rotatory Strengths (R) in cgs (10**-40 erg-esu-cm/Gauss)
       state          XX          YY          ZZ     R(length)
         1       104.1134   -704.5796    -73.6349   -224.7004
         2       -64.1834    -47.5936     39.6975    -24.0265
         3       -25.6717    -31.3844     48.6529     -2.8011
         4        -0.7067    -19.4898     12.4994     -2.5657
         5        36.5220  -1294.3344   1422.7180     54.9685
  1/2[<0|del|b>*<b|r|0> + (<0|r|b>*<b|del|0>)*] (Au)
       state          X           Y           Z        Dip. S.   Osc.(frdel)
         1         0.0020      0.0102      0.1912     -0.2034     -0.1356
         2        -0.0001     -0.0273     -0.0009      0.0284      0.0189
         3        -0.0007     -0.0296     -0.0011      0.0314      0.0210
         4         0.0000     -0.0006      0.0000      0.0006      0.0004
         5        -0.0067     -0.3542     -0.0800      0.4409      0.2939

 Excitation energies and oscillator strengths:
 
 Excited State   1:      Singlet-A      1.3062 eV  949.17 nm  f=0.5415  <S**2>=0.000
     175 ->178         0.16079
     176 ->177         0.67120
 This state for optimization and/or second-order correction.
 Total Energy, E(CIS/TDA) =  -474.137825279    
 Copying the excited state density for this state as the 1-particle RhoCI density.
 
 Excited State   2:      Singlet-A      1.9196 eV  645.88 nm  f=0.0746  <S**2>=0.000
     175 ->177         0.56149
     176 ->178        -0.38455
 
 Excited State   3:      Singlet-A      2.8156 eV  440.35 nm  f=0.0577  <S**2>=0.000
     176 ->178         0.16287
     176 ->179         0.46051
     176 ->180         0.48466
 
 Excited State   4:      Singlet-A      2.8793 eV  430.60 nm  f=0.0008  <S**2>=0.000
     167 ->177         0.10999
     167 ->179        -0.12146
     167 ->181        -0.12492
     168 ->177         0.33118
     168 ->178        -0.21564
     168 ->179        -0.30112
     168 ->180         0.11645
     168 ->181        -0.29975
     168 ->184        -0.12208
     168 ->185        -0.17637
 
 Excited State   5:      Singlet-A      2.9667 eV  417.92 nm  f=0.9920  <S**2>=0.000
     175 ->177         0.35537
     176 ->178         0.51295
     176 ->179        -0.22794
 SavETr:  write IOETrn=   770 NScale= 10 NData=  16 NLR=1 NState=    5 LETran=     100.
 Leave Link  914 at Sat Apr 30 07:49:11 2022, MaxMem=  6710886400 cpu:             128.4 elap:               5.4
 (Enter /sw/apps/gaussian-16.0/g16/l601.exe)
 Copying SCF densities to generalized density rwf, IOpCl= 0 IROHF=0.

 **********************************************************************

            Population analysis using the SCF density.

 **********************************************************************

 Orbital symmetries:
       Occupied  (A) (A) (A) (A) (A) (A) (A) (A) (A) (A) (A) (A)
                 (A) (A) (A) (A) (A) (A) (A) (A) (A) (A) (A) (A)
                 (A) (A) (A) (A) (A) (A) (A) (A) (A) (A) (A) (A)
                 (A) (A) (A) (A) (A) (A) (A) (A) (A) (A) (A) (A)
                 (A) (A) (A) (A) (A) (A) (A) (A) (A) (A) (A) (A)
                 (A) (A) (A) (A) (A) (A) (A) (A) (A) (A) (A) (A)
                 (A) (A) (A) (A) (A) (A) (A) (A) (A) (A) (A) (A)
                 (A) (A) (A) (A) (A) (A) (A) (A) (A) (A) (A) (A)
                 (A) (A) (A) (A) (A) (A) (A) (A) (A) (A) (A) (A)
                 (A) (A) (A) (A) (A) (A) (A) (A) (A) (A) (A) (A)
                 (A) (A) (A) (A) (A) (A) (A) (A) (A) (A) (A) (A)
                 (A) (A) (A) (A) (A) (A) (A) (A) (A) (A) (A) (A)
                 (A) (A) (A) (A) (A) (A) (A) (A) (A) (A) (A) (A)
                 (A) (A) (A) (A) (A) (A) (A) (A) (A) (A) (A) (A)
                 (A) (A) (A) (A) (A) (A) (A) (A)
       Virtual   (A) (A) (A) (A) (A) (A) (A) (A) (A) (A) (A) (A)
                 (A) (A) (A) (A) (A) (A) (A) (A) (A) (A) (A) (A)
                 (A) (A) (A) (A) (A) (A) (A) (A) (A) (A) (A) (A)
                 (A) (A) (A) (A) (A) (A) (A) (A) (A) (A) (A) (A)
                 (A) (A) (A) (A) (A) (A) (A) (A) (A) (A) (A) (A)
                 (A) (A) (A) (A) (A) (A) (A) (A) (A) (A) (A) (A)
                 (A) (A) (A) (A) (A) (A) (A) (A) (A) (A) (A) (A)
                 (A) (A) (A) (A) (A) (A) (A) (A) (A) (A) (A) (A)
                 (A) (A) (A) (A) (A) (A) (A) (A) (A) (A) (A) (A)
                 (A) (A) (A) (A) (A) (A) (A) (A) (A) (A) (A) (A)
                 (A) (A) (A) (A) (A) (A) (A) (A) (A) (A) (A) (A)
                 (A) (A) (A) (A) (A) (A) (A) (A) (A) (A) (A) (A)
                 (A) (A) (A) (A) (A) (A) (A) (A) (A) (A) (A) (A)
                 (A) (A) (A) (A) (A) (A)
 The electronic state is 1-A.
 Alpha  occ. eigenvalues --   -1.83490  -1.81766  -1.80836  -1.74118  -1.72124
 Alpha  occ. eigenvalues --   -1.70994  -1.66532  -1.61103  -1.59470  -1.56933
 Alpha  occ. eigenvalues --   -1.55292  -1.50850  -1.48507  -1.47593  -1.46128
 Alpha  occ. eigenvalues --   -1.46061  -1.42124  -1.40719  -1.38756  -1.38148
 Alpha  occ. eigenvalues --   -1.36134  -1.35446  -1.31029  -1.30343  -1.29389
 Alpha  occ. eigenvalues --   -1.27438  -1.26969  -1.22888  -1.21160  -1.18140
 Alpha  occ. eigenvalues --   -1.16161  -1.15227  -1.14509  -1.14136  -1.13427
 Alpha  occ. eigenvalues --   -1.11509  -1.09992  -1.09220  -1.06617  -1.04743
 Alpha  occ. eigenvalues --   -1.03105  -1.02038  -1.00205  -0.97560  -0.97398
 Alpha  occ. eigenvalues --   -0.97186  -0.95149  -0.93392  -0.92405  -0.91762
 Alpha  occ. eigenvalues --   -0.91027  -0.90846  -0.89855  -0.87801  -0.86639
 Alpha  occ. eigenvalues --   -0.85036  -0.83883  -0.83785  -0.82957  -0.81178
 Alpha  occ. eigenvalues --   -0.80533  -0.78315  -0.77963  -0.76997  -0.76809
 Alpha  occ. eigenvalues --   -0.76156  -0.74818  -0.74275  -0.73860  -0.73569
 Alpha  occ. eigenvalues --   -0.72861  -0.72713  -0.71958  -0.70896  -0.70651
 Alpha  occ. eigenvalues --   -0.69848  -0.69560  -0.69237  -0.67937  -0.67527
 Alpha  occ. eigenvalues --   -0.67324  -0.66801  -0.66685  -0.66644  -0.65966
 Alpha  occ. eigenvalues --   -0.65696  -0.64901  -0.64617  -0.64239  -0.64029
 Alpha  occ. eigenvalues --   -0.63416  -0.63186  -0.62725  -0.62598  -0.62366
 Alpha  occ. eigenvalues --   -0.62148  -0.61577  -0.61314  -0.60558  -0.60245
 Alpha  occ. eigenvalues --   -0.60084  -0.59364  -0.58870  -0.58753  -0.58108
 Alpha  occ. eigenvalues --   -0.57965  -0.57724  -0.57353  -0.57083  -0.56923
 Alpha  occ. eigenvalues --   -0.56634  -0.56313  -0.55126  -0.54543  -0.54436
 Alpha  occ. eigenvalues --   -0.54300  -0.53960  -0.53777  -0.53592  -0.52940
 Alpha  occ. eigenvalues --   -0.52537  -0.52435  -0.51995  -0.51868  -0.51160
 Alpha  occ. eigenvalues --   -0.50892  -0.50717  -0.50621  -0.50135  -0.49943
 Alpha  occ. eigenvalues --   -0.49658  -0.49375  -0.49284  -0.49050  -0.48776
 Alpha  occ. eigenvalues --   -0.48508  -0.48471  -0.48355  -0.48203  -0.48065
 Alpha  occ. eigenvalues --   -0.47934  -0.47489  -0.47164  -0.46814  -0.46514
 Alpha  occ. eigenvalues --   -0.46452  -0.46302  -0.45905  -0.45860  -0.45618
 Alpha  occ. eigenvalues --   -0.45519  -0.45225  -0.45136  -0.44298  -0.44071
 Alpha  occ. eigenvalues --   -0.43861  -0.43694  -0.42654  -0.42416  -0.42358
 Alpha  occ. eigenvalues --   -0.42163  -0.41238  -0.41056  -0.38890  -0.38709
 Alpha  occ. eigenvalues --   -0.37750  -0.37285  -0.36240  -0.34685  -0.34579
 Alpha  occ. eigenvalues --   -0.34163  -0.32795  -0.32726  -0.31442  -0.27057
 Alpha  occ. eigenvalues --   -0.22333
 Alpha virt. eigenvalues --   -0.08899  -0.02440  -0.01092  -0.00213   0.01155
 Alpha virt. eigenvalues --    0.01742   0.02890   0.03603   0.04133   0.05571
 Alpha virt. eigenvalues --    0.05750   0.06158   0.07037   0.07571   0.07792
 Alpha virt. eigenvalues --    0.08242   0.08394   0.08479   0.09223   0.09332
 Alpha virt. eigenvalues --    0.09531   0.09920   0.10038   0.10241   0.10710
 Alpha virt. eigenvalues --    0.10831   0.11104   0.11454   0.11589   0.11823
 Alpha virt. eigenvalues --    0.12389   0.12694   0.12872   0.12931   0.13449
 Alpha virt. eigenvalues --    0.13558   0.13636   0.14028   0.14085   0.14612
 Alpha virt. eigenvalues --    0.14788   0.15202   0.15539   0.15645   0.15687
 Alpha virt. eigenvalues --    0.15723   0.16009   0.16054   0.16285   0.16713
 Alpha virt. eigenvalues --    0.16773   0.17142   0.17394   0.17509   0.17790
 Alpha virt. eigenvalues --    0.18130   0.18364   0.18769   0.18963   0.19325
 Alpha virt. eigenvalues --    0.19584   0.19607   0.19889   0.20415   0.20450
 Alpha virt. eigenvalues --    0.21321   0.21401   0.22399   0.23470   0.23570
 Alpha virt. eigenvalues --    0.23654   0.23714   0.24004   0.24135   0.24268
 Alpha virt. eigenvalues --    0.24532   0.24564   0.24596   0.24642   0.24733
 Alpha virt. eigenvalues --    0.24800   0.24829   0.24868   0.24904   0.24955
 Alpha virt. eigenvalues --    0.25075   0.25167   0.25195   0.25227   0.25356
 Alpha virt. eigenvalues --    0.25368   0.25427   0.25523   0.25629   0.25847
 Alpha virt. eigenvalues --    0.25914   0.25977   0.26008   0.26133   0.26183
 Alpha virt. eigenvalues --    0.26256   0.26316   0.26350   0.26373   0.26421
 Alpha virt. eigenvalues --    0.26630   0.26779   0.26890   0.26922   0.27154
 Alpha virt. eigenvalues --    0.27258   0.27355   0.27418   0.27589   0.27947
 Alpha virt. eigenvalues --    0.28006   0.28164   0.28577   0.28820   0.29611
 Alpha virt. eigenvalues --    0.29872   0.30275   0.30433   0.31057   0.31686
 Alpha virt. eigenvalues --    0.31826   0.32221   0.32533   0.33349   0.33673
 Alpha virt. eigenvalues --    0.34816   0.35202   0.35294   0.35612   0.35932
 Alpha virt. eigenvalues --    0.36052   0.36273   0.36648   0.37695   0.37838
 Alpha virt. eigenvalues --    0.38078   0.38862   0.39236   0.39552   0.40270
 Alpha virt. eigenvalues --    0.40369   0.40627   0.40651   0.41863   0.43222
 Alpha virt. eigenvalues --    0.43670   0.44167   0.45339   0.46390   0.46634
 Alpha virt. eigenvalues --    0.47627   0.48194   0.48669   0.50600   0.53407
 Alpha virt. eigenvalues --    0.53683   0.56302
          Condensed to atoms (all electrons):
 Mulliken charges:
               1
     1  Mg   0.446202
     2  C   -0.034762
     3  C   -0.102778
     4  C   -0.095014
     5  C   -0.072487
     6  N   -0.289509
     7  C    0.078585
     8  C    0.002579
     9  C    0.005832
    10  C    0.186924
    11  C   -0.045937
    12  C   -0.028790
    13  C    0.002059
    14  C    0.452080
    15  O   -0.512548
    16  O   -0.266639
    17  N   -0.335130
    18  C    0.156419
    19  C    0.064884
    20  C   -0.038122
    21  C    0.126953
    22  C   -0.052161
    23  C    0.332166
    24  O   -0.523291
    25  C   -0.023676
    26  N   -0.264209
    27  C    0.160118
    28  C    0.003587
    29  C   -0.002568
    30  C    0.099616
    31  C   -0.054508
    32  C   -0.027624
    33  C   -0.060353
    34  N   -0.307879
    35  C    0.042654
    36  C    0.025874
    37  C   -0.071840
    38  C    0.080577
    39  C   -0.021805
    40  C    0.333596
    41  O   -0.535564
    42  C    0.067542
    43  C    0.503184
    44  O   -0.538458
    45  O   -0.273595
    46  C    0.078358
    47  C    0.103891
    48  C   -0.095328
    49  C   -0.002923
    50  C   -0.052315
    51  C   -0.023878
    52  C   -0.041077
    53  C   -0.037033
    54  C   -0.011890
    55  C   -0.059373
    56  C   -0.034561
    57  C   -0.045210
    58  C   -0.040365
    59  C   -0.022858
    60  C   -0.064155
    61  C   -0.040454
    62  C   -0.034957
    63  C   -0.042223
    64  C   -0.013976
    65  C   -0.056840
    66  C   -0.055134
    67  H    0.025953
    68  H    0.021969
    69  H    0.026117
    70  H    0.038179
    71  H    0.036761
    72  H    0.031462
    73  H    0.032486
    74  H    0.025609
    75  H    0.025998
    76  H    0.032654
    77  H    0.048015
    78  H    0.051306
    79  H    0.024163
    80  H    0.028874
    81  H    0.043400
    82  H    0.039847
    83  H    0.047940
    84  H    0.044917
    85  H    0.023522
    86  H    0.030364
    87  H    0.019396
    88  H    0.027590
    89  H    0.023486
    90  H    0.028208
    91  H    0.027018
    92  H    0.020180
    93  H    0.021704
    94  H    0.011478
    95  H    0.026925
    96  H    0.029075
    97  H    0.028010
    98  H    0.054805
    99  H    0.049980
   100  H    0.029808
   101  H    0.042207
   102  H    0.052227
   103  H    0.057587
   104  H    0.035414
   105  H    0.019330
   106  H    0.028780
   107  H    0.033638
   108  H    0.016107
   109  H    0.012646
   110  H    0.037644
   111  H    0.028869
   112  H    0.021294
   113  H    0.013397
   114  H    0.026927
   115  H    0.033767
   116  H    0.004612
   117  H    0.015703
   118  H    0.018820
   119  H    0.018953
   120  H    0.010482
   121  H    0.014802
   122  H    0.027661
   123  H    0.019200
   124  H    0.037137
   125  H    0.016604
   126  H    0.009432
   127  H    0.019737
   128  H    0.020578
   129  H    0.015443
   130  H    0.028590
   131  H    0.021430
   132  H    0.020785
   133  H    0.017230
   134  H    0.016893
   135  H    0.014175
   136  H    0.017640
   137  H    0.018853
   138  H    0.026321
   139  H    0.009959
   140  H    0.022045
 Sum of Mulliken charges =  -0.00000
 Mulliken charges with hydrogens summed into heavy atoms:
               1
     1  Mg   0.446202
     2  C   -0.034762
     3  C   -0.076825
     4  C   -0.073045
     5  C   -0.046370
     6  N   -0.289509
     7  C    0.078585
     8  C    0.040758
     9  C    0.042593
    10  C    0.186924
    11  C    0.043620
    12  C    0.029862
    13  C    0.101380
    14  C    0.452080
    15  O   -0.512548
    16  O   -0.266639
    17  N   -0.335130
    18  C    0.156419
    19  C    0.064884
    20  C   -0.038122
    21  C    0.126953
    22  C    0.044276
    23  C    0.332166
    24  O   -0.523291
    25  C    0.109028
    26  N   -0.264209
    27  C    0.160118
    28  C    0.027109
    29  C    0.027796
    30  C    0.099616
    31  C    0.015964
    32  C    0.027602
    33  C   -0.006991
    34  N   -0.307879
    35  C    0.042654
    36  C    0.025874
    37  C   -0.071840
    38  C    0.080577
    39  C    0.062205
    40  C    0.333596
    41  O   -0.535564
    42  C    0.122348
    43  C    0.503184
    44  O   -0.538458
    45  O   -0.273595
    46  C    0.200354
    47  C    0.213705
    48  C   -0.059913
    49  C   -0.002923
    50  C    0.029432
    51  C    0.004876
    52  C    0.025436
    53  C   -0.002342
    54  C    0.015036
    55  C   -0.005291
    56  C    0.003212
    57  C   -0.019926
    58  C    0.006496
    59  C    0.014279
    60  C   -0.018382
    61  C   -0.004432
    62  C    0.015062
    63  C   -0.004208
    64  C    0.002917
    65  C   -0.006172
    66  C    0.003190
 Charge=              0.0000 electrons
 Dipole moment (field-independent basis, Debye):
    X=              1.6005    Y=              9.9300    Z=             -0.2474  Tot=             10.0612
 N-N= 4.287355459074D+03 E-N= 0.000000000000D+00  KE=-9.248501818831D+03
 Leave Link  601 at Sat Apr 30 07:49:11 2022, MaxMem=  6710886400 cpu:               3.2 elap:               0.2
 (Enter /sw/apps/gaussian-16.0/g16/l9999.exe)
 1\1\GINC-BP1-COMPUTE139\SP\RZINDO CIS\STO-3G\C55H74Mg1N4O6\OF15641\30-
 Apr-2022\0\\#p ZINDO=(nstates=5)\\step_651_chromophore_14 ZINDO\\0,1\M
 g,0,46.504,44.971,42.905\C,0,43.118,44.239,42.477\C,0,47.305,41.654,42
 .674\C,0,49.758,45.869,42.439\C,0,45.766,48.501,42.441\N,0,45.352,43.1
 36,42.679\C,0,43.937,43.124,42.508\C,0,43.46,41.702,42.317\C,0,44.752,
 40.857,42.617\C,0,45.88,41.918,42.63\C,0,44.825,40.154,44.008\C,0,42.8
 11,41.324,40.956\C,0,43.165,42.164,39.641\C,0,43.055,41.36,38.303\O,0,
 42.673,40.199,38.242\O,0,43.695,42.049,37.296\N,0,48.297,43.853,42.579
 \C,0,48.409,42.516,42.425\C,0,49.716,42.181,42.216\C,0,50.543,43.323,4
 2.164\C,0,49.526,44.452,42.422\C,0,50.089,40.707,41.937\C,0,52.012,43.
 445,41.837\O,0,52.643,42.392,41.778\C,0,52.734,44.709,41.527\N,0,47.59
 9,46.974,42.289\C,0,48.925,46.971,42.475\C,0,49.425,48.459,42.501\C,0,
 48.196,49.329,42.339\C,0,47.103,48.18,42.324\C,0,50.375,48.795,43.692\
 C,0,48.167,50.23,41.061\C,0,47.545,51.604,41.242\N,0,44.805,46.207,42.
 559\C,0,44.623,47.566,42.468\C,0,43.159,47.884,42.469\C,0,42.572,46.58
 3,42.472\C,0,43.587,45.626,42.5\C,0,42.588,49.139,42.51\C,0,41.298,45.
 871,42.42\O,0,40.124,46.281,42.381\C,0,41.626,44.378,42.566\C,0,41.094
 ,43.881,43.815\O,0,40.214,43.046,43.912\O,0,41.629,44.477,44.896\C,0,4
 1.032,44.284,46.218\C,0,43.911,41.248,36.064\C,0,44.424,42.41,35.174\C
 ,0,45.145,42.344,34.08\C,0,45.709,41.032,33.444\C,0,45.541,43.552,33.3
 25\C,0,44.776,43.766,31.972\C,0,45.657,44.056,30.705\C,0,44.86,43.778,
 29.361\C,0,43.411,44.382,29.343\C,0,44.608,42.261,29.166\C,0,45.065,41
 .78,27.77\C,0,44.002,42.061,26.618\C,0,44.62,43.228,25.731\C,0,43.796,
 44.483,26.014\C,0,44.543,42.846,24.187\C,0,45.631,43.528,23.336\C,0,46
 .204,42.49,22.293\C,0,47.682,42.691,21.73\C,0,47.684,42.532,20.199\C,0
 ,48.75,41.744,22.309\H,0,47.522,40.6,42.864\H,0,50.808,46.054,42.205\H
 ,0,45.611,49.565,42.628\H,0,42.632,41.561,43.012\H,0,44.937,40.199,41.
 768\H,0,43.861,40.359,44.474\H,0,45.647,40.543,44.608\H,0,44.962,39.09
 2,43.804\H,0,41.744,41.402,41.165\H,0,42.979,40.262,40.778\H,0,44.216,
 42.448,39.59\H,0,42.448,42.984,39.595\H,0,49.343,39.976,42.247\H,0,50.
 908,40.342,42.556\H,0,50.499,40.519,40.945\H,0,52.674,45.29,42.447\H,0
 ,52.25,45.188,40.675\H,0,53.774,44.408,41.398\H,0,50.012,48.593,41.592
 \H,0,47.983,49.882,43.254\H,0,51.432,48.817,43.425\H,0,50.239,48.045,4
 4.47\H,0,50.111,49.813,43.977\H,0,47.556,49.587,40.427\H,0,49.117,50.4
 83,40.59\H,0,47.19,51.859,42.24\H,0,46.782,51.77,40.482\H,0,48.245,52.
 435,41.158\H,0,42.81,49.642,41.569\H,0,42.98,49.689,43.365\H,0,41.501,
 49.223,42.52\H,0,41.141,43.688,41.877\H,0,39.951,44.264,46.078\H,0,41.
 269,45.153,46.832\H,0,41.38,43.407,46.764\H,0,42.965,40.865,35.68\H,0,
 44.576,40.387,36.127\H,0,44.227,43.426,35.514\H,0,45.035,40.227,33.736
 \H,0,46.635,40.881,34.\H,0,45.865,41.042,32.365\H,0,46.614,43.472,33.1
 55\H,0,45.472,44.427,33.97\H,0,44.057,44.579,32.074\H,0,44.443,42.746,
 31.781\H,0,46.582,43.479,30.719\H,0,45.924,45.103,30.845\H,0,45.463,44
 .098,28.511\H,0,42.783,44.223,28.466\H,0,43.455,45.444,29.58\H,0,42.89
 8,43.986,30.219\H,0,43.535,42.07,29.141\H,0,45.041,41.667,29.971\H,0,4
 5.33,40.724,27.72\H,0,46.003,42.276,27.522\H,0,43.054,42.248,27.123\H,
 0,43.814,41.179,26.007\H,0,45.597,43.629,26.\H,0,42.719,44.372,26.143\
 H,0,43.904,45.111,25.13\H,0,44.168,44.942,26.93\H,0,43.534,43.07,23.84
 3\H,0,44.634,41.761,24.135\H,0,46.369,43.954,24.015\H,0,45.101,44.3,22
 .778\H,0,45.432,42.446,21.525\H,0,46.252,41.473,22.683\H,0,48.043,43.6
 86,21.989\H,0,46.673,42.578,19.796\H,0,48.011,41.547,19.867\H,0,48.307
 ,43.306,19.75\H,0,48.322,40.742,22.273\H,0,48.996,41.965,23.347\H,0,49
 .667,41.942,21.753\\Version=ES64L-G16RevA.03\State=1-A\HF=-474.1858289
 \RMSD=5.986e-09\PG=C01 [X(C55H74Mg1N4O6)]\\@


 You can't act like a skunk without someone's getting wind of it.
 -- Lorene Workman
 Job cpu time:       0 days  0 hours  2 minutes 51.6 seconds.
 Elapsed time:       0 days  0 hours  0 minutes  7.5 seconds.
 File lengths (MBytes):  RWF=   1267 Int=      0 D2E=      0 Chk=     38 Scr=      1
 Normal termination of Gaussian 16 at Sat Apr 30 07:49:11 2022.
