 Entering Gaussian System, Link 0=g16
 Initial command:
 /sw/apps/gaussian-16.0/g16/l1.exe "/tmp/Gau-151108.inp" -scrdir="/tmp/"
 Entering Link 1 = /sw/apps/gaussian-16.0/g16/l1.exe PID=    151109.
  
 Copyright (c) 1988,1990,1992,1993,1995,1998,2003,2009,2016,
            Gaussian, Inc.  All Rights Reserved.
  
 This is part of the Gaussian(R) 16 program.  It is based on
 the Gaussian(R) 09 system (copyright 2009, Gaussian, Inc.),
 the Gaussian(R) 03 system (copyright 2003, Gaussian, Inc.),
 the Gaussian(R) 98 system (copyright 1998, Gaussian, Inc.),
 the Gaussian(R) 94 system (copyright 1995, Gaussian, Inc.),
 the Gaussian 92(TM) system (copyright 1992, Gaussian, Inc.),
 the Gaussian 90(TM) system (copyright 1990, Gaussian, Inc.),
 the Gaussian 88(TM) system (copyright 1988, Gaussian, Inc.),
 the Gaussian 86(TM) system (copyright 1986, Carnegie Mellon
 University), and the Gaussian 82(TM) system (copyright 1983,
 Carnegie Mellon University). Gaussian is a federally registered
 trademark of Gaussian, Inc.
  
 This software contains proprietary and confidential information,
 including trade secrets, belonging to Gaussian, Inc.
  
 This software is provided under written license and may be
 used, copied, transmitted, or stored only in accord with that
 written license.
  
 The following legend is applicable only to US Government
 contracts under FAR:
  
                    RESTRICTED RIGHTS LEGEND
  
 Use, reproduction and disclosure by the US Government is
 subject to restrictions as set forth in subparagraphs (a)
 and (c) of the Commercial Computer Software - Restricted
 Rights clause in FAR 52.227-19.
  
 Gaussian, Inc.
 340 Quinnipiac St., Bldg. 40, Wallingford CT 06492
  
  
 ---------------------------------------------------------------
 Warning -- This program may not be used in any manner that
 competes with the business of Gaussian, Inc. or will provide
 assistance to any competitor of Gaussian, Inc.  The licensee
 of this program is prohibited from giving any competitor of
 Gaussian, Inc. access to this program.  By using this program,
 the user acknowledges that Gaussian, Inc. is engaged in the
 business of creating and licensing software in the field of
 computational chemistry and represents and warrants to the
 licensee that it is not a competitor of Gaussian, Inc. and that
 it will not use this program in any manner prohibited above.
 ---------------------------------------------------------------
  

 Cite this work as:
 Gaussian 16, Revision A.03,
 M. J. Frisch, G. W. Trucks, H. B. Schlegel, G. E. Scuseria, 
 M. A. Robb, J. R. Cheeseman, G. Scalmani, V. Barone, 
 G. A. Petersson, H. Nakatsuji, X. Li, M. Caricato, A. V. Marenich, 
 J. Bloino, B. G. Janesko, R. Gomperts, B. Mennucci, H. P. Hratchian, 
 J. V. Ortiz, A. F. Izmaylov, J. L. Sonnenberg, D. Williams-Young, 
 F. Ding, F. Lipparini, F. Egidi, J. Goings, B. Peng, A. Petrone, 
 T. Henderson, D. Ranasinghe, V. G. Zakrzewski, J. Gao, N. Rega, 
 G. Zheng, W. Liang, M. Hada, M. Ehara, K. Toyota, R. Fukuda, 
 J. Hasegawa, M. Ishida, T. Nakajima, Y. Honda, O. Kitao, H. Nakai, 
 T. Vreven, K. Throssell, J. A. Montgomery, Jr., J. E. Peralta, 
 F. Ogliaro, M. J. Bearpark, J. J. Heyd, E. N. Brothers, K. N. Kudin, 
 V. N. Staroverov, T. A. Keith, R. Kobayashi, J. Normand, 
 K. Raghavachari, A. P. Rendell, J. C. Burant, S. S. Iyengar, 
 J. Tomasi, M. Cossi, J. M. Millam, M. Klene, C. Adamo, R. Cammi, 
 J. W. Ochterski, R. L. Martin, K. Morokuma, O. Farkas, 
 J. B. Foresman, and D. J. Fox, Gaussian, Inc., Wallingford CT, 2016.
 
 ******************************************
 Gaussian 16:  ES64L-G16RevA.03 25-Dec-2016
                30-Apr-2022 
 ******************************************
 %nproc=24
 Will use up to   24 processors via shared memory.
 %mem=75GB
 --------------------------------
 #p wB97XD/Def2SVP td=(nstates=5)
 --------------------------------
 1/38=1,172=1/1;
 2/12=2,17=6,18=5,40=1/2;
 3/5=43,7=101,11=9,25=1,30=1,74=-58/1,2,3,8;
 4//1;
 5/5=2,38=5/2;
 8/6=1,10=1,108=5/1;
 9/41=5,42=1,70=2/14;
 6/7=2,8=2,9=2,10=2/1;
 99/5=1,9=1/99;
 Leave Link    1 at Sat Apr 30 20:16:10 2022, MaxMem= 10066329600 cpu:               0.9 elap:               0.0
 (Enter /sw/apps/gaussian-16.0/g16/l101.exe)
 ---------------------------------------------------
 step_851_chromophore_9 TDDFT with wB97XD functional
 ---------------------------------------------------
 Symbolic Z-matrix:
 Charge =  0 Multiplicity = 1
 Mg                    35.73     0.817     29.219 
 C                     33.64     1.935     31.713 
 C                     38.327    0.899     31.597 
 C                     38.013    0.271     26.708 
 C                     33.264    1.468     26.855 
 N                     35.987    1.424     31.377 
 C                     34.941    1.846     32.189 
 C                     35.373    1.938     33.647 
 C                     36.955    1.813     33.548 
 C                     37.125    1.362     32.095 
 C                     37.875    3.016     33.869 
 C                     34.638    0.976     34.666 
 C                     34.92     1.184     36.181 
 C                     35.812    2.337     36.649 
 O                     35.622    3.489     36.35 
 O                     36.732    1.902     37.64 
 N                     37.819    0.38      29.201 
 C                     38.66     0.513     30.282 
 C                     40.045    0.287     29.895 
 C                     40.035    0.166     28.485 
 C                     38.57     0.241     28.068 
 C                     41.205    0.208     30.856 
 C                     41.159   -0.143     27.471 
 O                     40.943   -0.33      26.318 
 C                     42.587   -0.286     27.888 
 N                     35.675    0.996     27.208 
 C                     36.715    0.558     26.345 
 C                     36.316    0.676     24.849 
 C                     34.798    0.888     24.951 
 C                     34.548    1.111     26.422 
 C                     37.106    1.721     24.086 
 C                     33.952   -0.257     24.365 
 C                     33.497   -1.332     25.397 
 N                     33.76     1.518     29.282 
 C                     32.917    1.695     28.184 
 C                     31.693    2.197     28.709 
 C                     31.905    2.318     30.088 
 C                     33.219    1.896     30.342 
 C                     30.475    2.512     27.929 
 C                     31.273    2.588     31.33 
 O                     30.161    3.004     31.615 
 C                     32.296    2.397     32.406 
 C                     32.51     3.691     33.17 
 O                     32.661    4.735     32.599 
 O                     32.521    3.446     34.528 
 C                     32.723    4.624     35.368 
 C                     37.614    2.922     38.242 
 C                     38.421    2.397     39.364 
 C                     38.084    1.898     40.589 
 C                     36.691    2.155     41.165 
 C                     39.137    1.34      41.58 
 C                     39.9      0.111     41.156 
 C                     40.118   -0.849     42.352 
 C                     41.644   -1.003     42.598 
 C                     41.867   -2.229     43.532 
 C                     42.128    0.299     43.48 
 C                     43.035    1.208     42.68 
 C                     44.473    1.365     43.211 
 C                     45.251    2.545     42.457 
 C                     46.657    2.06      42.144 
 C                     45.257    3.902     43.158 
 C                     44.976    4.958     42.119 
 C                     44.581    6.335     42.783 
 C                     45.029    7.578     42.084 
 C                     45.153    8.856     42.995 
 C                     44.179    7.893     40.878 
 H                     39.112    0.782     32.347 
 H                     38.778    0.451     25.95 
 H                     32.46     1.752     26.171 
 H                     35.125    2.963     33.923 
 H                     37.326    0.955     34.107 
 H                     37.361    3.97      33.987 
 H                     38.62     3.007     33.073 
 H                     38.368    2.965     34.84 
 H                     35.093    0.002     34.485 
 H                     33.567    1.013     34.47 
 H                     35.248    0.237     36.612 
 H                     33.912    1.354     36.558 
 H                     41.591    1.197     31.101 
 H                     41.969   -0.467     30.47 
 H                     40.921   -0.252     31.803 
 H                     42.703   -1.261     28.361 
 H                     42.846    0.498     28.599 
 H                     43.324   -0.16      27.095 
 H                     36.558   -0.295     24.418 
 H                     34.46     1.807     24.471 
 H                     36.57     2.459     23.489 
 H                     37.634    1.139     23.331 
 H                     37.891    2.213     24.66 
 H                     34.384   -0.745     23.492 
 H                     33.07     0.257     23.983 
 H                     32.512   -1.077     25.789 
 H                     34.089   -1.388     26.31 
 H                     33.255   -2.288     24.931 
 H                     30.819    3.314     27.276 
 H                     29.666    2.774     28.611 
 H                     30.068    1.685     27.348 
 H                     31.924    1.596     33.045 
 H                     31.759    5.127     35.444 
 H                     33.416    5.404     35.053 
 H                     32.954    4.412     36.412 
 H                     36.908    3.712     38.499 
 H                     38.24     3.332     37.45 
 H                     39.429    2.134     39.045 
 H                     36.229    1.198     41.409 
 H                     35.981    2.654     40.506 
 H                     36.894    2.749     42.056 
 H                     38.796    1.407     42.613 
 H                     39.923    2.095     41.556 
 H                     40.806    0.374     40.611 
 H                     39.299   -0.432     40.426 
 H                     39.666   -1.787     42.029 
 H                     39.673   -0.579     43.31 
 H                     42.233   -1.156     41.694 
 H                     42.255   -3.071     42.959 
 H                     40.901   -2.569     43.905 
 H                     42.521   -2.061     44.388 
 H                     42.596    0.129     44.449 
 H                     41.224    0.86      43.716 
 H                     42.61     2.196     42.502 
 H                     43.213    0.853     41.665 
 H                     45.068    0.465     43.052 
 H                     44.423    1.65      44.262 
 H                     44.804    2.597     41.464 
 H                     47.222    1.828     43.047 
 H                     47.247    2.789     41.588 
 H                     46.62     1.138     41.564 
 H                     46.299    4.073     43.427 
 H                     44.553    4.041     43.978 
 H                     44.138    4.632     41.502 
 H                     45.793    5.13      41.418 
 H                     45.017    6.304     43.781 
 H                     43.492    6.332     42.834 
 H                     45.986    7.366     41.608 
 H                     44.986    8.585     44.037 
 H                     44.41     9.63      42.803 
 H                     46.137    9.304     42.858 
 H                     43.935    8.955     40.858 
 H                     43.315    7.229     40.879 
 H                     44.783    7.568     40.031 
 
 ITRead=  0  0  0  0  0  0  0  0  0  0  0  0  0  0  0  0  0  0  0  0
 ITRead=  0  0  0  0  0  0  0  0  0  0  0  0  0  0  0  0  0  0  0  0
 ITRead=  0  0  0  0  0  0  0  0  0  0  0  0  0  0  0  0  0  0  0  0
 ITRead=  0  0  0  0  0  0  0  0  0  0  0  0  0  0  0  0  0  0  0  0
 ITRead=  0  0  0  0  0  0  0  0  0  0  0  0  0  0  0  0  0  0  0  0
 ITRead=  0  0  0  0  0  0  0  0  0  0  0  0  0  0  0  0  0  0  0  0
 ITRead=  0  0  0  0  0  0  0  0  0  0  0  0  0  0  0  0  0  0  0  0
 MicOpt= -1 -1 -1 -1 -1 -1 -1 -1 -1 -1 -1 -1 -1 -1 -1 -1 -1 -1 -1 -1
 MicOpt= -1 -1 -1 -1 -1 -1 -1 -1 -1 -1 -1 -1 -1 -1 -1 -1 -1 -1 -1 -1
 MicOpt= -1 -1 -1 -1 -1 -1 -1 -1 -1 -1 -1 -1 -1 -1 -1 -1 -1 -1 -1 -1
 MicOpt= -1 -1 -1 -1 -1 -1 -1 -1 -1 -1 -1 -1 -1 -1 -1 -1 -1 -1 -1 -1
 MicOpt= -1 -1 -1 -1 -1 -1 -1 -1 -1 -1 -1 -1 -1 -1 -1 -1 -1 -1 -1 -1
 MicOpt= -1 -1 -1 -1 -1 -1 -1 -1 -1 -1 -1 -1 -1 -1 -1 -1 -1 -1 -1 -1
 MicOpt= -1 -1 -1 -1 -1 -1 -1 -1 -1 -1 -1 -1 -1 -1 -1 -1 -1 -1 -1 -1
 NAtoms=    140 NQM=      140 NQMF=       0 NMMI=      0 NMMIF=      0
                NMic=       0 NMicF=      0.
                    Isotopes and Nuclear Properties:
 (Nuclear quadrupole moments (NQMom) in fm**2, nuclear magnetic moments (NMagM)
  in nuclear magnetons)

  Atom         1           2           3           4           5           6           7           8           9          10
 IAtWgt=          24          12          12          12          12          14          12          12          12          12
 AtmWgt=  23.9850450  12.0000000  12.0000000  12.0000000  12.0000000  14.0030740  12.0000000  12.0000000  12.0000000  12.0000000
 NucSpn=           0           0           0           0           0           2           0           0           0           0
 AtZEff=  -0.0000000  -0.0000000  -0.0000000  -0.0000000  -0.0000000  -0.0000000  -0.0000000  -0.0000000  -0.0000000  -0.0000000
 NQMom=    0.0000000   0.0000000   0.0000000   0.0000000   0.0000000   2.0440000   0.0000000   0.0000000   0.0000000   0.0000000
 NMagM=    0.0000000   0.0000000   0.0000000   0.0000000   0.0000000   0.4037610   0.0000000   0.0000000   0.0000000   0.0000000
 AtZNuc=  12.0000000   6.0000000   6.0000000   6.0000000   6.0000000   7.0000000   6.0000000   6.0000000   6.0000000   6.0000000

  Atom        11          12          13          14          15          16          17          18          19          20
 IAtWgt=          12          12          12          12          16          16          14          12          12          12
 AtmWgt=  12.0000000  12.0000000  12.0000000  12.0000000  15.9949146  15.9949146  14.0030740  12.0000000  12.0000000  12.0000000
 NucSpn=           0           0           0           0           0           0           2           0           0           0
 AtZEff=  -0.0000000  -0.0000000  -0.0000000  -0.0000000  -0.0000000  -0.0000000  -0.0000000  -0.0000000  -0.0000000  -0.0000000
 NQMom=    0.0000000   0.0000000   0.0000000   0.0000000   0.0000000   0.0000000   2.0440000   0.0000000   0.0000000   0.0000000
 NMagM=    0.0000000   0.0000000   0.0000000   0.0000000   0.0000000   0.0000000   0.4037610   0.0000000   0.0000000   0.0000000
 AtZNuc=   6.0000000   6.0000000   6.0000000   6.0000000   8.0000000   8.0000000   7.0000000   6.0000000   6.0000000   6.0000000

  Atom        21          22          23          24          25          26          27          28          29          30
 IAtWgt=          12          12          12          16          12          14          12          12          12          12
 AtmWgt=  12.0000000  12.0000000  12.0000000  15.9949146  12.0000000  14.0030740  12.0000000  12.0000000  12.0000000  12.0000000
 NucSpn=           0           0           0           0           0           2           0           0           0           0
 AtZEff=  -0.0000000  -0.0000000  -0.0000000  -0.0000000  -0.0000000  -0.0000000  -0.0000000  -0.0000000  -0.0000000  -0.0000000
 NQMom=    0.0000000   0.0000000   0.0000000   0.0000000   0.0000000   2.0440000   0.0000000   0.0000000   0.0000000   0.0000000
 NMagM=    0.0000000   0.0000000   0.0000000   0.0000000   0.0000000   0.4037610   0.0000000   0.0000000   0.0000000   0.0000000
 AtZNuc=   6.0000000   6.0000000   6.0000000   8.0000000   6.0000000   7.0000000   6.0000000   6.0000000   6.0000000   6.0000000

  Atom        31          32          33          34          35          36          37          38          39          40
 IAtWgt=          12          12          12          14          12          12          12          12          12          12
 AtmWgt=  12.0000000  12.0000000  12.0000000  14.0030740  12.0000000  12.0000000  12.0000000  12.0000000  12.0000000  12.0000000
 NucSpn=           0           0           0           2           0           0           0           0           0           0
 AtZEff=  -0.0000000  -0.0000000  -0.0000000  -0.0000000  -0.0000000  -0.0000000  -0.0000000  -0.0000000  -0.0000000  -0.0000000
 NQMom=    0.0000000   0.0000000   0.0000000   2.0440000   0.0000000   0.0000000   0.0000000   0.0000000   0.0000000   0.0000000
 NMagM=    0.0000000   0.0000000   0.0000000   0.4037610   0.0000000   0.0000000   0.0000000   0.0000000   0.0000000   0.0000000
 AtZNuc=   6.0000000   6.0000000   6.0000000   7.0000000   6.0000000   6.0000000   6.0000000   6.0000000   6.0000000   6.0000000

  Atom        41          42          43          44          45          46          47          48          49          50
 IAtWgt=          16          12          12          16          16          12          12          12          12          12
 AtmWgt=  15.9949146  12.0000000  12.0000000  15.9949146  15.9949146  12.0000000  12.0000000  12.0000000  12.0000000  12.0000000
 NucSpn=           0           0           0           0           0           0           0           0           0           0
 AtZEff=  -0.0000000  -0.0000000  -0.0000000  -0.0000000  -0.0000000  -0.0000000  -0.0000000  -0.0000000  -0.0000000  -0.0000000
 NQMom=    0.0000000   0.0000000   0.0000000   0.0000000   0.0000000   0.0000000   0.0000000   0.0000000   0.0000000   0.0000000
 NMagM=    0.0000000   0.0000000   0.0000000   0.0000000   0.0000000   0.0000000   0.0000000   0.0000000   0.0000000   0.0000000
 AtZNuc=   8.0000000   6.0000000   6.0000000   8.0000000   8.0000000   6.0000000   6.0000000   6.0000000   6.0000000   6.0000000

  Atom        51          52          53          54          55          56          57          58          59          60
 IAtWgt=          12          12          12          12          12          12          12          12          12          12
 AtmWgt=  12.0000000  12.0000000  12.0000000  12.0000000  12.0000000  12.0000000  12.0000000  12.0000000  12.0000000  12.0000000
 NucSpn=           0           0           0           0           0           0           0           0           0           0
 AtZEff=  -0.0000000  -0.0000000  -0.0000000  -0.0000000  -0.0000000  -0.0000000  -0.0000000  -0.0000000  -0.0000000  -0.0000000
 NQMom=    0.0000000   0.0000000   0.0000000   0.0000000   0.0000000   0.0000000   0.0000000   0.0000000   0.0000000   0.0000000
 NMagM=    0.0000000   0.0000000   0.0000000   0.0000000   0.0000000   0.0000000   0.0000000   0.0000000   0.0000000   0.0000000
 AtZNuc=   6.0000000   6.0000000   6.0000000   6.0000000   6.0000000   6.0000000   6.0000000   6.0000000   6.0000000   6.0000000

  Atom        61          62          63          64          65          66          67          68          69          70
 IAtWgt=          12          12          12          12          12          12           1           1           1           1
 AtmWgt=  12.0000000  12.0000000  12.0000000  12.0000000  12.0000000  12.0000000   1.0078250   1.0078250   1.0078250   1.0078250
 NucSpn=           0           0           0           0           0           0           1           1           1           1
 AtZEff=  -0.0000000  -0.0000000  -0.0000000  -0.0000000  -0.0000000  -0.0000000  -0.0000000  -0.0000000  -0.0000000  -0.0000000
 NQMom=    0.0000000   0.0000000   0.0000000   0.0000000   0.0000000   0.0000000   0.0000000   0.0000000   0.0000000   0.0000000
 NMagM=    0.0000000   0.0000000   0.0000000   0.0000000   0.0000000   0.0000000   2.7928460   2.7928460   2.7928460   2.7928460
 AtZNuc=   6.0000000   6.0000000   6.0000000   6.0000000   6.0000000   6.0000000   1.0000000   1.0000000   1.0000000   1.0000000

  Atom        71          72          73          74          75          76          77          78          79          80
 IAtWgt=           1           1           1           1           1           1           1           1           1           1
 AtmWgt=   1.0078250   1.0078250   1.0078250   1.0078250   1.0078250   1.0078250   1.0078250   1.0078250   1.0078250   1.0078250
 NucSpn=           1           1           1           1           1           1           1           1           1           1
 AtZEff=  -0.0000000  -0.0000000  -0.0000000  -0.0000000  -0.0000000  -0.0000000  -0.0000000  -0.0000000  -0.0000000  -0.0000000
 NQMom=    0.0000000   0.0000000   0.0000000   0.0000000   0.0000000   0.0000000   0.0000000   0.0000000   0.0000000   0.0000000
 NMagM=    2.7928460   2.7928460   2.7928460   2.7928460   2.7928460   2.7928460   2.7928460   2.7928460   2.7928460   2.7928460
 AtZNuc=   1.0000000   1.0000000   1.0000000   1.0000000   1.0000000   1.0000000   1.0000000   1.0000000   1.0000000   1.0000000

  Atom        81          82          83          84          85          86          87          88          89          90
 IAtWgt=           1           1           1           1           1           1           1           1           1           1
 AtmWgt=   1.0078250   1.0078250   1.0078250   1.0078250   1.0078250   1.0078250   1.0078250   1.0078250   1.0078250   1.0078250
 NucSpn=           1           1           1           1           1           1           1           1           1           1
 AtZEff=  -0.0000000  -0.0000000  -0.0000000  -0.0000000  -0.0000000  -0.0000000  -0.0000000  -0.0000000  -0.0000000  -0.0000000
 NQMom=    0.0000000   0.0000000   0.0000000   0.0000000   0.0000000   0.0000000   0.0000000   0.0000000   0.0000000   0.0000000
 NMagM=    2.7928460   2.7928460   2.7928460   2.7928460   2.7928460   2.7928460   2.7928460   2.7928460   2.7928460   2.7928460
 AtZNuc=   1.0000000   1.0000000   1.0000000   1.0000000   1.0000000   1.0000000   1.0000000   1.0000000   1.0000000   1.0000000

  Atom        91          92          93          94          95          96          97          98          99         100
 IAtWgt=           1           1           1           1           1           1           1           1           1           1
 AtmWgt=   1.0078250   1.0078250   1.0078250   1.0078250   1.0078250   1.0078250   1.0078250   1.0078250   1.0078250   1.0078250
 NucSpn=           1           1           1           1           1           1           1           1           1           1
 AtZEff=  -0.0000000  -0.0000000  -0.0000000  -0.0000000  -0.0000000  -0.0000000  -0.0000000  -0.0000000  -0.0000000  -0.0000000
 NQMom=    0.0000000   0.0000000   0.0000000   0.0000000   0.0000000   0.0000000   0.0000000   0.0000000   0.0000000   0.0000000
 NMagM=    2.7928460   2.7928460   2.7928460   2.7928460   2.7928460   2.7928460   2.7928460   2.7928460   2.7928460   2.7928460
 AtZNuc=   1.0000000   1.0000000   1.0000000   1.0000000   1.0000000   1.0000000   1.0000000   1.0000000   1.0000000   1.0000000

  Atom       101         102         103         104         105         106         107         108         109         110
 IAtWgt=           1           1           1           1           1           1           1           1           1           1
 AtmWgt=   1.0078250   1.0078250   1.0078250   1.0078250   1.0078250   1.0078250   1.0078250   1.0078250   1.0078250   1.0078250
 NucSpn=           1           1           1           1           1           1           1           1           1           1
 AtZEff=  -0.0000000  -0.0000000  -0.0000000  -0.0000000  -0.0000000  -0.0000000  -0.0000000  -0.0000000  -0.0000000  -0.0000000
 NQMom=    0.0000000   0.0000000   0.0000000   0.0000000   0.0000000   0.0000000   0.0000000   0.0000000   0.0000000   0.0000000
 NMagM=    2.7928460   2.7928460   2.7928460   2.7928460   2.7928460   2.7928460   2.7928460   2.7928460   2.7928460   2.7928460
 AtZNuc=   1.0000000   1.0000000   1.0000000   1.0000000   1.0000000   1.0000000   1.0000000   1.0000000   1.0000000   1.0000000

  Atom       111         112         113         114         115         116         117         118         119         120
 IAtWgt=           1           1           1           1           1           1           1           1           1           1
 AtmWgt=   1.0078250   1.0078250   1.0078250   1.0078250   1.0078250   1.0078250   1.0078250   1.0078250   1.0078250   1.0078250
 NucSpn=           1           1           1           1           1           1           1           1           1           1
 AtZEff=  -0.0000000  -0.0000000  -0.0000000  -0.0000000  -0.0000000  -0.0000000  -0.0000000  -0.0000000  -0.0000000  -0.0000000
 NQMom=    0.0000000   0.0000000   0.0000000   0.0000000   0.0000000   0.0000000   0.0000000   0.0000000   0.0000000   0.0000000
 NMagM=    2.7928460   2.7928460   2.7928460   2.7928460   2.7928460   2.7928460   2.7928460   2.7928460   2.7928460   2.7928460
 AtZNuc=   1.0000000   1.0000000   1.0000000   1.0000000   1.0000000   1.0000000   1.0000000   1.0000000   1.0000000   1.0000000

  Atom       121         122         123         124         125         126         127         128         129         130
 IAtWgt=           1           1           1           1           1           1           1           1           1           1
 AtmWgt=   1.0078250   1.0078250   1.0078250   1.0078250   1.0078250   1.0078250   1.0078250   1.0078250   1.0078250   1.0078250
 NucSpn=           1           1           1           1           1           1           1           1           1           1
 AtZEff=  -0.0000000  -0.0000000  -0.0000000  -0.0000000  -0.0000000  -0.0000000  -0.0000000  -0.0000000  -0.0000000  -0.0000000
 NQMom=    0.0000000   0.0000000   0.0000000   0.0000000   0.0000000   0.0000000   0.0000000   0.0000000   0.0000000   0.0000000
 NMagM=    2.7928460   2.7928460   2.7928460   2.7928460   2.7928460   2.7928460   2.7928460   2.7928460   2.7928460   2.7928460
 AtZNuc=   1.0000000   1.0000000   1.0000000   1.0000000   1.0000000   1.0000000   1.0000000   1.0000000   1.0000000   1.0000000

  Atom       131         132         133         134         135         136         137         138         139         140
 IAtWgt=           1           1           1           1           1           1           1           1           1           1
 AtmWgt=   1.0078250   1.0078250   1.0078250   1.0078250   1.0078250   1.0078250   1.0078250   1.0078250   1.0078250   1.0078250
 NucSpn=           1           1           1           1           1           1           1           1           1           1
 AtZEff=  -0.0000000  -0.0000000  -0.0000000  -0.0000000  -0.0000000  -0.0000000  -0.0000000  -0.0000000  -0.0000000  -0.0000000
 NQMom=    0.0000000   0.0000000   0.0000000   0.0000000   0.0000000   0.0000000   0.0000000   0.0000000   0.0000000   0.0000000
 NMagM=    2.7928460   2.7928460   2.7928460   2.7928460   2.7928460   2.7928460   2.7928460   2.7928460   2.7928460   2.7928460
 AtZNuc=   1.0000000   1.0000000   1.0000000   1.0000000   1.0000000   1.0000000   1.0000000   1.0000000   1.0000000   1.0000000
 Leave Link  101 at Sat Apr 30 20:16:10 2022, MaxMem= 10066329600 cpu:               2.7 elap:               0.1
 (Enter /sw/apps/gaussian-16.0/g16/l202.exe)
 Stoichiometry    C55H74MgN4O6
 Framework group  C1[X(C55H74MgN4O6)]
 Deg. of freedom   414
 Full point group                 C1      NOp   1
 Largest Abelian subgroup         C1      NOp   1
 Largest concise Abelian subgroup C1      NOp   1
                         Standard orientation:                         
 ---------------------------------------------------------------------
 Center     Atomic      Atomic             Coordinates (Angstroms)
 Number     Number       Type             X           Y           Z
 ---------------------------------------------------------------------
      1         12           0       -5.300193    0.671678   -0.361519
      2          6           0       -4.023990   -2.501844    0.010129
      3          6           0       -1.969507    1.814852   -0.437040
      4          6           0       -6.433017    3.910095   -0.150111
      5          6           0       -8.472494   -0.505632    0.440911
      6          7           0       -3.235381   -0.214073   -0.153047
      7          6           0       -2.990520   -1.575417   -0.017661
      8          6           0       -1.506145   -1.888533   -0.157088
      9          6           0       -0.839243   -0.447330   -0.077568
     10          6           0       -2.067983    0.454630   -0.219610
     11          6           0        0.020936   -0.029045    1.139716
     12          6           0       -1.087209   -2.808587   -1.374472
     13          6           0        0.386986   -3.300305   -1.429030
     14          6           0        1.355446   -2.964205   -0.291833
     15          8           0        1.134043   -3.213596    0.866351
     16          8           0        2.611848   -2.538058   -0.799335
     17          7           0       -4.352484    2.575378   -0.543149
     18          6           0       -2.992203    2.782197   -0.523328
     19          6           0       -2.681991    4.204398   -0.509878
     20          6           0       -3.923442    4.866930   -0.359240
     21          6           0       -4.986818    3.773901   -0.375294
     22          6           0       -1.295084    4.783796   -0.636961
     23          6           0       -4.292939    6.366938   -0.336844
     24          8           0       -5.418793    6.745496   -0.323457
     25          6           0       -3.255174    7.440994   -0.391339
     26          7           0       -7.050864    1.513523    0.191323
     27          6           0       -7.344674    2.896183    0.049406
     28          6           0       -8.822307    3.214894    0.404601
     29          6           0       -9.445763    1.811032    0.416690
     30          6           0       -8.265926    0.875387    0.323824
     31          6           0       -8.983175    4.049006    1.660257
     32          6           0      -10.493367    1.567492   -0.684833
     33          6           0       -9.940180    0.906010   -1.982561
     34          7           0       -6.121386   -1.200409    0.082555
     35          6           0       -7.462389   -1.460902    0.367924
     36          6           0       -7.543710   -2.860121    0.615666
     37          6           0       -6.231226   -3.333271    0.494251
     38          6           0       -5.421592   -2.229382    0.185842
     39          6           0       -8.775105   -3.618462    0.931473
     40          6           0       -5.429880   -4.503953    0.446957
     41          8           0       -5.674777   -5.679213    0.669699
     42          6           0       -4.022283   -4.074590    0.172906
     43          6           0       -3.109838   -4.489513    1.312735
     44          8           0       -3.414046   -4.297454    2.457003
     45          8           0       -1.954316   -5.056739    0.815407
     46          6           0       -0.994864   -5.494628    1.826244
     47          6           0        3.676671   -2.246563    0.181436
     48          6           0        4.981758   -1.961235   -0.451883
     49          6           0        5.824559   -2.720112   -1.211479
     50          6           0        5.677895   -4.242069   -1.231791
     51          6           0        7.131549   -2.154944   -1.823537
     52          6           0        6.994939   -1.061700   -2.852392
     53          6           0        8.029589   -1.237201   -3.991795
     54          6           0        8.965303    0.002515   -4.012999
     55          6           0        9.745108    0.003006   -5.360984
     56          6           0       10.111880   -0.234075   -2.856811
     57          6           0        9.960286    0.744693   -1.713149
     58          6           0       11.135637    1.717213   -1.495879
     59          6           0       10.991997    2.510765   -0.111739
     60          6           0       11.347337    3.967094   -0.362480
     61          6           0       11.756083    1.932307    1.077566
     62          6           0       10.837902    1.962543    2.273244
     63          6           0       11.377768    1.049557    3.442882
     64          6           0       11.128974    1.519579    4.839856
     65          6           0       12.123484    0.962163    5.925590
     66          6           0        9.706482    1.276042    5.279591
     67          1           0       -0.951680    2.173395   -0.604040
     68          1           0       -6.699306    4.886961    0.258561
     69          1           0       -9.423437   -0.943164    0.755875
     70          1           0       -1.271280   -2.427939    0.760618
     71          1           0       -0.271406   -0.217143   -0.978047
     72          1           0       -0.018197   -0.712793    1.987769
     73          1           0       -0.309340    0.984370    1.369126
     74          1           0        1.096346   -0.037940    0.961100
     75          1           0       -1.133576   -2.143191   -2.236771
     76          1           0       -1.772200   -3.654234   -1.424411
     77          1           0        0.812913   -3.031432   -2.396732
     78          1           0        0.244531   -4.380253   -1.451680
     79          1           0       -0.783837    4.815263    0.324692
     80          1           0       -1.335717    5.753664   -1.132967
     81          1           0       -0.663309    4.191091   -1.299250
     82          1           0       -2.898747    7.512158   -1.418814
     83          1           0       -2.424451    7.187741    0.266704
     84          1           0       -3.571488    8.420074   -0.031836
     85          1           0       -9.188423    3.809910   -0.431510
     86          1           0       -9.922197    1.561400    1.365320
     87          1           0       -9.677499    3.716353    2.432011
     88          1           0       -9.447759    4.965885    1.298279
     89          1           0       -8.049257    4.371036    2.120540
     90          1           0      -11.096223    2.437238   -0.943683
     91          1           0      -11.194223    0.879236   -0.212447
     92          1           0      -10.048881   -0.177271   -1.922576
     93          1           0       -8.867649    1.010565   -2.143540
     94          1           0      -10.569579    1.094581   -2.853167
     95          1           0       -9.084195   -3.174745    1.877796
     96          1           0       -8.546172   -4.683750    0.963099
     97          1           0       -9.569672   -3.544973    0.189581
     98          1           0       -3.738797   -4.536343   -0.772993
     99          1           0       -1.339471   -6.462306    2.190837
    100          1           0       -0.844098   -4.899390    2.726708
    101          1           0       -0.001316   -5.733191    1.446520
    102          1           0        3.646514   -3.129036    0.820902
    103          1           0        3.339474   -1.418922    0.804772
    104          1           0        5.164021   -0.890012   -0.530979
    105          1           0        5.557546   -4.570286   -2.264563
    106          1           0        4.818471   -4.651028   -0.701202
    107          1           0        6.616146   -4.589961   -0.799839
    108          1           0        7.869771   -2.938163   -1.995165
    109          1           0        7.576971   -1.607965   -0.992387
    110          1           0        6.991112   -0.076454   -2.387305
    111          1           0        6.009154   -1.142688   -3.311325
    112          1           0        7.424452   -1.299881   -4.896426
    113          1           0        8.675260   -2.115256   -3.963196
    114          1           0        8.449479    0.958057   -3.921278
    115          1           0        9.341166    0.764989   -6.027354
    116          1           0        9.561976   -0.940388   -5.875139
    117          1           0       10.823541    0.144331   -5.285568
    118          1           0       11.160005   -0.240789   -3.153921
    119          1           0        9.941679   -1.234429   -2.459374
    120          1           0        9.711402    0.267565   -0.765067
    121          1           0        9.126153    1.433829   -1.844484
    122          1           0       11.184569    2.479620   -2.274113
    123          1           0       12.055141    1.136007   -1.424902
    124          1           0        9.919916    2.569458    0.077365
    125          1           0       12.378240    4.086757   -0.696212
    126          1           0       11.233389    4.593596    0.522498
    127          1           0       10.722273    4.379231   -1.154497
    128          1           0       12.513810    2.679177    1.312940
    129          1           0       12.141723    0.918355    0.975008
    130          1           0        9.859734    1.582323    1.976883
    131          1           0       10.645356    2.959845    2.669210
    132          1           0       12.451223    0.974982    3.272022
    133          1           0       10.893768    0.082520    3.304627
    134          1           0       11.156100    2.608893    4.834624
    135          1           0       12.915706    0.390818    5.442844
    136          1           0       11.684151    0.257005    6.631087
    137          1           0       12.532224    1.791907    6.501945
    138          1           0        9.690731    0.868982    6.290449
    139          1           0        9.213573    0.654465    4.532547
    140          1           0        9.227953    2.251551    5.194482
 ---------------------------------------------------------------------
 Rotational constants (GHZ):           0.0409092           0.0107901           0.0096055
 Leave Link  202 at Sat Apr 30 20:16:10 2022, MaxMem= 10066329600 cpu:               0.2 elap:               0.0
 (Enter /sw/apps/gaussian-16.0/g16/l301.exe)
 Standard basis: def2SVP (5D, 7F)
 Ernie: Thresh=  0.10000D-02 Tol=  0.10000D-05 Strict=F.
 There are  1364 symmetry adapted cartesian basis functions of A   symmetry.
 There are  1298 symmetry adapted basis functions of A   symmetry.
  1298 basis functions,  2180 primitive gaussians,  1364 cartesian basis functions
   246 alpha electrons      246 beta electrons
       nuclear repulsion energy      9632.2196823771 Hartrees.
 IExCor= 4639 DFT=T Ex+Corr=wB97XD ExCW=0 ScaHFX=  1.000000
 ScaDFX=  1.000000  1.000000  1.000000  1.000000 ScalE2=  1.000000  1.000000
 IRadAn=      5 IRanWt=     -1 IRanGd=            0 ICorTp=0 IEmpDi=121
 HFx  wShort=  0.000000 wLong=  0.200000 cFull=  0.222036 cShort=  0.000000 cLong=  0.777964
 DFx  wShort=  0.000000 wLong=  0.200000 cFull=  0.000000 cShort=  0.000000 cLong=  1.000000
 NAtoms=  140 NActive=  140 NUniq=  140 SFac= 1.00D+00 NAtFMM=   60 NAOKFM=T Big=T
 Integral buffers will be    131072 words long.
 Raffenetti 1 integral format.
 Two-electron integral symmetry is turned on.
 R6Disp:  Grimme-D2 Dispersion energy=       -0.1372360238 Hartrees.
 Nuclear repulsion after empirical dispersion term =     9632.0824463534 Hartrees.
 Leave Link  301 at Sat Apr 30 20:16:10 2022, MaxMem= 10066329600 cpu:               1.2 elap:               0.1
 (Enter /sw/apps/gaussian-16.0/g16/l302.exe)
 NPDir=0 NMtPBC=     1 NCelOv=     1 NCel=       1 NClECP=     1 NCelD=      1
         NCelK=      1 NCelE2=     1 NClLst=     1 CellRange=     0.0.
 One-electron integrals computed using PRISM.
 One-electron integral symmetry used in STVInt
   1 Symmetry operations used in ECPInt.
 ECPInt:  NShTT=  192510 NPrTT=  683786 LenC2=   95098 LenP2D=  208156.
 LDataN:  DoStor=T MaxTD1= 4 Len=   56
 NBasis=  1298 RedAO= T EigKep=  3.09D-04  NBF=  1298
 NBsUse=  1298 1.00D-06 EigRej= -1.00D+00 NBFU=  1298
 Precomputing XC quadrature grid using
 IXCGrd= 4 IRadAn=           5 IRanWt=          -1 IRanGd=           0 AccXCQ= 0.00D+00.
 Generated NRdTot=       0 NPtTot=           0 NUsed=           0 NTot=          32
 NSgBfM=  1073  1073  1073  1073  1073 MxSgAt=   140 MxSgA2=   140.
 Leave Link  302 at Sat Apr 30 20:16:14 2022, MaxMem= 10066329600 cpu:              90.8 elap:               3.8
 (Enter /sw/apps/gaussian-16.0/g16/l303.exe)
 DipDrv:  MaxL=1.
 Leave Link  303 at Sat Apr 30 20:16:14 2022, MaxMem= 10066329600 cpu:               5.8 elap:               0.3
 (Enter /sw/apps/gaussian-16.0/g16/l308.exe)
 Leave Link  308 at Sat Apr 30 20:16:14 2022, MaxMem= 10066329600 cpu:               8.4 elap:               0.4
 (Enter /sw/apps/gaussian-16.0/g16/l401.exe)
 ExpMin= 3.36D-02 ExpMax= 4.95D+03 ExpMxC= 7.45D+02 IAcc=3 IRadAn=         5 AccDes= 0.00D+00
 Harris functional with IExCor= 4639 and IRadAn=       5 diagonalized for initial guess.
 HarFok:  IExCor= 4639 AccDes= 0.00D+00 IRadAn=         5 IDoV= 1 UseB2=F ITyADJ=14
 ICtDFT=  3500011 ScaDFX=  1.000000  1.000000  1.000000  1.000000
 FoFCou: FMM=F IPFlag=           0 FMFlag=      100000 FMFlg1=        2001
         NFxFlg=           0 DoJE=T BraDBF=F KetDBF=T FulRan=T
         wScrn=  0.000000 ICntrl=       500 IOpCl=  0 I1Cent=   200000004 NGrid=           0
         NMat0=    1 NMatS0=      1 NMatT0=    0 NMatD0=    1 NMtDS0=    0 NMtDT0=    0
 Petite list used in FoFCou.
 Harris En= -2877.99162001078    
 JPrj=0 DoOrth=F DoCkMO=F.
 Leave Link  401 at Sat Apr 30 20:16:20 2022, MaxMem= 10066329600 cpu:             134.1 elap:               5.6
 (Enter /sw/apps/gaussian-16.0/g16/l502.exe)
 Integral symmetry usage will be decided dynamically.
 Closed shell SCF:
 Using DIIS extrapolation, IDIIS=  1040.
 NGot= 10066329600 LenX= 10062561258 LenY= 10060699398
 Requested convergence on RMS density matrix=1.00D-08 within 128 cycles.
 Requested convergence on MAX density matrix=1.00D-06.
 Requested convergence on             energy=1.00D-06.
 No special actions if energy rises.
 Fock matrices will be formed incrementally for  20 cycles.

 Cycle   1  Pass 1  IDiag  1:
 FoFJK:  IHMeth= 1 ICntrl=       0 DoSepK=T KAlg= 0 I1Cent=           0 FoldK=F
 IRaf=         1 NMat=       1 IRICut=       1 DoRegI=T DoRafI=F ISym2E= 0 IDoP0=0 IntGTp=1.
 FoFCou: FMM=T IPFlag=           0 FMFlag=      100000 FMFlg1=        2001
         NFxFlg=           0 DoJE=T BraDBF=F KetDBF=F FulRan=T
         wScrn=  0.000000 ICntrl=       500 IOpCl=  0 I1Cent=           0 NGrid=           0
         NMat0=    1 NMatS0=      1 NMatT0=    0 NMatD0=    1 NMtDS0=    0 NMtDT0=    0
 Symmetry not used in FoFCou.
 FMM levels:  10  Number of levels for PrismC:   9
 E= -3007.18812289337    
 DIIS: error= 2.39D-02 at cycle   1 NSaved=   1.
 NSaved= 1 IEnMin= 1 EnMin= -3007.18812289337     IErMin= 1 ErrMin= 2.39D-02
 ErrMax= 2.39D-02  0.00D+00 EMaxC= 1.00D-01 BMatC= 1.50D+00 BMatP= 1.50D+00
 IDIUse=3 WtCom= 7.61D-01 WtEn= 2.39D-01
 Coeff-Com:  0.100D+01
 Coeff-En:   0.100D+01
 Coeff:      0.100D+01
 Gap=     0.138 Goal=   None    Shift=    0.000
 GapD=    0.138 DampG=1.000 DampE=0.500 DampFc=0.5000 IDamp=-1.
 Damping current iteration by 5.00D-01
 RMSDP=1.56D-03 MaxDP=1.81D-01              OVMax= 2.43D-01

 Cycle   2  Pass 1  IDiag  1:
 RMSU=  7.69D-04    CP:  9.87D-01
 E= -3007.51234814170     Delta-E=       -0.324225248323 Rises=F Damp=T
 DIIS: error= 1.27D-02 at cycle   2 NSaved=   2.
 NSaved= 2 IEnMin= 2 EnMin= -3007.51234814170     IErMin= 2 ErrMin= 1.27D-02
 ErrMax= 1.27D-02  0.00D+00 EMaxC= 1.00D-01 BMatC= 2.90D-01 BMatP= 1.50D+00
 IDIUse=3 WtCom= 8.73D-01 WtEn= 1.27D-01
 Coeff-Com: -0.331D+00 0.133D+01
 Coeff-En:   0.000D+00 0.100D+01
 Coeff:     -0.289D+00 0.129D+01
 Gap=     0.172 Goal=   None    Shift=    0.000
 RMSDP=7.24D-04 MaxDP=7.34D-02 DE=-3.24D-01 OVMax= 1.99D-01

 Cycle   3  Pass 1  IDiag  1:
 RMSU=  6.94D-04    CP:  9.80D-01  1.25D+00
 E= -3007.74874539393     Delta-E=       -0.236397252236 Rises=F Damp=F
 DIIS: error= 1.32D-02 at cycle   3 NSaved=   3.
 NSaved= 3 IEnMin= 3 EnMin= -3007.74874539393     IErMin= 2 ErrMin= 1.27D-02
 ErrMax= 1.32D-02  0.00D+00 EMaxC= 1.00D-01 BMatC= 1.44D-01 BMatP= 2.90D-01
 IDIUse=3 WtCom= 8.68D-01 WtEn= 1.32D-01
 Coeff-Com: -0.307D+00 0.681D+00 0.626D+00
 Coeff-En:   0.000D+00 0.000D+00 0.100D+01
 Coeff:     -0.266D+00 0.591D+00 0.675D+00
 Gap=     0.152 Goal=   None    Shift=    0.000
 RMSDP=4.60D-04 MaxDP=6.24D-02 DE=-2.36D-01 OVMax= 1.33D-01

 Cycle   4  Pass 1  IDiag  1:
 RMSU=  2.28D-04    CP:  9.75D-01  1.58D+00  5.58D-01
 E= -3007.85793713254     Delta-E=       -0.109191738602 Rises=F Damp=F
 DIIS: error= 4.59D-03 at cycle   4 NSaved=   4.
 NSaved= 4 IEnMin= 4 EnMin= -3007.85793713254     IErMin= 4 ErrMin= 4.59D-03
 ErrMax= 4.59D-03  0.00D+00 EMaxC= 1.00D-01 BMatC= 2.08D-02 BMatP= 1.44D-01
 IDIUse=3 WtCom= 9.54D-01 WtEn= 4.59D-02
 Coeff-Com: -0.114D+00 0.228D+00 0.368D+00 0.517D+00
 Coeff-En:   0.000D+00 0.000D+00 0.957D-01 0.904D+00
 Coeff:     -0.108D+00 0.217D+00 0.356D+00 0.535D+00
 Gap=     0.152 Goal=   None    Shift=    0.000
 RMSDP=1.44D-04 MaxDP=1.43D-02 DE=-1.09D-01 OVMax= 4.06D-02

 Cycle   5  Pass 1  IDiag  1:
 RMSU=  6.35D-05    CP:  9.75D-01  1.53D+00  6.96D-01  6.59D-01
 E= -3007.87569593175     Delta-E=       -0.017758799213 Rises=F Damp=F
 DIIS: error= 5.11D-04 at cycle   5 NSaved=   5.
 NSaved= 5 IEnMin= 5 EnMin= -3007.87569593175     IErMin= 5 ErrMin= 5.11D-04
 ErrMax= 5.11D-04  0.00D+00 EMaxC= 1.00D-01 BMatC= 4.81D-04 BMatP= 2.08D-02
 IDIUse=3 WtCom= 9.95D-01 WtEn= 5.11D-03
 Coeff-Com: -0.301D-01 0.572D-01 0.123D+00 0.237D+00 0.613D+00
 Coeff-En:   0.000D+00 0.000D+00 0.000D+00 0.000D+00 0.100D+01
 Coeff:     -0.299D-01 0.570D-01 0.123D+00 0.235D+00 0.615D+00
 Gap=     0.152 Goal=   None    Shift=    0.000
 RMSDP=3.09D-05 MaxDP=7.47D-03 DE=-1.78D-02 OVMax= 9.21D-03

 Cycle   6  Pass 1  IDiag  1:
 RMSU=  2.45D-05    CP:  9.75D-01  1.54D+00  6.94D-01  7.27D-01  8.58D-01
 E= -3007.87609986388     Delta-E=       -0.000403932132 Rises=F Damp=F
 DIIS: error= 2.23D-04 at cycle   6 NSaved=   6.
 NSaved= 6 IEnMin= 6 EnMin= -3007.87609986388     IErMin= 6 ErrMin= 2.23D-04
 ErrMax= 2.23D-04  0.00D+00 EMaxC= 1.00D-01 BMatC= 7.26D-05 BMatP= 4.81D-04
 IDIUse=3 WtCom= 9.98D-01 WtEn= 2.23D-03
 Coeff-Com:  0.103D-01-0.221D-01-0.178D-01-0.912D-03 0.285D+00 0.746D+00
 Coeff-En:   0.000D+00 0.000D+00 0.000D+00 0.000D+00 0.000D+00 0.100D+01
 Coeff:      0.103D-01-0.220D-01-0.177D-01-0.910D-03 0.284D+00 0.746D+00
 Gap=     0.153 Goal=   None    Shift=    0.000
 RMSDP=1.33D-05 MaxDP=1.32D-03 DE=-4.04D-04 OVMax= 5.57D-03

 Cycle   7  Pass 1  IDiag  1:
 RMSU=  8.77D-06    CP:  9.75D-01  1.54D+00  7.00D-01  7.39D-01  9.83D-01
                    CP:  9.06D-01
 E= -3007.87619165549     Delta-E=       -0.000091791608 Rises=F Damp=F
 DIIS: error= 5.09D-05 at cycle   7 NSaved=   7.
 NSaved= 7 IEnMin= 7 EnMin= -3007.87619165549     IErMin= 7 ErrMin= 5.09D-05
 ErrMax= 5.09D-05  0.00D+00 EMaxC= 1.00D-01 BMatC= 7.56D-06 BMatP= 7.26D-05
 IDIUse=1 WtCom= 1.00D+00 WtEn= 0.00D+00
 Coeff-Com:  0.670D-02-0.136D-01-0.171D-01-0.224D-01 0.523D-01 0.299D+00
 Coeff-Com:  0.695D+00
 Coeff:      0.670D-02-0.136D-01-0.171D-01-0.224D-01 0.523D-01 0.299D+00
 Coeff:      0.695D+00
 Gap=     0.153 Goal=   None    Shift=    0.000
 RMSDP=5.66D-06 MaxDP=1.50D-03 DE=-9.18D-05 OVMax= 2.05D-03

 Cycle   8  Pass 1  IDiag  1:
 RMSU=  3.70D-06    CP:  9.75D-01  1.54D+00  7.01D-01  7.49D-01  9.95D-01
                    CP:  1.05D+00  1.03D+00
 E= -3007.87620404212     Delta-E=       -0.000012386632 Rises=F Damp=F
 DIIS: error= 2.66D-05 at cycle   8 NSaved=   8.
 NSaved= 8 IEnMin= 8 EnMin= -3007.87620404212     IErMin= 8 ErrMin= 2.66D-05
 ErrMax= 2.66D-05  0.00D+00 EMaxC= 1.00D-01 BMatC= 1.81D-06 BMatP= 7.56D-06
 IDIUse=1 WtCom= 1.00D+00 WtEn= 0.00D+00
 Coeff-Com:  0.130D-02-0.237D-02-0.478D-02-0.115D-01-0.342D-01-0.665D-02
 Coeff-Com:  0.341D+00 0.717D+00
 Coeff:      0.130D-02-0.237D-02-0.478D-02-0.115D-01-0.342D-01-0.665D-02
 Coeff:      0.341D+00 0.717D+00
 Gap=     0.153 Goal=   None    Shift=    0.000
 RMSDP=2.79D-06 MaxDP=3.67D-04 DE=-1.24D-05 OVMax= 1.40D-03

 Cycle   9  Pass 1  IDiag  1:
 RMSU=  1.63D-06    CP:  9.75D-01  1.54D+00  7.01D-01  7.50D-01  1.01D+00
                    CP:  1.08D+00  1.23D+00  1.11D+00
 E= -3007.87620833505     Delta-E=       -0.000004292930 Rises=F Damp=F
 DIIS: error= 1.62D-05 at cycle   9 NSaved=   9.
 NSaved= 9 IEnMin= 9 EnMin= -3007.87620833505     IErMin= 9 ErrMin= 1.62D-05
 ErrMax= 1.62D-05  0.00D+00 EMaxC= 1.00D-01 BMatC= 2.69D-07 BMatP= 1.81D-06
 IDIUse=1 WtCom= 1.00D+00 WtEn= 0.00D+00
 Coeff-Com: -0.678D-03 0.145D-02 0.134D-02-0.364D-03-0.212D-01-0.539D-01
 Coeff-Com:  0.991D-02 0.238D+00 0.826D+00
 Coeff:     -0.678D-03 0.145D-02 0.134D-02-0.364D-03-0.212D-01-0.539D-01
 Coeff:      0.991D-02 0.238D+00 0.826D+00
 Gap=     0.153 Goal=   None    Shift=    0.000
 RMSDP=1.72D-06 MaxDP=3.10D-04 DE=-4.29D-06 OVMax= 8.61D-04

 Cycle  10  Pass 1  IDiag  1:
 RMSU=  7.49D-07    CP:  9.75D-01  1.54D+00  7.01D-01  7.52D-01  1.01D+00
                    CP:  1.11D+00  1.31D+00  1.38D+00  1.35D+00
 E= -3007.87620963539     Delta-E=       -0.000001300337 Rises=F Damp=F
 DIIS: error= 9.92D-06 at cycle  10 NSaved=  10.
 NSaved=10 IEnMin=10 EnMin= -3007.87620963539     IErMin=10 ErrMin= 9.92D-06
 ErrMax= 9.92D-06  0.00D+00 EMaxC= 1.00D-01 BMatC= 8.27D-08 BMatP= 2.69D-07
 IDIUse=1 WtCom= 1.00D+00 WtEn= 0.00D+00
 Coeff-Com: -0.682D-03 0.133D-02 0.209D-02 0.343D-02 0.176D-02-0.216D-01
 Coeff-Com: -0.955D-01-0.128D+00 0.316D+00 0.920D+00
 Coeff:     -0.682D-03 0.133D-02 0.209D-02 0.343D-02 0.176D-02-0.216D-01
 Coeff:     -0.955D-01-0.128D+00 0.316D+00 0.920D+00
 Gap=     0.153 Goal=   None    Shift=    0.000
 RMSDP=1.31D-06 MaxDP=1.31D-04 DE=-1.30D-06 OVMax= 7.87D-04

 Cycle  11  Pass 1  IDiag  1:
 RMSU=  4.46D-07    CP:  9.75D-01  1.54D+00  7.01D-01  7.52D-01  1.02D+00
                    CP:  1.12D+00  1.38D+00  1.55D+00  1.81D+00  1.47D+00
 E= -3007.87621028511     Delta-E=       -0.000000649719 Rises=F Damp=F
 DIIS: error= 7.32D-06 at cycle  11 NSaved=  11.
 NSaved=11 IEnMin=11 EnMin= -3007.87621028511     IErMin=11 ErrMin= 7.32D-06
 ErrMax= 7.32D-06  0.00D+00 EMaxC= 1.00D-01 BMatC= 2.87D-08 BMatP= 8.27D-08
 IDIUse=1 WtCom= 1.00D+00 WtEn= 0.00D+00
 Coeff-Com: -0.962D-04 0.165D-03 0.490D-03 0.140D-02 0.550D-02 0.389D-02
 Coeff-Com: -0.337D-01-0.104D+00-0.923D-01 0.366D+00 0.852D+00
 Coeff:     -0.962D-04 0.165D-03 0.490D-03 0.140D-02 0.550D-02 0.389D-02
 Coeff:     -0.337D-01-0.104D+00-0.923D-01 0.366D+00 0.852D+00
 Gap=     0.153 Goal=   None    Shift=    0.000
 RMSDP=7.48D-07 MaxDP=5.74D-05 DE=-6.50D-07 OVMax= 4.62D-04

 Cycle  12  Pass 1  IDiag  1:
 RMSU=  2.29D-07    CP:  9.75D-01  1.54D+00  7.01D-01  7.53D-01  1.02D+00
                    CP:  1.12D+00  1.40D+00  1.65D+00  2.05D+00  1.95D+00
                    CP:  1.45D+00
 E= -3007.87621050874     Delta-E=       -0.000000223634 Rises=F Damp=F
 DIIS: error= 3.66D-06 at cycle  12 NSaved=  12.
 NSaved=12 IEnMin=12 EnMin= -3007.87621050874     IErMin=12 ErrMin= 3.66D-06
 ErrMax= 3.66D-06  0.00D+00 EMaxC= 1.00D-01 BMatC= 9.99D-09 BMatP= 2.87D-08
 IDIUse=1 WtCom= 1.00D+00 WtEn= 0.00D+00
 Coeff-Com:  0.282D-03-0.559D-03-0.789D-03-0.106D-02 0.935D-03 0.105D-01
 Coeff-Com:  0.359D-01 0.248D-01-0.185D+00-0.317D+00 0.293D+00 0.114D+01
 Coeff:      0.282D-03-0.559D-03-0.789D-03-0.106D-02 0.935D-03 0.105D-01
 Coeff:      0.359D-01 0.248D-01-0.185D+00-0.317D+00 0.293D+00 0.114D+01
 Gap=     0.153 Goal=   None    Shift=    0.000
 RMSDP=6.94D-07 MaxDP=5.44D-05 DE=-2.24D-07 OVMax= 4.56D-04

 Cycle  13  Pass 1  IDiag  1:
 RMSU=  1.38D-07    CP:  9.75D-01  1.54D+00  7.01D-01  7.53D-01  1.02D+00
                    CP:  1.12D+00  1.42D+00  1.71D+00  2.27D+00  2.42D+00
                    CP:  2.19D+00  1.61D+00
 E= -3007.87621061943     Delta-E=       -0.000000110686 Rises=F Damp=F
 DIIS: error= 1.62D-06 at cycle  13 NSaved=  13.
 NSaved=13 IEnMin=13 EnMin= -3007.87621061943     IErMin=13 ErrMin= 1.62D-06
 ErrMax= 1.62D-06  0.00D+00 EMaxC= 1.00D-01 BMatC= 2.22D-09 BMatP= 9.99D-09
 IDIUse=1 WtCom= 1.00D+00 WtEn= 0.00D+00
 Coeff-Com:  0.153D-03-0.300D-03-0.485D-03-0.835D-03-0.105D-02 0.325D-02
 Coeff-Com:  0.255D-01 0.392D-01-0.544D-01-0.237D+00-0.876D-01 0.483D+00
 Coeff-Com:  0.831D+00
 Coeff:      0.153D-03-0.300D-03-0.485D-03-0.835D-03-0.105D-02 0.325D-02
 Coeff:      0.255D-01 0.392D-01-0.544D-01-0.237D+00-0.876D-01 0.483D+00
 Coeff:      0.831D+00
 Gap=     0.153 Goal=   None    Shift=    0.000
 RMSDP=2.66D-07 MaxDP=2.11D-05 DE=-1.11D-07 OVMax= 1.77D-04

 Cycle  14  Pass 1  IDiag  1:
 RMSU=  5.89D-08    CP:  9.75D-01  1.54D+00  7.01D-01  7.53D-01  1.02D+00
                    CP:  1.12D+00  1.42D+00  1.73D+00  2.34D+00  2.59D+00
                    CP:  2.51D+00  2.00D+00  1.19D+00
 E= -3007.87621063531     Delta-E=       -0.000000015887 Rises=F Damp=F
 DIIS: error= 4.54D-07 at cycle  14 NSaved=  14.
 NSaved=14 IEnMin=14 EnMin= -3007.87621063531     IErMin=14 ErrMin= 4.54D-07
 ErrMax= 4.54D-07  0.00D+00 EMaxC= 1.00D-01 BMatC= 3.86D-10 BMatP= 2.22D-09
 IDIUse=1 WtCom= 1.00D+00 WtEn= 0.00D+00
 Coeff-Com:  0.160D-05-0.785D-06-0.224D-04-0.910D-04-0.525D-03-0.985D-03
 Coeff-Com:  0.182D-02 0.899D-02 0.165D-01-0.217D-01-0.852D-01-0.565D-01
 Coeff-Com:  0.288D+00 0.850D+00
 Coeff:      0.160D-05-0.785D-06-0.224D-04-0.910D-04-0.525D-03-0.985D-03
 Coeff:      0.182D-02 0.899D-02 0.165D-01-0.217D-01-0.852D-01-0.565D-01
 Coeff:      0.288D+00 0.850D+00
 Gap=     0.153 Goal=   None    Shift=    0.000
 RMSDP=8.96D-08 MaxDP=9.29D-06 DE=-1.59D-08 OVMax= 5.27D-05

 Cycle  15  Pass 1  IDiag  1:
 RMSU=  2.79D-08    CP:  9.75D-01  1.54D+00  7.01D-01  7.53D-01  1.02D+00
                    CP:  1.12D+00  1.42D+00  1.74D+00  2.35D+00  2.65D+00
                    CP:  2.61D+00  2.14D+00  1.41D+00  1.15D+00
 E= -3007.87621063729     Delta-E=       -0.000000001979 Rises=F Damp=F
 DIIS: error= 2.37D-07 at cycle  15 NSaved=  15.
 NSaved=15 IEnMin=15 EnMin= -3007.87621063729     IErMin=15 ErrMin= 2.37D-07
 ErrMax= 2.37D-07  0.00D+00 EMaxC= 1.00D-01 BMatC= 1.10D-10 BMatP= 3.86D-10
 IDIUse=1 WtCom= 1.00D+00 WtEn= 0.00D+00
 Coeff-Com: -0.305D-04 0.609D-04 0.882D-04 0.124D-03-0.518D-04-0.114D-02
 Coeff-Com: -0.438D-02-0.363D-02 0.173D-01 0.366D-01-0.207D-01-0.121D+00
 Coeff-Com: -0.414D-01 0.417D+00 0.721D+00
 Coeff:     -0.305D-04 0.609D-04 0.882D-04 0.124D-03-0.518D-04-0.114D-02
 Coeff:     -0.438D-02-0.363D-02 0.173D-01 0.366D-01-0.207D-01-0.121D+00
 Coeff:     -0.414D-01 0.417D+00 0.721D+00
 Gap=     0.153 Goal=   None    Shift=    0.000
 RMSDP=3.12D-08 MaxDP=2.26D-06 DE=-1.98D-09 OVMax= 1.75D-05

 Cycle  16  Pass 1  IDiag  1:
 RMSU=  1.19D-08    CP:  9.75D-01  1.54D+00  7.01D-01  7.53D-01  1.02D+00
                    CP:  1.12D+00  1.42D+00  1.74D+00  2.36D+00  2.66D+00
                    CP:  2.64D+00  2.20D+00  1.49D+00  1.33D+00  9.64D-01
 E= -3007.87621063768     Delta-E=       -0.000000000386 Rises=F Damp=F
 DIIS: error= 7.99D-08 at cycle  16 NSaved=  16.
 NSaved=16 IEnMin=16 EnMin= -3007.87621063768     IErMin=16 ErrMin= 7.99D-08
 ErrMax= 7.99D-08  0.00D+00 EMaxC= 1.00D-01 BMatC= 1.37D-11 BMatP= 1.10D-10
 IDIUse=1 WtCom= 1.00D+00 WtEn= 0.00D+00
 Coeff-Com: -0.110D-04 0.215D-04 0.348D-04 0.561D-04 0.495D-04-0.247D-03
 Coeff-Com: -0.191D-02-0.232D-02 0.427D-02 0.179D-01 0.276D-02-0.361D-01
 Coeff-Com: -0.616D-01 0.340D-01 0.266D+00 0.777D+00
 Coeff:     -0.110D-04 0.215D-04 0.348D-04 0.561D-04 0.495D-04-0.247D-03
 Coeff:     -0.191D-02-0.232D-02 0.427D-02 0.179D-01 0.276D-02-0.361D-01
 Coeff:     -0.616D-01 0.340D-01 0.266D+00 0.777D+00
 Gap=     0.153 Goal=   None    Shift=    0.000
 RMSDP=1.05D-08 MaxDP=2.20D-06 DE=-3.86D-10 OVMax= 4.44D-06

 Cycle  17  Pass 1  IDiag  1:
 RMSU=  5.32D-09    CP:  9.75D-01  1.54D+00  7.01D-01  7.53D-01  1.02D+00
                    CP:  1.12D+00  1.42D+00  1.74D+00  2.36D+00  2.66D+00
                    CP:  2.65D+00  2.21D+00  1.52D+00  1.40D+00  1.10D+00
                    CP:  1.17D+00
 E= -3007.87621063758     Delta-E=        0.000000000096 Rises=F Damp=F
 DIIS: error= 5.32D-08 at cycle  17 NSaved=  17.
 NSaved=17 IEnMin=16 EnMin= -3007.87621063768     IErMin=17 ErrMin= 5.32D-08
 ErrMax= 5.32D-08  0.00D+00 EMaxC= 1.00D-01 BMatC= 3.23D-12 BMatP= 1.37D-11
 IDIUse=1 WtCom= 1.00D+00 WtEn= 0.00D+00
 Coeff-Com:  0.198D-05-0.411D-05-0.477D-05-0.428D-05 0.263D-04 0.158D-03
 Coeff-Com:  0.978D-04-0.102D-04-0.239D-02-0.386D-03 0.419D-02 0.129D-01
 Coeff-Com: -0.163D-01-0.664D-01-0.331D-01 0.274D+00 0.827D+00
 Coeff:      0.198D-05-0.411D-05-0.477D-05-0.428D-05 0.263D-04 0.158D-03
 Coeff:      0.978D-04-0.102D-04-0.239D-02-0.386D-03 0.419D-02 0.129D-01
 Coeff:     -0.163D-01-0.664D-01-0.331D-01 0.274D+00 0.827D+00
 Gap=     0.153 Goal=   None    Shift=    0.000
 RMSDP=5.30D-09 MaxDP=4.50D-07 DE= 9.64D-11 OVMax= 3.66D-06

 SCF Done:  E(RwB97XD) =  -3007.87621064     A.U. after   17 cycles
            NFock= 17  Conv=0.53D-08     -V/T= 2.0106
 KE= 2.976320156551D+03 PE=-2.625776718449D+04 EE= 1.064148837095D+04
 Leave Link  502 at Sat Apr 30 20:25:24 2022, MaxMem= 10066329600 cpu:           12680.5 elap:             543.6
 (Enter /sw/apps/gaussian-16.0/g16/l801.exe)
 DoSCS=F DFT=T ScalE2(SS,OS)=  1.000000  1.000000
 ExpMin= 3.36D-02 ExpMax= 4.95D+03 ExpMxC= 7.45D+02 IAcc=3 IRadAn=         5 AccDes= 0.00D+00
 HarFok:  IExCor=  205 AccDes= 0.00D+00 IRadAn=         5 IDoV=-2 UseB2=F ITyADJ=14
 ICtDFT= 12500011 ScaDFX=  1.000000  1.000000  1.000000  1.000000
 GSVD:  LWork=       -5460 too small for GESVD, short by       25550 words or       25550 for optimal perf.
 Largest valence mixing into a core orbital is  1.39D-04
 Largest core mixing into a valence orbital is  5.64D-05
 Range of M.O.s used for correlation:    71  1298
 NBasis=  1298 NAE=   246 NBE=   246 NFC=    70 NFV=     0
 NROrb=   1228 NOA=   176 NOB=   176 NVA=  1052 NVB=  1052
 Leave Link  801 at Sat Apr 30 20:25:24 2022, MaxMem= 10066329600 cpu:               6.5 elap:               0.3
 (Enter /sw/apps/gaussian-16.0/g16/l914.exe)
 RHF ground state
 Two-electron integrals replicated using symmetry.
 MDV= 10066329600 DFT=T DoStab=F Mixed=T DoRPA=T DoScal=F NonHer=T
 Making orbital integer symmetry assigments:
 Orbital symmetries:
       Occupied  (A) (A) (A) (A) (A) (A) (A) (A) (A) (A) (A) (A)
                 (A) (A) (A) (A) (A) (A) (A) (A) (A) (A) (A) (A)
                 (A) (A) (A) (A) (A) (A) (A) (A) (A) (A) (A) (A)
                 (A) (A) (A) (A) (A) (A) (A) (A) (A) (A) (A) (A)
                 (A) (A) (A) (A) (A) (A) (A) (A) (A) (A) (A) (A)
                 (A) (A) (A) (A) (A) (A) (A) (A) (A) (A) (A) (A)
                 (A) (A) (A) (A) (A) (A) (A) (A) (A) (A) (A) (A)
                 (A) (A) (A) (A) (A) (A) (A) (A) (A) (A) (A) (A)
                 (A) (A) (A) (A) (A) (A) (A) (A) (A) (A) (A) (A)
                 (A) (A) (A) (A) (A) (A) (A) (A) (A) (A) (A) (A)
                 (A) (A) (A) (A) (A) (A) (A) (A) (A) (A) (A) (A)
                 (A) (A) (A) (A) (A) (A) (A) (A) (A) (A) (A) (A)
                 (A) (A) (A) (A) (A) (A) (A) (A) (A) (A) (A) (A)
                 (A) (A) (A) (A) (A) (A) (A) (A) (A) (A) (A) (A)
                 (A) (A) (A) (A) (A) (A) (A) (A) (A) (A) (A) (A)
                 (A) (A) (A) (A) (A) (A) (A) (A) (A) (A) (A) (A)
                 (A) (A) (A) (A) (A) (A) (A) (A) (A) (A) (A) (A)
                 (A) (A) (A) (A) (A) (A) (A) (A) (A) (A) (A) (A)
                 (A) (A) (A) (A) (A) (A) (A) (A) (A) (A) (A) (A)
                 (A) (A) (A) (A) (A) (A) (A) (A) (A) (A) (A) (A)
                 (A) (A) (A) (A) (A) (A)
       Virtual   (A) (A) (A) (A) (A) (A) (A) (A) (A) (A) (A) (A)
                 (A) (A) (A) (A) (A) (A) (A) (A) (A) (A) (A) (A)
                 (A) (A) (A) (A) (A) (A) (A) (A) (A) (A) (A) (A)
                 (A) (A) (A) (A) (A) (A) (A) (A) (A) (A) (A) (A)
                 (A) (A) (A) (A) (A) (A) (A) (A) (A) (A) (A) (A)
                 (A) (A) (A) (A) (A) (A) (A) (A) (A) (A) (A) (A)
                 (A) (A) (A) (A) (A) (A) (A) (A) (A) (A) (A) (A)
                 (A) (A) (A) (A) (A) (A) (A) (A) (A) (A) (A) (A)
                 (A) (A) (A) (A) (A) (A) (A) (A) (A) (A) (A) (A)
                 (A) (A) (A) (A) (A) (A) (A) (A) (A) (A) (A) (A)
                 (A) (A) (A) (A) (A) (A) (A) (A) (A) (A) (A) (A)
                 (A) (A) (A) (A) (A) (A) (A) (A) (A) (A) (A) (A)
                 (A) (A) (A) (A) (A) (A) (A) (A) (A) (A) (A) (A)
                 (A) (A) (A) (A) (A) (A) (A) (A) (A) (A) (A) (A)
                 (A) (A) (A) (A) (A) (A) (A) (A) (A) (A) (A) (A)
                 (A) (A) (A) (A) (A) (A) (A) (A) (A) (A) (A) (A)
                 (A) (A) (A) (A) (A) (A) (A) (A) (A) (A) (A) (A)
                 (A) (A) (A) (A) (A) (A) (A) (A) (A) (A) (A) (A)
                 (A) (A) (A) (A) (A) (A) (A) (A) (A) (A) (A) (A)
                 (A) (A) (A) (A) (A) (A) (A) (A) (A) (A) (A) (A)
                 (A) (A) (A) (A) (A) (A) (A) (A) (A) (A) (A) (A)
                 (A) (A) (A) (A) (A) (A) (A) (A) (A) (A) (A) (A)
                 (A) (A) (A) (A) (A) (A) (A) (A) (A) (A) (A) (A)
                 (A) (A) (A) (A) (A) (A) (A) (A) (A) (A) (A) (A)
                 (A) (A) (A) (A) (A) (A) (A) (A) (A) (A) (A) (A)
                 (A) (A) (A) (A) (A) (A) (A) (A) (A) (A) (A) (A)
                 (A) (A) (A) (A) (A) (A) (A) (A) (A) (A) (A) (A)
                 (A) (A) (A) (A) (A) (A) (A) (A) (A) (A) (A) (A)
                 (A) (A) (A) (A) (A) (A) (A) (A) (A) (A) (A) (A)
                 (A) (A) (A) (A) (A) (A) (A) (A) (A) (A) (A) (A)
                 (A) (A) (A) (A) (A) (A) (A) (A) (A) (A) (A) (A)
                 (A) (A) (A) (A) (A) (A) (A) (A) (A) (A) (A) (A)
                 (A) (A) (A) (A) (A) (A) (A) (A) (A) (A) (A) (A)
                 (A) (A) (A) (A) (A) (A) (A) (A) (A) (A) (A) (A)
                 (A) (A) (A) (A) (A) (A) (A) (A) (A) (A) (A) (A)
                 (A) (A) (A) (A) (A) (A) (A) (A) (A) (A) (A) (A)
                 (A) (A) (A) (A) (A) (A) (A) (A) (A) (A) (A) (A)
                 (A) (A) (A) (A) (A) (A) (A) (A) (A) (A) (A) (A)
                 (A) (A) (A) (A) (A) (A) (A) (A) (A) (A) (A) (A)
                 (A) (A) (A) (A) (A) (A) (A) (A) (A) (A) (A) (A)
                 (A) (A) (A) (A) (A) (A) (A) (A) (A) (A) (A) (A)
                 (A) (A) (A) (A) (A) (A) (A) (A) (A) (A) (A) (A)
                 (A) (A) (A) (A) (A) (A) (A) (A) (A) (A) (A) (A)
                 (A) (A) (A) (A) (A) (A) (A) (A) (A) (A) (A) (A)
                 (A) (A) (A) (A) (A) (A) (A) (A) (A) (A) (A) (A)
                 (A) (A) (A) (A) (A) (A) (A) (A) (A) (A) (A) (A)
                 (A) (A) (A) (A) (A) (A) (A) (A) (A) (A) (A) (A)
                 (A) (A) (A) (A) (A) (A) (A) (A) (A) (A) (A) (A)
                 (A) (A) (A) (A) (A) (A) (A) (A) (A) (A) (A) (A)
                 (A) (A) (A) (A) (A) (A) (A) (A) (A) (A) (A) (A)
                 (A) (A) (A) (A) (A) (A) (A) (A) (A) (A) (A) (A)
                 (A) (A) (A) (A) (A) (A) (A) (A) (A) (A) (A) (A)
                 (A) (A) (A) (A) (A) (A) (A) (A) (A) (A) (A) (A)
                 (A) (A) (A) (A) (A) (A) (A) (A) (A) (A) (A) (A)
                 (A) (A) (A) (A) (A) (A) (A) (A) (A) (A) (A) (A)
                 (A) (A) (A) (A) (A) (A) (A) (A) (A) (A) (A) (A)
                 (A) (A) (A) (A) (A) (A) (A) (A) (A) (A) (A) (A)
                 (A) (A) (A) (A) (A) (A) (A) (A) (A) (A) (A) (A)
                 (A) (A) (A) (A) (A) (A) (A) (A) (A) (A) (A) (A)
                 (A) (A) (A) (A) (A) (A) (A) (A) (A) (A) (A) (A)
                 (A) (A) (A) (A) (A) (A) (A) (A) (A) (A) (A) (A)
                 (A) (A) (A) (A) (A) (A) (A) (A) (A) (A) (A) (A)
                 (A) (A) (A) (A) (A) (A) (A) (A) (A) (A) (A) (A)
                 (A) (A) (A) (A) (A) (A) (A) (A) (A) (A) (A) (A)
                 (A) (A) (A) (A) (A) (A) (A) (A) (A) (A) (A) (A)
                 (A) (A) (A) (A) (A) (A) (A) (A) (A) (A) (A) (A)
                 (A) (A) (A) (A) (A) (A) (A) (A) (A) (A) (A) (A)
                 (A) (A) (A) (A) (A) (A) (A) (A) (A) (A) (A) (A)
                 (A) (A) (A) (A) (A) (A) (A) (A) (A) (A) (A) (A)
                 (A) (A) (A) (A) (A) (A) (A) (A) (A) (A) (A) (A)
                 (A) (A) (A) (A) (A) (A) (A) (A) (A) (A) (A) (A)
                 (A) (A) (A) (A) (A) (A) (A) (A) (A) (A) (A) (A)
                 (A) (A) (A) (A) (A) (A) (A) (A) (A) (A) (A) (A)
                 (A) (A) (A) (A) (A) (A) (A) (A) (A) (A) (A) (A)
                 (A) (A) (A) (A) (A) (A) (A) (A) (A) (A) (A) (A)
                 (A) (A) (A) (A) (A) (A) (A) (A) (A) (A) (A) (A)
                 (A) (A) (A) (A) (A) (A) (A) (A) (A) (A) (A) (A)
                 (A) (A) (A) (A) (A) (A) (A) (A) (A) (A) (A) (A)
                 (A) (A) (A) (A) (A) (A) (A) (A) (A) (A) (A) (A)
                 (A) (A) (A) (A) (A) (A) (A) (A) (A) (A) (A) (A)
                 (A) (A) (A) (A) (A) (A) (A) (A) (A) (A) (A) (A)
                 (A) (A) (A) (A) (A) (A) (A) (A) (A) (A) (A) (A)
                 (A) (A) (A) (A) (A) (A) (A) (A) (A) (A) (A) (A)
                 (A) (A) (A) (A) (A) (A) (A) (A) (A) (A) (A) (A)
                 (A) (A) (A) (A) (A) (A) (A) (A) (A) (A) (A) (A)
                 (A) (A) (A) (A) (A) (A) (A) (A) (A) (A) (A) (A)
                 (A) (A) (A) (A) (A) (A) (A) (A) (A) (A) (A) (A)
                 (A) (A) (A) (A) (A) (A) (A) (A)
    20 initial guesses have been made.
 Convergence on wavefunction:    0.001000000000000
 Davidson Disk Diagonalization:  ConvIn= 1.00D-03 SkipCon=T Conv= 1.00D-03.
 Max sub-space:  2000 roots to seek:    20 dimension of matrix:       370304
 Iteration     1 Dimension    20 NMult     0 NNew     20
 CISAX will form    20 AO SS matrices at one time.
 NMat=    20 NSing=    20 JSym2X= 0.
 FoFJK:  IHMeth= 1 ICntrl=       0 DoSepK=T KAlg= 0 I1Cent=           0 FoldK=F
 IRaf=         1 NMat=      40 IRICut=       1 DoRegI=T DoRafI=F ISym2E= 0 IDoP0=3 IntGTp=3.
 FoFCou: FMM=T IPFlag=           0 FMFlag=      100000 FMFlg1=        2001
         NFxFlg=           0 DoJE=F BraDBF=F KetDBF=F FulRan=T
         wScrn=  0.000000 ICntrl=       500 IOpCl=  0 I1Cent=           0 NGrid=           0
         NMat0=   20 NMatS0=     20 NMatT0=    0 NMatD0=   20 NMtDS0=    0 NMtDT0=    0
 Symmetry not used in FoFCou.
 FMM levels:  10  Number of levels for PrismC:   9
 New state      3 was old state      4
 New state      4 was old state      6
 Excitation Energies [eV] at current iteration:
 Root      1 :     2.133089297169060
 Root      2 :     2.623394857347851
 Root      3 :     3.747228672434826
 Root      4 :     3.937759845256971
 Root      5 :     4.064135712283298
 Root      6 :     4.254759732527703
 Root      7 :     4.290590396045296
 Root      8 :     4.347525860956564
 Root      9 :     4.523773852850489
 Root     10 :     4.661901796150587
 Root     11 :     4.706471822426456
 Root     12 :     4.880717687050613
 Root     13 :     5.048731135033469
 Root     14 :     5.199877191616253
 Root     15 :     5.447406703588752
 Root     16 :     5.467498033759626
 Root     17 :     5.610580532976334
 Root     18 :     5.790653187433360
 Root     19 :     6.221310259394029
 Root     20 :     6.967996437056183
 Iteration     2 Dimension    30 NMult    20 NNew     10
 CISAX will form    10 AO SS matrices at one time.
 NMat=    10 NSing=    10 JSym2X= 0.
 Root      1 not converged, maximum delta is    0.082930006775431
 Root      2 not converged, maximum delta is    0.059922355525359
 Root      3 not converged, maximum delta is    0.078621414356435
 Root      4 not converged, maximum delta is    0.062520318774301
 Root      5 not converged, maximum delta is    0.171758397799135
 Excitation Energies [eV] at current iteration:
 Root      1 :     1.600056653176839   Change is   -0.533032643992222
 Root      2 :     2.219619018472029   Change is   -0.403775838875822
 Root      3 :     3.406857574541644   Change is   -0.340371097893182
 Root      4 :     3.544796186204635   Change is   -0.392963659052336
 Root      5 :     3.659570943961175   Change is   -0.404564768322123
 Iteration     3 Dimension    40 NMult    30 NNew     10
 CISAX will form    10 AO SS matrices at one time.
 NMat=    10 NSing=    10 JSym2X= 0.
 Root      1 not converged, maximum delta is    0.014537952087982
 Root      2 not converged, maximum delta is    0.017160728032221
 Root      3 not converged, maximum delta is    0.127692013541582
 Root      4 not converged, maximum delta is    0.235966487982236
 Root      5 not converged, maximum delta is    0.180585631698237
 Excitation Energies [eV] at current iteration:
 Root      1 :     1.561968347583406   Change is   -0.038088305593433
 Root      2 :     2.198245172951212   Change is   -0.021373845520817
 Root      3 :     3.374966703076234   Change is   -0.031890871465409
 Root      4 :     3.496301702710248   Change is   -0.048494483494387
 Root      5 :     3.556069478024690   Change is   -0.103501465936485
 Iteration     4 Dimension    50 NMult    40 NNew     10
 CISAX will form    10 AO SS matrices at one time.
 NMat=    10 NSing=    10 JSym2X= 0.
 Root      1 not converged, maximum delta is    0.003841619306347
 Root      2 not converged, maximum delta is    0.002587878512138
 Root      3 not converged, maximum delta is    0.019528298046881
 Root      4 not converged, maximum delta is    0.030396505598070
 Root      5 not converged, maximum delta is    0.068438435695555
 Excitation Energies [eV] at current iteration:
 Root      1 :     1.557536405765655   Change is   -0.004431941817751
 Root      2 :     2.195884737397686   Change is   -0.002360435553526
 Root      3 :     3.369307237055011   Change is   -0.005659466021223
 Root      4 :     3.484984561322496   Change is   -0.011317141387752
 Root      5 :     3.539267461927046   Change is   -0.016802016097644
 Iteration     5 Dimension    60 NMult    50 NNew     10
 CISAX will form    10 AO SS matrices at one time.
 NMat=    10 NSing=    10 JSym2X= 0.
 Root      1 not converged, maximum delta is    0.001317673973788
 Root      2 has converged.
 Root      3 not converged, maximum delta is    0.002363816358252
 Root      4 not converged, maximum delta is    0.012109119223557
 Root      5 not converged, maximum delta is    0.027291821899902
 Excitation Energies [eV] at current iteration:
 Root      1 :     1.557136944342511   Change is   -0.000399461423144
 Root      2 :     2.195701569254695   Change is   -0.000183168142991
 Root      3 :     3.368805162529707   Change is   -0.000502074525305
 Root      4 :     3.482995738060416   Change is   -0.001988823262079
 Root      5 :     3.535486174160017   Change is   -0.003781287767029
 Iteration     6 Dimension    68 NMult    60 NNew      8
 CISAX will form     8 AO SS matrices at one time.
 NMat=     8 NSing=     8 JSym2X= 0.
 Root      1 has converged.
 Root      2 has converged.
 Root      3 not converged, maximum delta is    0.001925331664112
 Root      4 not converged, maximum delta is    0.012245788548404
 Root      5 not converged, maximum delta is    0.013936897222125
 Excitation Energies [eV] at current iteration:
 Root      1 :     1.557097589425297   Change is   -0.000039354917214
 Root      2 :     2.195699173533699   Change is   -0.000002395720996
 Root      3 :     3.368719181388998   Change is   -0.000085981140709
 Root      4 :     3.482130454697427   Change is   -0.000865283362990
 Root      5 :     3.534445989002212   Change is   -0.001040185157805
 Iteration     7 Dimension    74 NMult    68 NNew      6
 CISAX will form     6 AO SS matrices at one time.
 NMat=     6 NSing=     6 JSym2X= 0.
 Root      1 has converged.
 Root      2 has converged.
 Root      3 has converged.
 Root      4 not converged, maximum delta is    0.004956996939198
 Root      5 not converged, maximum delta is    0.003464589400163
 Excitation Energies [eV] at current iteration:
 Root      1 :     1.557097573945647   Change is   -0.000000015479650
 Root      2 :     2.195698335175982   Change is   -0.000000838357717
 Root      3 :     3.368704262834743   Change is   -0.000014918554254
 Root      4 :     3.481890786109789   Change is   -0.000239668587638
 Root      5 :     3.534316851803756   Change is   -0.000129137198456
 Iteration     8 Dimension    78 NMult    74 NNew      4
 CISAX will form     4 AO SS matrices at one time.
 NMat=     4 NSing=     4 JSym2X= 0.
 Root      1 has converged.
 Root      2 has converged.
 Root      3 has converged.
 Root      4 not converged, maximum delta is    0.001063427398516
 Root      5 has converged.
 Excitation Energies [eV] at current iteration:
 Root      1 :     1.557097550141278   Change is   -0.000000023804369
 Root      2 :     2.195697449051644   Change is   -0.000000886124339
 Root      3 :     3.368703182947544   Change is   -0.000001079887199
 Root      4 :     3.481849536310595   Change is   -0.000041249799194
 Root      5 :     3.534301902811247   Change is   -0.000014948992509
 Iteration     9 Dimension    80 NMult    78 NNew      2
 CISAX will form     2 AO SS matrices at one time.
 NMat=     2 NSing=     2 JSym2X= 0.
 Root      1 has converged.
 Root      2 has converged.
 Root      3 has converged.
 Root      4 has converged.
 Root      5 has converged.
 Excitation Energies [eV] at current iteration:
 Root      1 :     1.557097506678400   Change is   -0.000000043462878
 Root      2 :     2.195697417293005   Change is   -0.000000031758639
 Root      3 :     3.368703026152379   Change is   -0.000000156795165
 Root      4 :     3.481843612497733   Change is   -0.000005923812862
 Root      5 :     3.534301175138699   Change is   -0.000000727672548
 Convergence achieved on expansion vectors.
 ***********************************************************************
 Excited states from <AA,BB:AA,BB> singles matrix:
 ***********************************************************************
 
 1PDM for each excited state written to RWF  633
 Ground to excited state transition densities written to RWF  633
 Ground to excited state transition electric dipole moments (Au):
       state          X           Y           Z        Dip. S.      Osc.
         1        -1.7508     -2.5937      0.3312      9.9024      0.3778
         2        -1.1106      0.9857      0.0393      2.2066      0.1187
         3        -0.0242      0.2139     -0.0285      0.0472      0.0039
         4         0.8664     -0.7329      0.0260      1.2884      0.1099
         5         0.8685     -0.8174      0.0086      1.4225      0.1232
 Ground to excited state transition velocity dipole moments (Au):
       state          X           Y           Z        Dip. S.      Osc.
         1         0.0967      0.1452     -0.0172      0.0307      0.3581
         2         0.0842     -0.0766     -0.0027      0.0130      0.1071
         3         0.0003     -0.0274      0.0034      0.0008      0.0041
         4        -0.1053      0.0914     -0.0019      0.0195      0.1013
         5        -0.1069      0.1023     -0.0023      0.0219      0.1124
 Ground to excited state transition magnetic dipole moments (Au):
       state          X           Y           Z
         1         0.0016     -0.1851     -1.5727
         2        -0.0800     -0.1271      0.1900
         3        -0.1843     -0.4005     -0.4282
         4        -0.1214      0.4201     -1.6600
         5        -0.1059     -0.3306     -0.8995
 Ground to excited state transition velocity quadrupole moments (Au):
       state          XX          YY          ZZ          XY          XZ          YZ
         1        -1.9007      0.4202     -0.0073     -1.2732      0.1544      0.0085
         2        -1.4906     -0.1973      0.0115      0.7136      0.0207     -0.0036
         3         0.2622     -0.3932      0.0227      0.3094     -0.0907      0.0088
         4         1.9974     -0.3926      0.0108     -1.0642     -0.0053      0.0758
         5         1.7481      0.1257     -0.0155     -1.3146      0.1176      0.0318
 <0|del|b> * <b|rxdel|0> + <0|del|b> * <b|delr+rdel|0>
 Rotatory Strengths (R) in cgs (10**-40 erg-esu-cm/Gauss)
       state          XX          YY          ZZ    R(velocity)    E-M Angle
         1        -2.2014     37.8728    -31.6589      1.3375       89.93
         2        39.0495    -24.7269      7.5379      7.2869       84.81
         3        23.0842     -7.4224     38.2687     17.9768       56.22
         4       121.6505     16.3723    162.1696    100.0641       76.89
         5      -110.7995     18.9332    -19.2872    -37.0512       98.22
 1/2[<0|r|b>*<b|rxdel|0> + (<0|rxdel|b>*<b|r|0>)*]
 Rotatory Strengths (R) in cgs (10**-40 erg-esu-cm/Gauss)
       state          XX          YY          ZZ     R(length)
         1         2.0225   -339.5363    368.3442     10.2768
         2       -62.7962     88.5878     -5.2771      6.8382
         3        -3.1607     60.5990     -8.6182     16.2734
         4        74.3664    217.6912     30.5534    107.5370
         5        65.0464   -191.1285      5.4415    -40.2135
  1/2[<0|del|b>*<b|r|0> + (<0|r|b>*<b|del|0>)*] (Au)
       state          X           Y           Z        Dip. S.   Osc.(frdel)
         1        -0.1694     -0.3766     -0.0057      0.5517      0.3678
         2        -0.0935     -0.0755     -0.0001      0.1691      0.1128
         3        -0.0000     -0.0059     -0.0001      0.0060      0.0040
         4        -0.0912     -0.0670     -0.0000      0.1583      0.1055
         5        -0.0928     -0.0837     -0.0000      0.1765      0.1177

 Excitation energies and oscillator strengths:
 
 Excited State   1:      Singlet-A      1.5571 eV  796.25 nm  f=0.3778  <S**2>=0.000
     245 -> 248        0.15447
     246 -> 247        0.69140
     245 <- 248        0.11160
 This state for optimization and/or second-order correction.
 Total Energy, E(TD-HF/TD-DFT) =  -3007.81898836    
 Copying the excited state density for this state as the 1-particle RhoCI density.
 
 Excited State   2:      Singlet-A      2.1957 eV  564.67 nm  f=0.1187  <S**2>=0.000
     245 -> 247        0.63551
     246 -> 248       -0.29393
 
 Excited State   3:      Singlet-A      3.3687 eV  368.05 nm  f=0.0039  <S**2>=0.000
     242 -> 247        0.13970
     243 -> 250        0.10784
     244 -> 247        0.63227
     244 -> 249        0.12802
     246 -> 248        0.10186
 
 Excited State   4:      Singlet-A      3.4818 eV  356.09 nm  f=0.1099  <S**2>=0.000
     240 -> 247       -0.18063
     242 -> 247        0.42536
     243 -> 247       -0.33184
     243 -> 249       -0.12617
     243 -> 250       -0.10004
     245 -> 247       -0.11140
     246 -> 248       -0.30777
 
 Excited State   5:      Singlet-A      3.5343 eV  350.80 nm  f=0.1232  <S**2>=0.000
     239 -> 247        0.11280
     242 -> 247        0.15693
     243 -> 247        0.49031
     243 -> 249        0.17511
     243 -> 250        0.13462
     244 -> 247       -0.10853
     245 -> 247       -0.11479
     246 -> 248       -0.33898
 SavETr:  write IOETrn=   770 NScale= 10 NData=  16 NLR=1 NState=    5 LETran=     100.
 Leave Link  914 at Sat Apr 30 20:54:55 2022, MaxMem= 10066329600 cpu:           42267.3 elap:            1771.1
 (Enter /sw/apps/gaussian-16.0/g16/l601.exe)
 Copying SCF densities to generalized density rwf, IOpCl= 0 IROHF=0.
 Hyperfine terms turned off by default for NAtoms > 100.

 **********************************************************************

            Population analysis using the SCF density.

 **********************************************************************

 Orbital symmetries:
       Occupied  (A) (A) (A) (A) (A) (A) (A) (A) (A) (A) (A) (A)
                 (A) (A) (A) (A) (A) (A) (A) (A) (A) (A) (A) (A)
                 (A) (A) (A) (A) (A) (A) (A) (A) (A) (A) (A) (A)
                 (A) (A) (A) (A) (A) (A) (A) (A) (A) (A) (A) (A)
                 (A) (A) (A) (A) (A) (A) (A) (A) (A) (A) (A) (A)
                 (A) (A) (A) (A) (A) (A) (A) (A) (A) (A) (A) (A)
                 (A) (A) (A) (A) (A) (A) (A) (A) (A) (A) (A) (A)
[...]
 Alpha virt. eigenvalues --    1.20427   1.20830   1.21133   1.21586   1.22188
 Alpha virt. eigenvalues --    1.22694   1.22953   1.23895   1.24226   1.24421
 Alpha virt. eigenvalues --    1.24819   1.25649   1.25911   1.26049   1.26505
 Alpha virt. eigenvalues --    1.27043   1.27356   1.27841   1.28269   1.28909
 Alpha virt. eigenvalues --    1.29103   1.29485   1.30239   1.30463   1.30929
 Alpha virt. eigenvalues --    1.31561   1.32106   1.32647   1.33070   1.33481
 Alpha virt. eigenvalues --    1.34124   1.34594   1.34709   1.35679   1.35796
 Alpha virt. eigenvalues --    1.36151   1.36754   1.36883   1.37134   1.37676
 Alpha virt. eigenvalues --    1.38101   1.38187   1.38502   1.38969   1.40141
 Alpha virt. eigenvalues --    1.40645   1.41014   1.41318   1.41641   1.42041
 Alpha virt. eigenvalues --    1.42579   1.42877   1.43173   1.43899   1.43936
 Alpha virt. eigenvalues --    1.44504   1.45041   1.45481   1.45628   1.45669
 Alpha virt. eigenvalues --    1.46239   1.46457   1.46944   1.47084   1.47151
 Alpha virt. eigenvalues --    1.47579   1.48262   1.48947   1.49125   1.49569
 Alpha virt. eigenvalues --    1.49878   1.50298   1.50558   1.50957   1.51721
 Alpha virt. eigenvalues --    1.51829   1.52161   1.52626   1.53149   1.53458
 Alpha virt. eigenvalues --    1.53577   1.54202   1.54396   1.54452   1.55001
 Alpha virt. eigenvalues --    1.56514   1.57082   1.57174   1.58207   1.58685
 Alpha virt. eigenvalues --    1.58887   1.59301   1.59626   1.60388   1.60566
 Alpha virt. eigenvalues --    1.60839   1.61215   1.61509   1.62061   1.62177
 Alpha virt. eigenvalues --    1.62451   1.62839   1.62957   1.63315   1.63519
 Alpha virt. eigenvalues --    1.63569   1.63756   1.63995   1.64153   1.64353
 Alpha virt. eigenvalues --    1.64631   1.64838   1.64967   1.65512   1.65695
 Alpha virt. eigenvalues --    1.65830   1.65983   1.66409   1.67050   1.67259
 Alpha virt. eigenvalues --    1.67675   1.68271   1.68473   1.68764   1.68933
 Alpha virt. eigenvalues --    1.69070   1.69422   1.69944   1.71118   1.71438
 Alpha virt. eigenvalues --    1.72296   1.72873   1.73329   1.73747   1.74357
 Alpha virt. eigenvalues --    1.74537   1.74901   1.75013   1.75152   1.75736
 Alpha virt. eigenvalues --    1.76441   1.76843   1.76978   1.77490   1.77524
 Alpha virt. eigenvalues --    1.78014   1.78218   1.78668   1.78900   1.79342
 Alpha virt. eigenvalues --    1.79612   1.79824   1.80334   1.80437   1.80863
 Alpha virt. eigenvalues --    1.81244   1.81479   1.81715   1.82072   1.82372
 Alpha virt. eigenvalues --    1.82458   1.82953   1.83190   1.83289   1.83362
 Alpha virt. eigenvalues --    1.83730   1.84024   1.84071   1.84587   1.84707
 Alpha virt. eigenvalues --    1.84744   1.84844   1.85132   1.85221   1.85623
 Alpha virt. eigenvalues --    1.85841   1.86069   1.86163   1.86500   1.86636
 Alpha virt. eigenvalues --    1.86891   1.86962   1.87207   1.87686   1.87800
 Alpha virt. eigenvalues --    1.87834   1.88136   1.88603   1.88656   1.88983
 Alpha virt. eigenvalues --    1.89136   1.89182   1.89443   1.89856   1.90213
 Alpha virt. eigenvalues --    1.90358   1.90402   1.90547   1.90649   1.90841
 Alpha virt. eigenvalues --    1.91101   1.91192   1.91247   1.91773   1.91986
 Alpha virt. eigenvalues --    1.92134   1.92440   1.92491   1.92650   1.92852
 Alpha virt. eigenvalues --    1.93089   1.93294   1.93485   1.93600   1.93911
 Alpha virt. eigenvalues --    1.94046   1.94282   1.94537   1.94693   1.94808
 Alpha virt. eigenvalues --    1.94948   1.95011   1.95558   1.95807   1.95914
 Alpha virt. eigenvalues --    1.96251   1.96451   1.96549   1.97001   1.97246
 Alpha virt. eigenvalues --    1.97605   1.97866   1.98021   1.98340   1.98400
 Alpha virt. eigenvalues --    1.98705   1.98926   1.99055   1.99205   1.99429
 Alpha virt. eigenvalues --    1.99926   2.00080   2.00290   2.00326   2.00813
 Alpha virt. eigenvalues --    2.00932   2.01297   2.01644   2.01815   2.01928
 Alpha virt. eigenvalues --    2.02061   2.02467   2.02854   2.02916   2.03078
 Alpha virt. eigenvalues --    2.03174   2.03486   2.03767   2.04043   2.04187
 Alpha virt. eigenvalues --    2.04580   2.04993   2.05135   2.05546   2.05849
 Alpha virt. eigenvalues --    2.06030   2.06181   2.06571   2.06959   2.07249
 Alpha virt. eigenvalues --    2.07521   2.07889   2.08064   2.08333   2.08510
 Alpha virt. eigenvalues --    2.09271   2.09475   2.09821   2.09923   2.10424
 Alpha virt. eigenvalues --    2.10754   2.11537   2.11922   2.12234   2.12404
 Alpha virt. eigenvalues --    2.12643   2.13122   2.13230   2.13566   2.13651
 Alpha virt. eigenvalues --    2.13906   2.14122   2.14524   2.14638   2.15214
 Alpha virt. eigenvalues --    2.15424   2.15583   2.16317   2.16840   2.16972
 Alpha virt. eigenvalues --    2.17195   2.17551   2.17681   2.18027   2.18158
 Alpha virt. eigenvalues --    2.18583   2.18812   2.19383   2.19469   2.19842
 Alpha virt. eigenvalues --    2.20073   2.20267   2.20750   2.20771   2.20955
 Alpha virt. eigenvalues --    2.21495   2.21771   2.21870   2.22282   2.22586
 Alpha virt. eigenvalues --    2.22654   2.22806   2.23115   2.23261   2.24224
 Alpha virt. eigenvalues --    2.24250   2.24646   2.24917   2.25330   2.25663
 Alpha virt. eigenvalues --    2.26104   2.26653   2.27357   2.28037   2.28697
 Alpha virt. eigenvalues --    2.28706   2.29727   2.30473   2.30725   2.30787
 Alpha virt. eigenvalues --    2.31676   2.32235   2.32490   2.32861   2.33650
 Alpha virt. eigenvalues --    2.33918   2.33965   2.34593   2.34726   2.35294
 Alpha virt. eigenvalues --    2.35555   2.35790   2.36037   2.36500   2.36999
 Alpha virt. eigenvalues --    2.37047   2.37209   2.37782   2.38019   2.38380
 Alpha virt. eigenvalues --    2.38729   2.39368   2.39741   2.39882   2.40557
 Alpha virt. eigenvalues --    2.41034   2.41762   2.42097   2.42288   2.43057
 Alpha virt. eigenvalues --    2.43312   2.43994   2.44124   2.44483   2.44867
 Alpha virt. eigenvalues --    2.45184   2.45539   2.45816   2.46056   2.46268
 Alpha virt. eigenvalues --    2.46997   2.47503   2.47874   2.48017   2.48083
 Alpha virt. eigenvalues --    2.48427   2.48589   2.48719   2.49641   2.49749
 Alpha virt. eigenvalues --    2.50100   2.51207   2.51565   2.51644   2.51995
 Alpha virt. eigenvalues --    2.52038   2.52686   2.52787   2.52924   2.53100
 Alpha virt. eigenvalues --    2.53266   2.53569   2.54094   2.54230   2.54689
 Alpha virt. eigenvalues --    2.55158   2.55894   2.56757   2.56880   2.57164
 Alpha virt. eigenvalues --    2.57902   2.58103   2.58293   2.59823   2.59911
 Alpha virt. eigenvalues --    2.60024   2.61251   2.61518   2.62047   2.62145
 Alpha virt. eigenvalues --    2.62420   2.62453   2.63037   2.63472   2.63928
 Alpha virt. eigenvalues --    2.64225   2.64440   2.64837   2.65026   2.65616
 Alpha virt. eigenvalues --    2.66125   2.66585   2.66839   2.67131   2.67460
 Alpha virt. eigenvalues --    2.67892   2.67991   2.69044   2.69536   2.69609
 Alpha virt. eigenvalues --    2.70354   2.70412   2.70893   2.71323   2.71700
 Alpha virt. eigenvalues --    2.71986   2.72170   2.72458   2.72603   2.72667
 Alpha virt. eigenvalues --    2.73367   2.73972   2.74356   2.74811   2.75096
 Alpha virt. eigenvalues --    2.75279   2.76143   2.76790   2.77219   2.77350
 Alpha virt. eigenvalues --    2.78504   2.78627   2.78989   2.79343   2.79346
 Alpha virt. eigenvalues --    2.79622   2.80115   2.80934   2.81291   2.81513
 Alpha virt. eigenvalues --    2.81908   2.82313   2.82447   2.82847   2.83430
 Alpha virt. eigenvalues --    2.83947   2.84308   2.84487   2.84743   2.85127
 Alpha virt. eigenvalues --    2.85414   2.86429   2.87494   2.87865   2.89013
 Alpha virt. eigenvalues --    2.89291   2.90248   2.90455   2.90913   2.91006
 Alpha virt. eigenvalues --    2.91381   2.92365   2.92479   2.93255   2.94205
 Alpha virt. eigenvalues --    2.95184   2.95455   2.95635   2.96212   2.96521
 Alpha virt. eigenvalues --    2.96966   2.97188   2.97332   2.97480   2.97938
 Alpha virt. eigenvalues --    2.98473   2.99146   2.99345   2.99557   2.99844
 Alpha virt. eigenvalues --    3.00150   3.00232   3.00459   3.01038   3.01317
 Alpha virt. eigenvalues --    3.01734   3.02000   3.02230   3.02601   3.02692
 Alpha virt. eigenvalues --    3.03126   3.03361   3.03397   3.03898   3.03952
 Alpha virt. eigenvalues --    3.04089   3.04192   3.04988   3.05244   3.05433
 Alpha virt. eigenvalues --    3.05624   3.06136   3.06321   3.07168   3.07321
 Alpha virt. eigenvalues --    3.07361   3.07391   3.08026   3.08290   3.08770
 Alpha virt. eigenvalues --    3.09161   3.09379   3.09504   3.10325   3.10468
 Alpha virt. eigenvalues --    3.10919   3.11078   3.11585   3.11696   3.11856
 Alpha virt. eigenvalues --    3.12817   3.13071   3.13487   3.13638   3.13849
 Alpha virt. eigenvalues --    3.15554   3.15667   3.15966   3.16825   3.17540
 Alpha virt. eigenvalues --    3.18227   3.18234   3.18486   3.18656   3.19017
 Alpha virt. eigenvalues --    3.20162   3.20845   3.20932   3.21144   3.21987
 Alpha virt. eigenvalues --    3.22728   3.23203   3.26864   3.27709   3.28072
 Alpha virt. eigenvalues --    3.29149   3.29505   3.30455   3.31298   3.32490
 Alpha virt. eigenvalues --    3.34222   3.38527   3.45391   3.46021   3.46527
 Alpha virt. eigenvalues --    3.49413   3.53387   3.55422   3.56295   3.59624
 Alpha virt. eigenvalues --    3.65783   3.66785   3.70748   3.74088   3.75909
 Alpha virt. eigenvalues --    3.78002   3.80299
          Condensed to atoms (all electrons):
 Mulliken charges:
               1
     1  Mg   0.971275
     2  C   -0.054652
     3  C   -0.111060
     4  C   -0.062079
     5  C   -0.100731
     6  N   -0.342080
     7  C    0.009853
     8  C   -0.031062
     9  C   -0.105688
    10  C    0.042884
    11  C    0.033347
    12  C    0.038166
    13  C    0.017079
    14  C    0.210460
    15  O   -0.246621
    16  O   -0.397209
    17  N   -0.424344
    18  C    0.177193
    19  C   -0.166919
    20  C   -0.104389
    21  C    0.092935
    22  C    0.068275
    23  C    0.050482
    24  O   -0.202120
    25  C   -0.023560
    26  N   -0.440276
    27  C    0.085723
    28  C   -0.054489
    29  C   -0.038161
    30  C    0.080411
    31  C    0.013178
    32  C   -0.032765
    33  C   -0.031629
    34  N   -0.383574
    35  C    0.102310
    36  C   -0.181541
    37  C   -0.035266
    38  C    0.102281
    39  C    0.070314
    40  C    0.092056
    41  O   -0.216426
    42  C   -0.059425
    43  C    0.267373
    44  O   -0.214167
    45  O   -0.371228
    46  C    0.141698
    47  C    0.256520
    48  C   -0.134393
    49  C   -0.175370
    50  C    0.019749
    51  C    0.012182
    52  C   -0.003454
    53  C   -0.002061
    54  C   -0.217089
    55  C    0.010979
    56  C    0.052234
    57  C   -0.074303
    58  C    0.023346
    59  C   -0.195041
    60  C   -0.019014
    61  C    0.060407
    62  C   -0.077295
    63  C    0.015058
    64  C   -0.234474
    65  C    0.001025
    66  C    0.016986
    67  H   -0.006972
    68  H    0.040451
    69  H    0.001460
    70  H    0.045756
    71  H    0.033168
    72  H    0.053552
    73  H    0.037594
    74  H    0.025584
    75  H    0.031191
    76  H    0.042877
    77  H    0.051697
    78  H    0.063389
    79  H    0.062173
    80  H    0.037882
    81  H    0.041949
    82  H    0.069267
    83  H    0.041727
    84  H    0.054209
    85  H    0.043322
    86  H    0.032085
    87  H    0.038969
    88  H    0.030299
    89  H    0.050298
    90  H    0.035842
    91  H    0.024669
    92  H    0.021825
    93  H    0.047512
    94  H    0.034917
    95  H    0.053905
    96  H    0.059960
    97  H    0.041200
    98  H    0.065743
    99  H    0.038718
   100  H    0.061699
   101  H    0.048757
   102  H    0.034014
   103  H    0.035418
   104  H    0.013689
   105  H    0.046134
   106  H    0.038769
   107  H    0.050962
   108  H    0.024342
   109  H    0.039896
   110  H    0.030914
   111  H    0.028427
   112  H    0.026006
   113  H    0.029893
   114  H    0.033386
   115  H    0.023758
   116  H    0.017737
   117  H    0.030632
   118  H    0.023398
   119  H    0.006409
   120  H    0.016079
   121  H    0.013818
   122  H    0.014600
   123  H    0.015634
   124  H    0.013891
   125  H    0.026118
   126  H    0.022819
   127  H    0.026885
   128  H    0.020607
   129  H    0.028308
   130  H    0.014384
   131  H    0.013115
   132  H    0.016402
   133  H    0.020057
   134  H    0.017314
   135  H    0.020763
   136  H    0.024765
   137  H    0.037403
   138  H    0.034148
   139  H    0.018278
   140  H    0.022330
 Sum of Mulliken charges =  -0.00000
 Mulliken charges with hydrogens summed into heavy atoms:
               1
     1  Mg   0.971275
     2  C   -0.054652
     3  C   -0.118032
     4  C   -0.021628
     5  C   -0.099271
     6  N   -0.342080
     7  C    0.009853
     8  C    0.014693
     9  C   -0.072520
    10  C    0.042884
    11  C    0.150077
    12  C    0.112233
    13  C    0.132164
    14  C    0.210460
    15  O   -0.246621
    16  O   -0.397209
    17  N   -0.424344
    18  C    0.177193
    19  C   -0.166919
    20  C   -0.104389
    21  C    0.092935
    22  C    0.210279
    23  C    0.050482
    24  O   -0.202120
    25  C    0.141643
    26  N   -0.440276
    27  C    0.085723
    28  C   -0.011167
    29  C   -0.006076
    30  C    0.080411
    31  C    0.132744
    32  C    0.027747
    33  C    0.072625
    34  N   -0.383574
    35  C    0.102310
    36  C   -0.181541
    37  C   -0.035266
    38  C    0.102281
    39  C    0.225378
    40  C    0.092056
    41  O   -0.216426
    42  C    0.006318
    43  C    0.267373
    44  O   -0.214167
    45  O   -0.371228
    46  C    0.290872
    47  C    0.325953
    48  C   -0.120705
    49  C   -0.175370
    50  C    0.155614
    51  C    0.076420
    52  C    0.055888
    53  C    0.053839
    54  C   -0.183703
    55  C    0.083106
    56  C    0.082040
    57  C   -0.044406
    58  C    0.053581
    59  C   -0.181150
    60  C    0.056808
    61  C    0.109322
    62  C   -0.049795
    63  C    0.051518
    64  C   -0.217160
    65  C    0.083956
    66  C    0.091742
 Electronic spatial extent (au):  <R**2>=         112142.0500
 Charge=             -0.0000 electrons
 Dipole moment (field-independent basis, Debye):
    X=              5.7034    Y=              3.8729    Z=             -3.6707  Tot=              7.8104
 Quadrupole moment (field-independent basis, Debye-Ang):
   XX=           -374.7429   YY=           -425.7564   ZZ=           -405.9451
   XY=            -24.4881   XZ=              5.4958   YZ=             15.4413
 Traceless Quadrupole moment (field-independent basis, Debye-Ang):
   XX=             27.4052   YY=            -23.6082   ZZ=             -3.7970
   XY=            -24.4881   XZ=              5.4958   YZ=             15.4413
 Octapole moment (field-independent basis, Debye-Ang**2):
  XXX=           -342.3808  YYY=             51.1706  ZZZ=             -0.1393  XYY=            345.1947
  XXY=             36.5996  XXZ=            -22.0045  XZZ=             -0.1787  YZZ=             -0.6804
  YYZ=            -32.3234  XYZ=            -59.9935
 Hexadecapole moment (field-independent basis, Debye-Ang**3):
 XXXX=        -114902.1153 YYYY=         -24845.4764 ZZZZ=          -9951.0274 XXXY=          -1096.5729
 XXXZ=           -458.0724 YYYX=           -550.0066 YYYZ=            157.7555 ZZZX=            141.6621
 ZZZY=              0.4970 XXYY=         -25710.3675 XXZZ=         -21961.7514 YYZZ=          -5594.2378
 XXYZ=            618.1546 YYXZ=            120.8069 ZZXY=           -111.4052
 N-N= 9.632082446353D+03 E-N=-2.625776718229D+04  KE= 2.976320156551D+03
 Leave Link  601 at Sat Apr 30 20:54:56 2022, MaxMem= 10066329600 cpu:              11.2 elap:               0.6
 (Enter /sw/apps/gaussian-16.0/g16/l9999.exe)
 1\1\GINC-BP1-COMPUTE154\SP\RwB97XD TD-FC\def2SVP\C55H74Mg1N4O6\OF15641
 \30-Apr-2022\0\\#p wB97XD/Def2SVP td=(nstates=5)\\step_851_chromophore
 _9 TDDFT with wB97XD functional\\0,1\Mg,0,35.73,0.817,29.219\C,0,33.64
 ,1.935,31.713\C,0,38.327,0.899,31.597\C,0,38.013,0.271,26.708\C,0,33.2
 64,1.468,26.855\N,0,35.987,1.424,31.377\C,0,34.941,1.846,32.189\C,0,35
 .373,1.938,33.647\C,0,36.955,1.813,33.548\C,0,37.125,1.362,32.095\C,0,
 37.875,3.016,33.869\C,0,34.638,0.976,34.666\C,0,34.92,1.184,36.181\C,0
 ,35.812,2.337,36.649\O,0,35.622,3.489,36.35\O,0,36.732,1.902,37.64\N,0
 ,37.819,0.38,29.201\C,0,38.66,0.513,30.282\C,0,40.045,0.287,29.895\C,0
 ,40.035,0.166,28.485\C,0,38.57,0.241,28.068\C,0,41.205,0.208,30.856\C,
 0,41.159,-0.143,27.471\O,0,40.943,-0.33,26.318\C,0,42.587,-0.286,27.88
 8\N,0,35.675,0.996,27.208\C,0,36.715,0.558,26.345\C,0,36.316,0.676,24.
 849\C,0,34.798,0.888,24.951\C,0,34.548,1.111,26.422\C,0,37.106,1.721,2
 4.086\C,0,33.952,-0.257,24.365\C,0,33.497,-1.332,25.397\N,0,33.76,1.51
 8,29.282\C,0,32.917,1.695,28.184\C,0,31.693,2.197,28.709\C,0,31.905,2.
 318,30.088\C,0,33.219,1.896,30.342\C,0,30.475,2.512,27.929\C,0,31.273,
 2.588,31.33\O,0,30.161,3.004,31.615\C,0,32.296,2.397,32.406\C,0,32.51,
 3.691,33.17\O,0,32.661,4.735,32.599\O,0,32.521,3.446,34.528\C,0,32.723
 ,4.624,35.368\C,0,37.614,2.922,38.242\C,0,38.421,2.397,39.364\C,0,38.0
 84,1.898,40.589\C,0,36.691,2.155,41.165\C,0,39.137,1.34,41.58\C,0,39.9
 ,0.111,41.156\C,0,40.118,-0.849,42.352\C,0,41.644,-1.003,42.598\C,0,41
 .867,-2.229,43.532\C,0,42.128,0.299,43.48\C,0,43.035,1.208,42.68\C,0,4
 4.473,1.365,43.211\C,0,45.251,2.545,42.457\C,0,46.657,2.06,42.144\C,0,
 45.257,3.902,43.158\C,0,44.976,4.958,42.119\C,0,44.581,6.335,42.783\C,
 0,45.029,7.578,42.084\C,0,45.153,8.856,42.995\C,0,44.179,7.893,40.878\
 H,0,39.112,0.782,32.347\H,0,38.778,0.451,25.95\H,0,32.46,1.752,26.171\
 H,0,35.125,2.963,33.923\H,0,37.326,0.955,34.107\H,0,37.361,3.97,33.987
 \H,0,38.62,3.007,33.073\H,0,38.368,2.965,34.84\H,0,35.093,0.002,34.485
 \H,0,33.567,1.013,34.47\H,0,35.248,0.237,36.612\H,0,33.912,1.354,36.55
 8\H,0,41.591,1.197,31.101\H,0,41.969,-0.467,30.47\H,0,40.921,-0.252,31
 .803\H,0,42.703,-1.261,28.361\H,0,42.846,0.498,28.599\H,0,43.324,-0.16
 ,27.095\H,0,36.558,-0.295,24.418\H,0,34.46,1.807,24.471\H,0,36.57,2.45
 9,23.489\H,0,37.634,1.139,23.331\H,0,37.891,2.213,24.66\H,0,34.384,-0.
 745,23.492\H,0,33.07,0.257,23.983\H,0,32.512,-1.077,25.789\H,0,34.089,
 -1.388,26.31\H,0,33.255,-2.288,24.931\H,0,30.819,3.314,27.276\H,0,29.6
 66,2.774,28.611\H,0,30.068,1.685,27.348\H,0,31.924,1.596,33.045\H,0,31
 .759,5.127,35.444\H,0,33.416,5.404,35.053\H,0,32.954,4.412,36.412\H,0,
 36.908,3.712,38.499\H,0,38.24,3.332,37.45\H,0,39.429,2.134,39.045\H,0,
 36.229,1.198,41.409\H,0,35.981,2.654,40.506\H,0,36.894,2.749,42.056\H,
 0,38.796,1.407,42.613\H,0,39.923,2.095,41.556\H,0,40.806,0.374,40.611\
 H,0,39.299,-0.432,40.426\H,0,39.666,-1.787,42.029\H,0,39.673,-0.579,43
 .31\H,0,42.233,-1.156,41.694\H,0,42.255,-3.071,42.959\H,0,40.901,-2.56
 9,43.905\H,0,42.521,-2.061,44.388\H,0,42.596,0.129,44.449\H,0,41.224,0
 .86,43.716\H,0,42.61,2.196,42.502\H,0,43.213,0.853,41.665\H,0,45.068,0
 .465,43.052\H,0,44.423,1.65,44.262\H,0,44.804,2.597,41.464\H,0,47.222,
 1.828,43.047\H,0,47.247,2.789,41.588\H,0,46.62,1.138,41.564\H,0,46.299
 ,4.073,43.427\H,0,44.553,4.041,43.978\H,0,44.138,4.632,41.502\H,0,45.7
 93,5.13,41.418\H,0,45.017,6.304,43.781\H,0,43.492,6.332,42.834\H,0,45.
 986,7.366,41.608\H,0,44.986,8.585,44.037\H,0,44.41,9.63,42.803\H,0,46.
 137,9.304,42.858\H,0,43.935,8.955,40.858\H,0,43.315,7.229,40.879\H,0,4
 4.783,7.568,40.031\\Version=ES64L-G16RevA.03\State=1-A\HF=-3007.876210
 6\RMSD=5.301e-09\PG=C01 [X(C55H74Mg1N4O6)]\\@


 Money is a good servant but a bad master.
                        -- French Proverb
 Job cpu time:       0 days 15 hours 20 minutes 16.0 seconds.
 Elapsed time:       0 days  0 hours 38 minutes 46.2 seconds.
 File lengths (MBytes):  RWF=   8929 Int=      0 D2E=      0 Chk=    390 Scr=      1
 Normal termination of Gaussian 16 at Sat Apr 30 20:54:56 2022.
