 Entering Gaussian System, Link 0=g16
 Initial command:
 /sw/apps/gaussian-16.0/g16/l1.exe "/tmp/Gau-105148.inp" -scrdir="/tmp/"
 Entering Link 1 = /sw/apps/gaussian-16.0/g16/l1.exe PID=    105149.
  
 Copyright (c) 1988,1990,1992,1993,1995,1998,2003,2009,2016,
            Gaussian, Inc.  All Rights Reserved.
  
 This is part of the Gaussian(R) 16 program.  It is based on
 the Gaussian(R) 09 system (copyright 2009, Gaussian, Inc.),
 the Gaussian(R) 03 system (copyright 2003, Gaussian, Inc.),
 the Gaussian(R) 98 system (copyright 1998, Gaussian, Inc.),
 the Gaussian(R) 94 system (copyright 1995, Gaussian, Inc.),
 the Gaussian 92(TM) system (copyright 1992, Gaussian, Inc.),
 the Gaussian 90(TM) system (copyright 1990, Gaussian, Inc.),
 the Gaussian 88(TM) system (copyright 1988, Gaussian, Inc.),
 the Gaussian 86(TM) system (copyright 1986, Carnegie Mellon
 University), and the Gaussian 82(TM) system (copyright 1983,
 Carnegie Mellon University). Gaussian is a federally registered
 trademark of Gaussian, Inc.
  
 This software contains proprietary and confidential information,
 including trade secrets, belonging to Gaussian, Inc.
  
 This software is provided under written license and may be
 used, copied, transmitted, or stored only in accord with that
 written license.
  
 The following legend is applicable only to US Government
 contracts under FAR:
  
                    RESTRICTED RIGHTS LEGEND
  
 Use, reproduction and disclosure by the US Government is
 subject to restrictions as set forth in subparagraphs (a)
 and (c) of the Commercial Computer Software - Restricted
 Rights clause in FAR 52.227-19.
  
 Gaussian, Inc.
 340 Quinnipiac St., Bldg. 40, Wallingford CT 06492
  
  
 ---------------------------------------------------------------
 Warning -- This program may not be used in any manner that
 competes with the business of Gaussian, Inc. or will provide
 assistance to any competitor of Gaussian, Inc.  The licensee
 of this program is prohibited from giving any competitor of
 Gaussian, Inc. access to this program.  By using this program,
 the user acknowledges that Gaussian, Inc. is engaged in the
 business of creating and licensing software in the field of
 computational chemistry and represents and warrants to the
 licensee that it is not a competitor of Gaussian, Inc. and that
 it will not use this program in any manner prohibited above.
 ---------------------------------------------------------------
  

 Cite this work as:
 Gaussian 16, Revision A.03,
 M. J. Frisch, G. W. Trucks, H. B. Schlegel, G. E. Scuseria, 
 M. A. Robb, J. R. Cheeseman, G. Scalmani, V. Barone, 
 G. A. Petersson, H. Nakatsuji, X. Li, M. Caricato, A. V. Marenich, 
 J. Bloino, B. G. Janesko, R. Gomperts, B. Mennucci, H. P. Hratchian, 
 J. V. Ortiz, A. F. Izmaylov, J. L. Sonnenberg, D. Williams-Young, 
 F. Ding, F. Lipparini, F. Egidi, J. Goings, B. Peng, A. Petrone, 
 T. Henderson, D. Ranasinghe, V. G. Zakrzewski, J. Gao, N. Rega, 
 G. Zheng, W. Liang, M. Hada, M. Ehara, K. Toyota, R. Fukuda, 
 J. Hasegawa, M. Ishida, T. Nakajima, Y. Honda, O. Kitao, H. Nakai, 
 T. Vreven, K. Throssell, J. A. Montgomery, Jr., J. E. Peralta, 
 F. Ogliaro, M. J. Bearpark, J. J. Heyd, E. N. Brothers, K. N. Kudin, 
 V. N. Staroverov, T. A. Keith, R. Kobayashi, J. Normand, 
 K. Raghavachari, A. P. Rendell, J. C. Burant, S. S. Iyengar, 
 J. Tomasi, M. Cossi, J. M. Millam, M. Klene, C. Adamo, R. Cammi, 
 J. W. Ochterski, R. L. Martin, K. Morokuma, O. Farkas, 
 J. B. Foresman, and D. J. Fox, Gaussian, Inc., Wallingford CT, 2016.
 
 ******************************************
 Gaussian 16:  ES64L-G16RevA.03 25-Dec-2016
                27-Apr-2022 
 ******************************************
 %nproc=24
 Will use up to   24 processors via shared memory.
 %mem=75GB
 --------------------------------
 #p wB97XD/Def2SVP td=(nstates=5)
 --------------------------------
 1/38=1,172=1/1;
 2/12=2,17=6,18=5,40=1/2;
 3/5=43,7=101,11=9,25=1,30=1,74=-58/1,2,3,8;
 4//1;
 5/5=2,38=5/2;
 8/6=1,10=1,108=5/1;
 9/41=5,42=1,70=2/14;
 6/7=2,8=2,9=2,10=2/1;
 99/5=1,9=1/99;
 Leave Link    1 at Wed Apr 27 21:43:03 2022, MaxMem= 10066329600 cpu:               0.9 elap:               0.0
 (Enter /sw/apps/gaussian-16.0/g16/l101.exe)
 ----------------------------------------------------
 step_1301_chromophore_4 TDDFT with wB97XD functional
 ----------------------------------------------------
 Symbolic Z-matrix:
 Charge =  0 Multiplicity = 1
 Mg                    9.557     3.47      27.111 
 C                     10.729    1.798     29.925 
 C                     8.291     5.926     29.128 
 C                     8.028     4.892     24.422 
 C                     10.622    0.806     25.132 
 N                     9.475     3.752     29.253 
 C                     10.051    3.013     30.241 
 C                     9.702     3.544     31.669 
 C                     8.79      4.782     31.316 
 C                     8.948     4.895     29.786 
 C                     7.359     4.628     31.798 
 C                     10.961    3.842     32.481 
 C                     10.885    4.675     33.74 
 C                     11.864    4.44      34.826 
 O                     12.949    4.947     34.941 
 O                     11.299    3.707     35.863 
 N                     8.291     5.201     26.817 
 C                     7.906     6.055     27.736 
 C                     7.214     7.109     27.17 
 C                     7.217     6.899     25.794 
 C                     7.849     5.632     25.615 
 C                     6.692     8.197     28. 
 C                     6.778     7.804     24.721 
 O                     6.789     7.445     23.594 
 C                     6.217     9.135     25.006 
 N                     9.105     2.707     25.123 
 C                     8.584     3.561     24.182 
 C                     8.665     3.003     22.729 
 C                     9.494     1.689     22.918 
 C                     9.779     1.72      24.51 
 C                     7.295     2.773     22.046 
 C                     10.782    1.498     22.126 
 C                     10.869    0.119     21.461 
 N                     10.507    1.686     27.385 
 C                     10.938    0.74      26.484 
 C                     11.639   -0.24      27.222 
 C                     11.636    0.082     28.622 
 C                     10.878    1.298     28.631 
 C                     12.306   -1.458     26.604 
 C                     12.003   -0.338     29.923 
 O                     12.588   -1.334     30.344 
 C                     11.439    0.818     30.873 
 C                     10.486    0.256     31.944 
 O                     9.342    -0.136     31.852 
 O                     11.259    0.067     33.107 
 C                     10.506   -0.472     34.285 
 C                     12.14     3.466     37.109 
 C                     11.718    4.518     38.114 
 C                     12.062    4.514     39.413 
 C                     12.752    3.481     40.265 
 C                     11.772    5.801     40.19 
 C                     10.528    5.853     41.094 
 C                     9.644     7.108     40.677 
 C                     9.641     8.219     41.783 
 C                     8.556     7.9       42.894 
 C                     9.502     9.614     41.152 
 C                     10.716    10.524    41.373 
 C                     10.438    11.647    42.421 
 C                     11.343    11.507    43.68 
 C                     12.465    12.618    43.622 
 C                     10.554    11.513    44.938 
 C                     11.39     11.248    46.181 
 C                     10.55     10.761    47.345 
 C                     10.4      9.19      47.372 
 C                     8.931     8.814     46.942 
 C                     10.827    8.604     48.752 
 H                     7.861     6.661     29.812 
 H                     7.813     5.357     23.457 
 H                     10.966   -0.052     24.55 
 H                     9.245     2.744     32.253 
 H                     9.064     5.718     31.803 
 H                     6.631     4.692     30.989 
 H                     7.111     5.435     32.488 
 H                     7.156     3.661     32.258 
 H                     11.724    4.285     31.842 
 H                     11.248    2.825     32.748 
 H                     9.898     4.851     34.169 
 H                     11.168    5.651     33.344 
 H                     7.337     9.031     27.722 
 H                     6.746     8.056     29.079 
 H                     5.683     8.483     27.704 
 H                     6.914     9.793     25.525 
 H                     5.311     8.911     25.569 
 H                     5.909     9.577     24.058 
 H                     9.277     3.754     22.231 
 H                     8.951     0.785     22.639 
 H                     7.145     3.483     21.233 
 H                     6.461     2.959     22.722 
 H                     7.278     1.742     21.692 
 H                     11.593    1.705     22.824 
 H                     10.659    2.267     21.363 
 H                     10.489   -0.608     22.179 
 H                     11.91    -0.184     21.352 
 H                     10.372    0.036     20.494 
 H                     12.96    -1.2       25.771 
 H                     11.637   -2.225     26.215 
 H                     12.917   -1.966     27.35 
 H                     12.262    1.246     31.445 
 H                     10.097    0.404     34.788 
 H                     11.26    -0.887     34.954 
 H                     9.772    -1.267     34.155 
 H                     13.229    3.499     37.066 
 H                     11.895    2.496     37.541 
 H                     11.073    5.369     37.898 
 H                     12.169    3.229     41.15 
 H                     13.789    3.711     40.512 
 H                     12.699    2.64      39.574 
 H                     11.804    6.66      39.519 
 H                     12.599    5.943     40.885 
 H                     10.953    5.844     42.098 
 H                     9.902     4.969     41.219 
 H                     8.606     6.778     40.635 
 H                     9.777     7.429     39.644 
 H                     10.594    8.192     42.312 
 H                     9.059     7.417     43.732 
 H                     7.768     7.259     42.5 
 H                     7.996     8.8       43.143 
 H                     8.564     10.026    41.524 
 H                     9.354     9.603     40.072 
 H                     10.781    11.026    40.408 
 H                     11.671    10.076    41.648 
 H                     9.378     11.758    42.648 
 H                     10.53     12.62     41.939 
 H                     11.9      10.57     43.682 
 H                     13.502    12.395    43.872 
 H                     12.358    13.437    44.332 
 H                     12.496    13.074    42.632 
 H                     9.963     10.597    44.944 
 H                     9.897     12.36     45.133 
 H                     11.886    12.16     46.512 
 H                     12.213    10.583    45.921 
 H                     9.597     11.29     47.347 
 H                     11.097    11.006    48.255 
 H                     11.071    8.715     46.656 
 H                     8.265     9.371     47.601 
 H                     8.788     7.767     47.208 
 H                     8.866     8.973     45.866 
 H                     11.91     8.557     48.867 
 H                     10.318    7.743     49.184 
 H                     10.573    9.416     49.434 
 
 ITRead=  0  0  0  0  0  0  0  0  0  0  0  0  0  0  0  0  0  0  0  0
 ITRead=  0  0  0  0  0  0  0  0  0  0  0  0  0  0  0  0  0  0  0  0
 ITRead=  0  0  0  0  0  0  0  0  0  0  0  0  0  0  0  0  0  0  0  0
 ITRead=  0  0  0  0  0  0  0  0  0  0  0  0  0  0  0  0  0  0  0  0
 ITRead=  0  0  0  0  0  0  0  0  0  0  0  0  0  0  0  0  0  0  0  0
 ITRead=  0  0  0  0  0  0  0  0  0  0  0  0  0  0  0  0  0  0  0  0
 ITRead=  0  0  0  0  0  0  0  0  0  0  0  0  0  0  0  0  0  0  0  0
 MicOpt= -1 -1 -1 -1 -1 -1 -1 -1 -1 -1 -1 -1 -1 -1 -1 -1 -1 -1 -1 -1
 MicOpt= -1 -1 -1 -1 -1 -1 -1 -1 -1 -1 -1 -1 -1 -1 -1 -1 -1 -1 -1 -1
 MicOpt= -1 -1 -1 -1 -1 -1 -1 -1 -1 -1 -1 -1 -1 -1 -1 -1 -1 -1 -1 -1
 MicOpt= -1 -1 -1 -1 -1 -1 -1 -1 -1 -1 -1 -1 -1 -1 -1 -1 -1 -1 -1 -1
 MicOpt= -1 -1 -1 -1 -1 -1 -1 -1 -1 -1 -1 -1 -1 -1 -1 -1 -1 -1 -1 -1
 MicOpt= -1 -1 -1 -1 -1 -1 -1 -1 -1 -1 -1 -1 -1 -1 -1 -1 -1 -1 -1 -1
 MicOpt= -1 -1 -1 -1 -1 -1 -1 -1 -1 -1 -1 -1 -1 -1 -1 -1 -1 -1 -1 -1
 NAtoms=    140 NQM=      140 NQMF=       0 NMMI=      0 NMMIF=      0
                NMic=       0 NMicF=      0.
                    Isotopes and Nuclear Properties:
 (Nuclear quadrupole moments (NQMom) in fm**2, nuclear magnetic moments (NMagM)
  in nuclear magnetons)

  Atom         1           2           3           4           5           6           7           8           9          10
 IAtWgt=          24          12          12          12          12          14          12          12          12          12
 AtmWgt=  23.9850450  12.0000000  12.0000000  12.0000000  12.0000000  14.0030740  12.0000000  12.0000000  12.0000000  12.0000000
 NucSpn=           0           0           0           0           0           2           0           0           0           0
 AtZEff=  -0.0000000  -0.0000000  -0.0000000  -0.0000000  -0.0000000  -0.0000000  -0.0000000  -0.0000000  -0.0000000  -0.0000000
 NQMom=    0.0000000   0.0000000   0.0000000   0.0000000   0.0000000   2.0440000   0.0000000   0.0000000   0.0000000   0.0000000
 NMagM=    0.0000000   0.0000000   0.0000000   0.0000000   0.0000000   0.4037610   0.0000000   0.0000000   0.0000000   0.0000000
 AtZNuc=  12.0000000   6.0000000   6.0000000   6.0000000   6.0000000   7.0000000   6.0000000   6.0000000   6.0000000   6.0000000

  Atom        11          12          13          14          15          16          17          18          19          20
 IAtWgt=          12          12          12          12          16          16          14          12          12          12
 AtmWgt=  12.0000000  12.0000000  12.0000000  12.0000000  15.9949146  15.9949146  14.0030740  12.0000000  12.0000000  12.0000000
 NucSpn=           0           0           0           0           0           0           2           0           0           0
 AtZEff=  -0.0000000  -0.0000000  -0.0000000  -0.0000000  -0.0000000  -0.0000000  -0.0000000  -0.0000000  -0.0000000  -0.0000000
 NQMom=    0.0000000   0.0000000   0.0000000   0.0000000   0.0000000   0.0000000   2.0440000   0.0000000   0.0000000   0.0000000
 NMagM=    0.0000000   0.0000000   0.0000000   0.0000000   0.0000000   0.0000000   0.4037610   0.0000000   0.0000000   0.0000000
 AtZNuc=   6.0000000   6.0000000   6.0000000   6.0000000   8.0000000   8.0000000   7.0000000   6.0000000   6.0000000   6.0000000

  Atom        21          22          23          24          25          26          27          28          29          30
 IAtWgt=          12          12          12          16          12          14          12          12          12          12
 AtmWgt=  12.0000000  12.0000000  12.0000000  15.9949146  12.0000000  14.0030740  12.0000000  12.0000000  12.0000000  12.0000000
 NucSpn=           0           0           0           0           0           2           0           0           0           0
 AtZEff=  -0.0000000  -0.0000000  -0.0000000  -0.0000000  -0.0000000  -0.0000000  -0.0000000  -0.0000000  -0.0000000  -0.0000000
 NQMom=    0.0000000   0.0000000   0.0000000   0.0000000   0.0000000   2.0440000   0.0000000   0.0000000   0.0000000   0.0000000
 NMagM=    0.0000000   0.0000000   0.0000000   0.0000000   0.0000000   0.4037610   0.0000000   0.0000000   0.0000000   0.0000000
 AtZNuc=   6.0000000   6.0000000   6.0000000   8.0000000   6.0000000   7.0000000   6.0000000   6.0000000   6.0000000   6.0000000

  Atom        31          32          33          34          35          36          37          38          39          40
 IAtWgt=          12          12          12          14          12          12          12          12          12          12
 AtmWgt=  12.0000000  12.0000000  12.0000000  14.0030740  12.0000000  12.0000000  12.0000000  12.0000000  12.0000000  12.0000000
 NucSpn=           0           0           0           2           0           0           0           0           0           0
 AtZEff=  -0.0000000  -0.0000000  -0.0000000  -0.0000000  -0.0000000  -0.0000000  -0.0000000  -0.0000000  -0.0000000  -0.0000000
 NQMom=    0.0000000   0.0000000   0.0000000   2.0440000   0.0000000   0.0000000   0.0000000   0.0000000   0.0000000   0.0000000
 NMagM=    0.0000000   0.0000000   0.0000000   0.4037610   0.0000000   0.0000000   0.0000000   0.0000000   0.0000000   0.0000000
 AtZNuc=   6.0000000   6.0000000   6.0000000   7.0000000   6.0000000   6.0000000   6.0000000   6.0000000   6.0000000   6.0000000

  Atom        41          42          43          44          45          46          47          48          49          50
 IAtWgt=          16          12          12          16          16          12          12          12          12          12
 AtmWgt=  15.9949146  12.0000000  12.0000000  15.9949146  15.9949146  12.0000000  12.0000000  12.0000000  12.0000000  12.0000000
 NucSpn=           0           0           0           0           0           0           0           0           0           0
 AtZEff=  -0.0000000  -0.0000000  -0.0000000  -0.0000000  -0.0000000  -0.0000000  -0.0000000  -0.0000000  -0.0000000  -0.0000000
 NQMom=    0.0000000   0.0000000   0.0000000   0.0000000   0.0000000   0.0000000   0.0000000   0.0000000   0.0000000   0.0000000
 NMagM=    0.0000000   0.0000000   0.0000000   0.0000000   0.0000000   0.0000000   0.0000000   0.0000000   0.0000000   0.0000000
 AtZNuc=   8.0000000   6.0000000   6.0000000   8.0000000   8.0000000   6.0000000   6.0000000   6.0000000   6.0000000   6.0000000

  Atom        51          52          53          54          55          56          57          58          59          60
 IAtWgt=          12          12          12          12          12          12          12          12          12          12
 AtmWgt=  12.0000000  12.0000000  12.0000000  12.0000000  12.0000000  12.0000000  12.0000000  12.0000000  12.0000000  12.0000000
 NucSpn=           0           0           0           0           0           0           0           0           0           0
 AtZEff=  -0.0000000  -0.0000000  -0.0000000  -0.0000000  -0.0000000  -0.0000000  -0.0000000  -0.0000000  -0.0000000  -0.0000000
 NQMom=    0.0000000   0.0000000   0.0000000   0.0000000   0.0000000   0.0000000   0.0000000   0.0000000   0.0000000   0.0000000
 NMagM=    0.0000000   0.0000000   0.0000000   0.0000000   0.0000000   0.0000000   0.0000000   0.0000000   0.0000000   0.0000000
 AtZNuc=   6.0000000   6.0000000   6.0000000   6.0000000   6.0000000   6.0000000   6.0000000   6.0000000   6.0000000   6.0000000

  Atom        61          62          63          64          65          66          67          68          69          70
 IAtWgt=          12          12          12          12          12          12           1           1           1           1
 AtmWgt=  12.0000000  12.0000000  12.0000000  12.0000000  12.0000000  12.0000000   1.0078250   1.0078250   1.0078250   1.0078250
 NucSpn=           0           0           0           0           0           0           1           1           1           1
 AtZEff=  -0.0000000  -0.0000000  -0.0000000  -0.0000000  -0.0000000  -0.0000000  -0.0000000  -0.0000000  -0.0000000  -0.0000000
 NQMom=    0.0000000   0.0000000   0.0000000   0.0000000   0.0000000   0.0000000   0.0000000   0.0000000   0.0000000   0.0000000
 NMagM=    0.0000000   0.0000000   0.0000000   0.0000000   0.0000000   0.0000000   2.7928460   2.7928460   2.7928460   2.7928460
 AtZNuc=   6.0000000   6.0000000   6.0000000   6.0000000   6.0000000   6.0000000   1.0000000   1.0000000   1.0000000   1.0000000

  Atom        71          72          73          74          75          76          77          78          79          80
 IAtWgt=           1           1           1           1           1           1           1           1           1           1
 AtmWgt=   1.0078250   1.0078250   1.0078250   1.0078250   1.0078250   1.0078250   1.0078250   1.0078250   1.0078250   1.0078250
 NucSpn=           1           1           1           1           1           1           1           1           1           1
 AtZEff=  -0.0000000  -0.0000000  -0.0000000  -0.0000000  -0.0000000  -0.0000000  -0.0000000  -0.0000000  -0.0000000  -0.0000000
 NQMom=    0.0000000   0.0000000   0.0000000   0.0000000   0.0000000   0.0000000   0.0000000   0.0000000   0.0000000   0.0000000
 NMagM=    2.7928460   2.7928460   2.7928460   2.7928460   2.7928460   2.7928460   2.7928460   2.7928460   2.7928460   2.7928460
 AtZNuc=   1.0000000   1.0000000   1.0000000   1.0000000   1.0000000   1.0000000   1.0000000   1.0000000   1.0000000   1.0000000

  Atom        81          82          83          84          85          86          87          88          89          90
 IAtWgt=           1           1           1           1           1           1           1           1           1           1
 AtmWgt=   1.0078250   1.0078250   1.0078250   1.0078250   1.0078250   1.0078250   1.0078250   1.0078250   1.0078250   1.0078250
 NucSpn=           1           1           1           1           1           1           1           1           1           1
 AtZEff=  -0.0000000  -0.0000000  -0.0000000  -0.0000000  -0.0000000  -0.0000000  -0.0000000  -0.0000000  -0.0000000  -0.0000000
 NQMom=    0.0000000   0.0000000   0.0000000   0.0000000   0.0000000   0.0000000   0.0000000   0.0000000   0.0000000   0.0000000
 NMagM=    2.7928460   2.7928460   2.7928460   2.7928460   2.7928460   2.7928460   2.7928460   2.7928460   2.7928460   2.7928460
 AtZNuc=   1.0000000   1.0000000   1.0000000   1.0000000   1.0000000   1.0000000   1.0000000   1.0000000   1.0000000   1.0000000

  Atom        91          92          93          94          95          96          97          98          99         100
 IAtWgt=           1           1           1           1           1           1           1           1           1           1
 AtmWgt=   1.0078250   1.0078250   1.0078250   1.0078250   1.0078250   1.0078250   1.0078250   1.0078250   1.0078250   1.0078250
 NucSpn=           1           1           1           1           1           1           1           1           1           1
 AtZEff=  -0.0000000  -0.0000000  -0.0000000  -0.0000000  -0.0000000  -0.0000000  -0.0000000  -0.0000000  -0.0000000  -0.0000000
 NQMom=    0.0000000   0.0000000   0.0000000   0.0000000   0.0000000   0.0000000   0.0000000   0.0000000   0.0000000   0.0000000
 NMagM=    2.7928460   2.7928460   2.7928460   2.7928460   2.7928460   2.7928460   2.7928460   2.7928460   2.7928460   2.7928460
 AtZNuc=   1.0000000   1.0000000   1.0000000   1.0000000   1.0000000   1.0000000   1.0000000   1.0000000   1.0000000   1.0000000

  Atom       101         102         103         104         105         106         107         108         109         110
 IAtWgt=           1           1           1           1           1           1           1           1           1           1
 AtmWgt=   1.0078250   1.0078250   1.0078250   1.0078250   1.0078250   1.0078250   1.0078250   1.0078250   1.0078250   1.0078250
 NucSpn=           1           1           1           1           1           1           1           1           1           1
 AtZEff=  -0.0000000  -0.0000000  -0.0000000  -0.0000000  -0.0000000  -0.0000000  -0.0000000  -0.0000000  -0.0000000  -0.0000000
 NQMom=    0.0000000   0.0000000   0.0000000   0.0000000   0.0000000   0.0000000   0.0000000   0.0000000   0.0000000   0.0000000
 NMagM=    2.7928460   2.7928460   2.7928460   2.7928460   2.7928460   2.7928460   2.7928460   2.7928460   2.7928460   2.7928460
 AtZNuc=   1.0000000   1.0000000   1.0000000   1.0000000   1.0000000   1.0000000   1.0000000   1.0000000   1.0000000   1.0000000

  Atom       111         112         113         114         115         116         117         118         119         120
 IAtWgt=           1           1           1           1           1           1           1           1           1           1
 AtmWgt=   1.0078250   1.0078250   1.0078250   1.0078250   1.0078250   1.0078250   1.0078250   1.0078250   1.0078250   1.0078250
 NucSpn=           1           1           1           1           1           1           1           1           1           1
 AtZEff=  -0.0000000  -0.0000000  -0.0000000  -0.0000000  -0.0000000  -0.0000000  -0.0000000  -0.0000000  -0.0000000  -0.0000000
 NQMom=    0.0000000   0.0000000   0.0000000   0.0000000   0.0000000   0.0000000   0.0000000   0.0000000   0.0000000   0.0000000
 NMagM=    2.7928460   2.7928460   2.7928460   2.7928460   2.7928460   2.7928460   2.7928460   2.7928460   2.7928460   2.7928460
 AtZNuc=   1.0000000   1.0000000   1.0000000   1.0000000   1.0000000   1.0000000   1.0000000   1.0000000   1.0000000   1.0000000

  Atom       121         122         123         124         125         126         127         128         129         130
 IAtWgt=           1           1           1           1           1           1           1           1           1           1
 AtmWgt=   1.0078250   1.0078250   1.0078250   1.0078250   1.0078250   1.0078250   1.0078250   1.0078250   1.0078250   1.0078250
 NucSpn=           1           1           1           1           1           1           1           1           1           1
 AtZEff=  -0.0000000  -0.0000000  -0.0000000  -0.0000000  -0.0000000  -0.0000000  -0.0000000  -0.0000000  -0.0000000  -0.0000000
 NQMom=    0.0000000   0.0000000   0.0000000   0.0000000   0.0000000   0.0000000   0.0000000   0.0000000   0.0000000   0.0000000
 NMagM=    2.7928460   2.7928460   2.7928460   2.7928460   2.7928460   2.7928460   2.7928460   2.7928460   2.7928460   2.7928460
 AtZNuc=   1.0000000   1.0000000   1.0000000   1.0000000   1.0000000   1.0000000   1.0000000   1.0000000   1.0000000   1.0000000

  Atom       131         132         133         134         135         136         137         138         139         140
 IAtWgt=           1           1           1           1           1           1           1           1           1           1
 AtmWgt=   1.0078250   1.0078250   1.0078250   1.0078250   1.0078250   1.0078250   1.0078250   1.0078250   1.0078250   1.0078250
 NucSpn=           1           1           1           1           1           1           1           1           1           1
 AtZEff=  -0.0000000  -0.0000000  -0.0000000  -0.0000000  -0.0000000  -0.0000000  -0.0000000  -0.0000000  -0.0000000  -0.0000000
 NQMom=    0.0000000   0.0000000   0.0000000   0.0000000   0.0000000   0.0000000   0.0000000   0.0000000   0.0000000   0.0000000
 NMagM=    2.7928460   2.7928460   2.7928460   2.7928460   2.7928460   2.7928460   2.7928460   2.7928460   2.7928460   2.7928460
 AtZNuc=   1.0000000   1.0000000   1.0000000   1.0000000   1.0000000   1.0000000   1.0000000   1.0000000   1.0000000   1.0000000
 Leave Link  101 at Wed Apr 27 21:43:03 2022, MaxMem= 10066329600 cpu:               3.5 elap:               0.2
 (Enter /sw/apps/gaussian-16.0/g16/l202.exe)
 Stoichiometry    C55H74MgN4O6
 Framework group  C1[X(C55H74MgN4O6)]
 Deg. of freedom   414
 Full point group                 C1      NOp   1
 Largest Abelian subgroup         C1      NOp   1
 Largest concise Abelian subgroup C1      NOp   1
                         Standard orientation:                         
 ---------------------------------------------------------------------
 Center     Atomic      Atomic             Coordinates (Angstroms)
 Number     Number       Type             X           Y           Z
 ---------------------------------------------------------------------
      1         12           0        6.007412    0.531068    0.214245
      2          6           0        3.797500   -2.148458    0.058695
      3          6           0        3.407451    2.677124   -0.366811
      4          6           0        8.203894    3.116281   -0.073487
      5          6           0        8.651838   -1.717804    0.525930
      6          7           0        3.898515    0.255242   -0.174194
      7          6           0        3.159447   -0.887849   -0.140093
      8          6           0        1.664956   -0.648322   -0.530055
      9          6           0        1.668437    0.906462   -0.797701
     10          6           0        3.067647    1.332252   -0.308267
     11          6           0        1.362471    1.266165   -2.240198
     12          6           0        0.713926   -1.144573    0.557376
     13          6           0       -0.736198   -0.718148    0.564145
     14          6           0       -1.756779   -1.625075    1.137696
     15          8           0       -2.103270   -1.685080    2.288279
     16          8           0       -2.463852   -2.283210    0.138301
     17          7           0        5.822977    2.649341   -0.191290
     18          6           0        4.709292    3.315354   -0.386826
     19          6           0        4.957263    4.671373   -0.486119
     20          6           0        6.324679    4.845077   -0.292508
     21          6           0        6.853024    3.523901   -0.182515
     22          6           0        3.862808    5.621764   -0.696008
     23          6           0        7.081589    6.094492   -0.121848
     24          8           0        8.260523    6.071493   -0.028480
     25          6           0        6.427665    7.412865   -0.164056
     26          7           0        8.161490    0.581864   -0.095566
     27          6           0        8.815631    1.788408   -0.044696
     28          6           0       10.361198    1.647699    0.098680
     29          6           0       10.542791    0.105554    0.294569
     30          6           0        9.007956   -0.403075    0.247371
     31          6           0       11.176429    2.217198   -1.087642
     32          6           0       11.261747   -0.410226    1.535440
     33          6           0       12.323504   -1.467053    1.207991
     34          7           0        6.249853   -1.491431    0.318902
     35          6           0        7.372593   -2.261455    0.516377
     36          6           0        6.937826   -3.601975    0.618513
     37          6           0        5.512048   -3.685120    0.463800
     38          6           0        5.169509   -2.309590    0.254313
     39          6           0        7.863090   -4.782195    0.866105
     40          6           0        4.390186   -4.543451    0.372238
     41          8           0        4.268333   -5.765610    0.426656
     42          6           0        3.163588   -3.547262    0.127295
     43          6           0        2.397188   -3.898986   -1.161121
     44          8           0        2.689455   -3.720107   -2.324498
     45          8           0        1.303651   -4.697201   -0.770163
     46          6           0        0.414715   -5.143092   -1.890961
     47          6           0       -3.624066   -3.177208    0.553690
     48          6           0       -4.879514   -2.346418    0.385009
     49          6           0       -6.130375   -2.834853    0.435311
     50          6           0       -6.655251   -4.245951    0.484296
     51          6           0       -7.254428   -1.798916    0.522137
     52          6           0       -8.038077   -1.451245   -0.755547
     53          6           0       -7.981480    0.122721   -0.978698
     54          6           0       -9.380657    0.797483   -0.767590
     55          6           0      -10.252990    0.702337   -2.087927
     56          6           0       -9.218742    2.226307   -0.223758
     57          6           0       -9.802872    2.431384    1.178908
     58          6           0      -11.131707    3.250232    1.158880
     59          6           0      -12.340882    2.412514    1.668616
     60          6           0      -12.718827    2.903251    3.122200
     61          6           0      -13.476508    2.432353    0.712017
     62          6           0      -14.625890    1.520553    1.114150
     63          6           0      -15.512038    1.160771   -0.061845
     64          6           0      -15.026610   -0.138928   -0.814449
     65          6           0      -14.397075    0.281607   -2.196864
     66          6           0      -16.174494   -1.187055   -0.932416
     67          1           0        2.556981    3.320613   -0.602616
     68          1           0        8.983113    3.860849    0.105705
     69          1           0        9.451112   -2.456878    0.616230
     70          1           0        1.399853   -1.293613   -1.368639
     71          1           0        0.890668    1.470808   -0.282987
     72          1           0        2.158022    1.845247   -2.709584
     73          1           0        0.470598    1.891760   -2.285452
     74          1           0        1.249920    0.399068   -2.890870
     75          1           0        1.123220   -0.925577    1.542901
     76          1           0        0.765292   -2.216365    0.366140
     77          1           0       -1.128396   -0.251208   -0.339920
     78          1           0       -0.692638    0.105618    1.277583
     79          1           0        3.814600    6.136023    0.264241
     80          1           0        2.883942    5.197110   -0.916298
     81          1           0        4.122464    6.381058   -1.433263
     82          1           0        5.678455    7.546142    0.616364
     83          1           0        6.030512    7.464506   -1.177754
     84          1           0        7.204679    8.173296   -0.080835
     85          1           0       10.549715    2.161474    1.040511
     86          1           0       11.132658   -0.368922   -0.490820
     87          1           0       11.729353    3.106032   -0.784628
     88          1           0       10.536799    2.562758   -1.899177
     89          1           0       11.840662    1.425388   -1.434625
     90          1           0       10.478968   -0.762215    2.207105
     91          1           0       11.746715    0.504982    1.875821
     92          1           0       11.903064   -2.117215    0.440545
     93          1           0       12.449861   -2.149933    2.047681
     94          1           0       13.298995   -1.073761    0.920369
     95          1           0        8.522364   -4.625750    1.719951
     96          1           0        8.522162   -5.055417    0.042609
     97          1           0        7.276745   -5.678104    1.069695
     98          1           0        2.428678   -3.680832    0.920872
     99          1           0       -0.311044   -4.339945   -2.017041
    100          1           0       -0.138519   -6.000415   -1.507255
    101          1           0        0.842442   -5.479546   -2.835170
    102          1           0       -3.670500   -3.607576    1.554433
    103          1           0       -3.706240   -4.021516   -0.130371
    104          1           0       -4.901043   -1.276757    0.179476
    105          1           0       -7.370583   -4.441327   -0.313667
    106          1           0       -7.034915   -4.558779    1.457575
    107          1           0       -5.730439   -4.770751    0.245801
    108          1           0       -6.895994   -0.896674    1.018755
    109          1           0       -8.014792   -2.213198    1.183450
    110          1           0       -9.014177   -1.902541   -0.575871
    111          1           0       -7.830647   -1.977273   -1.687869
    112          1           0       -7.763680    0.296469   -2.032493
    113          1           0       -7.116581    0.610280   -0.529194
    114          1           0       -9.939129    0.225794   -0.025930
    115          1           0      -10.926672   -0.149188   -1.989956
    116          1           0       -9.620959    0.590645   -2.968337
    117          1           0      -10.735669    1.657193   -2.290097
    118          1           0       -9.635675    2.890784   -0.980468
    119          1           0       -8.183905    2.560454   -0.147053
    120          1           0       -9.055125    3.087073    1.624331
    121          1           0       -9.987278    1.560859    1.808618
    122          1           0      -11.307117    3.744843    0.203871
    123          1           0      -10.992466    4.176121    1.716427
    124          1           0      -12.083477    1.361962    1.803910
    125          1           0      -12.957035    2.198224    3.918311
    126          1           0      -13.643342    3.473177    3.204462
    127          1           0      -11.930405    3.540343    3.524071
    128          1           0      -13.148855    1.894396   -0.177712
    129          1           0      -13.884439    3.397268    0.412660
    130          1           0      -15.264156    2.008757    1.850081
    131          1           0      -14.226159    0.658090    1.646620
    132          1           0      -15.615422    2.028666   -0.713094
    133          1           0      -16.488763    0.900642    0.345187
    134          1           0      -14.245652   -0.653488   -0.254221
    135          1           0      -15.150621    0.879629   -2.709334
    136          1           0      -14.304974   -0.630256   -2.786303
    137          1           0      -13.426005    0.725785   -1.980046
    138          1           0      -16.344381   -1.724888    0.000427
    139          1           0      -16.272825   -1.823235   -1.811411
    140          1           0      -17.059975   -0.552477   -0.979531
 ---------------------------------------------------------------------
 Rotational constants (GHZ):           0.0538138           0.0084461           0.0075184
 Leave Link  202 at Wed Apr 27 21:43:03 2022, MaxMem= 10066329600 cpu:               0.3 elap:               0.0
 (Enter /sw/apps/gaussian-16.0/g16/l301.exe)
 Standard basis: def2SVP (5D, 7F)
 Ernie: Thresh=  0.10000D-02 Tol=  0.10000D-05 Strict=F.
 There are  1364 symmetry adapted cartesian basis functions of A   symmetry.
 There are  1298 symmetry adapted basis functions of A   symmetry.
  1298 basis functions,  2180 primitive gaussians,  1364 cartesian basis functions
   246 alpha electrons      246 beta electrons
       nuclear repulsion energy      9383.2975540927 Hartrees.
 IExCor= 4639 DFT=T Ex+Corr=wB97XD ExCW=0 ScaHFX=  1.000000
 ScaDFX=  1.000000  1.000000  1.000000  1.000000 ScalE2=  1.000000  1.000000
 IRadAn=      5 IRanWt=     -1 IRanGd=            0 ICorTp=0 IEmpDi=121
 HFx  wShort=  0.000000 wLong=  0.200000 cFull=  0.222036 cShort=  0.000000 cLong=  0.777964
 DFx  wShort=  0.000000 wLong=  0.200000 cFull=  0.000000 cShort=  0.000000 cLong=  1.000000
 NAtoms=  140 NActive=  140 NUniq=  140 SFac= 1.00D+00 NAtFMM=   60 NAOKFM=T Big=T
 Integral buffers will be    131072 words long.
 Raffenetti 1 integral format.
 Two-electron integral symmetry is turned on.
 R6Disp:  Grimme-D2 Dispersion energy=       -0.1340136578 Hartrees.
 Nuclear repulsion after empirical dispersion term =     9383.1635404348 Hartrees.
 Leave Link  301 at Wed Apr 27 21:43:03 2022, MaxMem= 10066329600 cpu:               1.6 elap:               0.1
 (Enter /sw/apps/gaussian-16.0/g16/l302.exe)
 NPDir=0 NMtPBC=     1 NCelOv=     1 NCel=       1 NClECP=     1 NCelD=      1
         NCelK=      1 NCelE2=     1 NClLst=     1 CellRange=     0.0.
 One-electron integrals computed using PRISM.
 One-electron integral symmetry used in STVInt
   1 Symmetry operations used in ECPInt.
 ECPInt:  NShTT=  192510 NPrTT=  683786 LenC2=   90672 LenP2D=  200838.
 LDataN:  DoStor=T MaxTD1= 4 Len=   56
 NBasis=  1298 RedAO= T EigKep=  2.78D-04  NBF=  1298
 NBsUse=  1298 1.00D-06 EigRej= -1.00D+00 NBFU=  1298
 Precomputing XC quadrature grid using
 IXCGrd= 4 IRadAn=           5 IRanWt=          -1 IRanGd=           0 AccXCQ= 0.00D+00.
 Generated NRdTot=       0 NPtTot=           0 NUsed=           0 NTot=          32
 NSgBfM=   964   952   953   961   964 MxSgAt=   140 MxSgA2=   140.
 Leave Link  302 at Wed Apr 27 21:43:07 2022, MaxMem= 10066329600 cpu:              98.2 elap:               4.1
 (Enter /sw/apps/gaussian-16.0/g16/l303.exe)
 DipDrv:  MaxL=1.
 Leave Link  303 at Wed Apr 27 21:43:08 2022, MaxMem= 10066329600 cpu:               6.6 elap:               0.3
 (Enter /sw/apps/gaussian-16.0/g16/l308.exe)
 Leave Link  308 at Wed Apr 27 21:43:08 2022, MaxMem= 10066329600 cpu:              11.6 elap:               0.6
 (Enter /sw/apps/gaussian-16.0/g16/l401.exe)
 ExpMin= 3.36D-02 ExpMax= 4.95D+03 ExpMxC= 7.45D+02 IAcc=3 IRadAn=         5 AccDes= 0.00D+00
 Harris functional with IExCor= 4639 and IRadAn=       5 diagonalized for initial guess.
 HarFok:  IExCor= 4639 AccDes= 0.00D+00 IRadAn=         5 IDoV= 1 UseB2=F ITyADJ=14
 ICtDFT=  3500011 ScaDFX=  1.000000  1.000000  1.000000  1.000000
 FoFCou: FMM=F IPFlag=           0 FMFlag=      100000 FMFlg1=        2001
         NFxFlg=           0 DoJE=T BraDBF=F KetDBF=T FulRan=T
         wScrn=  0.000000 ICntrl=       500 IOpCl=  0 I1Cent=   200000004 NGrid=           0
         NMat0=    1 NMatS0=      1 NMatT0=    0 NMatD0=    1 NMtDS0=    0 NMtDT0=    0
 Petite list used in FoFCou.
 Harris En= -2877.96600548832    
 JPrj=0 DoOrth=F DoCkMO=F.
 Leave Link  401 at Wed Apr 27 21:43:15 2022, MaxMem= 10066329600 cpu:             157.3 elap:               6.6
 (Enter /sw/apps/gaussian-16.0/g16/l502.exe)
 Integral symmetry usage will be decided dynamically.
 Closed shell SCF:
 Using DIIS extrapolation, IDIIS=  1040.
 NGot= 10066329600 LenX= 10062561258 LenY= 10060699398
 Requested convergence on RMS density matrix=1.00D-08 within 128 cycles.
 Requested convergence on MAX density matrix=1.00D-06.
 Requested convergence on             energy=1.00D-06.
 No special actions if energy rises.
 Fock matrices will be formed incrementally for  20 cycles.

 Cycle   1  Pass 1  IDiag  1:
 FoFJK:  IHMeth= 1 ICntrl=       0 DoSepK=T KAlg= 0 I1Cent=           0 FoldK=F
 IRaf=         1 NMat=       1 IRICut=       1 DoRegI=T DoRafI=F ISym2E= 0 IDoP0=0 IntGTp=1.
 FoFCou: FMM=T IPFlag=           0 FMFlag=      100000 FMFlg1=        2001
         NFxFlg=           0 DoJE=T BraDBF=F KetDBF=F FulRan=T
         wScrn=  0.000000 ICntrl=       500 IOpCl=  0 I1Cent=           0 NGrid=           0
         NMat0=    1 NMatS0=      1 NMatT0=    0 NMatD0=    1 NMtDS0=    0 NMtDT0=    0
 Symmetry not used in FoFCou.
 FMM levels:  10  Number of levels for PrismC:   9
 E= -3007.17491094711    
 DIIS: error= 2.95D-02 at cycle   1 NSaved=   1.
 NSaved= 1 IEnMin= 1 EnMin= -3007.17491094711     IErMin= 1 ErrMin= 2.95D-02
 ErrMax= 2.95D-02  0.00D+00 EMaxC= 1.00D-01 BMatC= 1.49D+00 BMatP= 1.49D+00
 IDIUse=3 WtCom= 7.05D-01 WtEn= 2.95D-01
 Coeff-Com:  0.100D+01
 Coeff-En:   0.100D+01
 Coeff:      0.100D+01
 Gap=     0.159 Goal=   None    Shift=    0.000
 GapD=    0.159 DampG=1.000 DampE=0.500 DampFc=0.5000 IDamp=-1.
 Damping current iteration by 5.00D-01
 RMSDP=1.56D-03 MaxDP=1.58D-01              OVMax= 1.83D-01

 Cycle   2  Pass 1  IDiag  1:
 RMSU=  7.70D-04    CP:  9.87D-01
 E= -3007.49254408133     Delta-E=       -0.317633134211 Rises=F Damp=T
 DIIS: error= 1.22D-02 at cycle   2 NSaved=   2.
 NSaved= 2 IEnMin= 2 EnMin= -3007.49254408133     IErMin= 2 ErrMin= 1.22D-02
 ErrMax= 1.22D-02  0.00D+00 EMaxC= 1.00D-01 BMatC= 2.91D-01 BMatP= 1.49D+00
 IDIUse=3 WtCom= 8.78D-01 WtEn= 1.22D-01
 Coeff-Com: -0.330D+00 0.133D+01
 Coeff-En:   0.000D+00 0.100D+01
 Coeff:     -0.290D+00 0.129D+01
 Gap=     0.181 Goal=   None    Shift=    0.000
 RMSDP=7.29D-04 MaxDP=7.25D-02 DE=-3.18D-01 OVMax= 1.56D-01

 Cycle   3  Pass 1  IDiag  1:
 RMSU=  6.92D-04    CP:  9.78D-01  1.28D+00
 E= -3007.72134130191     Delta-E=       -0.228797220585 Rises=F Damp=F
 DIIS: error= 1.43D-02 at cycle   3 NSaved=   3.
 NSaved= 3 IEnMin= 3 EnMin= -3007.72134130191     IErMin= 2 ErrMin= 1.22D-02
 ErrMax= 1.43D-02  0.00D+00 EMaxC= 1.00D-01 BMatC= 1.51D-01 BMatP= 2.91D-01
 IDIUse=3 WtCom= 8.57D-01 WtEn= 1.43D-01
 Coeff-Com: -0.313D+00 0.691D+00 0.622D+00
 Coeff-En:   0.000D+00 0.000D+00 0.100D+01
 Coeff:     -0.268D+00 0.592D+00 0.676D+00
 Gap=     0.162 Goal=   None    Shift=    0.000
 RMSDP=4.34D-04 MaxDP=4.28D-02 DE=-2.29D-01 OVMax= 8.95D-02

 Cycle   4  Pass 1  IDiag  1:
 RMSU=  2.14D-04    CP:  9.74D-01  1.59D+00  5.82D-01
 E= -3007.83450532910     Delta-E=       -0.113164027192 Rises=F Damp=F
 DIIS: error= 5.36D-03 at cycle   4 NSaved=   4.
 NSaved= 4 IEnMin= 4 EnMin= -3007.83450532910     IErMin= 4 ErrMin= 5.36D-03
 ErrMax= 5.36D-03  0.00D+00 EMaxC= 1.00D-01 BMatC= 2.16D-02 BMatP= 1.51D-01
 IDIUse=3 WtCom= 9.46D-01 WtEn= 5.36D-02
 Coeff-Com: -0.112D+00 0.225D+00 0.367D+00 0.521D+00
 Coeff-En:   0.000D+00 0.000D+00 0.911D-01 0.909D+00
 Coeff:     -0.106D+00 0.212D+00 0.352D+00 0.541D+00
 Gap=     0.158 Goal=   None    Shift=    0.000
 RMSDP=1.26D-04 MaxDP=1.48D-02 DE=-1.13D-01 OVMax= 2.11D-02

 Cycle   5  Pass 1  IDiag  1:
 RMSU=  5.86D-05    CP:  9.74D-01  1.55D+00  7.03D-01  6.88D-01
 E= -3007.85213063632     Delta-E=       -0.017625307213 Rises=F Damp=F
 DIIS: error= 6.50D-04 at cycle   5 NSaved=   5.
 NSaved= 5 IEnMin= 5 EnMin= -3007.85213063632     IErMin= 5 ErrMin= 6.50D-04
 ErrMax= 6.50D-04  0.00D+00 EMaxC= 1.00D-01 BMatC= 4.32D-04 BMatP= 2.16D-02
 IDIUse=3 WtCom= 9.93D-01 WtEn= 6.50D-03
 Coeff-Com: -0.262D-01 0.494D-01 0.112D+00 0.228D+00 0.636D+00
 Coeff-En:   0.000D+00 0.000D+00 0.000D+00 0.000D+00 0.100D+01
 Coeff:     -0.260D-01 0.491D-01 0.112D+00 0.227D+00 0.639D+00
 Gap=     0.158 Goal=   None    Shift=    0.000
 RMSDP=2.40D-05 MaxDP=3.10D-03 DE=-1.76D-02 OVMax= 3.71D-03

 Cycle   6  Pass 1  IDiag  1:
 RMSU=  2.06D-05    CP:  9.74D-01  1.55D+00  7.06D-01  7.36D-01  9.23D-01
 E= -3007.85247498720     Delta-E=       -0.000344350889 Rises=F Damp=F
 DIIS: error= 2.41D-04 at cycle   6 NSaved=   6.
 NSaved= 6 IEnMin= 6 EnMin= -3007.85247498720     IErMin= 6 ErrMin= 2.41D-04
 ErrMax= 2.41D-04  0.00D+00 EMaxC= 1.00D-01 BMatC= 6.96D-05 BMatP= 4.32D-04
 IDIUse=3 WtCom= 9.98D-01 WtEn= 2.41D-03
 Coeff-Com:  0.102D-01-0.218D-01-0.175D-01 0.929D-03 0.297D+00 0.731D+00
 Coeff-En:   0.000D+00 0.000D+00 0.000D+00 0.000D+00 0.000D+00 0.100D+01
 Coeff:      0.101D-01-0.217D-01-0.174D-01 0.926D-03 0.297D+00 0.731D+00
 Gap=     0.159 Goal=   None    Shift=    0.000
 RMSDP=1.18D-05 MaxDP=1.25D-03 DE=-3.44D-04 OVMax= 4.00D-03

 Cycle   7  Pass 1  IDiag  1:
 RMSU=  8.26D-06    CP:  9.74D-01  1.56D+00  7.10D-01  7.56D-01  1.03D+00
                    CP:  9.54D-01
 E= -3007.85256004374     Delta-E=       -0.000085056539 Rises=F Damp=F
 DIIS: error= 8.59D-05 at cycle   7 NSaved=   7.
 NSaved= 7 IEnMin= 7 EnMin= -3007.85256004374     IErMin= 7 ErrMin= 8.59D-05
 ErrMax= 8.59D-05  0.00D+00 EMaxC= 1.00D-01 BMatC= 6.10D-06 BMatP= 6.96D-05
 IDIUse=1 WtCom= 1.00D+00 WtEn= 0.00D+00
 Coeff-Com:  0.594D-02-0.120D-01-0.157D-01-0.221D-01 0.363D-01 0.254D+00
 Coeff-Com:  0.753D+00
 Coeff:      0.594D-02-0.120D-01-0.157D-01-0.221D-01 0.363D-01 0.254D+00
 Coeff:      0.753D+00
 Gap=     0.159 Goal=   None    Shift=    0.000
 RMSDP=5.19D-06 MaxDP=9.02D-04 DE=-8.51D-05 OVMax= 2.12D-03

 Cycle   8  Pass 1  IDiag  1:
 RMSU=  3.36D-06    CP:  9.74D-01  1.56D+00  7.12D-01  7.60D-01  1.06D+00
                    CP:  1.09D+00  1.13D+00
 E= -3007.85257429200     Delta-E=       -0.000014248251 Rises=F Damp=F
 DIIS: error= 3.84D-05 at cycle   8 NSaved=   8.
 NSaved= 8 IEnMin= 8 EnMin= -3007.85257429200     IErMin= 8 ErrMin= 3.84D-05
 ErrMax= 3.84D-05  0.00D+00 EMaxC= 1.00D-01 BMatC= 1.80D-06 BMatP= 6.10D-06
 IDIUse=1 WtCom= 1.00D+00 WtEn= 0.00D+00
 Coeff-Com:  0.106D-02-0.186D-02-0.428D-02-0.115D-01-0.413D-01-0.172D-01
 Coeff-Com:  0.359D+00 0.716D+00
 Coeff:      0.106D-02-0.186D-02-0.428D-02-0.115D-01-0.413D-01-0.172D-01
 Coeff:      0.359D+00 0.716D+00
 Gap=     0.159 Goal=   None    Shift=    0.000
 RMSDP=3.01D-06 MaxDP=2.38D-04 DE=-1.42D-05 OVMax= 1.69D-03

 Cycle   9  Pass 1  IDiag  1:
 RMSU=  1.72D-06    CP:  9.74D-01  1.56D+00  7.12D-01  7.63D-01  1.08D+00
                    CP:  1.14D+00  1.34D+00  1.25D+00
 E= -3007.85258021001     Delta-E=       -0.000005918013 Rises=F Damp=F
 DIIS: error= 2.21D-05 at cycle   9 NSaved=   9.
 NSaved= 9 IEnMin= 9 EnMin= -3007.85258021001     IErMin= 9 ErrMin= 2.21D-05
 ErrMax= 2.21D-05  0.00D+00 EMaxC= 1.00D-01 BMatC= 3.80D-07 BMatP= 1.80D-06
 IDIUse=1 WtCom= 1.00D+00 WtEn= 0.00D+00
 Coeff-Com: -0.120D-02 0.246D-02 0.293D-02 0.231D-02-0.217D-01-0.697D-01
 Coeff-Com: -0.743D-01 0.193D+00 0.966D+00
 Coeff:     -0.120D-02 0.246D-02 0.293D-02 0.231D-02-0.217D-01-0.697D-01
 Coeff:     -0.743D-01 0.193D+00 0.966D+00
 Gap=     0.159 Goal=   None    Shift=    0.000
 RMSDP=2.51D-06 MaxDP=2.39D-04 DE=-5.92D-06 OVMax= 1.59D-03

 Cycle  10  Pass 1  IDiag  1:
 RMSU=  9.51D-07    CP:  9.74D-01  1.56D+00  7.13D-01  7.64D-01  1.08D+00
                    CP:  1.18D+00  1.50D+00  1.68D+00  1.53D+00
 E= -3007.85258318414     Delta-E=       -0.000002974131 Rises=F Damp=F
 DIIS: error= 1.42D-05 at cycle  10 NSaved=  10.
 NSaved=10 IEnMin=10 EnMin= -3007.85258318414     IErMin=10 ErrMin= 1.42D-05
 ErrMax= 1.42D-05  0.00D+00 EMaxC= 1.00D-01 BMatC= 1.27D-07 BMatP= 3.80D-07
 IDIUse=1 WtCom= 1.00D+00 WtEn= 0.00D+00
 Coeff-Com: -0.822D-03 0.159D-02 0.270D-02 0.505D-02 0.570D-02-0.214D-01
 Coeff-Com: -0.151D+00-0.179D+00 0.350D+00 0.987D+00
 Coeff:     -0.822D-03 0.159D-02 0.270D-02 0.505D-02 0.570D-02-0.214D-01
 Coeff:     -0.151D+00-0.179D+00 0.350D+00 0.987D+00
 Gap=     0.159 Goal=   None    Shift=    0.000
 RMSDP=1.99D-06 MaxDP=1.47D-04 DE=-2.97D-06 OVMax= 1.37D-03

 Cycle  11  Pass 1  IDiag  1:
 RMSU=  5.61D-07    CP:  9.74D-01  1.56D+00  7.13D-01  7.64D-01  1.09D+00
                    CP:  1.20D+00  1.61D+00  2.00D+00  2.15D+00  1.49D+00
 E= -3007.85258454135     Delta-E=       -0.000001357206 Rises=F Damp=F
 DIIS: error= 7.53D-06 at cycle  11 NSaved=  11.
 NSaved=11 IEnMin=11 EnMin= -3007.85258454135     IErMin=11 ErrMin= 7.53D-06
 ErrMax= 7.53D-06  0.00D+00 EMaxC= 1.00D-01 BMatC= 4.99D-08 BMatP= 1.27D-07
 IDIUse=1 WtCom= 1.00D+00 WtEn= 0.00D+00
 Coeff-Com: -0.165D-04-0.639D-06 0.344D-03 0.157D-02 0.771D-02 0.103D-01
 Coeff-Com: -0.410D-01-0.121D+00-0.143D+00 0.430D+00 0.856D+00
 Coeff:     -0.165D-04-0.639D-06 0.344D-03 0.157D-02 0.771D-02 0.103D-01
 Coeff:     -0.410D-01-0.121D+00-0.143D+00 0.430D+00 0.856D+00
 Gap=     0.159 Goal=   None    Shift=    0.000
 RMSDP=1.05D-06 MaxDP=7.48D-05 DE=-1.36D-06 OVMax= 7.13D-04

 Cycle  12  Pass 1  IDiag  1:
 RMSU=  2.97D-07    CP:  9.74D-01  1.56D+00  7.13D-01  7.64D-01  1.09D+00
                    CP:  1.21D+00  1.65D+00  2.16D+00  2.45D+00  2.00D+00
                    CP:  1.30D+00
 E= -3007.85258492201     Delta-E=       -0.000000380662 Rises=F Damp=F
 DIIS: error= 3.94D-06 at cycle  12 NSaved=  12.
 NSaved=12 IEnMin=12 EnMin= -3007.85258492201     IErMin=12 ErrMin= 3.94D-06
 ErrMax= 3.94D-06  0.00D+00 EMaxC= 1.00D-01 BMatC= 1.42D-08 BMatP= 4.99D-08
 IDIUse=1 WtCom= 1.00D+00 WtEn= 0.00D+00
 Coeff-Com:  0.329D-03-0.653D-03-0.934D-03-0.125D-02 0.891D-03 0.137D-01
 Coeff-Com:  0.449D-01 0.231D-01-0.228D+00-0.212D+00 0.380D+00 0.979D+00
 Coeff:      0.329D-03-0.653D-03-0.934D-03-0.125D-02 0.891D-03 0.137D-01
 Coeff:      0.449D-01 0.231D-01-0.228D+00-0.212D+00 0.380D+00 0.979D+00
 Gap=     0.159 Goal=   None    Shift=    0.000
 RMSDP=7.60D-07 MaxDP=5.86D-05 DE=-3.81D-07 OVMax= 5.12D-04

 Cycle  13  Pass 1  IDiag  1:
 RMSU=  1.56D-07    CP:  9.74D-01  1.56D+00  7.13D-01  7.65D-01  1.09D+00
                    CP:  1.22D+00  1.68D+00  2.26D+00  2.68D+00  2.36D+00
                    CP:  1.87D+00  1.29D+00
 E= -3007.85258504357     Delta-E=       -0.000000121559 Rises=F Damp=F
 DIIS: error= 1.23D-06 at cycle  13 NSaved=  13.
 NSaved=13 IEnMin=13 EnMin= -3007.85258504357     IErMin=13 ErrMin= 1.23D-06
 ErrMax= 1.23D-06  0.00D+00 EMaxC= 1.00D-01 BMatC= 2.80D-09 BMatP= 1.42D-08
 IDIUse=1 WtCom= 1.00D+00 WtEn= 0.00D+00
 Coeff-Com:  0.152D-03-0.298D-03-0.491D-03-0.849D-03-0.116D-02 0.387D-02
 Coeff-Com:  0.278D-01 0.352D-01-0.706D-01-0.172D+00-0.713D-02 0.432D+00
 Coeff-Com:  0.754D+00
 Coeff:      0.152D-03-0.298D-03-0.491D-03-0.849D-03-0.116D-02 0.387D-02
 Coeff:      0.278D-01 0.352D-01-0.706D-01-0.172D+00-0.713D-02 0.432D+00
 Coeff:      0.754D+00
 Gap=     0.159 Goal=   None    Shift=    0.000
 RMSDP=2.04D-07 MaxDP=1.56D-05 DE=-1.22D-07 OVMax= 1.29D-04

 Cycle  14  Pass 1  IDiag  1:
 RMSU=  6.12D-08    CP:  9.74D-01  1.56D+00  7.13D-01  7.65D-01  1.09D+00
                    CP:  1.22D+00  1.69D+00  2.28D+00  2.73D+00  2.47D+00
                    CP:  2.02D+00  1.54D+00  1.05D+00
 E= -3007.85258505504     Delta-E=       -0.000000011471 Rises=F Damp=F
 DIIS: error= 8.03D-07 at cycle  14 NSaved=  14.
 NSaved=14 IEnMin=14 EnMin= -3007.85258505504     IErMin=14 ErrMin= 8.03D-07
 ErrMax= 8.03D-07  0.00D+00 EMaxC= 1.00D-01 BMatC= 5.35D-10 BMatP= 2.80D-09
 IDIUse=1 WtCom= 1.00D+00 WtEn= 0.00D+00
 Coeff-Com:  0.101D-04-0.171D-04-0.517D-04-0.150D-03-0.667D-03-0.848D-03
 Coeff-Com:  0.433D-02 0.115D-01 0.101D-01-0.379D-01-0.744D-01 0.147D-01
 Coeff-Com:  0.324D+00 0.749D+00
 Coeff:      0.101D-04-0.171D-04-0.517D-04-0.150D-03-0.667D-03-0.848D-03
 Coeff:      0.433D-02 0.115D-01 0.101D-01-0.379D-01-0.744D-01 0.147D-01
 Coeff:      0.324D+00 0.749D+00
 Gap=     0.159 Goal=   None    Shift=    0.000
 RMSDP=7.36D-08 MaxDP=1.45D-05 DE=-1.15D-08 OVMax= 3.85D-05

 Cycle  15  Pass 1  IDiag  1:
 RMSU=  3.04D-08    CP:  9.74D-01  1.56D+00  7.13D-01  7.65D-01  1.09D+00
                    CP:  1.22D+00  1.69D+00  2.28D+00  2.74D+00  2.50D+00
                    CP:  2.08D+00  1.61D+00  1.25D+00  1.05D+00
 E= -3007.85258505638     Delta-E=       -0.000000001342 Rises=F Damp=F
 DIIS: error= 3.74D-07 at cycle  15 NSaved=  15.
 NSaved=15 IEnMin=15 EnMin= -3007.85258505638     IErMin=15 ErrMin= 3.74D-07
 ErrMax= 3.74D-07  0.00D+00 EMaxC= 1.00D-01 BMatC= 1.38D-10 BMatP= 5.35D-10
 IDIUse=1 WtCom= 1.00D+00 WtEn= 0.00D+00
 Coeff-Com: -0.313D-04 0.626D-04 0.922D-04 0.128D-03-0.623D-04-0.136D-02
 Coeff-Com: -0.447D-02-0.319D-02 0.200D-01 0.217D-01-0.322D-01-0.897D-01
 Coeff-Com: -0.212D-01 0.385D+00 0.726D+00
 Coeff:     -0.313D-04 0.626D-04 0.922D-04 0.128D-03-0.623D-04-0.136D-02
 Coeff:     -0.447D-02-0.319D-02 0.200D-01 0.217D-01-0.322D-01-0.897D-01
 Coeff:     -0.212D-01 0.385D+00 0.726D+00
 Gap=     0.159 Goal=   None    Shift=    0.000
 RMSDP=3.03D-08 MaxDP=2.71D-06 DE=-1.34D-09 OVMax= 1.67D-05

 Cycle  16  Pass 1  IDiag  1:
 RMSU=  1.32D-08    CP:  9.74D-01  1.56D+00  7.13D-01  7.65D-01  1.09D+00
                    CP:  1.22D+00  1.69D+00  2.28D+00  2.75D+00  2.51D+00
                    CP:  2.10D+00  1.64D+00  1.31D+00  1.24D+00  9.81D-01
 E= -3007.85258505682     Delta-E=       -0.000000000438 Rises=F Damp=F
 DIIS: error= 1.03D-07 at cycle  16 NSaved=  16.
 NSaved=16 IEnMin=16 EnMin= -3007.85258505682     IErMin=16 ErrMin= 1.03D-07
 ErrMax= 1.03D-07  0.00D+00 EMaxC= 1.00D-01 BMatC= 1.72D-11 BMatP= 1.38D-10
 IDIUse=1 WtCom= 1.00D+00 WtEn= 0.00D+00
 Coeff-Com: -0.128D-04 0.251D-04 0.422D-04 0.680D-04 0.774D-04-0.393D-03
 Coeff-Com: -0.225D-02-0.284D-02 0.673D-02 0.147D-01-0.272D-02-0.348D-01
 Coeff-Com: -0.623D-01 0.362D-01 0.260D+00 0.788D+00
 Coeff:     -0.128D-04 0.251D-04 0.422D-04 0.680D-04 0.774D-04-0.393D-03
 Coeff:     -0.225D-02-0.284D-02 0.673D-02 0.147D-01-0.272D-02-0.348D-01
 Coeff:     -0.623D-01 0.362D-01 0.260D+00 0.788D+00
 Gap=     0.159 Goal=   None    Shift=    0.000
 RMSDP=1.14D-08 MaxDP=2.62D-06 DE=-4.38D-10 OVMax= 5.62D-06

 Cycle  17  Pass 1  IDiag  1:
 RMSU=  6.02D-09    CP:  9.74D-01  1.56D+00  7.13D-01  7.65D-01  1.09D+00
                    CP:  1.22D+00  1.69D+00  2.28D+00  2.75D+00  2.51D+00
                    CP:  2.10D+00  1.65D+00  1.34D+00  1.31D+00  1.14D+00
                    CP:  1.21D+00
 E= -3007.85258505685     Delta-E=       -0.000000000036 Rises=F Damp=F
 DIIS: error= 6.16D-08 at cycle  17 NSaved=  17.
 NSaved=17 IEnMin=17 EnMin= -3007.85258505685     IErMin=17 ErrMin= 6.16D-08
 ErrMax= 6.16D-08  0.00D+00 EMaxC= 1.00D-01 BMatC= 4.22D-12 BMatP= 1.72D-11
 IDIUse=1 WtCom= 1.00D+00 WtEn= 0.00D+00
 Coeff-Com:  0.173D-05-0.366D-05-0.345D-05-0.264D-05 0.448D-04 0.129D-03
 Coeff-Com:  0.142D-03-0.382D-03-0.190D-02 0.729D-03 0.397D-02 0.821D-02
 Coeff-Com: -0.195D-01-0.553D-01-0.595D-01 0.251D+00 0.873D+00
 Coeff:      0.173D-05-0.366D-05-0.345D-05-0.264D-05 0.448D-04 0.129D-03
 Coeff:      0.142D-03-0.382D-03-0.190D-02 0.729D-03 0.397D-02 0.821D-02
 Coeff:     -0.195D-01-0.553D-01-0.595D-01 0.251D+00 0.873D+00
 Gap=     0.159 Goal=   None    Shift=    0.000
 RMSDP=7.05D-09 MaxDP=5.58D-07 DE=-3.64D-11 OVMax= 4.85D-06

 SCF Done:  E(RwB97XD) =  -3007.85258506     A.U. after   17 cycles
            NFock= 17  Conv=0.71D-08     -V/T= 2.0106
 KE= 2.976368557212D+03 PE=-2.575942652711D+04 EE= 1.039204184441D+04
 Leave Link  502 at Wed Apr 27 21:51:48 2022, MaxMem= 10066329600 cpu:           11926.4 elap:             512.7
 (Enter /sw/apps/gaussian-16.0/g16/l801.exe)
 DoSCS=F DFT=T ScalE2(SS,OS)=  1.000000  1.000000
 ExpMin= 3.36D-02 ExpMax= 4.95D+03 ExpMxC= 7.45D+02 IAcc=3 IRadAn=         5 AccDes= 0.00D+00
 HarFok:  IExCor=  205 AccDes= 0.00D+00 IRadAn=         5 IDoV=-2 UseB2=F ITyADJ=14
 ICtDFT= 12500011 ScaDFX=  1.000000  1.000000  1.000000  1.000000
 GSVD:  LWork=       -5460 too small for GESVD, short by       25550 words or       25550 for optimal perf.
 Largest valence mixing into a core orbital is  1.44D-04
 Largest core mixing into a valence orbital is  5.43D-05
 Range of M.O.s used for correlation:    71  1298
 NBasis=  1298 NAE=   246 NBE=   246 NFC=    70 NFV=     0
 NROrb=   1228 NOA=   176 NOB=   176 NVA=  1052 NVB=  1052
 Leave Link  801 at Wed Apr 27 21:51:50 2022, MaxMem= 10066329600 cpu:               7.4 elap:               0.3
 (Enter /sw/apps/gaussian-16.0/g16/l914.exe)
 RHF ground state
 Two-electron integrals replicated using symmetry.
 MDV= 10066329600 DFT=T DoStab=F Mixed=T DoRPA=T DoScal=F NonHer=T
 Making orbital integer symmetry assigments:
 Orbital symmetries:
       Occupied  (A) (A) (A) (A) (A) (A) (A) (A) (A) (A) (A) (A)
                 (A) (A) (A) (A) (A) (A) (A) (A) (A) (A) (A) (A)
                 (A) (A) (A) (A) (A) (A) (A) (A) (A) (A) (A) (A)
                 (A) (A) (A) (A) (A) (A) (A) (A) (A) (A) (A) (A)
                 (A) (A) (A) (A) (A) (A) (A) (A) (A) (A) (A) (A)
                 (A) (A) (A) (A) (A) (A) (A) (A) (A) (A) (A) (A)
                 (A) (A) (A) (A) (A) (A) (A) (A) (A) (A) (A) (A)
                 (A) (A) (A) (A) (A) (A) (A) (A) (A) (A) (A) (A)
                 (A) (A) (A) (A) (A) (A) (A) (A) (A) (A) (A) (A)
                 (A) (A) (A) (A) (A) (A) (A) (A) (A) (A) (A) (A)
                 (A) (A) (A) (A) (A) (A) (A) (A) (A) (A) (A) (A)
                 (A) (A) (A) (A) (A) (A) (A) (A) (A) (A) (A) (A)
                 (A) (A) (A) (A) (A) (A) (A) (A) (A) (A) (A) (A)
                 (A) (A) (A) (A) (A) (A) (A) (A) (A) (A) (A) (A)
                 (A) (A) (A) (A) (A) (A) (A) (A) (A) (A) (A) (A)
                 (A) (A) (A) (A) (A) (A) (A) (A) (A) (A) (A) (A)
                 (A) (A) (A) (A) (A) (A) (A) (A) (A) (A) (A) (A)
                 (A) (A) (A) (A) (A) (A) (A) (A) (A) (A) (A) (A)
                 (A) (A) (A) (A) (A) (A) (A) (A) (A) (A) (A) (A)
                 (A) (A) (A) (A) (A) (A) (A) (A) (A) (A) (A) (A)
                 (A) (A) (A) (A) (A) (A)
       Virtual   (A) (A) (A) (A) (A) (A) (A) (A) (A) (A) (A) (A)
                 (A) (A) (A) (A) (A) (A) (A) (A) (A) (A) (A) (A)
                 (A) (A) (A) (A) (A) (A) (A) (A) (A) (A) (A) (A)
                 (A) (A) (A) (A) (A) (A) (A) (A) (A) (A) (A) (A)
                 (A) (A) (A) (A) (A) (A) (A) (A) (A) (A) (A) (A)
                 (A) (A) (A) (A) (A) (A) (A) (A) (A) (A) (A) (A)
                 (A) (A) (A) (A) (A) (A) (A) (A) (A) (A) (A) (A)
                 (A) (A) (A) (A) (A) (A) (A) (A) (A) (A) (A) (A)
                 (A) (A) (A) (A) (A) (A) (A) (A) (A) (A) (A) (A)
                 (A) (A) (A) (A) (A) (A) (A) (A) (A) (A) (A) (A)
                 (A) (A) (A) (A) (A) (A) (A) (A) (A) (A) (A) (A)
                 (A) (A) (A) (A) (A) (A) (A) (A) (A) (A) (A) (A)
                 (A) (A) (A) (A) (A) (A) (A) (A) (A) (A) (A) (A)
                 (A) (A) (A) (A) (A) (A) (A) (A) (A) (A) (A) (A)
                 (A) (A) (A) (A) (A) (A) (A) (A) (A) (A) (A) (A)
                 (A) (A) (A) (A) (A) (A) (A) (A) (A) (A) (A) (A)
                 (A) (A) (A) (A) (A) (A) (A) (A) (A) (A) (A) (A)
                 (A) (A) (A) (A) (A) (A) (A) (A) (A) (A) (A) (A)
                 (A) (A) (A) (A) (A) (A) (A) (A) (A) (A) (A) (A)
                 (A) (A) (A) (A) (A) (A) (A) (A) (A) (A) (A) (A)
                 (A) (A) (A) (A) (A) (A) (A) (A) (A) (A) (A) (A)
                 (A) (A) (A) (A) (A) (A) (A) (A) (A) (A) (A) (A)
                 (A) (A) (A) (A) (A) (A) (A) (A) (A) (A) (A) (A)
                 (A) (A) (A) (A) (A) (A) (A) (A) (A) (A) (A) (A)
                 (A) (A) (A) (A) (A) (A) (A) (A) (A) (A) (A) (A)
                 (A) (A) (A) (A) (A) (A) (A) (A) (A) (A) (A) (A)
                 (A) (A) (A) (A) (A) (A) (A) (A) (A) (A) (A) (A)
                 (A) (A) (A) (A) (A) (A) (A) (A) (A) (A) (A) (A)
                 (A) (A) (A) (A) (A) (A) (A) (A) (A) (A) (A) (A)
                 (A) (A) (A) (A) (A) (A) (A) (A) (A) (A) (A) (A)
                 (A) (A) (A) (A) (A) (A) (A) (A) (A) (A) (A) (A)
                 (A) (A) (A) (A) (A) (A) (A) (A) (A) (A) (A) (A)
                 (A) (A) (A) (A) (A) (A) (A) (A) (A) (A) (A) (A)
                 (A) (A) (A) (A) (A) (A) (A) (A) (A) (A) (A) (A)
                 (A) (A) (A) (A) (A) (A) (A) (A) (A) (A) (A) (A)
                 (A) (A) (A) (A) (A) (A) (A) (A) (A) (A) (A) (A)
                 (A) (A) (A) (A) (A) (A) (A) (A) (A) (A) (A) (A)
                 (A) (A) (A) (A) (A) (A) (A) (A) (A) (A) (A) (A)
                 (A) (A) (A) (A) (A) (A) (A) (A) (A) (A) (A) (A)
                 (A) (A) (A) (A) (A) (A) (A) (A) (A) (A) (A) (A)
                 (A) (A) (A) (A) (A) (A) (A) (A) (A) (A) (A) (A)
                 (A) (A) (A) (A) (A) (A) (A) (A) (A) (A) (A) (A)
                 (A) (A) (A) (A) (A) (A) (A) (A) (A) (A) (A) (A)
                 (A) (A) (A) (A) (A) (A) (A) (A) (A) (A) (A) (A)
                 (A) (A) (A) (A) (A) (A) (A) (A) (A) (A) (A) (A)
                 (A) (A) (A) (A) (A) (A) (A) (A) (A) (A) (A) (A)
                 (A) (A) (A) (A) (A) (A) (A) (A) (A) (A) (A) (A)
                 (A) (A) (A) (A) (A) (A) (A) (A) (A) (A) (A) (A)
                 (A) (A) (A) (A) (A) (A) (A) (A) (A) (A) (A) (A)
                 (A) (A) (A) (A) (A) (A) (A) (A) (A) (A) (A) (A)
                 (A) (A) (A) (A) (A) (A) (A) (A) (A) (A) (A) (A)
                 (A) (A) (A) (A) (A) (A) (A) (A) (A) (A) (A) (A)
                 (A) (A) (A) (A) (A) (A) (A) (A) (A) (A) (A) (A)
                 (A) (A) (A) (A) (A) (A) (A) (A) (A) (A) (A) (A)
                 (A) (A) (A) (A) (A) (A) (A) (A) (A) (A) (A) (A)
                 (A) (A) (A) (A) (A) (A) (A) (A) (A) (A) (A) (A)
                 (A) (A) (A) (A) (A) (A) (A) (A) (A) (A) (A) (A)
                 (A) (A) (A) (A) (A) (A) (A) (A) (A) (A) (A) (A)
                 (A) (A) (A) (A) (A) (A) (A) (A) (A) (A) (A) (A)
                 (A) (A) (A) (A) (A) (A) (A) (A) (A) (A) (A) (A)
                 (A) (A) (A) (A) (A) (A) (A) (A) (A) (A) (A) (A)
                 (A) (A) (A) (A) (A) (A) (A) (A) (A) (A) (A) (A)
                 (A) (A) (A) (A) (A) (A) (A) (A) (A) (A) (A) (A)
                 (A) (A) (A) (A) (A) (A) (A) (A) (A) (A) (A) (A)
                 (A) (A) (A) (A) (A) (A) (A) (A) (A) (A) (A) (A)
                 (A) (A) (A) (A) (A) (A) (A) (A) (A) (A) (A) (A)
                 (A) (A) (A) (A) (A) (A) (A) (A) (A) (A) (A) (A)
                 (A) (A) (A) (A) (A) (A) (A) (A) (A) (A) (A) (A)
                 (A) (A) (A) (A) (A) (A) (A) (A) (A) (A) (A) (A)
                 (A) (A) (A) (A) (A) (A) (A) (A) (A) (A) (A) (A)
                 (A) (A) (A) (A) (A) (A) (A) (A) (A) (A) (A) (A)
                 (A) (A) (A) (A) (A) (A) (A) (A) (A) (A) (A) (A)
                 (A) (A) (A) (A) (A) (A) (A) (A) (A) (A) (A) (A)
                 (A) (A) (A) (A) (A) (A) (A) (A) (A) (A) (A) (A)
                 (A) (A) (A) (A) (A) (A) (A) (A) (A) (A) (A) (A)
                 (A) (A) (A) (A) (A) (A) (A) (A) (A) (A) (A) (A)
                 (A) (A) (A) (A) (A) (A) (A) (A) (A) (A) (A) (A)
                 (A) (A) (A) (A) (A) (A) (A) (A) (A) (A) (A) (A)
                 (A) (A) (A) (A) (A) (A) (A) (A) (A) (A) (A) (A)
                 (A) (A) (A) (A) (A) (A) (A) (A) (A) (A) (A) (A)
                 (A) (A) (A) (A) (A) (A) (A) (A) (A) (A) (A) (A)
                 (A) (A) (A) (A) (A) (A) (A) (A) (A) (A) (A) (A)
                 (A) (A) (A) (A) (A) (A) (A) (A) (A) (A) (A) (A)
                 (A) (A) (A) (A) (A) (A) (A) (A) (A) (A) (A) (A)
                 (A) (A) (A) (A) (A) (A) (A) (A) (A) (A) (A) (A)
                 (A) (A) (A) (A) (A) (A) (A) (A) (A) (A) (A) (A)
                 (A) (A) (A) (A) (A) (A) (A) (A) (A) (A) (A) (A)
                 (A) (A) (A) (A) (A) (A) (A) (A)
    20 initial guesses have been made.
 Convergence on wavefunction:    0.001000000000000
 Davidson Disk Diagonalization:  ConvIn= 1.00D-03 SkipCon=T Conv= 1.00D-03.
 Max sub-space:  2000 roots to seek:    20 dimension of matrix:       370304
 Iteration     1 Dimension    20 NMult     0 NNew     20
 CISAX will form    20 AO SS matrices at one time.
 NMat=    20 NSing=    20 JSym2X= 0.
 FoFJK:  IHMeth= 1 ICntrl=       0 DoSepK=T KAlg= 0 I1Cent=           0 FoldK=F
 IRaf=         1 NMat=      40 IRICut=       1 DoRegI=T DoRafI=F ISym2E= 0 IDoP0=3 IntGTp=3.
 FoFCou: FMM=T IPFlag=           0 FMFlag=      100000 FMFlg1=        2001
         NFxFlg=           0 DoJE=F BraDBF=F KetDBF=F FulRan=T
         wScrn=  0.000000 ICntrl=       500 IOpCl=  0 I1Cent=           0 NGrid=           0
         NMat0=   20 NMatS0=     20 NMatT0=    0 NMatD0=   20 NMtDS0=    0 NMtDT0=    0
 Symmetry not used in FoFCou.
 FMM levels:  10  Number of levels for PrismC:   9
 New state      3 was old state      5
 New state      4 was old state      6
 New state      5 was old state      9
 Excitation Energies [eV] at current iteration:
 Root      1 :     2.199368211537556
 Root      2 :     2.605779076220130
 Root      3 :     3.792044890817792
 Root      4 :     3.959316688597414
 Root      5 :     4.200118494903995
 Root      6 :     4.225277666035200
 Root      7 :     4.355382116189748
 Root      8 :     4.433658348649070
 Root      9 :     4.508367129214340
 Root     10 :     4.593186673796019
 Root     11 :     4.698838460052857
 Root     12 :     4.822868922787360
 Root     13 :     5.048924548548920
 Root     14 :     5.231846070891301
 Root     15 :     5.267418837168651
 Root     16 :     5.292728478299670
 Root     17 :     5.505662988586513
 Root     18 :     6.075124674024228
 Root     19 :     6.696880132475758
 Root     20 :     7.091700974664913
 Iteration     2 Dimension    30 NMult    20 NNew     10
 CISAX will form    10 AO SS matrices at one time.
 NMat=    10 NSing=    10 JSym2X= 0.
 Root      1 not converged, maximum delta is    0.077471328950050
 Root      2 not converged, maximum delta is    0.060686611314653
 Root      3 not converged, maximum delta is    0.056932299389860
 Root      4 not converged, maximum delta is    0.056632809171397
 Root      5 not converged, maximum delta is    0.242892050200818
 Excitation Energies [eV] at current iteration:
 Root      1 :     1.692222989266552   Change is   -0.507145222271004
 Root      2 :     2.169666366237290   Change is   -0.436112709982841
 Root      3 :     3.415567290881027   Change is   -0.376477599936765
 Root      4 :     3.544639420876459   Change is   -0.414677267720954
 Root      5 :     3.725334220269399   Change is   -0.474784274634595
 Iteration     3 Dimension    40 NMult    30 NNew     10
 CISAX will form    10 AO SS matrices at one time.
 NMat=    10 NSing=    10 JSym2X= 0.
 Root      1 not converged, maximum delta is    0.019007222080282
 Root      2 not converged, maximum delta is    0.019982208249795
 Root      3 not converged, maximum delta is    0.045835342019717
 Root      4 not converged, maximum delta is    0.213425302241365
 Root      5 not converged, maximum delta is    0.208031335565365
 Excitation Energies [eV] at current iteration:
 Root      1 :     1.654833052672758   Change is   -0.037389936593794
 Root      2 :     2.145595150016937   Change is   -0.024071216220353
 Root      3 :     3.398346474173858   Change is   -0.017220816707169
 Root      4 :     3.506593436818289   Change is   -0.038045984058171
 Root      5 :     3.557784882147534   Change is   -0.167549338121865
 Iteration     4 Dimension    50 NMult    40 NNew     10
 CISAX will form    10 AO SS matrices at one time.
 NMat=    10 NSing=    10 JSym2X= 0.
 Root      1 not converged, maximum delta is    0.004219804481771
 Root      2 not converged, maximum delta is    0.002591649376898
 Root      3 not converged, maximum delta is    0.010595730855153
 Root      4 not converged, maximum delta is    0.056299434400070
 Root      5 not converged, maximum delta is    0.067351027796126
 Excitation Energies [eV] at current iteration:
 Root      1 :     1.650847561790274   Change is   -0.003985490882483
 Root      2 :     2.143022529682655   Change is   -0.002572620334282
 Root      3 :     3.394178471125555   Change is   -0.004168003048303
 Root      4 :     3.495638572625073   Change is   -0.010954864193216
 Root      5 :     3.539338192140950   Change is   -0.018446690006584
 Iteration     5 Dimension    60 NMult    50 NNew     10
 CISAX will form    10 AO SS matrices at one time.
 NMat=    10 NSing=    10 JSym2X= 0.
 Root      1 not converged, maximum delta is    0.001188516326020
 Root      2 has converged.
 Root      3 not converged, maximum delta is    0.004066252238379
 Root      4 not converged, maximum delta is    0.008224123865822
 Root      5 not converged, maximum delta is    0.018068195580990
 Excitation Energies [eV] at current iteration:
 Root      1 :     1.650504887982347   Change is   -0.000342673807927
 Root      2 :     2.142797581642678   Change is   -0.000224948039977
 Root      3 :     3.393585739749186   Change is   -0.000592731376369
 Root      4 :     3.494148403698611   Change is   -0.001490168926461
 Root      5 :     3.536377107043140   Change is   -0.002961085097810
 Iteration     6 Dimension    68 NMult    60 NNew      8
 CISAX will form     8 AO SS matrices at one time.
 NMat=     8 NSing=     8 JSym2X= 0.
 Root      1 has converged.
 Root      2 has converged.
 Root      3 not converged, maximum delta is    0.003664045003389
 Root      4 not converged, maximum delta is    0.008203089657567
 Root      5 not converged, maximum delta is    0.019479757214297
 Excitation Energies [eV] at current iteration:
 Root      1 :     1.650476772029862   Change is   -0.000028115952486
 Root      2 :     2.142795108434860   Change is   -0.000002473207818
 Root      3 :     3.393451223614171   Change is   -0.000134516135015
 Root      4 :     3.493755490305961   Change is   -0.000392913392651
 Root      5 :     3.535278943688617   Change is   -0.001098163354522
 Iteration     7 Dimension    74 NMult    68 NNew      6
 CISAX will form     6 AO SS matrices at one time.
 NMat=     6 NSing=     6 JSym2X= 0.
 Root      1 has converged.
 Root      2 has converged.
 Root      3 not converged, maximum delta is    0.001507397557234
 Root      4 not converged, maximum delta is    0.003387875498960
 Root      5 not converged, maximum delta is    0.008047693920886
 Excitation Energies [eV] at current iteration:
 Root      1 :     1.650476697537197   Change is   -0.000000074492665
 Root      2 :     2.142794650729994   Change is   -0.000000457704866
 Root      3 :     3.393420373622721   Change is   -0.000030849991450
 Root      4 :     3.493676252996219   Change is   -0.000079237309742
 Root      5 :     3.535041184492114   Change is   -0.000237759196503
 Iteration     8 Dimension    80 NMult    74 NNew      6
 CISAX will form     6 AO SS matrices at one time.
 NMat=     6 NSing=     6 JSym2X= 0.
 Root      1 has converged.
 Root      2 has converged.
 Root      3 has converged.
 Root      4 has converged.
 Root      5 not converged, maximum delta is    0.002236273505009
 Excitation Energies [eV] at current iteration:
 Root      1 :     1.650476654723436   Change is   -0.000000042813761
 Root      2 :     2.142793797199298   Change is   -0.000000853530696
 Root      3 :     3.393414824390248   Change is   -0.000005549232473
 Root      4 :     3.493664386240871   Change is   -0.000011866755348
 Root      5 :     3.535000213586148   Change is   -0.000040970905966
 Iteration     9 Dimension    82 NMult    80 NNew      2
 CISAX will form     2 AO SS matrices at one time.
 NMat=     2 NSing=     2 JSym2X= 0.
 Root      1 has converged.
 Root      2 has converged.
 Root      3 has converged.
 Root      4 has converged.
 Root      5 has converged.
 Excitation Energies [eV] at current iteration:
 Root      1 :     1.650476648506756   Change is   -0.000000006216680
 Root      2 :     2.142793623613828   Change is   -0.000000173585469
 Root      3 :     3.393414522981185   Change is   -0.000000301409062
 Root      4 :     3.493663772358471   Change is   -0.000000613882400
 Root      5 :     3.534994280740480   Change is   -0.000005932845667
 Convergence achieved on expansion vectors.
 ***********************************************************************
 Excited states from <AA,BB:AA,BB> singles matrix:
 ***********************************************************************
 
 1PDM for each excited state written to RWF  633
 Ground to excited state transition densities written to RWF  633
 Ground to excited state transition electric dipole moments (Au):
       state          X           Y           Z        Dip. S.      Osc.
         1         0.1573      3.1284     -0.3156      9.9115      0.4008
         2         1.5743      0.1006      0.1456      2.5097      0.1318
         3        -0.0185     -0.0746      0.0143      0.0061      0.0005
         4         0.8460     -0.2078      0.0574      0.7623      0.0652
         5        -0.7035      0.2261     -0.0054      0.5461      0.0473
 Ground to excited state transition velocity dipole moments (Au):
       state          X           Y           Z        Dip. S.      Osc.
         1        -0.0090     -0.1842      0.0192      0.0344      0.3777
         2        -0.1166     -0.0079     -0.0112      0.0138      0.1167
         3         0.0050      0.0070      0.0000      0.0001      0.0004
         4        -0.1035      0.0238     -0.0061      0.0113      0.0588
         5         0.0873     -0.0277      0.0037      0.0084      0.0431
 Ground to excited state transition magnetic dipole moments (Au):
       state          X           Y           Z
         1         0.0038     -0.2725     -2.3248
         2         0.0263      0.0842      0.1299
         3        -0.1959     -0.0445      1.1329
         4         0.0412     -0.4289      0.1779
         5        -0.1820     -0.6219     -0.5117
 Ground to excited state transition velocity quadrupole moments (Au):
       state          XX          YY          ZZ          XY          XZ          YZ
         1        -0.0438     -0.3754      0.0141     -2.0684      0.2425      0.0116
         2        -2.4640      0.0266      0.0127     -0.0591     -0.1309      0.0314
         3         0.0654     -0.1568      0.0160     -0.2739     -0.0069     -0.0532
         4        -2.2295      0.3027      0.0308      0.2737     -0.0186      0.0135
         5         1.9254     -0.1814      0.0018     -0.1555      0.0589      0.0259
 <0|del|b> * <b|rxdel|0> + <0|del|b> * <b|delr+rdel|0>
 Rotatory Strengths (R) in cgs (10**-40 erg-esu-cm/Gauss)
       state          XX          YY          ZZ    R(velocity)    E-M Angle
         1        60.9313    -29.5118     32.6097     21.3430       89.27
         2       -11.1755    -39.6988      4.3555    -15.5063      106.32
         3        -0.7143     -3.4975     -3.0648     -2.4255       97.40
         4       -34.4880    -13.9796    -37.2466    -28.5714      108.29
         5        44.6346    -40.6858     -6.9370     -0.9961       90.42
 1/2[<0|r|b>*<b|rxdel|0> + (<0|rxdel|b>*<b|r|0>)*]
 Rotatory Strengths (R) in cgs (10**-40 erg-esu-cm/Gauss)
       state          XX          YY          ZZ     R(length)
         1        -0.4206    602.7718   -518.8469     27.8348
         2       -29.2378     -5.9925    -13.3753    -16.2019
         3        -2.5567     -2.3485    -11.4398     -5.4483
         4       -24.6636    -63.0235     -7.2246    -31.6372
         5       -90.5638     99.4411     -1.9606      2.3056
  1/2[<0|del|b>*<b|r|0> + (<0|r|b>*<b|del|0>)*] (Au)
       state          X           Y           Z        Dip. S.   Osc.(frdel)
         1        -0.0014     -0.5761     -0.0061      0.5836      0.3891
         2        -0.1836     -0.0008     -0.0016      0.1860      0.1240
         3        -0.0001     -0.0005      0.0000      0.0006      0.0004
         4        -0.0876     -0.0049     -0.0004      0.0929      0.0619
         5        -0.0614     -0.0063     -0.0000      0.0677      0.0451

 Excitation energies and oscillator strengths:
 
 Excited State   1:      Singlet-A      1.6505 eV  751.20 nm  f=0.4008  <S**2>=0.000
     245 -> 248       -0.18918
     246 -> 247        0.68322
     245 <- 248       -0.11945
 This state for optimization and/or second-order correction.
 Total Energy, E(TD-HF/TD-DFT) =  -3007.79193116    
 Copying the excited state density for this state as the 1-particle RhoCI density.
 
 Excited State   2:      Singlet-A      2.1428 eV  578.61 nm  f=0.1318  <S**2>=0.000
     245 -> 247        0.64798
     246 -> 248        0.27085
 
 Excited State   3:      Singlet-A      3.3934 eV  365.37 nm  f=0.0005  <S**2>=0.000
     243 -> 247        0.67397
 
 Excited State   4:      Singlet-A      3.4937 eV  354.88 nm  f=0.0652  <S**2>=0.000
     240 -> 247        0.29556
     240 -> 249       -0.20969
     241 -> 247        0.12236
     242 -> 247        0.46558
     246 -> 248       -0.30870
 
 Excited State   5:      Singlet-A      3.5350 eV  350.73 nm  f=0.0473  <S**2>=0.000
     240 -> 247        0.47215
     240 -> 249       -0.30126
     240 -> 250        0.10422
     242 -> 247       -0.27014
     243 -> 247       -0.10126
     246 -> 248        0.24604
 SavETr:  write IOETrn=   770 NScale= 10 NData=  16 NLR=1 NState=    5 LETran=     100.
 Leave Link  914 at Wed Apr 27 22:20:07 2022, MaxMem= 10066329600 cpu:           40474.7 elap:            1696.7
 (Enter /sw/apps/gaussian-16.0/g16/l601.exe)
 Copying SCF densities to generalized density rwf, IOpCl= 0 IROHF=0.
 Hyperfine terms turned off by default for NAtoms > 100.

 **********************************************************************

            Population analysis using the SCF density.

 **********************************************************************

 Orbital symmetries:
       Occupied  (A) (A) (A) (A) (A) (A) (A) (A) (A) (A) (A) (A)
                 (A) (A) (A) (A) (A) (A) (A) (A) (A) (A) (A) (A)
                 (A) (A) (A) (A) (A) (A) (A) (A) (A) (A) (A) (A)
                 (A) (A) (A) (A) (A) (A) (A) (A) (A) (A) (A) (A)
                 (A) (A) (A) (A) (A) (A) (A) (A) (A) (A) (A) (A)
                 (A) (A) (A) (A) (A) (A) (A) (A) (A) (A) (A) (A)
                 (A) (A) (A) (A) (A) (A) (A) (A) (A) (A) (A) (A)
                 (A) (A) (A) (A) (A) (A) (A) (A) (A) (A) (A) (A)
                 (A) (A) (A) (A) (A) (A) (A) (A) (A) (A) (A) (A)
[...]
 Alpha virt. eigenvalues --    1.19971   1.20674   1.21366   1.21804   1.22199
 Alpha virt. eigenvalues --    1.22498   1.22811   1.23672   1.24230   1.24387
 Alpha virt. eigenvalues --    1.25129   1.25307   1.25661   1.26299   1.26620
 Alpha virt. eigenvalues --    1.27313   1.27547   1.27734   1.27806   1.28773
 Alpha virt. eigenvalues --    1.29100   1.29332   1.29856   1.30419   1.31328
 Alpha virt. eigenvalues --    1.31564   1.31842   1.32047   1.32551   1.33391
 Alpha virt. eigenvalues --    1.33781   1.34369   1.34605   1.34946   1.35379
 Alpha virt. eigenvalues --    1.35784   1.36732   1.37425   1.38010   1.38164
 Alpha virt. eigenvalues --    1.38554   1.39056   1.39622   1.39647   1.39992
 Alpha virt. eigenvalues --    1.40613   1.40799   1.41204   1.41441   1.41660
 Alpha virt. eigenvalues --    1.42084   1.42700   1.42998   1.43307   1.43436
 Alpha virt. eigenvalues --    1.44414   1.44742   1.45309   1.45412   1.45595
 Alpha virt. eigenvalues --    1.46058   1.46270   1.46547   1.46856   1.47262
 Alpha virt. eigenvalues --    1.47988   1.48151   1.48302   1.49356   1.49686
 Alpha virt. eigenvalues --    1.49998   1.50408   1.50421   1.50605   1.50952
 Alpha virt. eigenvalues --    1.51193   1.52069   1.52593   1.53349   1.53692
 Alpha virt. eigenvalues --    1.54220   1.54674   1.54834   1.55698   1.55863
 Alpha virt. eigenvalues --    1.56552   1.57477   1.57757   1.58036   1.58431
 Alpha virt. eigenvalues --    1.58741   1.58860   1.59264   1.59563   1.59874
 Alpha virt. eigenvalues --    1.60149   1.60365   1.60859   1.60943   1.61268
 Alpha virt. eigenvalues --    1.61707   1.61848   1.62249   1.62358   1.62460
 Alpha virt. eigenvalues --    1.63152   1.63242   1.63372   1.63508   1.63881
 Alpha virt. eigenvalues --    1.64026   1.64298   1.64451   1.64648   1.65169
 Alpha virt. eigenvalues --    1.65288   1.65723   1.66154   1.66366   1.66866
 Alpha virt. eigenvalues --    1.67236   1.67640   1.67755   1.68256   1.68799
 Alpha virt. eigenvalues --    1.68944   1.69308   1.69807   1.70457   1.71560
 Alpha virt. eigenvalues --    1.71698   1.71999   1.72243   1.72473   1.73146
 Alpha virt. eigenvalues --    1.73263   1.73470   1.74268   1.74673   1.75160
 Alpha virt. eigenvalues --    1.75287   1.75582   1.75945   1.77554   1.77591
 Alpha virt. eigenvalues --    1.77976   1.78241   1.78328   1.78462   1.78989
 Alpha virt. eigenvalues --    1.79159   1.79591   1.80039   1.80098   1.80565
 Alpha virt. eigenvalues --    1.80703   1.81218   1.81372   1.81502   1.81784
 Alpha virt. eigenvalues --    1.81944   1.82593   1.82787   1.83084   1.83217
 Alpha virt. eigenvalues --    1.83340   1.83664   1.84028   1.84252   1.84444
 Alpha virt. eigenvalues --    1.84614   1.84737   1.85227   1.85289   1.85675
 Alpha virt. eigenvalues --    1.85907   1.85999   1.86151   1.86321   1.86425
 Alpha virt. eigenvalues --    1.86691   1.86894   1.87122   1.87256   1.87379
 Alpha virt. eigenvalues --    1.87847   1.87993   1.88108   1.88274   1.88442
 Alpha virt. eigenvalues --    1.88782   1.89282   1.89362   1.89649   1.89666
 Alpha virt. eigenvalues --    1.89779   1.89903   1.90098   1.90458   1.90500
 Alpha virt. eigenvalues --    1.90687   1.90949   1.91218   1.91279   1.91852
 Alpha virt. eigenvalues --    1.92110   1.92133   1.92347   1.92389   1.92576
 Alpha virt. eigenvalues --    1.92657   1.92734   1.92893   1.93319   1.93403
 Alpha virt. eigenvalues --    1.93644   1.93888   1.94403   1.94686   1.94865
 Alpha virt. eigenvalues --    1.94968   1.95073   1.95272   1.95525   1.95581
 Alpha virt. eigenvalues --    1.95751   1.95940   1.96722   1.96752   1.96887
 Alpha virt. eigenvalues --    1.97110   1.97492   1.97733   1.97999   1.98115
 Alpha virt. eigenvalues --    1.98263   1.98613   1.98975   1.99407   1.99720
 Alpha virt. eigenvalues --    1.99934   2.00136   2.00209   2.00398   2.00766
 Alpha virt. eigenvalues --    2.00806   2.01128   2.01547   2.01685   2.02043
 Alpha virt. eigenvalues --    2.02106   2.02376   2.02831   2.02977   2.03308
 Alpha virt. eigenvalues --    2.03526   2.03790   2.03920   2.04126   2.04254
 Alpha virt. eigenvalues --    2.04604   2.04910   2.05065   2.05326   2.05901
 Alpha virt. eigenvalues --    2.06182   2.06606   2.07067   2.07117   2.07480
 Alpha virt. eigenvalues --    2.07710   2.08134   2.08378   2.08979   2.09025
 Alpha virt. eigenvalues --    2.09142   2.09881   2.10200   2.10347   2.10664
 Alpha virt. eigenvalues --    2.10896   2.10967   2.11321   2.11624   2.11754
 Alpha virt. eigenvalues --    2.12173   2.12613   2.13246   2.13485   2.13677
 Alpha virt. eigenvalues --    2.13926   2.14052   2.14703   2.15145   2.15264
 Alpha virt. eigenvalues --    2.15875   2.15998   2.16052   2.16270   2.16900
 Alpha virt. eigenvalues --    2.17194   2.17428   2.17533   2.17765   2.18201
 Alpha virt. eigenvalues --    2.18618   2.18806   2.19070   2.19510   2.19648
 Alpha virt. eigenvalues --    2.20046   2.20230   2.20637   2.20759   2.20877
 Alpha virt. eigenvalues --    2.21887   2.22085   2.22428   2.22538   2.23031
 Alpha virt. eigenvalues --    2.23381   2.24331   2.24403   2.24578   2.24770
 Alpha virt. eigenvalues --    2.25150   2.25610   2.25845   2.26402   2.26517
 Alpha virt. eigenvalues --    2.26787   2.27360   2.27583   2.27956   2.28205
 Alpha virt. eigenvalues --    2.28687   2.29172   2.29341   2.29889   2.30524
 Alpha virt. eigenvalues --    2.31033   2.31275   2.31695   2.31932   2.32572
 Alpha virt. eigenvalues --    2.33280   2.33457   2.33745   2.34203   2.34840
 Alpha virt. eigenvalues --    2.34953   2.35045   2.35067   2.35882   2.36677
 Alpha virt. eigenvalues --    2.37015   2.37633   2.38207   2.39066   2.39897
 Alpha virt. eigenvalues --    2.40136   2.40247   2.40528   2.40664   2.41138
 Alpha virt. eigenvalues --    2.41292   2.41468   2.41609   2.41910   2.42216
 Alpha virt. eigenvalues --    2.42401   2.43098   2.43220   2.43918   2.44295
 Alpha virt. eigenvalues --    2.44687   2.44845   2.45085   2.45626   2.45712
 Alpha virt. eigenvalues --    2.46649   2.46845   2.46959   2.47927   2.48030
 Alpha virt. eigenvalues --    2.48264   2.48586   2.48623   2.49183   2.49650
 Alpha virt. eigenvalues --    2.50136   2.50568   2.50789   2.51352   2.51862
 Alpha virt. eigenvalues --    2.52079   2.52191   2.52717   2.53771   2.53819
 Alpha virt. eigenvalues --    2.53906   2.54791   2.54866   2.55183   2.55514
 Alpha virt. eigenvalues --    2.55848   2.55907   2.55957   2.57009   2.57254
 Alpha virt. eigenvalues --    2.57316   2.58205   2.58225   2.58361   2.58860
 Alpha virt. eigenvalues --    2.59158   2.59275   2.59558   2.59781   2.61202
 Alpha virt. eigenvalues --    2.61374   2.61754   2.62557   2.62990   2.63573
 Alpha virt. eigenvalues --    2.63777   2.64737   2.65094   2.65204   2.65478
 Alpha virt. eigenvalues --    2.65485   2.65745   2.66556   2.66865   2.66916
 Alpha virt. eigenvalues --    2.67067   2.67398   2.67610   2.68503   2.69584
 Alpha virt. eigenvalues --    2.70255   2.70403   2.71019   2.71204   2.71610
 Alpha virt. eigenvalues --    2.71905   2.72446   2.72647   2.72764   2.73107
 Alpha virt. eigenvalues --    2.73535   2.74055   2.74169   2.74514   2.75565
 Alpha virt. eigenvalues --    2.75586   2.76015   2.76295   2.76640   2.77746
 Alpha virt. eigenvalues --    2.78253   2.78684   2.79370   2.79657   2.79806
 Alpha virt. eigenvalues --    2.80020   2.80721   2.81115   2.81433   2.81860
 Alpha virt. eigenvalues --    2.81994   2.82549   2.83060   2.83160   2.83321
 Alpha virt. eigenvalues --    2.83517   2.83897   2.84177   2.84825   2.85165
 Alpha virt. eigenvalues --    2.85406   2.85895   2.86477   2.87066   2.87369
 Alpha virt. eigenvalues --    2.88098   2.88819   2.89818   2.89987   2.91295
 Alpha virt. eigenvalues --    2.91373   2.92044   2.92436   2.92633   2.92757
 Alpha virt. eigenvalues --    2.93483   2.94555   2.94799   2.95121   2.95477
 Alpha virt. eigenvalues --    2.96033   2.96353   2.97222   2.97968   2.98223
 Alpha virt. eigenvalues --    2.98981   2.99175   2.99349   2.99751   2.99984
 Alpha virt. eigenvalues --    3.00126   3.00476   3.00616   3.00807   3.00936
 Alpha virt. eigenvalues --    3.01086   3.01843   3.02132   3.02247   3.02504
 Alpha virt. eigenvalues --    3.02985   3.03197   3.03383   3.03727   3.04015
 Alpha virt. eigenvalues --    3.04139   3.04784   3.05037   3.05326   3.05402
 Alpha virt. eigenvalues --    3.05624   3.05788   3.06560   3.06665   3.06957
 Alpha virt. eigenvalues --    3.07263   3.07390   3.07760   3.08453   3.08630
 Alpha virt. eigenvalues --    3.08891   3.08930   3.09657   3.10012   3.10118
 Alpha virt. eigenvalues --    3.11243   3.11560   3.12041   3.12221   3.12740
 Alpha virt. eigenvalues --    3.13180   3.13500   3.13551   3.13707   3.14761
 Alpha virt. eigenvalues --    3.14918   3.16134   3.16833   3.17101   3.17491
 Alpha virt. eigenvalues --    3.18117   3.18758   3.18912   3.19348   3.20039
 Alpha virt. eigenvalues --    3.20280   3.20514   3.21802   3.22603   3.24301
 Alpha virt. eigenvalues --    3.24440   3.25527   3.26011   3.26906   3.27299
 Alpha virt. eigenvalues --    3.29412   3.29521   3.29739   3.30000   3.33587
 Alpha virt. eigenvalues --    3.34242   3.37446   3.44211   3.46622   3.48294
 Alpha virt. eigenvalues --    3.50962   3.52904   3.55388   3.57480   3.61845
 Alpha virt. eigenvalues --    3.66242   3.67279   3.67395   3.73218   3.74309
 Alpha virt. eigenvalues --    3.75790   3.78687
          Condensed to atoms (all electrons):
 Mulliken charges:
               1
     1  Mg   0.962036
     2  C   -0.045368
     3  C   -0.097275
     4  C   -0.051425
     5  C   -0.101656
     6  N   -0.371087
     7  C    0.039637
     8  C   -0.071377
     9  C   -0.114112
    10  C    0.104218
    11  C    0.014632
    12  C   -0.027199
    13  C    0.039567
    14  C    0.208458
    15  O   -0.238501
    16  O   -0.401281
    17  N   -0.375001
    18  C    0.121881
    19  C   -0.170192
    20  C   -0.039674
    21  C    0.120909
    22  C    0.093394
    23  C   -0.010992
    24  O   -0.205954
    25  C    0.005453
    26  N   -0.332394
    27  C    0.004391
    28  C   -0.084264
    29  C   -0.104974
    30  C    0.076077
    31  C    0.036529
    32  C   -0.000100
    33  C   -0.059832
    34  N   -0.461932
    35  C    0.160932
    36  C   -0.167718
    37  C   -0.035625
    38  C    0.170236
    39  C    0.055071
    40  C    0.140991
    41  O   -0.202633
    42  C   -0.118218
    43  C    0.258365
    44  O   -0.227965
    45  O   -0.394905
    46  C    0.133983
    47  C    0.264683
    48  C   -0.127156
    49  C   -0.229118
    50  C    0.053952
    51  C    0.008553
    52  C   -0.020031
    53  C    0.004936
    54  C   -0.185701
    55  C   -0.002361
    56  C    0.034799
    57  C   -0.026957
    58  C    0.030340
    59  C   -0.147269
    60  C   -0.019334
    61  C    0.017217
    62  C   -0.034391
    63  C    0.020760
    64  C   -0.215034
    65  C   -0.006396
    66  C   -0.015567
    67  H   -0.017105
    68  H    0.026322
    69  H   -0.002258
    70  H    0.054846
    71  H    0.032536
    72  H    0.039238
    73  H    0.031170
    74  H    0.044458
    75  H    0.041440
    76  H    0.047179
    77  H    0.050758
    78  H    0.050348
    79  H    0.044495
    80  H    0.044607
    81  H    0.041029
    82  H    0.055826
    83  H    0.051588
    84  H    0.049374
    85  H    0.043677
    86  H    0.033350
    87  H    0.043520
    88  H    0.049168
    89  H    0.036488
    90  H    0.037740
    91  H    0.028490
    92  H    0.032161
    93  H    0.035115
    94  H    0.051475
    95  H    0.037475
    96  H    0.047667
    97  H    0.053750
    98  H    0.081734
    99  H    0.050018
   100  H    0.049551
   101  H    0.072288
   102  H    0.075767
   103  H    0.056870
   104  H    0.023135
   105  H    0.048063
   106  H    0.060418
   107  H    0.005157
   108  H    0.028269
   109  H    0.012220
   110  H    0.012013
   111  H    0.019383
   112  H    0.006265
   113  H    0.021414
   114  H    0.018321
   115  H    0.046686
   116  H    0.019594
   117  H    0.030046
   118  H    0.004071
   119  H    0.009479
   120  H    0.015646
   121  H    0.033622
   122  H   -0.000810
   123  H    0.005850
   124  H    0.015075
   125  H    0.020054
   126  H    0.016285
   127  H    0.025190
   128  H   -0.003560
   129  H    0.022209
   130  H    0.008301
   131  H    0.006341
   132  H    0.020906
   133  H    0.011179
   134  H    0.020325
   135  H    0.030730
   136  H    0.021069
   137  H    0.046308
   138  H    0.033235
   139  H    0.033704
   140  H    0.010622
 Sum of Mulliken charges =  -0.00000
 Mulliken charges with hydrogens summed into heavy atoms:
               1
     1  Mg   0.962036
     2  C   -0.045368
     3  C   -0.114379
     4  C   -0.025104
     5  C   -0.103914
     6  N   -0.371087
     7  C    0.039637
     8  C   -0.016531
     9  C   -0.081576
    10  C    0.104218
    11  C    0.129498
    12  C    0.061420
    13  C    0.140674
    14  C    0.208458
    15  O   -0.238501
    16  O   -0.401281
    17  N   -0.375001
    18  C    0.121881
    19  C   -0.170192
    20  C   -0.039674
    21  C    0.120909
    22  C    0.223525
    23  C   -0.010992
    24  O   -0.205954
    25  C    0.162241
    26  N   -0.332394
    27  C    0.004391
    28  C   -0.040587
    29  C   -0.071624
    30  C    0.076077
    31  C    0.165706
    32  C    0.066130
    33  C    0.058919
    34  N   -0.461932
    35  C    0.160932
    36  C   -0.167718
    37  C   -0.035625
    38  C    0.170236
    39  C    0.193963
    40  C    0.140991
    41  O   -0.202633
    42  C   -0.036484
    43  C    0.258365
    44  O   -0.227965
    45  O   -0.394905
    46  C    0.305840
    47  C    0.397321
    48  C   -0.104021
    49  C   -0.229118
    50  C    0.167590
    51  C    0.049041
    52  C    0.011364
    53  C    0.032616
    54  C   -0.167380
    55  C    0.093965
    56  C    0.048348
    57  C    0.022311
    58  C    0.035380
    59  C   -0.132194
    60  C    0.042195
    61  C    0.035866
    62  C   -0.019749
    63  C    0.052845
    64  C   -0.194709
    65  C    0.091712
    66  C    0.061993
 Electronic spatial extent (au):  <R**2>=         137033.4103
 Charge=             -0.0000 electrons
 Dipole moment (field-independent basis, Debye):
    X=             -1.7185    Y=              3.7255    Z=             -0.4139  Tot=              4.1236
 Quadrupole moment (field-independent basis, Debye-Ang):
   XX=           -362.7206   YY=           -411.0486   ZZ=           -412.7918
   XY=              9.8742   XZ=             15.5119   YZ=              0.1441
 Traceless Quadrupole moment (field-independent basis, Debye-Ang):
   XX=             32.7997   YY=            -15.5283   ZZ=            -17.2715
   XY=              9.8742   XZ=             15.5119   YZ=              0.1441
 Octapole moment (field-independent basis, Debye-Ang**2):
  XXX=            371.7486  YYY=            121.5781  ZZZ=            -13.9609  XYY=           -223.8285
  XXY=           -258.9020  XXZ=             90.3787  XZZ=             16.7788  YZZ=              2.2244
  YYZ=            -42.4864  XYZ=            -22.6985
 Hexadecapole moment (field-independent basis, Debye-Ang**3):
 XXXX=        -155589.2007 YYYY=         -22494.5426 ZZZZ=          -3351.2033 XXXY=          -1943.2434
 XXXZ=            324.8304 YYYX=            754.5683 YYYZ=            148.0867 ZZZX=             19.9472
 ZZZY=             42.2903 XXYY=         -31971.1517 XXZZ=         -28093.1459 YYZZ=          -4203.6600
 XXYZ=           -266.8550 YYXZ=            -11.0983 ZZXY=            156.8290
 N-N= 9.383163540435D+03 E-N=-2.575942653332D+04  KE= 2.976368557212D+03
 Leave Link  601 at Wed Apr 27 22:20:07 2022, MaxMem= 10066329600 cpu:              12.7 elap:               0.6
 (Enter /sw/apps/gaussian-16.0/g16/l9999.exe)
 1\1\GINC-BP1-COMPUTE182\SP\RwB97XD TD-FC\def2SVP\C55H74Mg1N4O6\OF15641
 \27-Apr-2022\0\\#p wB97XD/Def2SVP td=(nstates=5)\\step_1301_chromophor
 e_4 TDDFT with wB97XD functional\\0,1\Mg,0,9.557,3.47,27.111\C,0,10.72
 9,1.798,29.925\C,0,8.291,5.926,29.128\C,0,8.028,4.892,24.422\C,0,10.62
 2,0.806,25.132\N,0,9.475,3.752,29.253\C,0,10.051,3.013,30.241\C,0,9.70
 2,3.544,31.669\C,0,8.79,4.782,31.316\C,0,8.948,4.895,29.786\C,0,7.359,
 4.628,31.798\C,0,10.961,3.842,32.481\C,0,10.885,4.675,33.74\C,0,11.864
 ,4.44,34.826\O,0,12.949,4.947,34.941\O,0,11.299,3.707,35.863\N,0,8.291
 ,5.201,26.817\C,0,7.906,6.055,27.736\C,0,7.214,7.109,27.17\C,0,7.217,6
 .899,25.794\C,0,7.849,5.632,25.615\C,0,6.692,8.197,28.\C,0,6.778,7.804
 ,24.721\O,0,6.789,7.445,23.594\C,0,6.217,9.135,25.006\N,0,9.105,2.707,
 25.123\C,0,8.584,3.561,24.182\C,0,8.665,3.003,22.729\C,0,9.494,1.689,2
 2.918\C,0,9.779,1.72,24.51\C,0,7.295,2.773,22.046\C,0,10.782,1.498,22.
 126\C,0,10.869,0.119,21.461\N,0,10.507,1.686,27.385\C,0,10.938,0.74,26
 .484\C,0,11.639,-0.24,27.222\C,0,11.636,0.082,28.622\C,0,10.878,1.298,
 28.631\C,0,12.306,-1.458,26.604\C,0,12.003,-0.338,29.923\O,0,12.588,-1
 .334,30.344\C,0,11.439,0.818,30.873\C,0,10.486,0.256,31.944\O,0,9.342,
 -0.136,31.852\O,0,11.259,0.067,33.107\C,0,10.506,-0.472,34.285\C,0,12.
 14,3.466,37.109\C,0,11.718,4.518,38.114\C,0,12.062,4.514,39.413\C,0,12
 .752,3.481,40.265\C,0,11.772,5.801,40.19\C,0,10.528,5.853,41.094\C,0,9
 .644,7.108,40.677\C,0,9.641,8.219,41.783\C,0,8.556,7.9,42.894\C,0,9.50
 2,9.614,41.152\C,0,10.716,10.524,41.373\C,0,10.438,11.647,42.421\C,0,1
 1.343,11.507,43.68\C,0,12.465,12.618,43.622\C,0,10.554,11.513,44.938\C
 ,0,11.39,11.248,46.181\C,0,10.55,10.761,47.345\C,0,10.4,9.19,47.372\C,
 0,8.931,8.814,46.942\C,0,10.827,8.604,48.752\H,0,7.861,6.661,29.812\H,
 0,7.813,5.357,23.457\H,0,10.966,-0.052,24.55\H,0,9.245,2.744,32.253\H,
 0,9.064,5.718,31.803\H,0,6.631,4.692,30.989\H,0,7.111,5.435,32.488\H,0
 ,7.156,3.661,32.258\H,0,11.724,4.285,31.842\H,0,11.248,2.825,32.748\H,
 0,9.898,4.851,34.169\H,0,11.168,5.651,33.344\H,0,7.337,9.031,27.722\H,
 0,6.746,8.056,29.079\H,0,5.683,8.483,27.704\H,0,6.914,9.793,25.525\H,0
 ,5.311,8.911,25.569\H,0,5.909,9.577,24.058\H,0,9.277,3.754,22.231\H,0,
 8.951,0.785,22.639\H,0,7.145,3.483,21.233\H,0,6.461,2.959,22.722\H,0,7
 .278,1.742,21.692\H,0,11.593,1.705,22.824\H,0,10.659,2.267,21.363\H,0,
 10.489,-0.608,22.179\H,0,11.91,-0.184,21.352\H,0,10.372,0.036,20.494\H
 ,0,12.96,-1.2,25.771\H,0,11.637,-2.225,26.215\H,0,12.917,-1.966,27.35\
 H,0,12.262,1.246,31.445\H,0,10.097,0.404,34.788\H,0,11.26,-0.887,34.95
 4\H,0,9.772,-1.267,34.155\H,0,13.229,3.499,37.066\H,0,11.895,2.496,37.
 541\H,0,11.073,5.369,37.898\H,0,12.169,3.229,41.15\H,0,13.789,3.711,40
 .512\H,0,12.699,2.64,39.574\H,0,11.804,6.66,39.519\H,0,12.599,5.943,40
 .885\H,0,10.953,5.844,42.098\H,0,9.902,4.969,41.219\H,0,8.606,6.778,40
 .635\H,0,9.777,7.429,39.644\H,0,10.594,8.192,42.312\H,0,9.059,7.417,43
 .732\H,0,7.768,7.259,42.5\H,0,7.996,8.8,43.143\H,0,8.564,10.026,41.524
 \H,0,9.354,9.603,40.072\H,0,10.781,11.026,40.408\H,0,11.671,10.076,41.
 648\H,0,9.378,11.758,42.648\H,0,10.53,12.62,41.939\H,0,11.9,10.57,43.6
 82\H,0,13.502,12.395,43.872\H,0,12.358,13.437,44.332\H,0,12.496,13.074
 ,42.632\H,0,9.963,10.597,44.944\H,0,9.897,12.36,45.133\H,0,11.886,12.1
 6,46.512\H,0,12.213,10.583,45.921\H,0,9.597,11.29,47.347\H,0,11.097,11
 .006,48.255\H,0,11.071,8.715,46.656\H,0,8.265,9.371,47.601\H,0,8.788,7
 .767,47.208\H,0,8.866,8.973,45.866\H,0,11.91,8.557,48.867\H,0,10.318,7
 .743,49.184\H,0,10.573,9.416,49.434\\Version=ES64L-G16RevA.03\State=1-
 A\HF=-3007.8525851\RMSD=7.053e-09\PG=C01 [X(C55H74Mg1N4O6)]\\@


     "IF I COULD JUST GET IT ON PAPER"
 LIFE AND INK, THEY RUN OUT AT THE SAME TIME,
 OR SO SAID MY OLD FRIEND THE SQUID.
     -- JIMMY BUFFETT, 1981
 Job cpu time:       0 days 14 hours 38 minutes 28.8 seconds.
 Elapsed time:       0 days  0 hours 37 minutes  2.7 seconds.
 File lengths (MBytes):  RWF=   8929 Int=      0 D2E=      0 Chk=    390 Scr=      1
 Normal termination of Gaussian 16 at Wed Apr 27 22:20:08 2022.
