 Entering Gaussian System, Link 0=g16
 Initial command:
 /sw/apps/gaussian-16.0/g16/l1.exe "/tmp/Gau-252074.inp" -scrdir="/tmp/"
 Entering Link 1 = /sw/apps/gaussian-16.0/g16/l1.exe PID=    252075.
  
 Copyright (c) 1988,1990,1992,1993,1995,1998,2003,2009,2016,
            Gaussian, Inc.  All Rights Reserved.
  
 This is part of the Gaussian(R) 16 program.  It is based on
 the Gaussian(R) 09 system (copyright 2009, Gaussian, Inc.),
 the Gaussian(R) 03 system (copyright 2003, Gaussian, Inc.),
 the Gaussian(R) 98 system (copyright 1998, Gaussian, Inc.),
 the Gaussian(R) 94 system (copyright 1995, Gaussian, Inc.),
 the Gaussian 92(TM) system (copyright 1992, Gaussian, Inc.),
 the Gaussian 90(TM) system (copyright 1990, Gaussian, Inc.),
 the Gaussian 88(TM) system (copyright 1988, Gaussian, Inc.),
 the Gaussian 86(TM) system (copyright 1986, Carnegie Mellon
 University), and the Gaussian 82(TM) system (copyright 1983,
 Carnegie Mellon University). Gaussian is a federally registered
 trademark of Gaussian, Inc.
  
 This software contains proprietary and confidential information,
 including trade secrets, belonging to Gaussian, Inc.
  
 This software is provided under written license and may be
 used, copied, transmitted, or stored only in accord with that
 written license.
  
 The following legend is applicable only to US Government
 contracts under FAR:
  
                    RESTRICTED RIGHTS LEGEND
  
 Use, reproduction and disclosure by the US Government is
 subject to restrictions as set forth in subparagraphs (a)
 and (c) of the Commercial Computer Software - Restricted
 Rights clause in FAR 52.227-19.
  
 Gaussian, Inc.
 340 Quinnipiac St., Bldg. 40, Wallingford CT 06492
  
  
 ---------------------------------------------------------------
 Warning -- This program may not be used in any manner that
 competes with the business of Gaussian, Inc. or will provide
 assistance to any competitor of Gaussian, Inc.  The licensee
 of this program is prohibited from giving any competitor of
 Gaussian, Inc. access to this program.  By using this program,
 the user acknowledges that Gaussian, Inc. is engaged in the
 business of creating and licensing software in the field of
 computational chemistry and represents and warrants to the
 licensee that it is not a competitor of Gaussian, Inc. and that
 it will not use this program in any manner prohibited above.
 ---------------------------------------------------------------
  

 Cite this work as:
 Gaussian 16, Revision A.03,
 M. J. Frisch, G. W. Trucks, H. B. Schlegel, G. E. Scuseria, 
 M. A. Robb, J. R. Cheeseman, G. Scalmani, V. Barone, 
 G. A. Petersson, H. Nakatsuji, X. Li, M. Caricato, A. V. Marenich, 
 J. Bloino, B. G. Janesko, R. Gomperts, B. Mennucci, H. P. Hratchian, 
 J. V. Ortiz, A. F. Izmaylov, J. L. Sonnenberg, D. Williams-Young, 
 F. Ding, F. Lipparini, F. Egidi, J. Goings, B. Peng, A. Petrone, 
 T. Henderson, D. Ranasinghe, V. G. Zakrzewski, J. Gao, N. Rega, 
 G. Zheng, W. Liang, M. Hada, M. Ehara, K. Toyota, R. Fukuda, 
 J. Hasegawa, M. Ishida, T. Nakajima, Y. Honda, O. Kitao, H. Nakai, 
 T. Vreven, K. Throssell, J. A. Montgomery, Jr., J. E. Peralta, 
 F. Ogliaro, M. J. Bearpark, J. J. Heyd, E. N. Brothers, K. N. Kudin, 
 V. N. Staroverov, T. A. Keith, R. Kobayashi, J. Normand, 
 K. Raghavachari, A. P. Rendell, J. C. Burant, S. S. Iyengar, 
 J. Tomasi, M. Cossi, J. M. Millam, M. Klene, C. Adamo, R. Cammi, 
 J. W. Ochterski, R. L. Martin, K. Morokuma, O. Farkas, 
 J. B. Foresman, and D. J. Fox, Gaussian, Inc., Wallingford CT, 2016.
 
 ******************************************
 Gaussian 16:  ES64L-G16RevA.03 25-Dec-2016
                 3-May-2022 
 ******************************************
 %nproc=24
 Will use up to   24 processors via shared memory.
 %mem=75GB
 ---------------------------------
 #p PBE1PBE/Def2SVP td=(nstates=5)
 ---------------------------------
 1/38=1,172=1/1;
 2/12=2,17=6,18=5,40=1/2;
 3/5=43,7=101,11=9,25=1,30=1,74=-13/1,2,3,8;
 4//1;
 5/5=2,38=5/2;
 8/6=1,10=1,108=5/1;
 9/41=5,42=1,70=2/14;
 6/7=2,8=2,9=2,10=2/1;
 99/5=1,9=1/99;
 Leave Link    1 at Tue May  3 20:28:25 2022, MaxMem= 10066329600 cpu:               1.3 elap:               0.1
 (Enter /sw/apps/gaussian-16.0/g16/l101.exe)
 -----------------------------------------------------
 step_101_chromophore_15 TDDFT with PBE1PBE functional
 -----------------------------------------------------
 Symbolic Z-matrix:
 Charge =  0 Multiplicity = 1
 Mg                    47.224    35.103    28.298 
 C                     45.383    33.507    30.729 
 C                     47.534    37.729    30.5 
 C                     48.808    36.91     25.758 
 C                     46.59     32.601    26.093 
 N                     46.665    35.437    30.403 
 C                     45.995    34.583    31.205 
 C                     45.979    35.025    32.655 
 C                     46.417    36.581    32.477 
 C                     46.882    36.601    31.04 
 C                     45.426    37.681    32.774 
 C                     47.044    34.226    33.453 
 C                     47.203    34.505    34.957 
 C                     46.15     35.366    35.789 
 O                     44.947    35.454    35.538 
 O                     46.871    35.968    36.805 
 N                     48.048    36.945    28.172 
 C                     48.081    37.897    29.216 
 C                     48.633    39.09     28.723 
 C                     48.974    38.889    27.354 
 C                     48.63     37.476    27.016 
 C                     49.06     40.293    29.555 
 C                     49.58     39.958    26.413 
 O                     50.15     39.624    25.353 
 C                     49.418    41.374    26.732 
 N                     47.703    34.841    26.29 
 C                     48.363    35.641    25.427 
 C                     48.298    35.108    23.961 
 C                     47.821    33.614    24.151 
 C                     47.315    33.682    25.56 
 C                     47.402    36.077    23.147 
 C                     48.92     32.525    24.01 
 C                     48.51     31.384    23.021 
 N                     46.149    33.363    28.39 
 C                     46.031    32.423    27.354 
 C                     45.258    31.322    28.006 
 C                     44.862    31.753    29.248 
 C                     45.535    32.966    29.478 
 C                     44.978    29.963    27.334 
 C                     44.149    31.362    30.43 
 O                     43.535    30.344    30.72 
 C                     44.36     32.531    31.383 
 C                     44.591    32.02     32.75 
 O                     45.413    31.211    33.111 
 O                     43.7      32.609    33.583 
 C                     43.773    32.105    34.95 
 C                     45.992    36.782    37.654 
 C                     46.889    37.78     38.358 
 C                     46.626    38.599    39.418 
 C                     45.261    38.938    39.982 
 C                     47.826    39.196    40.206 
 C                     48.181    40.609    39.774 
 C                     48.714    41.505    40.893 
 C                     49.501    42.662    40.218 
 C                     51.026    42.341    40.309 
 C                     49.125    44.038    40.947 
 C                     48.107    44.935    40.167 
 C                     46.902    45.224    40.945 
 C                     46.348    46.636    40.587 
 C                     47.115    47.764    41.419 
 C                     44.826    46.68     40.822 
 C                     43.981    46.652    39.585 
 C                     42.663    45.93     39.766 
 C                     41.454    46.524    39.029 
 C                     40.137    46.045    39.667 
 C                     41.503    46.226    37.464 
 H                     47.631    38.575    31.182 
 H                     49.148    37.582    24.967 
 H                     46.453    31.689    25.507 
 H                     44.981    34.853    33.057 
 H                     47.117    36.833    33.274 
 H                     44.432    37.234    32.784 
 H                     45.484    38.51     32.069 
 H                     45.559    38.101    33.771 
 H                     47.931    34.485    32.875 
 H                     47.051    33.14     33.358 
 H                     48.223    34.889    34.969 
 H                     47.168    33.527    35.437 
 H                     50.141    40.381    29.445 
 H                     48.77     40.205    30.602 
 H                     48.433    41.122    29.227 
 H                     49.527    41.946    25.81 
 H                     50.082    41.71     27.529 
 H                     48.381    41.457    27.056 
 H                     49.292    34.979    23.532 
 H                     46.884    33.435    23.623 
 H                     48.151    36.33     22.396 
 H                     46.985    36.908    23.716 
 H                     46.575    35.577    22.642 
 H                     49.238    32.098    24.962 
 H                     49.802    32.964    23.543 
 H                     49.275    31.352    22.245 
 H                     47.542    31.596    22.567 
 H                     48.486    30.444    23.573 
 H                     43.945    29.692    27.551 
 H                     45.667    29.232    27.759 
 H                     45.074    29.996    26.249 
 H                     43.442    33.118    31.349 
 H                     43.748    31.015    34.966 
 H                     42.973    32.551    35.54 
 H                     44.77     32.394    35.284 
 H                     45.556    36.023    38.303 
 H                     45.238    37.402    37.169 
 H                     47.956    37.637    38.189 
 H                     45.359    38.433    40.943 
 H                     44.375    38.546    39.483 
 H                     45.187    40.006    40.184 
 H                     48.731    38.62     40.015 
 H                     47.608    39.209    41.274 
 H                     47.199    41.036    39.569 
 H                     48.824    40.574    38.895 
 H                     49.391    40.909    41.504 
 H                     47.823    41.889    41.391 
 H                     49.311    42.8      39.153 
 H                     51.501    42.718    39.403 
 H                     51.126    41.266    40.158 
 H                     51.556    42.723    41.181 
 H                     50.051    44.61     41.009 
 H                     48.772    43.867    41.964 
 H                     47.73     44.513    39.235 
 H                     48.667    45.843    39.939 
 H                     46.971    45.219    42.033 
 H                     46.116    44.501    40.726 
 H                     46.536    46.807    39.528 
 H                     46.578    48.189    42.267 
 H                     47.197    48.581    40.703 
 H                     48.072    47.538    41.89 
 H                     44.559    47.596    41.349 
 H                     44.464    45.89     41.479 
 H                     44.545    46.209    38.765 
 H                     43.805    47.721    39.464 
 H                     42.408    45.92     40.826 
 H                     42.807    44.95     39.312 
 H                     41.395    47.61     39.104 
 H                     39.731    46.947    40.126 
 H                     40.351    45.269    40.402 
 H                     39.471    45.577    38.943 
 H                     40.462    46.071    37.183 
 H                     42.045    45.31     37.228 
 H                     41.816    47.063    36.84 
 
 ITRead=  0  0  0  0  0  0  0  0  0  0  0  0  0  0  0  0  0  0  0  0
 ITRead=  0  0  0  0  0  0  0  0  0  0  0  0  0  0  0  0  0  0  0  0
 ITRead=  0  0  0  0  0  0  0  0  0  0  0  0  0  0  0  0  0  0  0  0
 ITRead=  0  0  0  0  0  0  0  0  0  0  0  0  0  0  0  0  0  0  0  0
 ITRead=  0  0  0  0  0  0  0  0  0  0  0  0  0  0  0  0  0  0  0  0
 ITRead=  0  0  0  0  0  0  0  0  0  0  0  0  0  0  0  0  0  0  0  0
 ITRead=  0  0  0  0  0  0  0  0  0  0  0  0  0  0  0  0  0  0  0  0
 MicOpt= -1 -1 -1 -1 -1 -1 -1 -1 -1 -1 -1 -1 -1 -1 -1 -1 -1 -1 -1 -1
 MicOpt= -1 -1 -1 -1 -1 -1 -1 -1 -1 -1 -1 -1 -1 -1 -1 -1 -1 -1 -1 -1
 MicOpt= -1 -1 -1 -1 -1 -1 -1 -1 -1 -1 -1 -1 -1 -1 -1 -1 -1 -1 -1 -1
 MicOpt= -1 -1 -1 -1 -1 -1 -1 -1 -1 -1 -1 -1 -1 -1 -1 -1 -1 -1 -1 -1
 MicOpt= -1 -1 -1 -1 -1 -1 -1 -1 -1 -1 -1 -1 -1 -1 -1 -1 -1 -1 -1 -1
 MicOpt= -1 -1 -1 -1 -1 -1 -1 -1 -1 -1 -1 -1 -1 -1 -1 -1 -1 -1 -1 -1
 MicOpt= -1 -1 -1 -1 -1 -1 -1 -1 -1 -1 -1 -1 -1 -1 -1 -1 -1 -1 -1 -1
 NAtoms=    140 NQM=      140 NQMF=       0 NMMI=      0 NMMIF=      0
                NMic=       0 NMicF=      0.
                    Isotopes and Nuclear Properties:
 (Nuclear quadrupole moments (NQMom) in fm**2, nuclear magnetic moments (NMagM)
  in nuclear magnetons)

  Atom         1           2           3           4           5           6           7           8           9          10
 IAtWgt=          24          12          12          12          12          14          12          12          12          12
 AtmWgt=  23.9850450  12.0000000  12.0000000  12.0000000  12.0000000  14.0030740  12.0000000  12.0000000  12.0000000  12.0000000
 NucSpn=           0           0           0           0           0           2           0           0           0           0
 AtZEff=  -0.0000000  -0.0000000  -0.0000000  -0.0000000  -0.0000000  -0.0000000  -0.0000000  -0.0000000  -0.0000000  -0.0000000
 NQMom=    0.0000000   0.0000000   0.0000000   0.0000000   0.0000000   2.0440000   0.0000000   0.0000000   0.0000000   0.0000000
 NMagM=    0.0000000   0.0000000   0.0000000   0.0000000   0.0000000   0.4037610   0.0000000   0.0000000   0.0000000   0.0000000
 AtZNuc=  12.0000000   6.0000000   6.0000000   6.0000000   6.0000000   7.0000000   6.0000000   6.0000000   6.0000000   6.0000000

  Atom        11          12          13          14          15          16          17          18          19          20
 IAtWgt=          12          12          12          12          16          16          14          12          12          12
 AtmWgt=  12.0000000  12.0000000  12.0000000  12.0000000  15.9949146  15.9949146  14.0030740  12.0000000  12.0000000  12.0000000
 NucSpn=           0           0           0           0           0           0           2           0           0           0
 AtZEff=  -0.0000000  -0.0000000  -0.0000000  -0.0000000  -0.0000000  -0.0000000  -0.0000000  -0.0000000  -0.0000000  -0.0000000
 NQMom=    0.0000000   0.0000000   0.0000000   0.0000000   0.0000000   0.0000000   2.0440000   0.0000000   0.0000000   0.0000000
 NMagM=    0.0000000   0.0000000   0.0000000   0.0000000   0.0000000   0.0000000   0.4037610   0.0000000   0.0000000   0.0000000
 AtZNuc=   6.0000000   6.0000000   6.0000000   6.0000000   8.0000000   8.0000000   7.0000000   6.0000000   6.0000000   6.0000000

  Atom        21          22          23          24          25          26          27          28          29          30
 IAtWgt=          12          12          12          16          12          14          12          12          12          12
 AtmWgt=  12.0000000  12.0000000  12.0000000  15.9949146  12.0000000  14.0030740  12.0000000  12.0000000  12.0000000  12.0000000
 NucSpn=           0           0           0           0           0           2           0           0           0           0
 AtZEff=  -0.0000000  -0.0000000  -0.0000000  -0.0000000  -0.0000000  -0.0000000  -0.0000000  -0.0000000  -0.0000000  -0.0000000
 NQMom=    0.0000000   0.0000000   0.0000000   0.0000000   0.0000000   2.0440000   0.0000000   0.0000000   0.0000000   0.0000000
 NMagM=    0.0000000   0.0000000   0.0000000   0.0000000   0.0000000   0.4037610   0.0000000   0.0000000   0.0000000   0.0000000
 AtZNuc=   6.0000000   6.0000000   6.0000000   8.0000000   6.0000000   7.0000000   6.0000000   6.0000000   6.0000000   6.0000000

  Atom        31          32          33          34          35          36          37          38          39          40
 IAtWgt=          12          12          12          14          12          12          12          12          12          12
 AtmWgt=  12.0000000  12.0000000  12.0000000  14.0030740  12.0000000  12.0000000  12.0000000  12.0000000  12.0000000  12.0000000
 NucSpn=           0           0           0           2           0           0           0           0           0           0
 AtZEff=  -0.0000000  -0.0000000  -0.0000000  -0.0000000  -0.0000000  -0.0000000  -0.0000000  -0.0000000  -0.0000000  -0.0000000
 NQMom=    0.0000000   0.0000000   0.0000000   2.0440000   0.0000000   0.0000000   0.0000000   0.0000000   0.0000000   0.0000000
 NMagM=    0.0000000   0.0000000   0.0000000   0.4037610   0.0000000   0.0000000   0.0000000   0.0000000   0.0000000   0.0000000
 AtZNuc=   6.0000000   6.0000000   6.0000000   7.0000000   6.0000000   6.0000000   6.0000000   6.0000000   6.0000000   6.0000000

  Atom        41          42          43          44          45          46          47          48          49          50
 IAtWgt=          16          12          12          16          16          12          12          12          12          12
 AtmWgt=  15.9949146  12.0000000  12.0000000  15.9949146  15.9949146  12.0000000  12.0000000  12.0000000  12.0000000  12.0000000
 NucSpn=           0           0           0           0           0           0           0           0           0           0
 AtZEff=  -0.0000000  -0.0000000  -0.0000000  -0.0000000  -0.0000000  -0.0000000  -0.0000000  -0.0000000  -0.0000000  -0.0000000
 NQMom=    0.0000000   0.0000000   0.0000000   0.0000000   0.0000000   0.0000000   0.0000000   0.0000000   0.0000000   0.0000000
 NMagM=    0.0000000   0.0000000   0.0000000   0.0000000   0.0000000   0.0000000   0.0000000   0.0000000   0.0000000   0.0000000
 AtZNuc=   8.0000000   6.0000000   6.0000000   8.0000000   8.0000000   6.0000000   6.0000000   6.0000000   6.0000000   6.0000000

  Atom        51          52          53          54          55          56          57          58          59          60
 IAtWgt=          12          12          12          12          12          12          12          12          12          12
 AtmWgt=  12.0000000  12.0000000  12.0000000  12.0000000  12.0000000  12.0000000  12.0000000  12.0000000  12.0000000  12.0000000
 NucSpn=           0           0           0           0           0           0           0           0           0           0
 AtZEff=  -0.0000000  -0.0000000  -0.0000000  -0.0000000  -0.0000000  -0.0000000  -0.0000000  -0.0000000  -0.0000000  -0.0000000
 NQMom=    0.0000000   0.0000000   0.0000000   0.0000000   0.0000000   0.0000000   0.0000000   0.0000000   0.0000000   0.0000000
 NMagM=    0.0000000   0.0000000   0.0000000   0.0000000   0.0000000   0.0000000   0.0000000   0.0000000   0.0000000   0.0000000
 AtZNuc=   6.0000000   6.0000000   6.0000000   6.0000000   6.0000000   6.0000000   6.0000000   6.0000000   6.0000000   6.0000000

  Atom        61          62          63          64          65          66          67          68          69          70
 IAtWgt=          12          12          12          12          12          12           1           1           1           1
 AtmWgt=  12.0000000  12.0000000  12.0000000  12.0000000  12.0000000  12.0000000   1.0078250   1.0078250   1.0078250   1.0078250
 NucSpn=           0           0           0           0           0           0           1           1           1           1
 AtZEff=  -0.0000000  -0.0000000  -0.0000000  -0.0000000  -0.0000000  -0.0000000  -0.0000000  -0.0000000  -0.0000000  -0.0000000
 NQMom=    0.0000000   0.0000000   0.0000000   0.0000000   0.0000000   0.0000000   0.0000000   0.0000000   0.0000000   0.0000000
 NMagM=    0.0000000   0.0000000   0.0000000   0.0000000   0.0000000   0.0000000   2.7928460   2.7928460   2.7928460   2.7928460
 AtZNuc=   6.0000000   6.0000000   6.0000000   6.0000000   6.0000000   6.0000000   1.0000000   1.0000000   1.0000000   1.0000000

  Atom        71          72          73          74          75          76          77          78          79          80
 IAtWgt=           1           1           1           1           1           1           1           1           1           1
 AtmWgt=   1.0078250   1.0078250   1.0078250   1.0078250   1.0078250   1.0078250   1.0078250   1.0078250   1.0078250   1.0078250
 NucSpn=           1           1           1           1           1           1           1           1           1           1
 AtZEff=  -0.0000000  -0.0000000  -0.0000000  -0.0000000  -0.0000000  -0.0000000  -0.0000000  -0.0000000  -0.0000000  -0.0000000
 NQMom=    0.0000000   0.0000000   0.0000000   0.0000000   0.0000000   0.0000000   0.0000000   0.0000000   0.0000000   0.0000000
 NMagM=    2.7928460   2.7928460   2.7928460   2.7928460   2.7928460   2.7928460   2.7928460   2.7928460   2.7928460   2.7928460
 AtZNuc=   1.0000000   1.0000000   1.0000000   1.0000000   1.0000000   1.0000000   1.0000000   1.0000000   1.0000000   1.0000000

  Atom        81          82          83          84          85          86          87          88          89          90
 IAtWgt=           1           1           1           1           1           1           1           1           1           1
 AtmWgt=   1.0078250   1.0078250   1.0078250   1.0078250   1.0078250   1.0078250   1.0078250   1.0078250   1.0078250   1.0078250
 NucSpn=           1           1           1           1           1           1           1           1           1           1
 AtZEff=  -0.0000000  -0.0000000  -0.0000000  -0.0000000  -0.0000000  -0.0000000  -0.0000000  -0.0000000  -0.0000000  -0.0000000
 NQMom=    0.0000000   0.0000000   0.0000000   0.0000000   0.0000000   0.0000000   0.0000000   0.0000000   0.0000000   0.0000000
 NMagM=    2.7928460   2.7928460   2.7928460   2.7928460   2.7928460   2.7928460   2.7928460   2.7928460   2.7928460   2.7928460
 AtZNuc=   1.0000000   1.0000000   1.0000000   1.0000000   1.0000000   1.0000000   1.0000000   1.0000000   1.0000000   1.0000000

  Atom        91          92          93          94          95          96          97          98          99         100
 IAtWgt=           1           1           1           1           1           1           1           1           1           1
 AtmWgt=   1.0078250   1.0078250   1.0078250   1.0078250   1.0078250   1.0078250   1.0078250   1.0078250   1.0078250   1.0078250
 NucSpn=           1           1           1           1           1           1           1           1           1           1
 AtZEff=  -0.0000000  -0.0000000  -0.0000000  -0.0000000  -0.0000000  -0.0000000  -0.0000000  -0.0000000  -0.0000000  -0.0000000
 NQMom=    0.0000000   0.0000000   0.0000000   0.0000000   0.0000000   0.0000000   0.0000000   0.0000000   0.0000000   0.0000000
 NMagM=    2.7928460   2.7928460   2.7928460   2.7928460   2.7928460   2.7928460   2.7928460   2.7928460   2.7928460   2.7928460
 AtZNuc=   1.0000000   1.0000000   1.0000000   1.0000000   1.0000000   1.0000000   1.0000000   1.0000000   1.0000000   1.0000000

  Atom       101         102         103         104         105         106         107         108         109         110
 IAtWgt=           1           1           1           1           1           1           1           1           1           1
 AtmWgt=   1.0078250   1.0078250   1.0078250   1.0078250   1.0078250   1.0078250   1.0078250   1.0078250   1.0078250   1.0078250
 NucSpn=           1           1           1           1           1           1           1           1           1           1
 AtZEff=  -0.0000000  -0.0000000  -0.0000000  -0.0000000  -0.0000000  -0.0000000  -0.0000000  -0.0000000  -0.0000000  -0.0000000
 NQMom=    0.0000000   0.0000000   0.0000000   0.0000000   0.0000000   0.0000000   0.0000000   0.0000000   0.0000000   0.0000000
 NMagM=    2.7928460   2.7928460   2.7928460   2.7928460   2.7928460   2.7928460   2.7928460   2.7928460   2.7928460   2.7928460
 AtZNuc=   1.0000000   1.0000000   1.0000000   1.0000000   1.0000000   1.0000000   1.0000000   1.0000000   1.0000000   1.0000000

  Atom       111         112         113         114         115         116         117         118         119         120
 IAtWgt=           1           1           1           1           1           1           1           1           1           1
 AtmWgt=   1.0078250   1.0078250   1.0078250   1.0078250   1.0078250   1.0078250   1.0078250   1.0078250   1.0078250   1.0078250
 NucSpn=           1           1           1           1           1           1           1           1           1           1
 AtZEff=  -0.0000000  -0.0000000  -0.0000000  -0.0000000  -0.0000000  -0.0000000  -0.0000000  -0.0000000  -0.0000000  -0.0000000
 NQMom=    0.0000000   0.0000000   0.0000000   0.0000000   0.0000000   0.0000000   0.0000000   0.0000000   0.0000000   0.0000000
 NMagM=    2.7928460   2.7928460   2.7928460   2.7928460   2.7928460   2.7928460   2.7928460   2.7928460   2.7928460   2.7928460
 AtZNuc=   1.0000000   1.0000000   1.0000000   1.0000000   1.0000000   1.0000000   1.0000000   1.0000000   1.0000000   1.0000000

  Atom       121         122         123         124         125         126         127         128         129         130
 IAtWgt=           1           1           1           1           1           1           1           1           1           1
 AtmWgt=   1.0078250   1.0078250   1.0078250   1.0078250   1.0078250   1.0078250   1.0078250   1.0078250   1.0078250   1.0078250
 NucSpn=           1           1           1           1           1           1           1           1           1           1
 AtZEff=  -0.0000000  -0.0000000  -0.0000000  -0.0000000  -0.0000000  -0.0000000  -0.0000000  -0.0000000  -0.0000000  -0.0000000
 NQMom=    0.0000000   0.0000000   0.0000000   0.0000000   0.0000000   0.0000000   0.0000000   0.0000000   0.0000000   0.0000000
 NMagM=    2.7928460   2.7928460   2.7928460   2.7928460   2.7928460   2.7928460   2.7928460   2.7928460   2.7928460   2.7928460
 AtZNuc=   1.0000000   1.0000000   1.0000000   1.0000000   1.0000000   1.0000000   1.0000000   1.0000000   1.0000000   1.0000000

  Atom       131         132         133         134         135         136         137         138         139         140
 IAtWgt=           1           1           1           1           1           1           1           1           1           1
 AtmWgt=   1.0078250   1.0078250   1.0078250   1.0078250   1.0078250   1.0078250   1.0078250   1.0078250   1.0078250   1.0078250
 NucSpn=           1           1           1           1           1           1           1           1           1           1
 AtZEff=  -0.0000000  -0.0000000  -0.0000000  -0.0000000  -0.0000000  -0.0000000  -0.0000000  -0.0000000  -0.0000000  -0.0000000
 NQMom=    0.0000000   0.0000000   0.0000000   0.0000000   0.0000000   0.0000000   0.0000000   0.0000000   0.0000000   0.0000000
 NMagM=    2.7928460   2.7928460   2.7928460   2.7928460   2.7928460   2.7928460   2.7928460   2.7928460   2.7928460   2.7928460
 AtZNuc=   1.0000000   1.0000000   1.0000000   1.0000000   1.0000000   1.0000000   1.0000000   1.0000000   1.0000000   1.0000000
 Leave Link  101 at Tue May  3 20:28:26 2022, MaxMem= 10066329600 cpu:               4.1 elap:               0.2
 (Enter /sw/apps/gaussian-16.0/g16/l202.exe)
 Stoichiometry    C55H74MgN4O6
 Framework group  C1[X(C55H74MgN4O6)]
 Deg. of freedom   414
 Full point group                 C1      NOp   1
 Largest Abelian subgroup         C1      NOp   1
 Largest concise Abelian subgroup C1      NOp   1
                         Standard orientation:                         
 ---------------------------------------------------------------------
 Center     Atomic      Atomic             Coordinates (Angstroms)
 Number     Number       Type             X           Y           Z
 ---------------------------------------------------------------------
      1         12           0       -5.100583    0.826470   -0.020149
      2          6           0       -4.052964   -2.374677    0.687952
      3          6           0       -1.775536    1.670160   -0.290381
      4          6           0       -6.085137    4.158819   -0.410036
      5          6           0       -8.328574   -0.034108    0.582733
      6          7           0       -3.206248   -0.298225    0.020031
      7          6           0       -3.058521   -1.622098    0.236725
      8          6           0       -1.648689   -2.110168   -0.032128
      9          6           0       -0.857696   -0.689259   -0.035765
     10          6           0       -2.003544    0.293745   -0.084033
     11          6           0        0.124203   -0.371146    1.066491
     12          6           0       -1.592235   -2.791803   -1.425547
     13          6           0       -0.253121   -3.372374   -1.910160
     14          6           0        1.004515   -3.555971   -0.947353
     15          8           0        0.946963   -3.763847    0.265672
     16          8           0        2.121402   -3.425576   -1.753617
     17          7           0       -4.119352    2.566348   -0.332920
     18          6           0       -2.715896    2.706741   -0.421963
     19          6           0       -2.403884    4.071106   -0.532227
     20          6           0       -3.624271    4.806971   -0.533512
     21          6           0       -4.737678    3.815967   -0.447577
     22          6           0       -1.039142    4.655272   -0.875725
     23          6           0       -3.743541    6.348504   -0.603726
     24          8           0       -4.820195    6.889755   -0.932237
     25          6           0       -2.607547    7.177851   -0.210325
     26          7           0       -6.868838    1.923180    0.005348
     27          6           0       -7.096996    3.237287   -0.198214
     28          6           0       -8.569874    3.637988    0.129715
     29          6           0       -9.310423    2.243489    0.180964
     30          6           0       -8.129257    1.328229    0.295356
     31          6           0       -8.545736    4.514727    1.408433
     32          6           0      -10.170947    1.883245   -1.061343
     33          6           0      -11.621549    1.439781   -0.677682
     34          7           0       -6.027766   -0.904226    0.560121
     35          6           0       -7.411561   -1.069421    0.729359
     36          6           0       -7.526654   -2.530228    1.025386
     37          6           0       -6.259779   -3.040795    1.164996
     38          6           0       -5.377667   -2.025936    0.753732
     39          6           0       -8.872799   -3.270862    1.152742
     40          6           0       -5.525384   -4.244978    1.427640
     41          8           0       -5.883916   -5.385099    1.690313
     42          6           0       -4.071674   -3.828896    1.246269
     43          6           0       -3.332958   -4.901535    0.548477
     44          8           0       -3.607841   -5.428960   -0.503545
     45          8           0       -2.253971   -5.234279    1.296648
     46          6           0       -1.499809   -6.356172    0.748349
     47          6           0        3.351072   -3.594022   -0.969029
     48          6           0        4.455842   -2.929871   -1.765656
     49          6           0        5.810501   -3.000586   -1.612598
     50          6           0        6.557726   -3.533655   -0.406889
     51          6           0        6.712014   -2.580551   -2.807670
     52          6           0        7.221574   -1.153048   -2.699032
     53          6           0        8.613985   -0.924381   -3.288921
     54          6           0        8.744672    0.596280   -3.579014
     55          6           0        8.510309    0.830009   -5.104593
     56          6           0       10.192134    1.091317   -3.103634
     57          6           0       10.207009    1.852728   -1.736386
     58          6           0       11.079692    1.217018   -0.748901
     59          6           0       11.710571    2.288544    0.190593
     60          6           0       13.005051    2.933641   -0.488428
     61          6           0       12.028931    1.664414    1.562727
     62          6           0       11.102275    2.046941    2.676262
     63          6           0       10.890780    0.947689    3.695126
     64          6           0       10.765596    1.391247    5.159800
     65          6           0       11.062074    0.218207    6.112194
     66          6           0        9.352329    2.063581    5.461583
     67          1           0       -0.725589    1.956375   -0.367463
     68          1           0       -6.313454    5.225825   -0.362781
     69          1           0       -9.341290   -0.437688    0.656485
     70          1           0       -1.369850   -2.809726    0.755311
     71          1           0       -0.127070   -0.706162   -0.844846
     72          1           0       -0.074142   -1.055776    1.891044
     73          1           0        0.080079    0.668259    1.391020
     74          1           0        1.155162   -0.569779    0.773634
     75          1           0       -1.947361   -1.966237   -2.042198
     76          1           0       -2.338019   -3.552424   -1.657348
     77          1           0       -0.078294   -2.738498   -2.779433
     78          1           0       -0.478884   -4.389419   -2.230723
     79          1           0       -1.147017    5.156230   -1.837915
     80          1           0       -0.253071    3.900691   -0.903169
     81          1           0       -0.739783    5.246470   -0.010380
     82          1           0       -2.983982    8.163592    0.064920
     83          1           0       -1.822496    7.211675   -0.966335
     84          1           0       -2.229525    6.700370    0.693193
     85          1           0       -9.055524    4.125056   -0.716232
     86          1           0       -9.768588    2.082332    1.157133
     87          1           0       -9.030352    5.385385    0.965587
     88          1           0       -7.557381    4.675815    1.839032
     89          1           0       -9.191930    4.137281    2.201479
     90          1           0       -9.711495    1.136984   -1.710769
     91          1           0      -10.327589    2.780028   -1.661324
     92          1           0      -12.302932    2.115754   -1.194597
     93          1           0      -11.778030    1.520285    0.398012
     94          1           0      -11.768220    0.414639   -1.018931
     95          1           0       -8.797548   -3.952960    1.999323
     96          1           0       -9.040010   -3.821503    0.226167
     97          1           0       -9.708954   -2.603212    1.359183
     98          1           0       -3.671066   -3.685247    2.249926
     99          1           0       -2.158876   -7.193218    0.516043
    100          1           0       -0.705887   -6.628466    1.443015
    101          1           0       -1.129857   -5.982599   -0.206985
    102          1           0        3.421184   -4.679760   -0.908723
    103          1           0        3.407294   -3.115538    0.008740
    104          1           0        4.160040   -2.574247   -2.752334
    105          1           0        6.991527   -4.419521   -0.870795
    106          1           0        5.987102   -3.853639    0.464696
    107          1           0        7.380910   -2.869812   -0.145001
    108          1           0        6.142894   -2.593977   -3.736758
    109          1           0        7.571858   -3.246161   -2.884791
    110          1           0        7.393915   -1.055671   -1.626888
    111          1           0        6.466253   -0.463544   -3.075050
    112          1           0        8.676693   -1.482197   -4.222610
    113          1           0        9.303955   -1.222984   -2.498909
    114          1           0        8.009176    1.232946   -3.085992
    115          1           0        8.000182    1.786448   -5.221145
    116          1           0        7.720915    0.141215   -5.405999
    117          1           0        9.391950    0.810033   -5.744529
    118          1           0       10.528876    1.805994   -3.854863
    119          1           0       10.907868    0.269460   -3.083279
    120          1           0        9.242897    1.929141   -1.232914
    121          1           0       10.549948    2.856681   -1.990390
    122          1           0       11.923881    0.625663   -1.104111
    123          1           0       10.516851    0.525355   -0.121766
    124          1           0       10.973555    3.077072    0.335843
    125          1           0       13.969557    2.591322   -0.113405
    126          1           0       12.943209    3.978488   -0.186204
    127          1           0       13.166973    2.829264   -1.561579
    128          1           0       13.026343    1.964761    1.883718
    129          1           0       12.080950    0.576409    1.544494
    130          1           0       10.146678    2.369310    2.264367
    131          1           0       11.680279    2.857852    3.119786
    132          1           0       11.732754    0.256517    3.649458
    133          1           0        9.919663    0.515766    3.455070
    134          1           0       11.499376    2.145165    5.445592
    135          1           0       12.007362    0.498281    6.578144
    136          1           0       11.143291   -0.704363    5.537332
    137          1           0       10.252793    0.043436    6.820202
    138          1           0        9.109764    1.745780    6.474910
    139          1           0        8.563476    1.694592    4.805783
    140          1           0        9.358640    3.151468    5.527740
 ---------------------------------------------------------------------
 Rotational constants (GHZ):           0.0385532           0.0107837           0.0095126
 Leave Link  202 at Tue May  3 20:28:26 2022, MaxMem= 10066329600 cpu:               0.2 elap:               0.0
 (Enter /sw/apps/gaussian-16.0/g16/l301.exe)
 Standard basis: def2SVP (5D, 7F)
 Ernie: Thresh=  0.10000D-02 Tol=  0.10000D-05 Strict=F.
 There are  1364 symmetry adapted cartesian basis functions of A   symmetry.
 There are  1298 symmetry adapted basis functions of A   symmetry.
  1298 basis functions,  2180 primitive gaussians,  1364 cartesian basis functions
   246 alpha electrons      246 beta electrons
       nuclear repulsion energy      9563.9611013812 Hartrees.
 IExCor= 1009 DFT=T Ex+Corr=PBE1PBE ExCW=0 ScaHFX=  0.250000
 ScaDFX=  0.750000  0.750000  1.000000  1.000000 ScalE2=  1.000000  1.000000
 IRadAn=      5 IRanWt=     -1 IRanGd=            0 ICorTp=0 IEmpDi=  4
 NAtoms=  140 NActive=  140 NUniq=  140 SFac= 1.00D+00 NAtFMM=   60 NAOKFM=T Big=T
 Integral buffers will be    131072 words long.
 Regular integral format.
 Two-electron integral symmetry is turned on.
 Leave Link  301 at Tue May  3 20:28:26 2022, MaxMem= 10066329600 cpu:               1.2 elap:               0.1
 (Enter /sw/apps/gaussian-16.0/g16/l302.exe)
 NPDir=0 NMtPBC=     1 NCelOv=     1 NCel=       1 NClECP=     1 NCelD=      1
         NCelK=      1 NCelE2=     1 NClLst=     1 CellRange=     0.0.
 One-electron integrals computed using PRISM.
 One-electron integral symmetry used in STVInt
   1 Symmetry operations used in ECPInt.
 ECPInt:  NShTT=  192510 NPrTT=  683786 LenC2=   93850 LenP2D=  205180.
 LDataN:  DoStor=T MaxTD1= 4 Len=   56
 NBasis=  1298 RedAO= T EigKep=  2.47D-04  NBF=  1298
 NBsUse=  1298 1.00D-06 EigRej= -1.00D+00 NBFU=  1298
 Precomputing XC quadrature grid using
 IXCGrd= 4 IRadAn=           5 IRanWt=          -1 IRanGd=           0 AccXCQ= 0.00D+00.
 Generated NRdTot=       0 NPtTot=           0 NUsed=           0 NTot=          32
 NSgBfM=  1123  1122  1123  1123  1123 MxSgAt=   140 MxSgA2=   140.
 Leave Link  302 at Tue May  3 20:28:30 2022, MaxMem= 10066329600 cpu:             101.3 elap:               4.3
 (Enter /sw/apps/gaussian-16.0/g16/l303.exe)
 DipDrv:  MaxL=1.
 Leave Link  303 at Tue May  3 20:28:31 2022, MaxMem= 10066329600 cpu:               9.7 elap:               0.5
 (Enter /sw/apps/gaussian-16.0/g16/l308.exe)
 Leave Link  308 at Tue May  3 20:28:31 2022, MaxMem= 10066329600 cpu:              13.9 elap:               0.7
 (Enter /sw/apps/gaussian-16.0/g16/l401.exe)
 ExpMin= 3.36D-02 ExpMax= 4.95D+03 ExpMxC= 7.45D+02 IAcc=3 IRadAn=         5 AccDes= 0.00D+00
 Harris functional with IExCor= 1009 and IRadAn=       5 diagonalized for initial guess.
 HarFok:  IExCor= 1009 AccDes= 0.00D+00 IRadAn=         5 IDoV= 1 UseB2=F ITyADJ=14
 ICtDFT=  3500011 ScaDFX=  1.000000  1.000000  1.000000  1.000000
 FoFCou: FMM=F IPFlag=           0 FMFlag=      100000 FMFlg1=        2001
         NFxFlg=           0 DoJE=T BraDBF=F KetDBF=T FulRan=T
         wScrn=  0.000000 ICntrl=       500 IOpCl=  0 I1Cent=   200000004 NGrid=           0
         NMat0=    1 NMatS0=      1 NMatT0=    0 NMatD0=    1 NMtDS0=    0 NMtDT0=    0
 Petite list used in FoFCou.
 Harris En= -3006.16037413546    
 JPrj=0 DoOrth=F DoCkMO=F.
 Leave Link  401 at Tue May  3 20:28:37 2022, MaxMem= 10066329600 cpu:             137.8 elap:               5.8
 (Enter /sw/apps/gaussian-16.0/g16/l502.exe)
 Integral symmetry usage will be decided dynamically.
 Closed shell SCF:
 Using DIIS extrapolation, IDIIS=  1040.
 NGot= 10066329600 LenX= 10062561258 LenY= 10060699398
 Requested convergence on RMS density matrix=1.00D-08 within 128 cycles.
 Requested convergence on MAX density matrix=1.00D-06.
 Requested convergence on             energy=1.00D-06.
 No special actions if energy rises.
 Fock matrices will be formed incrementally for  20 cycles.

 Cycle   1  Pass 1  IDiag  1:
 FoFJK:  IHMeth= 1 ICntrl=       0 DoSepK=F KAlg= 0 I1Cent=           0 FoldK=F
 IRaf= 510000000 NMat=       1 IRICut=       1 DoRegI=T DoRafI=F ISym2E= 0 IDoP0=0 IntGTp=1.
 FoFCou: FMM=T IPFlag=           0 FMFlag=      100000 FMFlg1=        2001
         NFxFlg=           0 DoJE=F BraDBF=F KetDBF=F FulRan=T
         wScrn=  0.000000 ICntrl=         0 IOpCl=  0 I1Cent=           0 NGrid=           0
         NMat0=    1 NMatS0=      1 NMatT0=    0 NMatD0=    1 NMtDS0=    0 NMtDT0=    0
 Symmetry not used in FoFCou.
 FMM levels:  10  Number of levels for PrismC:   9
 E= -3003.82112547923    
 DIIS: error= 1.94D-02 at cycle   1 NSaved=   1.
 NSaved= 1 IEnMin= 1 EnMin= -3003.82112547923     IErMin= 1 ErrMin= 1.94D-02
 ErrMax= 1.94D-02  0.00D+00 EMaxC= 1.00D-01 BMatC= 1.45D+00 BMatP= 1.45D+00
 IDIUse=3 WtCom= 8.06D-01 WtEn= 1.94D-01
 Coeff-Com:  0.100D+01
 Coeff-En:   0.100D+01
 Coeff:      0.100D+01
 Gap=     0.084 Goal=   None    Shift=    0.000
 GapD=    0.084 DampG=0.500 DampE=0.500 DampFc=0.2500 IDamp=-1.
 Damping current iteration by 2.50D-01
 RMSDP=2.67D-03 MaxDP=5.80D-01              OVMax= 2.38D-01

 Cycle   2  Pass 1  IDiag  1:
 RMSU=  6.60D-04    CP:  9.89D-01
 E= -3004.37085001274     Delta-E=       -0.549724533512 Rises=F Damp=T
 DIIS: error= 9.30D-03 at cycle   2 NSaved=   2.
 NSaved= 2 IEnMin= 2 EnMin= -3004.37085001274     IErMin= 2 ErrMin= 9.30D-03
 ErrMax= 9.30D-03  0.00D+00 EMaxC= 1.00D-01 BMatC= 3.69D-01 BMatP= 1.45D+00
 IDIUse=3 WtCom= 9.07D-01 WtEn= 9.30D-02
 Coeff-Com: -0.804D+00 0.180D+01
 Coeff-En:   0.000D+00 0.100D+01
 Coeff:     -0.729D+00 0.173D+01
 Gap=     0.183 Goal=   None    Shift=    0.000
 RMSDP=9.85D-04 MaxDP=7.63D-02 DE=-5.50D-01 OVMax= 1.82D-01

 Cycle   3  Pass 1  IDiag  1:
 RMSU=  7.79D-04    CP:  9.62D-01  1.84D+00
 E= -3005.23042563158     Delta-E=       -0.859575618841 Rises=F Damp=F
 DIIS: error= 1.11D-02 at cycle   3 NSaved=   3.
 NSaved= 3 IEnMin= 3 EnMin= -3005.23042563158     IErMin= 2 ErrMin= 9.30D-03
 ErrMax= 1.11D-02  0.00D+00 EMaxC= 1.00D-01 BMatC= 1.43D-01 BMatP= 3.69D-01
 IDIUse=3 WtCom= 8.89D-01 WtEn= 1.11D-01
 Coeff-Com: -0.496D+00 0.104D+01 0.454D+00
 Coeff-En:   0.000D+00 0.000D+00 0.100D+01
 Coeff:     -0.441D+00 0.925D+00 0.515D+00
 Gap=     0.075 Goal=   None    Shift=    0.000
 RMSDP=4.69D-04 MaxDP=7.81D-02 DE=-8.60D-01 OVMax= 1.14D-01

 Cycle   4  Pass 1  IDiag  1:
 RMSU=  3.39D-04    CP:  9.68D-01  2.00D+00  6.15D-01
 E= -3005.32788971981     Delta-E=       -0.097464088225 Rises=F Damp=F
 DIIS: error= 5.87D-03 at cycle   4 NSaved=   4.
 NSaved= 4 IEnMin= 4 EnMin= -3005.32788971981     IErMin= 4 ErrMin= 5.87D-03
 ErrMax= 5.87D-03  0.00D+00 EMaxC= 1.00D-01 BMatC= 3.22D-02 BMatP= 1.43D-01
 IDIUse=3 WtCom= 9.41D-01 WtEn= 5.87D-02
 Coeff-Com: -0.850D-01 0.182D+00 0.323D+00 0.580D+00
 Coeff-En:   0.000D+00 0.000D+00 0.217D+00 0.783D+00
 Coeff:     -0.800D-01 0.172D+00 0.317D+00 0.592D+00
 Gap=     0.077 Goal=   None    Shift=    0.000
 RMSDP=2.06D-04 MaxDP=3.42D-02 DE=-9.75D-02 OVMax= 1.01D-01

 Cycle   5  Pass 1  IDiag  1:
 RMSU=  1.13D-04    CP:  9.66D-01  1.91D+00  7.30D-01  6.05D-01
 E= -3005.35119434113     Delta-E=       -0.023304621327 Rises=F Damp=F
 DIIS: error= 1.44D-03 at cycle   5 NSaved=   5.
 NSaved= 5 IEnMin= 5 EnMin= -3005.35119434113     IErMin= 5 ErrMin= 1.44D-03
 ErrMax= 1.44D-03  0.00D+00 EMaxC= 1.00D-01 BMatC= 3.43D-03 BMatP= 3.22D-02
 IDIUse=3 WtCom= 9.86D-01 WtEn= 1.44D-02
 Coeff-Com: -0.225D-01 0.502D-01 0.178D+00 0.388D+00 0.406D+00
 Coeff-En:   0.000D+00 0.000D+00 0.000D+00 0.105D+00 0.895D+00
 Coeff:     -0.222D-01 0.495D-01 0.175D+00 0.384D+00 0.413D+00
 Gap=     0.075 Goal=   None    Shift=    0.000
 RMSDP=1.06D-04 MaxDP=1.00D-02 DE=-2.33D-02 OVMax= 7.99D-02

 Cycle   6  Pass 1  IDiag  1:
 RMSU=  5.52D-05    CP:  9.66D-01  1.92D+00  7.25D-01  6.76D-01  2.29D-01
 E= -3005.35439677428     Delta-E=       -0.003202433149 Rises=F Damp=F
 DIIS: error= 9.16D-04 at cycle   6 NSaved=   6.
 NSaved= 6 IEnMin= 6 EnMin= -3005.35439677428     IErMin= 6 ErrMin= 9.16D-04
 ErrMax= 9.16D-04  0.00D+00 EMaxC= 1.00D-01 BMatC= 8.65D-04 BMatP= 3.43D-03
 IDIUse=3 WtCom= 9.91D-01 WtEn= 9.16D-03
 Coeff-Com: -0.705D-03 0.310D-02 0.728D-01 0.183D+00 0.327D+00 0.415D+00
 Coeff-En:   0.000D+00 0.000D+00 0.000D+00 0.000D+00 0.276D+00 0.724D+00
 Coeff:     -0.699D-03 0.307D-02 0.721D-01 0.181D+00 0.326D+00 0.418D+00
 Gap=     0.076 Goal=   None    Shift=    0.000
 RMSDP=4.60D-05 MaxDP=3.94D-03 DE=-3.20D-03 OVMax= 3.57D-02

 Cycle   7  Pass 1  IDiag  1:
 RMSU=  1.63D-05    CP:  9.66D-01  1.92D+00  7.30D-01  6.58D-01  4.80D-01
                    CP:  4.29D-01
 E= -3005.35558842630     Delta-E=       -0.001191652018 Rises=F Damp=F
 DIIS: error= 2.06D-04 at cycle   7 NSaved=   7.
 NSaved= 7 IEnMin= 7 EnMin= -3005.35558842630     IErMin= 7 ErrMin= 2.06D-04
 ErrMax= 2.06D-04  0.00D+00 EMaxC= 1.00D-01 BMatC= 6.27D-05 BMatP= 8.65D-04
 IDIUse=3 WtCom= 9.98D-01 WtEn= 2.06D-03
 Coeff-Com:  0.238D-02-0.447D-02 0.219D-01 0.614D-01 0.153D+00 0.272D+00
 Coeff-Com:  0.494D+00
 Coeff-En:   0.000D+00 0.000D+00 0.000D+00 0.000D+00 0.000D+00 0.471D-01
 Coeff-En:   0.953D+00
 Coeff:      0.237D-02-0.446D-02 0.219D-01 0.613D-01 0.152D+00 0.272D+00
 Coeff:      0.495D+00
 Gap=     0.076 Goal=   None    Shift=    0.000
 RMSDP=1.07D-05 MaxDP=9.48D-04 DE=-1.19D-03 OVMax= 6.91D-03

 Cycle   8  Pass 1  IDiag  1:
 RMSU=  5.71D-06    CP:  9.66D-01  1.92D+00  7.30D-01  6.64D-01  4.47D-01
                    CP:  5.15D-01  6.04D-01
 E= -3005.35565454338     Delta-E=       -0.000066117082 Rises=F Damp=F
 DIIS: error= 5.11D-05 at cycle   8 NSaved=   8.
 NSaved= 8 IEnMin= 8 EnMin= -3005.35565454338     IErMin= 8 ErrMin= 5.11D-05
 ErrMax= 5.11D-05  0.00D+00 EMaxC= 1.00D-01 BMatC= 5.49D-06 BMatP= 6.27D-05
 IDIUse=1 WtCom= 1.00D+00 WtEn= 0.00D+00
 Coeff-Com:  0.137D-02-0.273D-02 0.588D-02 0.179D-01 0.585D-01 0.121D+00
 Coeff-Com:  0.296D+00 0.502D+00
 Coeff:      0.137D-02-0.273D-02 0.588D-02 0.179D-01 0.585D-01 0.121D+00
 Coeff:      0.296D+00 0.502D+00
 Gap=     0.076 Goal=   None    Shift=    0.000
 RMSDP=3.77D-06 MaxDP=3.78D-04 DE=-6.61D-05 OVMax= 1.60D-03

 Cycle   9  Pass 1  IDiag  1:
 RMSU=  2.15D-06    CP:  9.66D-01  1.92D+00  7.30D-01  6.64D-01  4.54D-01
                    CP:  5.10D-01  6.47D-01  5.02D-01
 E= -3005.35565982733     Delta-E=       -0.000005283948 Rises=F Damp=F
 DIIS: error= 2.79D-05 at cycle   9 NSaved=   9.
 NSaved= 9 IEnMin= 9 EnMin= -3005.35565982733     IErMin= 9 ErrMin= 2.79D-05
 ErrMax= 2.79D-05  0.00D+00 EMaxC= 1.00D-01 BMatC= 9.43D-07 BMatP= 5.49D-06
 IDIUse=1 WtCom= 1.00D+00 WtEn= 0.00D+00
 Coeff-Com:  0.571D-03-0.115D-02 0.125D-02 0.404D-02 0.195D-01 0.459D-01
 Coeff-Com:  0.131D+00 0.328D+00 0.472D+00
 Coeff:      0.571D-03-0.115D-02 0.125D-02 0.404D-02 0.195D-01 0.459D-01
 Coeff:      0.131D+00 0.328D+00 0.472D+00
 Gap=     0.076 Goal=   None    Shift=    0.000
 RMSDP=1.52D-06 MaxDP=1.95D-04 DE=-5.28D-06 OVMax= 7.43D-04

 Cycle  10  Pass 1  IDiag  1:
 RMSU=  9.20D-07    CP:  9.66D-01  1.92D+00  7.30D-01  6.64D-01  4.56D-01
                    CP:  5.16D-01  6.40D-01  6.27D-01  5.81D-01
 E= -3005.35566074670     Delta-E=       -0.000000919368 Rises=F Damp=F
 DIIS: error= 9.31D-06 at cycle  10 NSaved=  10.
 NSaved=10 IEnMin=10 EnMin= -3005.35566074670     IErMin=10 ErrMin= 9.31D-06
 ErrMax= 9.31D-06  0.00D+00 EMaxC= 1.00D-01 BMatC= 1.60D-07 BMatP= 9.43D-07
 IDIUse=1 WtCom= 1.00D+00 WtEn= 0.00D+00
 Coeff-Com:  0.996D-04-0.203D-03-0.357D-03-0.111D-02 0.893D-03 0.622D-02
 Coeff-Com:  0.267D-01 0.124D+00 0.317D+00 0.527D+00
 Coeff:      0.996D-04-0.203D-03-0.357D-03-0.111D-02 0.893D-03 0.622D-02
 Coeff:      0.267D-01 0.124D+00 0.317D+00 0.527D+00
 Gap=     0.076 Goal=   None    Shift=    0.000
 RMSDP=6.37D-07 MaxDP=5.85D-05 DE=-9.19D-07 OVMax= 4.01D-04

 Cycle  11  Pass 1  IDiag  1:
 RMSU=  3.49D-07    CP:  9.66D-01  1.92D+00  7.30D-01  6.64D-01  4.55D-01
                    CP:  5.16D-01  6.45D-01  6.18D-01  7.20D-01  5.41D-01
 E= -3005.35566090967     Delta-E=       -0.000000162974 Rises=F Damp=F
 DIIS: error= 4.11D-06 at cycle  11 NSaved=  11.
 NSaved=11 IEnMin=11 EnMin= -3005.35566090967     IErMin=11 ErrMin= 4.11D-06
 ErrMax= 4.11D-06  0.00D+00 EMaxC= 1.00D-01 BMatC= 3.36D-08 BMatP= 1.60D-07
 IDIUse=1 WtCom= 1.00D+00 WtEn= 0.00D+00
 Coeff-Com: -0.211D-07 0.228D-05-0.423D-03-0.136D-02-0.215D-02-0.193D-02
 Coeff-Com:  0.339D-03 0.415D-01 0.153D+00 0.371D+00 0.440D+00
 Coeff:     -0.211D-07 0.228D-05-0.423D-03-0.136D-02-0.215D-02-0.193D-02
 Coeff:      0.339D-03 0.415D-01 0.153D+00 0.371D+00 0.440D+00
 Gap=     0.076 Goal=   None    Shift=    0.000
 RMSDP=2.41D-07 MaxDP=3.20D-05 DE=-1.63D-07 OVMax= 9.74D-05

 Cycle  12  Pass 1  IDiag  1:
 RMSU=  1.24D-07    CP:  9.66D-01  1.92D+00  7.30D-01  6.63D-01  4.55D-01
                    CP:  5.16D-01  6.48D-01  6.28D-01  7.03D-01  6.83D-01
                    CP:  6.41D-01
 E= -3005.35566094751     Delta-E=       -0.000000037837 Rises=F Damp=F
 DIIS: error= 1.79D-06 at cycle  12 NSaved=  12.
 NSaved=12 IEnMin=12 EnMin= -3005.35566094751     IErMin=12 ErrMin= 1.79D-06
 ErrMax= 1.79D-06  0.00D+00 EMaxC= 1.00D-01 BMatC= 1.98D-09 BMatP= 3.36D-08
 IDIUse=1 WtCom= 1.00D+00 WtEn= 0.00D+00
 Coeff-Com: -0.805D-05 0.210D-04-0.163D-03-0.551D-03-0.124D-02-0.160D-02
 Coeff-Com: -0.307D-02 0.683D-02 0.375D-01 0.131D+00 0.231D+00 0.600D+00
 Coeff:     -0.805D-05 0.210D-04-0.163D-03-0.551D-03-0.124D-02-0.160D-02
 Coeff:     -0.307D-02 0.683D-02 0.375D-01 0.131D+00 0.231D+00 0.600D+00
 Gap=     0.076 Goal=   None    Shift=    0.000
 RMSDP=6.91D-08 MaxDP=7.15D-06 DE=-3.78D-08 OVMax= 3.47D-05

 Cycle  13  Pass 1  IDiag  1:
 RMSU=  5.37D-08    CP:  9.66D-01  1.92D+00  7.30D-01  6.63D-01  4.55D-01
                    CP:  5.16D-01  6.48D-01  6.29D-01  7.16D-01  6.89D-01
                    CP:  7.09D-01  8.20D-01
 E= -3005.35566094936     Delta-E=       -0.000000001855 Rises=F Damp=F
 DIIS: error= 6.04D-07 at cycle  13 NSaved=  13.
 NSaved=13 IEnMin=13 EnMin= -3005.35566094936     IErMin=13 ErrMin= 6.04D-07
 ErrMax= 6.04D-07  0.00D+00 EMaxC= 1.00D-01 BMatC= 5.15D-10 BMatP= 1.98D-09
 IDIUse=1 WtCom= 1.00D+00 WtEn= 0.00D+00
 Coeff-Com: -0.381D-05 0.110D-04-0.284D-04-0.106D-03-0.458D-03-0.702D-03
 Coeff-Com: -0.232D-02-0.397D-02-0.771D-02 0.114D-01 0.535D-01 0.371D+00
 Coeff-Com:  0.579D+00
 Coeff:     -0.381D-05 0.110D-04-0.284D-04-0.106D-03-0.458D-03-0.702D-03
 Coeff:     -0.232D-02-0.397D-02-0.771D-02 0.114D-01 0.535D-01 0.371D+00
 Coeff:      0.579D+00
 Gap=     0.076 Goal=   None    Shift=    0.000
 RMSDP=3.31D-08 MaxDP=2.34D-06 DE=-1.86D-09 OVMax= 9.74D-06

 Cycle  14  Pass 1  IDiag  1:
 RMSU=  2.17D-08    CP:  9.66D-01  1.92D+00  7.30D-01  6.63D-01  4.55D-01
                    CP:  5.16D-01  6.48D-01  6.30D-01  7.17D-01  6.99D-01
                    CP:  7.31D-01  9.38D-01  7.93D-01
 E= -3005.35566095000     Delta-E=       -0.000000000631 Rises=F Damp=F
 DIIS: error= 1.79D-07 at cycle  14 NSaved=  14.
 NSaved=14 IEnMin=14 EnMin= -3005.35566095000     IErMin=14 ErrMin= 1.79D-07
 ErrMax= 1.79D-07  0.00D+00 EMaxC= 1.00D-01 BMatC= 5.99D-11 BMatP= 5.15D-10
 IDIUse=1 WtCom= 1.00D+00 WtEn= 0.00D+00
 Coeff-Com:  0.259D-06 0.105D-05 0.117D-04 0.329D-04-0.634D-04-0.971D-04
 Coeff-Com: -0.783D-03-0.316D-02-0.110D-01-0.141D-01-0.993D-02 0.113D+00
 Coeff-Com:  0.305D+00 0.621D+00
 Coeff:      0.259D-06 0.105D-05 0.117D-04 0.329D-04-0.634D-04-0.971D-04
 Coeff:     -0.783D-03-0.316D-02-0.110D-01-0.141D-01-0.993D-02 0.113D+00
 Coeff:      0.305D+00 0.621D+00
 Gap=     0.076 Goal=   None    Shift=    0.000
 RMSDP=1.38D-08 MaxDP=2.17D-06 DE=-6.31D-10 OVMax= 6.20D-06

 Cycle  15  Pass 1  IDiag  1:
 RMSU=  8.75D-09    CP:  9.66D-01  1.92D+00  7.30D-01  6.63D-01  4.55D-01
                    CP:  5.16D-01  6.48D-01  6.30D-01  7.17D-01  7.03D-01
                    CP:  7.43D-01  9.68D-01  9.16D-01  8.76D-01
 E= -3005.35566095011     Delta-E=       -0.000000000118 Rises=F Damp=F
 DIIS: error= 7.54D-08 at cycle  15 NSaved=  15.
 NSaved=15 IEnMin=15 EnMin= -3005.35566095011     IErMin=15 ErrMin= 7.54D-08
 ErrMax= 7.54D-08  0.00D+00 EMaxC= 1.00D-01 BMatC= 1.44D-11 BMatP= 5.99D-11
 IDIUse=1 WtCom= 1.00D+00 WtEn= 0.00D+00
 Coeff-Com:  0.102D-05-0.163D-05 0.114D-04 0.355D-04 0.380D-04 0.872D-04
 Coeff-Com: -0.128D-04-0.831D-03-0.460D-02-0.831D-02-0.144D-01-0.102D-02
 Coeff-Com:  0.558D-01 0.366D+00 0.607D+00
 Coeff:      0.102D-05-0.163D-05 0.114D-04 0.355D-04 0.380D-04 0.872D-04
 Coeff:     -0.128D-04-0.831D-03-0.460D-02-0.831D-02-0.144D-01-0.102D-02
 Coeff:      0.558D-01 0.366D+00 0.607D+00
 Gap=     0.076 Goal=   None    Shift=    0.000
 RMSDP=5.60D-09 MaxDP=4.98D-07 DE=-1.18D-10 OVMax= 2.20D-06

 SCF Done:  E(RPBE1PBE) =  -3005.35566095     A.U. after   15 cycles
            NFock= 15  Conv=0.56D-08     -V/T= 2.0100
 KE= 2.975641686566D+03 PE=-2.611994701156D+04 EE= 1.057498856266D+04
 Leave Link  502 at Tue May  3 20:33:01 2022, MaxMem= 10066329600 cpu:            6302.3 elap:             264.3
 (Enter /sw/apps/gaussian-16.0/g16/l801.exe)
 DoSCS=F DFT=T ScalE2(SS,OS)=  1.000000  1.000000
 ExpMin= 3.36D-02 ExpMax= 4.95D+03 ExpMxC= 7.45D+02 IAcc=3 IRadAn=         5 AccDes= 0.00D+00
 HarFok:  IExCor=  205 AccDes= 0.00D+00 IRadAn=         5 IDoV=-2 UseB2=F ITyADJ=14
 ICtDFT= 12500011 ScaDFX=  1.000000  1.000000  1.000000  1.000000
 GSVD:  LWork=       -5460 too small for GESVD, short by       25550 words or       25550 for optimal perf.
 Largest valence mixing into a core orbital is  1.97D-04
 Largest core mixing into a valence orbital is  5.87D-05
 Range of M.O.s used for correlation:    71  1298
 NBasis=  1298 NAE=   246 NBE=   246 NFC=    70 NFV=     0
 NROrb=   1228 NOA=   176 NOB=   176 NVA=  1052 NVB=  1052

 **** Warning!!: The smallest alpha delta epsilon is  0.76414460D-01

 Leave Link  801 at Tue May  3 20:33:02 2022, MaxMem= 10066329600 cpu:               8.3 elap:               0.4
 (Enter /sw/apps/gaussian-16.0/g16/l914.exe)
 RHF ground state
 Two-electron integrals replicated using symmetry.
 MDV= 10066329600 DFT=T DoStab=F Mixed=T DoRPA=T DoScal=F NonHer=T
 Making orbital integer symmetry assigments:
 Orbital symmetries:
       Occupied  (A) (A) (A) (A) (A) (A) (A) (A) (A) (A) (A) (A)
                 (A) (A) (A) (A) (A) (A) (A) (A) (A) (A) (A) (A)
                 (A) (A) (A) (A) (A) (A) (A) (A) (A) (A) (A) (A)
                 (A) (A) (A) (A) (A) (A) (A) (A) (A) (A) (A) (A)
                 (A) (A) (A) (A) (A) (A) (A) (A) (A) (A) (A) (A)
                 (A) (A) (A) (A) (A) (A) (A) (A) (A) (A) (A) (A)
                 (A) (A) (A) (A) (A) (A) (A) (A) (A) (A) (A) (A)
                 (A) (A) (A) (A) (A) (A) (A) (A) (A) (A) (A) (A)
                 (A) (A) (A) (A) (A) (A) (A) (A) (A) (A) (A) (A)
                 (A) (A) (A) (A) (A) (A) (A) (A) (A) (A) (A) (A)
                 (A) (A) (A) (A) (A) (A) (A) (A) (A) (A) (A) (A)
                 (A) (A) (A) (A) (A) (A) (A) (A) (A) (A) (A) (A)
                 (A) (A) (A) (A) (A) (A) (A) (A) (A) (A) (A) (A)
                 (A) (A) (A) (A) (A) (A) (A) (A) (A) (A) (A) (A)
                 (A) (A) (A) (A) (A) (A) (A) (A) (A) (A) (A) (A)
                 (A) (A) (A) (A) (A) (A) (A) (A) (A) (A) (A) (A)
                 (A) (A) (A) (A) (A) (A) (A) (A) (A) (A) (A) (A)
                 (A) (A) (A) (A) (A) (A) (A) (A) (A) (A) (A) (A)
                 (A) (A) (A) (A) (A) (A) (A) (A) (A) (A) (A) (A)
                 (A) (A) (A) (A) (A) (A) (A) (A) (A) (A) (A) (A)
                 (A) (A) (A) (A) (A) (A)
       Virtual   (A) (A) (A) (A) (A) (A) (A) (A) (A) (A) (A) (A)
                 (A) (A) (A) (A) (A) (A) (A) (A) (A) (A) (A) (A)
                 (A) (A) (A) (A) (A) (A) (A) (A) (A) (A) (A) (A)
                 (A) (A) (A) (A) (A) (A) (A) (A) (A) (A) (A) (A)
                 (A) (A) (A) (A) (A) (A) (A) (A) (A) (A) (A) (A)
                 (A) (A) (A) (A) (A) (A) (A) (A) (A) (A) (A) (A)
                 (A) (A) (A) (A) (A) (A) (A) (A) (A) (A) (A) (A)
                 (A) (A) (A) (A) (A) (A) (A) (A) (A) (A) (A) (A)
                 (A) (A) (A) (A) (A) (A) (A) (A) (A) (A) (A) (A)
                 (A) (A) (A) (A) (A) (A) (A) (A) (A) (A) (A) (A)
                 (A) (A) (A) (A) (A) (A) (A) (A) (A) (A) (A) (A)
                 (A) (A) (A) (A) (A) (A) (A) (A) (A) (A) (A) (A)
                 (A) (A) (A) (A) (A) (A) (A) (A) (A) (A) (A) (A)
                 (A) (A) (A) (A) (A) (A) (A) (A) (A) (A) (A) (A)
                 (A) (A) (A) (A) (A) (A) (A) (A) (A) (A) (A) (A)
                 (A) (A) (A) (A) (A) (A) (A) (A) (A) (A) (A) (A)
                 (A) (A) (A) (A) (A) (A) (A) (A) (A) (A) (A) (A)
                 (A) (A) (A) (A) (A) (A) (A) (A) (A) (A) (A) (A)
                 (A) (A) (A) (A) (A) (A) (A) (A) (A) (A) (A) (A)
                 (A) (A) (A) (A) (A) (A) (A) (A) (A) (A) (A) (A)
                 (A) (A) (A) (A) (A) (A) (A) (A) (A) (A) (A) (A)
                 (A) (A) (A) (A) (A) (A) (A) (A) (A) (A) (A) (A)
                 (A) (A) (A) (A) (A) (A) (A) (A) (A) (A) (A) (A)
                 (A) (A) (A) (A) (A) (A) (A) (A) (A) (A) (A) (A)
                 (A) (A) (A) (A) (A) (A) (A) (A) (A) (A) (A) (A)
                 (A) (A) (A) (A) (A) (A) (A) (A) (A) (A) (A) (A)
                 (A) (A) (A) (A) (A) (A) (A) (A) (A) (A) (A) (A)
                 (A) (A) (A) (A) (A) (A) (A) (A) (A) (A) (A) (A)
                 (A) (A) (A) (A) (A) (A) (A) (A) (A) (A) (A) (A)
                 (A) (A) (A) (A) (A) (A) (A) (A) (A) (A) (A) (A)
                 (A) (A) (A) (A) (A) (A) (A) (A) (A) (A) (A) (A)
                 (A) (A) (A) (A) (A) (A) (A) (A) (A) (A) (A) (A)
                 (A) (A) (A) (A) (A) (A) (A) (A) (A) (A) (A) (A)
                 (A) (A) (A) (A) (A) (A) (A) (A) (A) (A) (A) (A)
                 (A) (A) (A) (A) (A) (A) (A) (A) (A) (A) (A) (A)
                 (A) (A) (A) (A) (A) (A) (A) (A) (A) (A) (A) (A)
                 (A) (A) (A) (A) (A) (A) (A) (A) (A) (A) (A) (A)
                 (A) (A) (A) (A) (A) (A) (A) (A) (A) (A) (A) (A)
                 (A) (A) (A) (A) (A) (A) (A) (A) (A) (A) (A) (A)
                 (A) (A) (A) (A) (A) (A) (A) (A) (A) (A) (A) (A)
                 (A) (A) (A) (A) (A) (A) (A) (A) (A) (A) (A) (A)
                 (A) (A) (A) (A) (A) (A) (A) (A) (A) (A) (A) (A)
                 (A) (A) (A) (A) (A) (A) (A) (A) (A) (A) (A) (A)
                 (A) (A) (A) (A) (A) (A) (A) (A) (A) (A) (A) (A)
                 (A) (A) (A) (A) (A) (A) (A) (A) (A) (A) (A) (A)
                 (A) (A) (A) (A) (A) (A) (A) (A) (A) (A) (A) (A)
                 (A) (A) (A) (A) (A) (A) (A) (A) (A) (A) (A) (A)
                 (A) (A) (A) (A) (A) (A) (A) (A) (A) (A) (A) (A)
                 (A) (A) (A) (A) (A) (A) (A) (A) (A) (A) (A) (A)
                 (A) (A) (A) (A) (A) (A) (A) (A) (A) (A) (A) (A)
                 (A) (A) (A) (A) (A) (A) (A) (A) (A) (A) (A) (A)
                 (A) (A) (A) (A) (A) (A) (A) (A) (A) (A) (A) (A)
                 (A) (A) (A) (A) (A) (A) (A) (A) (A) (A) (A) (A)
                 (A) (A) (A) (A) (A) (A) (A) (A) (A) (A) (A) (A)
                 (A) (A) (A) (A) (A) (A) (A) (A) (A) (A) (A) (A)
                 (A) (A) (A) (A) (A) (A) (A) (A) (A) (A) (A) (A)
                 (A) (A) (A) (A) (A) (A) (A) (A) (A) (A) (A) (A)
                 (A) (A) (A) (A) (A) (A) (A) (A) (A) (A) (A) (A)
                 (A) (A) (A) (A) (A) (A) (A) (A) (A) (A) (A) (A)
                 (A) (A) (A) (A) (A) (A) (A) (A) (A) (A) (A) (A)
                 (A) (A) (A) (A) (A) (A) (A) (A) (A) (A) (A) (A)
                 (A) (A) (A) (A) (A) (A) (A) (A) (A) (A) (A) (A)
                 (A) (A) (A) (A) (A) (A) (A) (A) (A) (A) (A) (A)
                 (A) (A) (A) (A) (A) (A) (A) (A) (A) (A) (A) (A)
                 (A) (A) (A) (A) (A) (A) (A) (A) (A) (A) (A) (A)
                 (A) (A) (A) (A) (A) (A) (A) (A) (A) (A) (A) (A)
                 (A) (A) (A) (A) (A) (A) (A) (A) (A) (A) (A) (A)
                 (A) (A) (A) (A) (A) (A) (A) (A) (A) (A) (A) (A)
                 (A) (A) (A) (A) (A) (A) (A) (A) (A) (A) (A) (A)
                 (A) (A) (A) (A) (A) (A) (A) (A) (A) (A) (A) (A)
                 (A) (A) (A) (A) (A) (A) (A) (A) (A) (A) (A) (A)
                 (A) (A) (A) (A) (A) (A) (A) (A) (A) (A) (A) (A)
                 (A) (A) (A) (A) (A) (A) (A) (A) (A) (A) (A) (A)
                 (A) (A) (A) (A) (A) (A) (A) (A) (A) (A) (A) (A)
                 (A) (A) (A) (A) (A) (A) (A) (A) (A) (A) (A) (A)
                 (A) (A) (A) (A) (A) (A) (A) (A) (A) (A) (A) (A)
                 (A) (A) (A) (A) (A) (A) (A) (A) (A) (A) (A) (A)
                 (A) (A) (A) (A) (A) (A) (A) (A) (A) (A) (A) (A)
                 (A) (A) (A) (A) (A) (A) (A) (A) (A) (A) (A) (A)
                 (A) (A) (A) (A) (A) (A) (A) (A) (A) (A) (A) (A)
                 (A) (A) (A) (A) (A) (A) (A) (A) (A) (A) (A) (A)
                 (A) (A) (A) (A) (A) (A) (A) (A) (A) (A) (A) (A)
                 (A) (A) (A) (A) (A) (A) (A) (A) (A) (A) (A) (A)
                 (A) (A) (A) (A) (A) (A) (A) (A) (A) (A) (A) (A)
                 (A) (A) (A) (A) (A) (A) (A) (A) (A) (A) (A) (A)
                 (A) (A) (A) (A) (A) (A) (A) (A) (A) (A) (A) (A)
                 (A) (A) (A) (A) (A) (A) (A) (A) (A) (A) (A) (A)
                 (A) (A) (A) (A) (A) (A) (A) (A)
    20 initial guesses have been made.
 Convergence on wavefunction:    0.001000000000000
 Davidson Disk Diagonalization:  ConvIn= 1.00D-03 SkipCon=T Conv= 1.00D-03.
 Max sub-space:  2000 roots to seek:    20 dimension of matrix:       370304
 Iteration     1 Dimension    20 NMult     0 NNew     20
 CISAX will form    20 AO SS matrices at one time.
 NMat=    20 NSing=    20 JSym2X= 0.
 FoFJK:  IHMeth= 1 ICntrl=       0 DoSepK=F KAlg= 0 I1Cent=           0 FoldK=F
 IRaf= 510000000 NMat=      40 IRICut=       1 DoRegI=T DoRafI=F ISym2E= 0 IDoP0=3 IntGTp=3.
 FoFCou: FMM=T IPFlag=           0 FMFlag=      100000 FMFlg1=        2001
         NFxFlg=           0 DoJE=F BraDBF=F KetDBF=F FulRan=T
         wScrn=  0.000000 ICntrl=         0 IOpCl=  0 I1Cent=           0 NGrid=           0
         NMat0=   40 NMatS0=     20 NMatT0=    0 NMatD0=   40 NMtDS0=    0 NMtDT0=    0
 Symmetry not used in FoFCou.
 FMM levels:  10  Number of levels for PrismC:   9
 New state      3 was old state      4
 New state      4 was old state      6
 New state      5 was old state      7
 Excitation Energies [eV] at current iteration:
 Root      1 :     2.235484872190070
 Root      2 :     2.604167626399028
 Root      3 :     3.198289530869626
 Root      4 :     3.260688663575838
 Root      5 :     3.397082118680042
 Root      6 :     3.554162408670484
 Root      7 :     3.584135579069696
 Root      8 :     3.743497484289068
 Root      9 :     3.965318392909769
 Root     10 :     4.031997948219325
 Root     11 :     4.057993244620842
 Root     12 :     4.159579686523090
 Root     13 :     4.271455072291512
 Root     14 :     4.354993284790972
 Root     15 :     4.555142311968221
 Root     16 :     4.726030295816989
 Root     17 :     4.759981825396700
 Root     18 :     4.866660781687912
 Root     19 :     4.910465825238319
 Root     20 :     5.026603489151835
 Iteration     2 Dimension    30 NMult    20 NNew     10
 CISAX will form    10 AO SS matrices at one time.
 NMat=    10 NSing=    10 JSym2X= 0.
 Root      1 not converged, maximum delta is    0.054112348508203
 Root      2 not converged, maximum delta is    0.052373467842118
 Root      3 not converged, maximum delta is    0.206112520140117
 Root      4 not converged, maximum delta is    0.174952433465127
 Root      5 not converged, maximum delta is    0.189793770657596
 Excitation Energies [eV] at current iteration:
 Root      1 :     1.894037232621915   Change is   -0.341447639568155
 Root      2 :     2.349070362370419   Change is   -0.255097264028609
 Root      3 :     3.017765905270218   Change is   -0.180523625599408
 Root      4 :     3.113981991593223   Change is   -0.146706671982615
 Root      5 :     3.200484012018086   Change is   -0.196598106661956
 Iteration     3 Dimension    40 NMult    30 NNew     10
 CISAX will form    10 AO SS matrices at one time.
 NMat=    10 NSing=    10 JSym2X= 0.
 Root      1 not converged, maximum delta is    0.022497293000350
 Root      2 not converged, maximum delta is    0.019791307174803
 Root      3 not converged, maximum delta is    0.027186548183510
 Root      4 not converged, maximum delta is    0.028194385472532
 Root      5 not converged, maximum delta is    0.020826852442664
 Excitation Energies [eV] at current iteration:
 Root      1 :     1.864996700019304   Change is   -0.029040532602611
 Root      2 :     2.332565541640944   Change is   -0.016504820729475
 Root      3 :     3.005638972647712   Change is   -0.012126932622506
 Root      4 :     3.098391116602452   Change is   -0.015590874990771
 Root      5 :     3.182566019193905   Change is   -0.017917992824182
 Iteration     4 Dimension    50 NMult    40 NNew     10
 CISAX will form    10 AO SS matrices at one time.
 NMat=    10 NSing=    10 JSym2X= 0.
 Root      1 not converged, maximum delta is    0.002885585203735
 Root      2 not converged, maximum delta is    0.007273831065744
 Root      3 not converged, maximum delta is    0.004093019012828
 Root      4 not converged, maximum delta is    0.005587795036550
 Root      5 not converged, maximum delta is    0.005822669932578
 Excitation Energies [eV] at current iteration:
 Root      1 :     1.862044851558055   Change is   -0.002951848461249
 Root      2 :     2.330012620344428   Change is   -0.002552921296515
 Root      3 :     3.003943613113844   Change is   -0.001695359533868
 Root      4 :     3.096107189580795   Change is   -0.002283927021658
 Root      5 :     3.180290756500090   Change is   -0.002275262693814
 Iteration     5 Dimension    60 NMult    50 NNew     10
 CISAX will form    10 AO SS matrices at one time.
 NMat=    10 NSing=    10 JSym2X= 0.
 Root      1 has converged.
 Root      2 has converged.
 Root      3 has converged.
 Root      4 not converged, maximum delta is    0.001116775344563
 Root      5 not converged, maximum delta is    0.001984560950273
 Excitation Energies [eV] at current iteration:
 Root      1 :     1.861772014531542   Change is   -0.000272837026513
 Root      2 :     2.329830392380289   Change is   -0.000182227964140
 Root      3 :     3.003743272003640   Change is   -0.000200341110205
 Root      4 :     3.095818710292371   Change is   -0.000288479288424
 Root      5 :     3.180000285526749   Change is   -0.000290470973342
 Iteration     6 Dimension    64 NMult    60 NNew      4
 CISAX will form     4 AO SS matrices at one time.
 NMat=     4 NSing=     4 JSym2X= 0.
 Root      1 has converged.
 Root      2 has converged.
 Root      3 has converged.
 Root      4 has converged.
 Root      5 has converged.
 Excitation Energies [eV] at current iteration:
 Root      1 :     1.861771731004760   Change is   -0.000000283526781
 Root      2 :     2.329829702297883   Change is   -0.000000690082406
 Root      3 :     3.003742170076347   Change is   -0.000001101927293
 Root      4 :     3.095789330715327   Change is   -0.000029379577043
 Root      5 :     3.179964647376675   Change is   -0.000035638150074
 Convergence achieved on expansion vectors.
 ***********************************************************************
 Excited states from <AA,BB:AA,BB> singles matrix:
 ***********************************************************************
 
 1PDM for each excited state written to RWF  633
 Ground to excited state transition densities written to RWF  633
 Ground to excited state transition electric dipole moments (Au):
       state          X           Y           Z        Dip. S.      Osc.
         1        -1.5790     -2.2785      0.4688      7.9046      0.3605
         2        -0.8437      0.9467     -0.0732      1.6135      0.0921
         3         0.0324     -0.2183     -0.0056      0.0487      0.0036
         4         0.0405     -0.0451     -0.0125      0.0038      0.0003
         5        -0.0113      0.0817     -0.0116      0.0069      0.0005
 Ground to excited state transition velocity dipole moments (Au):
       state          X           Y           Z        Dip. S.      Osc.
         1         0.1053      0.1516     -0.0306      0.0350      0.3411
         2         0.0684     -0.0775      0.0054      0.0107      0.0834
         3        -0.0017      0.0243     -0.0014      0.0006      0.0036
         4        -0.0048      0.0056      0.0004      0.0001      0.0003
         5         0.0040     -0.0084     -0.0011      0.0001      0.0005
 Ground to excited state transition magnetic dipole moments (Au):
       state          X           Y           Z
         1        -0.0329     -0.2882     -1.6895
         2         0.0093      0.0058      0.1333
         3         0.1668     -0.1778      0.6443
         4        -0.2603     -0.2213     -0.0562
         5         0.2357     -0.3941     -0.1586
 Ground to excited state transition velocity quadrupole moments (Au):
       state          XX          YY          ZZ          XY          XZ          YZ
         1        -2.0039      0.5164     -0.0347     -1.2498      0.3339      0.0333
         2        -1.1175     -0.2877      0.0179      0.7350     -0.0607      0.0026
         3        -0.1158      0.3917     -0.0005     -0.2365      0.0554     -0.0546
         4         0.1212     -0.2410     -0.0041     -0.1444      0.0336      0.0201
         5         0.0058     -0.1905      0.0091      0.1769     -0.0158      0.0184
 <0|del|b> * <b|rxdel|0> + <0|del|b> * <b|delr+rdel|0>
 Rotatory Strengths (R) in cgs (10**-40 erg-esu-cm/Gauss)
       state          XX          YY          ZZ    R(velocity)    E-M Angle
         1       -23.0002     69.6656     -0.2861     15.4598       89.20
         2        -1.8291    -10.1137     19.4940      2.5171       86.21
         3       -20.0476     -4.6391    -10.7496    -11.8121      109.18
         4        -4.6612      3.7108      0.9560      0.0019       90.00
         5         9.5787      4.2107     13.0489      8.9461       13.24
 1/2[<0|r|b>*<b|rxdel|0> + (<0|rxdel|b>*<b|r|0>)*]
 Rotatory Strengths (R) in cgs (10**-40 erg-esu-cm/Gauss)
       state          XX          YY          ZZ     R(length)
         1       -36.7861   -464.4037    560.1098     19.6400
         2         5.5599     -3.8544      6.8960      2.8672
         3        -3.8223    -27.4520      2.5390     -9.5785
         4         7.4624     -7.0571     -0.4966     -0.0304
         5         1.8868     22.7607     -1.2992      7.7828
  1/2[<0|del|b>*<b|r|0> + (<0|r|b>*<b|del|0>)*] (Au)
       state          X           Y           Z        Dip. S.   Osc.(frdel)
         1        -0.1663     -0.3453     -0.0143      0.5260      0.3507
         2        -0.0577     -0.0733     -0.0004      0.1314      0.0876
         3        -0.0001     -0.0053      0.0000      0.0054      0.0036
         4        -0.0002     -0.0003     -0.0000      0.0005      0.0003
         5        -0.0000     -0.0007      0.0000      0.0007      0.0005

 Excitation energies and oscillator strengths:
 
 Excited State   1:      Singlet-A      1.8618 eV  665.95 nm  f=0.3605  <S**2>=0.000
     245 -> 248        0.16107
     246 -> 247        0.69525
     246 <- 247       -0.10850
 This state for optimization and/or second-order correction.
 Total Energy, E(TD-HF/TD-DFT) =  -3005.28724210    
 Copying the excited state density for this state as the 1-particle RhoCI density.
 
 Excited State   2:      Singlet-A      2.3298 eV  532.16 nm  f=0.0921  <S**2>=0.000
     245 -> 247        0.63625
     246 -> 248       -0.28810
 
 Excited State   3:      Singlet-A      3.0037 eV  412.77 nm  f=0.0036  <S**2>=0.000
     241 -> 247        0.10131
     244 -> 247        0.68499
 
 Excited State   4:      Singlet-A      3.0958 eV  400.49 nm  f=0.0003  <S**2>=0.000
     240 -> 247        0.26947
     241 -> 249       -0.11488
     242 -> 247        0.60361
     246 -> 248       -0.14089
 
 Excited State   5:      Singlet-A      3.1800 eV  389.89 nm  f=0.0005  <S**2>=0.000
     240 -> 247       -0.33403
     240 -> 249       -0.10352
     241 -> 247        0.56183
     242 -> 247        0.11790
     244 -> 247       -0.12520
 SavETr:  write IOETrn=   770 NScale= 10 NData=  16 NLR=1 NState=    5 LETran=     100.
 Leave Link  914 at Tue May  3 20:46:25 2022, MaxMem= 10066329600 cpu:           19002.7 elap:             803.7
 (Enter /sw/apps/gaussian-16.0/g16/l601.exe)
 Copying SCF densities to generalized density rwf, IOpCl= 0 IROHF=0.
 Hyperfine terms turned off by default for NAtoms > 100.

 **********************************************************************

            Population analysis using the SCF density.

 **********************************************************************

 Orbital symmetries:
       Occupied  (A) (A) (A) (A) (A) (A) (A) (A) (A) (A) (A) (A)
                 (A) (A) (A) (A) (A) (A) (A) (A) (A) (A) (A) (A)
                 (A) (A) (A) (A) (A) (A) (A) (A) (A) (A) (A) (A)
                 (A) (A) (A) (A) (A) (A) (A) (A) (A) (A) (A) (A)
                 (A) (A) (A) (A) (A) (A) (A) (A) (A) (A) (A) (A)
                 (A) (A) (A) (A) (A) (A) (A) (A) (A) (A) (A) (A)
                 (A) (A) (A) (A) (A) (A) (A) (A) (A) (A) (A) (A)
                 (A) (A) (A) (A) (A) (A) (A) (A) (A) (A) (A) (A)
                 (A) (A) (A) (A) (A) (A) (A) (A) (A) (A) (A) (A)
                 (A) (A) (A) (A) (A) (A) (A) (A) (A) (A) (A) (A)
                 (A) (A) (A) (A) (A) (A) (A) (A) (A) (A) (A) (A)
                 (A) (A) (A) (A) (A) (A) (A) (A) (A) (A) (A) (A)
                 (A) (A) (A) (A) (A) (A) (A) (A) (A) (A) (A) (A)
                 (A) (A) (A) (A) (A) (A) (A) (A) (A) (A) (A) (A)
                 (A) (A) (A) (A) (A) (A) (A) (A) (A) (A) (A) (A)
                 (A) (A) (A) (A) (A) (A) (A) (A) (A) (A) (A) (A)
                 (A) (A) (A) (A) (A) (A) (A) (A) (A) (A) (A) (A)
                 (A) (A) (A) (A) (A) (A) (A) (A) (A) (A) (A) (A)
                 (A) (A) (A) (A) (A) (A) (A) (A) (A) (A) (A) (A)
                 (A) (A) (A) (A) (A) (A) (A) (A) (A) (A) (A) (A)
                 (A) (A) (A) (A) (A) (A)
       Virtual   (A) (A) (A) (A) (A) (A) (A) (A) (A) (A) (A) (A)
                 (A) (A) (A) (A) (A) (A) (A) (A) (A) (A) (A) (A)
                 (A) (A) (A) (A) (A) (A) (A) (A) (A) (A) (A) (A)
                 (A) (A) (A) (A) (A) (A) (A) (A) (A) (A) (A) (A)
                 (A) (A) (A) (A) (A) (A) (A) (A) (A) (A) (A) (A)
                 (A) (A) (A) (A) (A) (A) (A) (A) (A) (A) (A) (A)
                 (A) (A) (A) (A) (A) (A) (A) (A) (A) (A) (A) (A)
                 (A) (A) (A) (A) (A) (A) (A) (A) (A) (A) (A) (A)
                 (A) (A) (A) (A) (A) (A) (A) (A) (A) (A) (A) (A)
                 (A) (A) (A) (A) (A) (A) (A) (A) (A) (A) (A) (A)
                 (A) (A) (A) (A) (A) (A) (A) (A) (A) (A) (A) (A)
                 (A) (A) (A) (A) (A) (A) (A) (A) (A) (A) (A) (A)
                 (A) (A) (A) (A) (A) (A) (A) (A) (A) (A) (A) (A)
                 (A) (A) (A) (A) (A) (A) (A) (A) (A) (A) (A) (A)
                 (A) (A) (A) (A) (A) (A) (A) (A) (A) (A) (A) (A)
                 (A) (A) (A) (A) (A) (A) (A) (A) (A) (A) (A) (A)
                 (A) (A) (A) (A) (A) (A) (A) (A) (A) (A) (A) (A)
                 (A) (A) (A) (A) (A) (A) (A) (A) (A) (A) (A) (A)
                 (A) (A) (A) (A) (A) (A) (A) (A) (A) (A) (A) (A)
                 (A) (A) (A) (A) (A) (A) (A) (A) (A) (A) (A) (A)
                 (A) (A) (A) (A) (A) (A) (A) (A) (A) (A) (A) (A)
                 (A) (A) (A) (A) (A) (A) (A) (A) (A) (A) (A) (A)
                 (A) (A) (A) (A) (A) (A) (A) (A) (A) (A) (A) (A)
                 (A) (A) (A) (A) (A) (A) (A) (A) (A) (A) (A) (A)
                 (A) (A) (A) (A) (A) (A) (A) (A) (A) (A) (A) (A)
                 (A) (A) (A) (A) (A) (A) (A) (A) (A) (A) (A) (A)
                 (A) (A) (A) (A) (A) (A) (A) (A) (A) (A) (A) (A)
                 (A) (A) (A) (A) (A) (A) (A) (A) (A) (A) (A) (A)
                 (A) (A) (A) (A) (A) (A) (A) (A) (A) (A) (A) (A)
                 (A) (A) (A) (A) (A) (A) (A) (A) (A) (A) (A) (A)
                 (A) (A) (A) (A) (A) (A) (A) (A) (A) (A) (A) (A)
                 (A) (A) (A) (A) (A) (A) (A) (A) (A) (A) (A) (A)
                 (A) (A) (A) (A) (A) (A) (A) (A) (A) (A) (A) (A)
                 (A) (A) (A) (A) (A) (A) (A) (A) (A) (A) (A) (A)
                 (A) (A) (A) (A) (A) (A) (A) (A) (A) (A) (A) (A)
                 (A) (A) (A) (A) (A) (A) (A) (A) (A) (A) (A) (A)
                 (A) (A) (A) (A) (A) (A) (A) (A) (A) (A) (A) (A)
                 (A) (A) (A) (A) (A) (A) (A) (A) (A) (A) (A) (A)
                 (A) (A) (A) (A) (A) (A) (A) (A) (A) (A) (A) (A)
                 (A) (A) (A) (A) (A) (A) (A) (A) (A) (A) (A) (A)
                 (A) (A) (A) (A) (A) (A) (A) (A) (A) (A) (A) (A)
                 (A) (A) (A) (A) (A) (A) (A) (A) (A) (A) (A) (A)
                 (A) (A) (A) (A) (A) (A) (A) (A) (A) (A) (A) (A)
                 (A) (A) (A) (A) (A) (A) (A) (A) (A) (A) (A) (A)
                 (A) (A) (A) (A) (A) (A) (A) (A) (A) (A) (A) (A)
                 (A) (A) (A) (A) (A) (A) (A) (A) (A) (A) (A) (A)
                 (A) (A) (A) (A) (A) (A) (A) (A) (A) (A) (A) (A)
                 (A) (A) (A) (A) (A) (A) (A) (A) (A) (A) (A) (A)
                 (A) (A) (A) (A) (A) (A) (A) (A) (A) (A) (A) (A)
                 (A) (A) (A) (A) (A) (A) (A) (A) (A) (A) (A) (A)
                 (A) (A) (A) (A) (A) (A) (A) (A) (A) (A) (A) (A)
                 (A) (A) (A) (A) (A) (A) (A) (A) (A) (A) (A) (A)
                 (A) (A) (A) (A) (A) (A) (A) (A) (A) (A) (A) (A)
                 (A) (A) (A) (A) (A) (A) (A) (A) (A) (A) (A) (A)
                 (A) (A) (A) (A) (A) (A) (A) (A) (A) (A) (A) (A)
                 (A) (A) (A) (A) (A) (A) (A) (A) (A) (A) (A) (A)
                 (A) (A) (A) (A) (A) (A) (A) (A) (A) (A) (A) (A)
                 (A) (A) (A) (A) (A) (A) (A) (A) (A) (A) (A) (A)
                 (A) (A) (A) (A) (A) (A) (A) (A) (A) (A) (A) (A)
                 (A) (A) (A) (A) (A) (A) (A) (A) (A) (A) (A) (A)
                 (A) (A) (A) (A) (A) (A) (A) (A) (A) (A) (A) (A)
                 (A) (A) (A) (A) (A) (A) (A) (A) (A) (A) (A) (A)
                 (A) (A) (A) (A) (A) (A) (A) (A) (A) (A) (A) (A)
[...]
 Alpha virt. eigenvalues --    1.17259   1.17499   1.18022   1.18436   1.19261
 Alpha virt. eigenvalues --    1.19666   1.19998   1.20398   1.20837   1.21083
 Alpha virt. eigenvalues --    1.21189   1.22029   1.22742   1.23609   1.23863
 Alpha virt. eigenvalues --    1.24377   1.25103   1.25530   1.26669   1.27130
 Alpha virt. eigenvalues --    1.27242   1.27615   1.27848   1.28281   1.28365
 Alpha virt. eigenvalues --    1.28827   1.29386   1.30109   1.30698   1.30990
 Alpha virt. eigenvalues --    1.31453   1.31664   1.32375   1.32579   1.32810
 Alpha virt. eigenvalues --    1.33751   1.33828   1.34214   1.34488   1.34873
 Alpha virt. eigenvalues --    1.34995   1.35346   1.35686   1.36056   1.36754
 Alpha virt. eigenvalues --    1.36964   1.37636   1.38012   1.38444   1.38722
 Alpha virt. eigenvalues --    1.39557   1.39820   1.40210   1.40456   1.40640
 Alpha virt. eigenvalues --    1.40914   1.41661   1.42077   1.42161   1.42566
 Alpha virt. eigenvalues --    1.42765   1.43440   1.43857   1.44427   1.44554
 Alpha virt. eigenvalues --    1.45290   1.45374   1.45698   1.46478   1.47105
 Alpha virt. eigenvalues --    1.47187   1.47966   1.48845   1.48932   1.49240
 Alpha virt. eigenvalues --    1.49542   1.49791   1.50169   1.50416   1.50548
 Alpha virt. eigenvalues --    1.50939   1.51759   1.52023   1.52337   1.52750
 Alpha virt. eigenvalues --    1.52928   1.53256   1.53334   1.53388   1.53522
 Alpha virt. eigenvalues --    1.53592   1.53853   1.54248   1.54633   1.54944
 Alpha virt. eigenvalues --    1.55138   1.55575   1.55778   1.55876   1.56154
 Alpha virt. eigenvalues --    1.56289   1.56808   1.57084   1.57251   1.57642
 Alpha virt. eigenvalues --    1.57792   1.58018   1.58601   1.58984   1.59361
 Alpha virt. eigenvalues --    1.59827   1.60255   1.60491   1.61057   1.61619
 Alpha virt. eigenvalues --    1.62059   1.62346   1.63046   1.63314   1.63478
 Alpha virt. eigenvalues --    1.64136   1.64447   1.64663   1.65984   1.66368
 Alpha virt. eigenvalues --    1.66654   1.67029   1.67230   1.67659   1.68142
 Alpha virt. eigenvalues --    1.68530   1.68947   1.69485   1.69645   1.69971
 Alpha virt. eigenvalues --    1.70020   1.70914   1.71173   1.71800   1.71894
 Alpha virt. eigenvalues --    1.72136   1.72601   1.72849   1.73102   1.73468
 Alpha virt. eigenvalues --    1.73717   1.73878   1.74080   1.74346   1.74669
 Alpha virt. eigenvalues --    1.74801   1.74872   1.75037   1.75144   1.75475
 Alpha virt. eigenvalues --    1.75722   1.75921   1.76301   1.76341   1.76431
 Alpha virt. eigenvalues --    1.76480   1.76841   1.77112   1.77492   1.77612
 Alpha virt. eigenvalues --    1.77633   1.78125   1.78416   1.78652   1.78682
 Alpha virt. eigenvalues --    1.78813   1.79006   1.79166   1.79305   1.79702
 Alpha virt. eigenvalues --    1.79735   1.79940   1.80127   1.80212   1.80707
 Alpha virt. eigenvalues --    1.80898   1.81067   1.81220   1.81416   1.81478
 Alpha virt. eigenvalues --    1.81720   1.81888   1.81997   1.82456   1.82805
 Alpha virt. eigenvalues --    1.82948   1.82967   1.83125   1.83576   1.83710
 Alpha virt. eigenvalues --    1.83848   1.84086   1.84287   1.84544   1.84695
 Alpha virt. eigenvalues --    1.84808   1.85203   1.85320   1.85449   1.85905
 Alpha virt. eigenvalues --    1.86112   1.86340   1.86674   1.86961   1.86979
 Alpha virt. eigenvalues --    1.87318   1.87434   1.87621   1.87710   1.87926
 Alpha virt. eigenvalues --    1.88368   1.88599   1.88703   1.88982   1.89492
 Alpha virt. eigenvalues --    1.89705   1.89860   1.90349   1.90636   1.90892
 Alpha virt. eigenvalues --    1.90933   1.91164   1.91342   1.91519   1.92049
 Alpha virt. eigenvalues --    1.92162   1.92525   1.92847   1.93002   1.93150
 Alpha virt. eigenvalues --    1.93583   1.93971   1.94112   1.94210   1.94427
 Alpha virt. eigenvalues --    1.94682   1.94931   1.95229   1.95367   1.95753
 Alpha virt. eigenvalues --    1.96076   1.96130   1.96267   1.96585   1.96744
 Alpha virt. eigenvalues --    1.97075   1.97464   1.97717   1.97899   1.98291
 Alpha virt. eigenvalues --    1.98994   1.99310   1.99747   2.00304   2.00351
 Alpha virt. eigenvalues --    2.00529   2.00718   2.01277   2.01598   2.01747
 Alpha virt. eigenvalues --    2.01962   2.02468   2.02589   2.02932   2.03244
 Alpha virt. eigenvalues --    2.03533   2.03634   2.04046   2.04487   2.04635
 Alpha virt. eigenvalues --    2.04774   2.04802   2.05718   2.05861   2.06096
 Alpha virt. eigenvalues --    2.06350   2.06636   2.06868   2.06970   2.07258
 Alpha virt. eigenvalues --    2.07757   2.08023   2.08400   2.08876   2.09136
 Alpha virt. eigenvalues --    2.09470   2.09552   2.09978   2.10365   2.10741
 Alpha virt. eigenvalues --    2.11026   2.11205   2.11643   2.12292   2.12451
 Alpha virt. eigenvalues --    2.12791   2.12992   2.13199   2.13803   2.14296
 Alpha virt. eigenvalues --    2.14422   2.14754   2.15025   2.15360   2.15622
 Alpha virt. eigenvalues --    2.15823   2.16073   2.16673   2.16728   2.16858
 Alpha virt. eigenvalues --    2.17651   2.18126   2.18250   2.18487   2.18576
 Alpha virt. eigenvalues --    2.19191   2.19716   2.19981   2.20468   2.20584
 Alpha virt. eigenvalues --    2.21281   2.22310   2.22836   2.23290   2.23462
 Alpha virt. eigenvalues --    2.24001   2.24324   2.24391   2.25165   2.25754
 Alpha virt. eigenvalues --    2.26001   2.26477   2.26724   2.27376   2.27479
 Alpha virt. eigenvalues --    2.27879   2.28123   2.28640   2.29073   2.29320
 Alpha virt. eigenvalues --    2.29634   2.29995   2.30138   2.30713   2.31148
 Alpha virt. eigenvalues --    2.31341   2.31482   2.32471   2.32487   2.32959
 Alpha virt. eigenvalues --    2.33291   2.33583   2.33936   2.34089   2.35249
 Alpha virt. eigenvalues --    2.35297   2.35597   2.36268   2.36623   2.36857
 Alpha virt. eigenvalues --    2.37266   2.37976   2.38020   2.38542   2.38695
 Alpha virt. eigenvalues --    2.39548   2.39654   2.39935   2.40143   2.40420
 Alpha virt. eigenvalues --    2.40959   2.41412   2.41489   2.41839   2.42182
 Alpha virt. eigenvalues --    2.42285   2.42722   2.43109   2.43289   2.43549
 Alpha virt. eigenvalues --    2.44099   2.44211   2.44298   2.44740   2.44841
 Alpha virt. eigenvalues --    2.45041   2.45632   2.46277   2.46567   2.47047
 Alpha virt. eigenvalues --    2.48405   2.48532   2.49265   2.49394   2.50136
 Alpha virt. eigenvalues --    2.50329   2.50688   2.50849   2.51303   2.51878
 Alpha virt. eigenvalues --    2.52355   2.52460   2.53252   2.53540   2.54227
 Alpha virt. eigenvalues --    2.54541   2.54820   2.55882   2.56141   2.56197
 Alpha virt. eigenvalues --    2.56496   2.57075   2.58129   2.58178   2.59261
 Alpha virt. eigenvalues --    2.59544   2.59751   2.59988   2.60092   2.60205
 Alpha virt. eigenvalues --    2.60548   2.61030   2.61478   2.61845   2.62165
 Alpha virt. eigenvalues --    2.62720   2.63031   2.63952   2.64242   2.64448
 Alpha virt. eigenvalues --    2.64960   2.65145   2.65407   2.65654   2.66335
 Alpha virt. eigenvalues --    2.66375   2.66510   2.66756   2.67991   2.68317
 Alpha virt. eigenvalues --    2.68449   2.69276   2.69917   2.70358   2.70531
 Alpha virt. eigenvalues --    2.70807   2.70905   2.71106   2.71797   2.72428
 Alpha virt. eigenvalues --    2.72701   2.73267   2.73572   2.74354   2.74403
 Alpha virt. eigenvalues --    2.74816   2.75079   2.75283   2.75694   2.76073
 Alpha virt. eigenvalues --    2.76204   2.76670   2.77182   2.78245   2.78520
 Alpha virt. eigenvalues --    2.78717   2.79056   2.80168   2.80696   2.81458
 Alpha virt. eigenvalues --    2.81718   2.81872   2.83163   2.83819   2.84307
 Alpha virt. eigenvalues --    2.84522   2.84931   2.85350   2.86447   2.86763
 Alpha virt. eigenvalues --    2.87304   2.87742   2.87828   2.88328   2.89156
 Alpha virt. eigenvalues --    2.89540   2.90153   2.90557   2.90777   2.91522
 Alpha virt. eigenvalues --    2.91759   2.91911   2.92273   2.92690   2.93146
 Alpha virt. eigenvalues --    2.93363   2.93748   2.93961   2.94223   2.94492
 Alpha virt. eigenvalues --    2.94617   2.94831   2.95093   2.95184   2.95483
 Alpha virt. eigenvalues --    2.95561   2.96031   2.96241   2.96462   2.96587
 Alpha virt. eigenvalues --    2.96738   2.96950   2.97476   2.97830   2.98190
 Alpha virt. eigenvalues --    2.98192   2.98385   2.98705   2.98830   2.99477
 Alpha virt. eigenvalues --    2.99744   2.99915   3.00028   3.00377   3.00912
 Alpha virt. eigenvalues --    3.01115   3.01370   3.01633   3.01752   3.02472
 Alpha virt. eigenvalues --    3.02857   3.03726   3.04084   3.04704   3.05287
 Alpha virt. eigenvalues --    3.05421   3.05709   3.06054   3.06799   3.07101
 Alpha virt. eigenvalues --    3.07382   3.07477   3.08882   3.08941   3.09176
 Alpha virt. eigenvalues --    3.09701   3.09845   3.10112   3.11545   3.12259
 Alpha virt. eigenvalues --    3.13378   3.13604   3.14262   3.14560   3.15017
 Alpha virt. eigenvalues --    3.15864   3.16968   3.17146   3.17829   3.18711
 Alpha virt. eigenvalues --    3.19721   3.22036   3.22833   3.22903   3.23674
 Alpha virt. eigenvalues --    3.25183   3.32597   3.34555   3.38501   3.41947
 Alpha virt. eigenvalues --    3.42753   3.45222   3.46482   3.50721   3.53417
 Alpha virt. eigenvalues --    3.59829   3.61050   3.62690   3.64698   3.65844
 Alpha virt. eigenvalues --    3.68203   3.71754
          Condensed to atoms (all electrons):
 Mulliken charges:
               1
     1  Mg   0.994012
     2  C    0.029322
     3  C   -0.093961
     4  C   -0.078641
     5  C   -0.071446
     6  N   -0.362041
     7  C   -0.062184
     8  C   -0.074155
     9  C   -0.134732
    10  C    0.103539
    11  C    0.010656
    12  C   -0.021685
    13  C   -0.019811
    14  C    0.240641
    15  O   -0.265731
    16  O   -0.361823
    17  N   -0.554730
    18  C    0.221321
    19  C   -0.202681
    20  C   -0.108960
    21  C    0.190602
    22  C    0.064550
    23  C    0.053553
    24  O   -0.269197
    25  C   -0.004924
    26  N   -0.418590
    27  C    0.087615
    28  C   -0.111468
    29  C   -0.098990
    30  C    0.079337
    31  C    0.015935
    32  C   -0.014471
    33  C   -0.078668
    34  N   -0.495461
    35  C    0.127425
    36  C   -0.209470
    37  C   -0.035886
    38  C    0.155714
    39  C    0.064400
    40  C    0.155322
    41  O   -0.212839
    42  C   -0.083033
    43  C    0.256542
    44  O   -0.249864
    45  O   -0.353433
    46  C    0.142579
    47  C    0.235875
    48  C   -0.138424
    49  C   -0.234265
    50  C    0.029922
    51  C    0.011852
    52  C   -0.080415
    53  C    0.020851
    54  C   -0.231094
    55  C   -0.009466
    56  C    0.001545
    57  C   -0.021497
    58  C   -0.018860
    59  C   -0.224052
    60  C   -0.030727
    61  C    0.000155
    62  C   -0.018431
    63  C   -0.017787
    64  C   -0.266800
    65  C   -0.004144
    66  C   -0.022897
    67  H   -0.001291
    68  H    0.035798
    69  H   -0.001572
    70  H    0.061519
    71  H    0.043907
    72  H    0.045873
    73  H    0.042528
    74  H    0.032463
    75  H    0.032258
    76  H    0.064717
    77  H    0.067990
    78  H    0.075507
    79  H    0.079140
    80  H    0.031074
    81  H    0.047481
    82  H    0.060898
    83  H    0.071738
    84  H    0.057407
    85  H    0.042398
    86  H    0.049279
    87  H    0.055216
    88  H    0.070965
    89  H    0.040305
    90  H    0.059252
    91  H    0.039994
    92  H    0.045711
    93  H    0.043710
    94  H    0.050924
    95  H    0.060923
    96  H    0.067688
    97  H    0.032997
    98  H    0.086266
    99  H    0.062038
   100  H    0.065302
   101  H    0.035828
   102  H    0.061126
   103  H    0.075041
   104  H    0.031147
   105  H    0.049337
   106  H    0.047731
   107  H    0.048831
   108  H    0.033220
   109  H    0.027243
   110  H    0.026984
   111  H    0.038174
   112  H    0.035370
   113  H    0.032915
   114  H    0.036905
   115  H    0.025057
   116  H    0.022455
   117  H    0.049961
   118  H    0.015782
   119  H    0.031239
   120  H    0.032821
   121  H    0.034599
   122  H    0.025716
   123  H    0.018508
   124  H    0.034477
   125  H    0.030428
   126  H    0.037287
   127  H    0.035414
   128  H    0.014609
   129  H    0.018278
   130  H    0.028036
   131  H    0.025040
   132  H    0.033180
   133  H    0.029831
   134  H    0.029111
   135  H    0.044360
   136  H    0.029690
   137  H    0.031315
   138  H    0.021313
   139  H    0.034188
   140  H    0.041520
 Sum of Mulliken charges =  -0.00000
 Mulliken charges with hydrogens summed into heavy atoms:
               1
     1  Mg   0.994012
     2  C    0.029322
     3  C   -0.095252
     4  C   -0.042844
     5  C   -0.073018
     6  N   -0.362041
     7  C   -0.062184
     8  C   -0.012637
     9  C   -0.090825
    10  C    0.103539
    11  C    0.131520
    12  C    0.075290
    13  C    0.123685
    14  C    0.240641
    15  O   -0.265731
    16  O   -0.361823
    17  N   -0.554730
    18  C    0.221321
    19  C   -0.202681
    20  C   -0.108960
    21  C    0.190602
    22  C    0.222244
    23  C    0.053553
    24  O   -0.269197
    25  C    0.185119
    26  N   -0.418590
    27  C    0.087615
    28  C   -0.069070
    29  C   -0.049711
    30  C    0.079337
    31  C    0.182421
    32  C    0.084775
    33  C    0.061678
    34  N   -0.495461
    35  C    0.127425
    36  C   -0.209470
    37  C   -0.035886
    38  C    0.155714
    39  C    0.226008
    40  C    0.155322
    41  O   -0.212839
    42  C    0.003233
    43  C    0.256542
    44  O   -0.249864
    45  O   -0.353433
    46  C    0.305747
    47  C    0.372042
    48  C   -0.107277
    49  C   -0.234265
    50  C    0.175821
    51  C    0.072316
    52  C   -0.015257
    53  C    0.089137
    54  C   -0.194188
    55  C    0.088006
    56  C    0.048566
    57  C    0.045922
    58  C    0.025364
    59  C   -0.189576
    60  C    0.072403
    61  C    0.033043
    62  C    0.034645
    63  C    0.045224
    64  C   -0.237689
    65  C    0.101221
    66  C    0.074124
 Electronic spatial extent (au):  <R**2>=         113489.8451
 Charge=             -0.0000 electrons
 Dipole moment (field-independent basis, Debye):
    X=              5.1735    Y=              2.8863    Z=             -0.7026  Tot=              5.9657
 Quadrupole moment (field-independent basis, Debye-Ang):
   XX=           -363.2576   YY=           -433.8659   ZZ=           -404.5677
   XY=            -26.4523   XZ=             -1.0408   YZ=             13.6591
 Traceless Quadrupole moment (field-independent basis, Debye-Ang):
   XX=             37.3061   YY=            -33.3022   ZZ=             -4.0040
   XY=            -26.4523   XZ=             -1.0408   YZ=             13.6591
 Octapole moment (field-independent basis, Debye-Ang**2):
  XXX=           -278.5506  YYY=            -73.4379  ZZZ=             -6.5004  XYY=            342.5131
  XXY=            134.9015  XXZ=              7.4744  XZZ=              3.4910  YZZ=             -2.7775
  YYZ=             21.7671  XYZ=            -59.4165
 Hexadecapole moment (field-independent basis, Debye-Ang**3):
 XXXX=        -112876.8666 YYYY=         -26640.4587 ZZZZ=         -10298.3480 XXXY=          -1493.9331
 XXXZ=            365.3402 YYYX=           -277.0091 YYYZ=            441.4153 ZZZX=              4.5657
 ZZZY=             33.3067 XXYY=         -25920.4865 XXZZ=         -21787.5380 YYZZ=          -6083.5752
 XXYZ=            595.4996 YYXZ=           -113.9371 ZZXY=             81.4177
 N-N= 9.563961101381D+03 E-N=-2.611994698006D+04  KE= 2.975641686566D+03
 Leave Link  601 at Tue May  3 20:46:26 2022, MaxMem= 10066329600 cpu:              16.4 elap:               0.8
 (Enter /sw/apps/gaussian-16.0/g16/l9999.exe)
 1\1\GINC-BP1-COMPUTE174\SP\RPBE1PBE TD-FC\def2SVP\C55H74Mg1N4O6\OF1564
 1\03-May-2022\0\\#p PBE1PBE/Def2SVP td=(nstates=5)\\step_101_chromopho
 re_15 TDDFT with PBE1PBE functional\\0,1\Mg,0,47.224,35.103,28.298\C,0
 ,45.383,33.507,30.729\C,0,47.534,37.729,30.5\C,0,48.808,36.91,25.758\C
 ,0,46.59,32.601,26.093\N,0,46.665,35.437,30.403\C,0,45.995,34.583,31.2
 05\C,0,45.979,35.025,32.655\C,0,46.417,36.581,32.477\C,0,46.882,36.601
 ,31.04\C,0,45.426,37.681,32.774\C,0,47.044,34.226,33.453\C,0,47.203,34
 .505,34.957\C,0,46.15,35.366,35.789\O,0,44.947,35.454,35.538\O,0,46.87
 1,35.968,36.805\N,0,48.048,36.945,28.172\C,0,48.081,37.897,29.216\C,0,
 48.633,39.09,28.723\C,0,48.974,38.889,27.354\C,0,48.63,37.476,27.016\C
 ,0,49.06,40.293,29.555\C,0,49.58,39.958,26.413\O,0,50.15,39.624,25.353
 \C,0,49.418,41.374,26.732\N,0,47.703,34.841,26.29\C,0,48.363,35.641,25
 .427\C,0,48.298,35.108,23.961\C,0,47.821,33.614,24.151\C,0,47.315,33.6
 82,25.56\C,0,47.402,36.077,23.147\C,0,48.92,32.525,24.01\C,0,48.51,31.
 384,23.021\N,0,46.149,33.363,28.39\C,0,46.031,32.423,27.354\C,0,45.258
 ,31.322,28.006\C,0,44.862,31.753,29.248\C,0,45.535,32.966,29.478\C,0,4
 4.978,29.963,27.334\C,0,44.149,31.362,30.43\O,0,43.535,30.344,30.72\C,
 0,44.36,32.531,31.383\C,0,44.591,32.02,32.75\O,0,45.413,31.211,33.111\
 O,0,43.7,32.609,33.583\C,0,43.773,32.105,34.95\C,0,45.992,36.782,37.65
 4\C,0,46.889,37.78,38.358\C,0,46.626,38.599,39.418\C,0,45.261,38.938,3
 9.982\C,0,47.826,39.196,40.206\C,0,48.181,40.609,39.774\C,0,48.714,41.
 505,40.893\C,0,49.501,42.662,40.218\C,0,51.026,42.341,40.309\C,0,49.12
 5,44.038,40.947\C,0,48.107,44.935,40.167\C,0,46.902,45.224,40.945\C,0,
 46.348,46.636,40.587\C,0,47.115,47.764,41.419\C,0,44.826,46.68,40.822\
 C,0,43.981,46.652,39.585\C,0,42.663,45.93,39.766\C,0,41.454,46.524,39.
 029\C,0,40.137,46.045,39.667\C,0,41.503,46.226,37.464\H,0,47.631,38.57
 5,31.182\H,0,49.148,37.582,24.967\H,0,46.453,31.689,25.507\H,0,44.981,
 34.853,33.057\H,0,47.117,36.833,33.274\H,0,44.432,37.234,32.784\H,0,45
 .484,38.51,32.069\H,0,45.559,38.101,33.771\H,0,47.931,34.485,32.875\H,
 0,47.051,33.14,33.358\H,0,48.223,34.889,34.969\H,0,47.168,33.527,35.43
 7\H,0,50.141,40.381,29.445\H,0,48.77,40.205,30.602\H,0,48.433,41.122,2
 9.227\H,0,49.527,41.946,25.81\H,0,50.082,41.71,27.529\H,0,48.381,41.45
 7,27.056\H,0,49.292,34.979,23.532\H,0,46.884,33.435,23.623\H,0,48.151,
 36.33,22.396\H,0,46.985,36.908,23.716\H,0,46.575,35.577,22.642\H,0,49.
 238,32.098,24.962\H,0,49.802,32.964,23.543\H,0,49.275,31.352,22.245\H,
 0,47.542,31.596,22.567\H,0,48.486,30.444,23.573\H,0,43.945,29.692,27.5
 51\H,0,45.667,29.232,27.759\H,0,45.074,29.996,26.249\H,0,43.442,33.118
 ,31.349\H,0,43.748,31.015,34.966\H,0,42.973,32.551,35.54\H,0,44.77,32.
 394,35.284\H,0,45.556,36.023,38.303\H,0,45.238,37.402,37.169\H,0,47.95
 6,37.637,38.189\H,0,45.359,38.433,40.943\H,0,44.375,38.546,39.483\H,0,
 45.187,40.006,40.184\H,0,48.731,38.62,40.015\H,0,47.608,39.209,41.274\
 H,0,47.199,41.036,39.569\H,0,48.824,40.574,38.895\H,0,49.391,40.909,41
 .504\H,0,47.823,41.889,41.391\H,0,49.311,42.8,39.153\H,0,51.501,42.718
 ,39.403\H,0,51.126,41.266,40.158\H,0,51.556,42.723,41.181\H,0,50.051,4
 4.61,41.009\H,0,48.772,43.867,41.964\H,0,47.73,44.513,39.235\H,0,48.66
 7,45.843,39.939\H,0,46.971,45.219,42.033\H,0,46.116,44.501,40.726\H,0,
 46.536,46.807,39.528\H,0,46.578,48.189,42.267\H,0,47.197,48.581,40.703
 \H,0,48.072,47.538,41.89\H,0,44.559,47.596,41.349\H,0,44.464,45.89,41.
 479\H,0,44.545,46.209,38.765\H,0,43.805,47.721,39.464\H,0,42.408,45.92
 ,40.826\H,0,42.807,44.95,39.312\H,0,41.395,47.61,39.104\H,0,39.731,46.
 947,40.126\H,0,40.351,45.269,40.402\H,0,39.471,45.577,38.943\H,0,40.46
 2,46.071,37.183\H,0,42.045,45.31,37.228\H,0,41.816,47.063,36.84\\Versi
 on=ES64L-G16RevA.03\State=1-A\HF=-3005.355661\RMSD=5.597e-09\PG=C01 [X
 (C55H74Mg1N4O6)]\\@


 IF I HAVE SEEN FARTHER, IT IS BY STANDING ON THE
 SHOULDERS OF GIANTS. -- SIR ISAAC NEWTON
 Job cpu time:       0 days  7 hours  6 minutes 47.8 seconds.
 Elapsed time:       0 days  0 hours 18 minutes  1.1 seconds.
 File lengths (MBytes):  RWF=   8929 Int=      0 D2E=      0 Chk=    390 Scr=      1
 Normal termination of Gaussian 16 at Tue May  3 20:46:27 2022.
