 Entering Gaussian System, Link 0=g16
 Initial command:
 /sw/apps/gaussian-16.0/g16/l1.exe "/tmp/Gau-250794.inp" -scrdir="/tmp/"
 Entering Link 1 = /sw/apps/gaussian-16.0/g16/l1.exe PID=    250795.
  
 Copyright (c) 1988,1990,1992,1993,1995,1998,2003,2009,2016,
            Gaussian, Inc.  All Rights Reserved.
  
 This is part of the Gaussian(R) 16 program.  It is based on
 the Gaussian(R) 09 system (copyright 2009, Gaussian, Inc.),
 the Gaussian(R) 03 system (copyright 2003, Gaussian, Inc.),
 the Gaussian(R) 98 system (copyright 1998, Gaussian, Inc.),
 the Gaussian(R) 94 system (copyright 1995, Gaussian, Inc.),
 the Gaussian 92(TM) system (copyright 1992, Gaussian, Inc.),
 the Gaussian 90(TM) system (copyright 1990, Gaussian, Inc.),
 the Gaussian 88(TM) system (copyright 1988, Gaussian, Inc.),
 the Gaussian 86(TM) system (copyright 1986, Carnegie Mellon
 University), and the Gaussian 82(TM) system (copyright 1983,
 Carnegie Mellon University). Gaussian is a federally registered
 trademark of Gaussian, Inc.
  
 This software contains proprietary and confidential information,
 including trade secrets, belonging to Gaussian, Inc.
  
 This software is provided under written license and may be
 used, copied, transmitted, or stored only in accord with that
 written license.
  
 The following legend is applicable only to US Government
 contracts under FAR:
  
                    RESTRICTED RIGHTS LEGEND
  
 Use, reproduction and disclosure by the US Government is
 subject to restrictions as set forth in subparagraphs (a)
 and (c) of the Commercial Computer Software - Restricted
 Rights clause in FAR 52.227-19.
  
 Gaussian, Inc.
 340 Quinnipiac St., Bldg. 40, Wallingford CT 06492
  
  
 ---------------------------------------------------------------
 Warning -- This program may not be used in any manner that
 competes with the business of Gaussian, Inc. or will provide
 assistance to any competitor of Gaussian, Inc.  The licensee
 of this program is prohibited from giving any competitor of
 Gaussian, Inc. access to this program.  By using this program,
 the user acknowledges that Gaussian, Inc. is engaged in the
 business of creating and licensing software in the field of
 computational chemistry and represents and warrants to the
 licensee that it is not a competitor of Gaussian, Inc. and that
 it will not use this program in any manner prohibited above.
 ---------------------------------------------------------------
  

 Cite this work as:
 Gaussian 16, Revision A.03,
 M. J. Frisch, G. W. Trucks, H. B. Schlegel, G. E. Scuseria, 
 M. A. Robb, J. R. Cheeseman, G. Scalmani, V. Barone, 
 G. A. Petersson, H. Nakatsuji, X. Li, M. Caricato, A. V. Marenich, 
 J. Bloino, B. G. Janesko, R. Gomperts, B. Mennucci, H. P. Hratchian, 
 J. V. Ortiz, A. F. Izmaylov, J. L. Sonnenberg, D. Williams-Young, 
 F. Ding, F. Lipparini, F. Egidi, J. Goings, B. Peng, A. Petrone, 
 T. Henderson, D. Ranasinghe, V. G. Zakrzewski, J. Gao, N. Rega, 
 G. Zheng, W. Liang, M. Hada, M. Ehara, K. Toyota, R. Fukuda, 
 J. Hasegawa, M. Ishida, T. Nakajima, Y. Honda, O. Kitao, H. Nakai, 
 T. Vreven, K. Throssell, J. A. Montgomery, Jr., J. E. Peralta, 
 F. Ogliaro, M. J. Bearpark, J. J. Heyd, E. N. Brothers, K. N. Kudin, 
 V. N. Staroverov, T. A. Keith, R. Kobayashi, J. Normand, 
 K. Raghavachari, A. P. Rendell, J. C. Burant, S. S. Iyengar, 
 J. Tomasi, M. Cossi, J. M. Millam, M. Klene, C. Adamo, R. Cammi, 
 J. W. Ochterski, R. L. Martin, K. Morokuma, O. Farkas, 
 J. B. Foresman, and D. J. Fox, Gaussian, Inc., Wallingford CT, 2016.
 
 ******************************************
 Gaussian 16:  ES64L-G16RevA.03 25-Dec-2016
                28-Apr-2022 
 ******************************************
 %nproc=24
 Will use up to   24 processors via shared memory.
 %mem=75GB
 --------------------------------
 #p wB97XD/Def2SVP td=(nstates=5)
 --------------------------------
 1/38=1,172=1/1;
 2/12=2,17=6,18=5,40=1/2;
 3/5=43,7=101,11=9,25=1,30=1,74=-58/1,2,3,8;
 4//1;
 5/5=2,38=5/2;
 8/6=1,10=1,108=5/1;
 9/41=5,42=1,70=2/14;
 6/7=2,8=2,9=2,10=2/1;
 99/5=1,9=1/99;
 Leave Link    1 at Thu Apr 28 15:42:27 2022, MaxMem= 10066329600 cpu:               0.6 elap:               0.0
 (Enter /sw/apps/gaussian-16.0/g16/l101.exe)
 ----------------------------------------------------
 step_1601_chromophore_8 TDDFT with wB97XD functional
 ----------------------------------------------------
 Symbolic Z-matrix:
 Charge =  0 Multiplicity = 1
 Mg                    44.058    3.503     47.952 
 C                     42.077    6.268     47.279 
 C                     41.235    1.482     47.637 
 C                     46.066    0.648     47.878 
 C                     46.881    5.422     47.589 
 N                     42.004    3.858     47.558 
 C                     41.37     5.088     47.38 
 C                     39.863    4.936     47.312 
 C                     39.578    3.446     47.545 
 C                     41.053    2.874     47.546 
 C                     38.891    3.106     48.871 
 C                     39.186    5.529     46.048 
 C                     39.624    4.93      44.688 
 C                     39.579    5.876     43.511 
 O                     39.751    7.112     43.559 
 O                     39.157    5.238     42.389 
 N                     43.74     1.35      47.797 
 C                     42.486    0.776     47.791 
 C                     42.656   -0.633     47.61 
 C                     44.048   -0.883     47.45 
 C                     44.701    0.403     47.673 
 C                     41.529   -1.59      47.591 
 C                     44.763   -2.197     47.177 
 O                     44.163   -3.283     47.178 
 C                     46.185   -2.209     46.821 
 N                     46.187    3.168     47.515 
 C                     46.723    1.892     47.845 
 C                     48.195    1.965     48.236 
 C                     48.517    3.53      48.054 
 C                     47.086    4.107     47.736 
 C                     48.424    1.471     49.752 
 C                     49.544    3.85      46.972 
 C                     50.969    4.077     47.454 
 N                     44.492    5.467     47.501 
 C                     45.696    6.159     47.462 
 C                     45.37     7.587     47.506 
 C                     44.003    7.671     47.343 
 C                     43.489    6.373     47.387 
 C                     46.447    8.634     47.641 
 C                     42.959    8.564     47.154 
 O                     42.973    9.752     47.056 
 C                     41.631    7.691     47.174 
 C                     40.953    8.149     48.325 
 O                     41.38     8.054     49.474 
 O                     39.708    8.592     47.958 
 C                     38.808    9.08      49.021 
 C                     39.042    5.969     41.107 
 C                     40.288    5.694     40.303 
 C                     40.527    5.901     38.973 
 C                     39.559    6.602     37.999 
 C                     41.827    5.346     38.392 
 C                     41.59     3.916     37.844 
 C                     42.241    2.816     38.672 
 C                     42.719    1.541     37.889 
 C                     43.011    0.314     38.879 
 C                     43.902    1.866     36.95 
 C                     43.627    1.714     35.42 
 C                     43.731    3.098     34.748 
 C                     44.827    3.207     33.672 
 C                     46.104    3.641     34.325 
 C                     44.518    4.232     32.509 
 C                     43.895    3.609     31.28 
 C                     43.931    4.613     30.003 
 C                     45.048    4.111     29.064 
 C                     44.532    3.255     27.944 
 C                     45.672    5.447     28.456 
 H                     40.289    0.936     47.647 
 H                     46.791   -0.129     48.128 
 H                     47.726    6.093     47.753 
 H                     39.584    5.588     48.139 
 H                     39.068    3.007     46.688 
 H                     37.966    2.584     48.624 
 H                     38.67     3.998     49.458 
 H                     39.441    2.461     49.556 
 H                     39.33     6.609     46.075 
 H                     38.14     5.283     46.229 
 H                     39.03     4.046     44.456 
 H                     40.675    4.644     44.735 
 H                     41.326   -1.878     46.56 
 H                     40.637   -1.069     47.94 
 H                     41.878   -2.397     48.235 
 H                     46.881   -2.545     47.589 
 H                     46.369   -1.242     46.352 
 H                     46.323   -2.84      45.942 
 H                     48.803    1.329     47.591 
 H                     48.8      4.081     48.951 
 H                     48.6      0.396     49.698 
 H                     47.592    1.78      50.384 
 H                     49.339    1.981     50.052 
 H                     49.084    4.666     46.414 
 H                     49.69     2.93      46.406 
 H                     51.651    3.267     47.194 
 H                     50.952    4.262     48.528 
 H                     51.302    5.011     47.002 
 H                     47.14     8.472     48.467 
 H                     46.128    9.676     47.681 
 H                     46.988    8.637     46.694 
 H                     41.097    7.996     46.274 
 H                     38.02     8.327     49.036 
 H                     38.427    10.02     48.621 
 H                     39.286    9.24      49.988 
 H                     38.922    7.026     41.348 
 H                     38.087    5.736     40.637 
 H                     40.897    5.035     40.922 
 H                     38.712    5.992     37.687 
 H                     40.203    6.981     37.205 
 H                     39.106    7.431     38.543 
 H                     42.499    5.341     39.25 
 H                     42.151    6.044     37.62 
 H                     41.863    3.887     36.789 
 H                     40.51     3.767     37.857 
 H                     41.444    2.462     39.327 
 H                     43.107    3.123     39.257 
 H                     41.902    1.15      37.283 
 H                     44.014   -0.105     38.802 
 H                     42.234   -0.445     38.782 
 H                     42.885    0.726     39.881 
 H                     44.695    1.133     37.097 
 H                     44.366    2.79      37.297 
 H                     42.722    1.201     35.096 
 H                     44.458    1.106     35.061 
 H                     43.743    3.961     35.414 
 H                     42.765    3.218     34.257 
 H                     44.938    2.24      33.182 
 H                     46.968    3.51      33.674 
 H                     46.249    2.984     35.183 
 H                     46.174    4.683     34.638 
 H                     45.331    4.881     32.185 
 H                     43.769    4.949     32.845 
 H                     42.923    3.194     31.546 
 H                     44.382    2.667     31.029 
 H                     43.971    5.675     30.245 
 H                     42.982    4.496     29.481 
 H                     45.808    3.527     29.583 
 H                     45.047    2.295     27.976 
 H                     44.767    3.736     26.994 
 H                     43.462    3.049     27.913 
 H                     45.703    6.253     29.189 
 H                     45.259    5.883     27.546 
 H                     46.662    5.046     28.239 
 
 ITRead=  0  0  0  0  0  0  0  0  0  0  0  0  0  0  0  0  0  0  0  0
 ITRead=  0  0  0  0  0  0  0  0  0  0  0  0  0  0  0  0  0  0  0  0
 ITRead=  0  0  0  0  0  0  0  0  0  0  0  0  0  0  0  0  0  0  0  0
 ITRead=  0  0  0  0  0  0  0  0  0  0  0  0  0  0  0  0  0  0  0  0
 ITRead=  0  0  0  0  0  0  0  0  0  0  0  0  0  0  0  0  0  0  0  0
 ITRead=  0  0  0  0  0  0  0  0  0  0  0  0  0  0  0  0  0  0  0  0
 ITRead=  0  0  0  0  0  0  0  0  0  0  0  0  0  0  0  0  0  0  0  0
 MicOpt= -1 -1 -1 -1 -1 -1 -1 -1 -1 -1 -1 -1 -1 -1 -1 -1 -1 -1 -1 -1
 MicOpt= -1 -1 -1 -1 -1 -1 -1 -1 -1 -1 -1 -1 -1 -1 -1 -1 -1 -1 -1 -1
 MicOpt= -1 -1 -1 -1 -1 -1 -1 -1 -1 -1 -1 -1 -1 -1 -1 -1 -1 -1 -1 -1
 MicOpt= -1 -1 -1 -1 -1 -1 -1 -1 -1 -1 -1 -1 -1 -1 -1 -1 -1 -1 -1 -1
 MicOpt= -1 -1 -1 -1 -1 -1 -1 -1 -1 -1 -1 -1 -1 -1 -1 -1 -1 -1 -1 -1
 MicOpt= -1 -1 -1 -1 -1 -1 -1 -1 -1 -1 -1 -1 -1 -1 -1 -1 -1 -1 -1 -1
 MicOpt= -1 -1 -1 -1 -1 -1 -1 -1 -1 -1 -1 -1 -1 -1 -1 -1 -1 -1 -1 -1
 NAtoms=    140 NQM=      140 NQMF=       0 NMMI=      0 NMMIF=      0
                NMic=       0 NMicF=      0.
                    Isotopes and Nuclear Properties:
 (Nuclear quadrupole moments (NQMom) in fm**2, nuclear magnetic moments (NMagM)
  in nuclear magnetons)

  Atom         1           2           3           4           5           6           7           8           9          10
 IAtWgt=          24          12          12          12          12          14          12          12          12          12
 AtmWgt=  23.9850450  12.0000000  12.0000000  12.0000000  12.0000000  14.0030740  12.0000000  12.0000000  12.0000000  12.0000000
 NucSpn=           0           0           0           0           0           2           0           0           0           0
 AtZEff=  -0.0000000  -0.0000000  -0.0000000  -0.0000000  -0.0000000  -0.0000000  -0.0000000  -0.0000000  -0.0000000  -0.0000000
 NQMom=    0.0000000   0.0000000   0.0000000   0.0000000   0.0000000   2.0440000   0.0000000   0.0000000   0.0000000   0.0000000
 NMagM=    0.0000000   0.0000000   0.0000000   0.0000000   0.0000000   0.4037610   0.0000000   0.0000000   0.0000000   0.0000000
 AtZNuc=  12.0000000   6.0000000   6.0000000   6.0000000   6.0000000   7.0000000   6.0000000   6.0000000   6.0000000   6.0000000

  Atom        11          12          13          14          15          16          17          18          19          20
 IAtWgt=          12          12          12          12          16          16          14          12          12          12
 AtmWgt=  12.0000000  12.0000000  12.0000000  12.0000000  15.9949146  15.9949146  14.0030740  12.0000000  12.0000000  12.0000000
 NucSpn=           0           0           0           0           0           0           2           0           0           0
 AtZEff=  -0.0000000  -0.0000000  -0.0000000  -0.0000000  -0.0000000  -0.0000000  -0.0000000  -0.0000000  -0.0000000  -0.0000000
 NQMom=    0.0000000   0.0000000   0.0000000   0.0000000   0.0000000   0.0000000   2.0440000   0.0000000   0.0000000   0.0000000
 NMagM=    0.0000000   0.0000000   0.0000000   0.0000000   0.0000000   0.0000000   0.4037610   0.0000000   0.0000000   0.0000000
 AtZNuc=   6.0000000   6.0000000   6.0000000   6.0000000   8.0000000   8.0000000   7.0000000   6.0000000   6.0000000   6.0000000

  Atom        21          22          23          24          25          26          27          28          29          30
 IAtWgt=          12          12          12          16          12          14          12          12          12          12
 AtmWgt=  12.0000000  12.0000000  12.0000000  15.9949146  12.0000000  14.0030740  12.0000000  12.0000000  12.0000000  12.0000000
 NucSpn=           0           0           0           0           0           2           0           0           0           0
 AtZEff=  -0.0000000  -0.0000000  -0.0000000  -0.0000000  -0.0000000  -0.0000000  -0.0000000  -0.0000000  -0.0000000  -0.0000000
 NQMom=    0.0000000   0.0000000   0.0000000   0.0000000   0.0000000   2.0440000   0.0000000   0.0000000   0.0000000   0.0000000
 NMagM=    0.0000000   0.0000000   0.0000000   0.0000000   0.0000000   0.4037610   0.0000000   0.0000000   0.0000000   0.0000000
 AtZNuc=   6.0000000   6.0000000   6.0000000   8.0000000   6.0000000   7.0000000   6.0000000   6.0000000   6.0000000   6.0000000

  Atom        31          32          33          34          35          36          37          38          39          40
 IAtWgt=          12          12          12          14          12          12          12          12          12          12
 AtmWgt=  12.0000000  12.0000000  12.0000000  14.0030740  12.0000000  12.0000000  12.0000000  12.0000000  12.0000000  12.0000000
 NucSpn=           0           0           0           2           0           0           0           0           0           0
 AtZEff=  -0.0000000  -0.0000000  -0.0000000  -0.0000000  -0.0000000  -0.0000000  -0.0000000  -0.0000000  -0.0000000  -0.0000000
 NQMom=    0.0000000   0.0000000   0.0000000   2.0440000   0.0000000   0.0000000   0.0000000   0.0000000   0.0000000   0.0000000
 NMagM=    0.0000000   0.0000000   0.0000000   0.4037610   0.0000000   0.0000000   0.0000000   0.0000000   0.0000000   0.0000000
 AtZNuc=   6.0000000   6.0000000   6.0000000   7.0000000   6.0000000   6.0000000   6.0000000   6.0000000   6.0000000   6.0000000

  Atom        41          42          43          44          45          46          47          48          49          50
 IAtWgt=          16          12          12          16          16          12          12          12          12          12
 AtmWgt=  15.9949146  12.0000000  12.0000000  15.9949146  15.9949146  12.0000000  12.0000000  12.0000000  12.0000000  12.0000000
 NucSpn=           0           0           0           0           0           0           0           0           0           0
 AtZEff=  -0.0000000  -0.0000000  -0.0000000  -0.0000000  -0.0000000  -0.0000000  -0.0000000  -0.0000000  -0.0000000  -0.0000000
 NQMom=    0.0000000   0.0000000   0.0000000   0.0000000   0.0000000   0.0000000   0.0000000   0.0000000   0.0000000   0.0000000
 NMagM=    0.0000000   0.0000000   0.0000000   0.0000000   0.0000000   0.0000000   0.0000000   0.0000000   0.0000000   0.0000000
 AtZNuc=   8.0000000   6.0000000   6.0000000   8.0000000   8.0000000   6.0000000   6.0000000   6.0000000   6.0000000   6.0000000

  Atom        51          52          53          54          55          56          57          58          59          60
 IAtWgt=          12          12          12          12          12          12          12          12          12          12
 AtmWgt=  12.0000000  12.0000000  12.0000000  12.0000000  12.0000000  12.0000000  12.0000000  12.0000000  12.0000000  12.0000000
 NucSpn=           0           0           0           0           0           0           0           0           0           0
 AtZEff=  -0.0000000  -0.0000000  -0.0000000  -0.0000000  -0.0000000  -0.0000000  -0.0000000  -0.0000000  -0.0000000  -0.0000000
 NQMom=    0.0000000   0.0000000   0.0000000   0.0000000   0.0000000   0.0000000   0.0000000   0.0000000   0.0000000   0.0000000
 NMagM=    0.0000000   0.0000000   0.0000000   0.0000000   0.0000000   0.0000000   0.0000000   0.0000000   0.0000000   0.0000000
 AtZNuc=   6.0000000   6.0000000   6.0000000   6.0000000   6.0000000   6.0000000   6.0000000   6.0000000   6.0000000   6.0000000

  Atom        61          62          63          64          65          66          67          68          69          70
 IAtWgt=          12          12          12          12          12          12           1           1           1           1
 AtmWgt=  12.0000000  12.0000000  12.0000000  12.0000000  12.0000000  12.0000000   1.0078250   1.0078250   1.0078250   1.0078250
 NucSpn=           0           0           0           0           0           0           1           1           1           1
 AtZEff=  -0.0000000  -0.0000000  -0.0000000  -0.0000000  -0.0000000  -0.0000000  -0.0000000  -0.0000000  -0.0000000  -0.0000000
 NQMom=    0.0000000   0.0000000   0.0000000   0.0000000   0.0000000   0.0000000   0.0000000   0.0000000   0.0000000   0.0000000
 NMagM=    0.0000000   0.0000000   0.0000000   0.0000000   0.0000000   0.0000000   2.7928460   2.7928460   2.7928460   2.7928460
 AtZNuc=   6.0000000   6.0000000   6.0000000   6.0000000   6.0000000   6.0000000   1.0000000   1.0000000   1.0000000   1.0000000

  Atom        71          72          73          74          75          76          77          78          79          80
 IAtWgt=           1           1           1           1           1           1           1           1           1           1
 AtmWgt=   1.0078250   1.0078250   1.0078250   1.0078250   1.0078250   1.0078250   1.0078250   1.0078250   1.0078250   1.0078250
 NucSpn=           1           1           1           1           1           1           1           1           1           1
 AtZEff=  -0.0000000  -0.0000000  -0.0000000  -0.0000000  -0.0000000  -0.0000000  -0.0000000  -0.0000000  -0.0000000  -0.0000000
 NQMom=    0.0000000   0.0000000   0.0000000   0.0000000   0.0000000   0.0000000   0.0000000   0.0000000   0.0000000   0.0000000
 NMagM=    2.7928460   2.7928460   2.7928460   2.7928460   2.7928460   2.7928460   2.7928460   2.7928460   2.7928460   2.7928460
 AtZNuc=   1.0000000   1.0000000   1.0000000   1.0000000   1.0000000   1.0000000   1.0000000   1.0000000   1.0000000   1.0000000

  Atom        81          82          83          84          85          86          87          88          89          90
 IAtWgt=           1           1           1           1           1           1           1           1           1           1
 AtmWgt=   1.0078250   1.0078250   1.0078250   1.0078250   1.0078250   1.0078250   1.0078250   1.0078250   1.0078250   1.0078250
 NucSpn=           1           1           1           1           1           1           1           1           1           1
 AtZEff=  -0.0000000  -0.0000000  -0.0000000  -0.0000000  -0.0000000  -0.0000000  -0.0000000  -0.0000000  -0.0000000  -0.0000000
 NQMom=    0.0000000   0.0000000   0.0000000   0.0000000   0.0000000   0.0000000   0.0000000   0.0000000   0.0000000   0.0000000
 NMagM=    2.7928460   2.7928460   2.7928460   2.7928460   2.7928460   2.7928460   2.7928460   2.7928460   2.7928460   2.7928460
 AtZNuc=   1.0000000   1.0000000   1.0000000   1.0000000   1.0000000   1.0000000   1.0000000   1.0000000   1.0000000   1.0000000

  Atom        91          92          93          94          95          96          97          98          99         100
 IAtWgt=           1           1           1           1           1           1           1           1           1           1
 AtmWgt=   1.0078250   1.0078250   1.0078250   1.0078250   1.0078250   1.0078250   1.0078250   1.0078250   1.0078250   1.0078250
 NucSpn=           1           1           1           1           1           1           1           1           1           1
 AtZEff=  -0.0000000  -0.0000000  -0.0000000  -0.0000000  -0.0000000  -0.0000000  -0.0000000  -0.0000000  -0.0000000  -0.0000000
 NQMom=    0.0000000   0.0000000   0.0000000   0.0000000   0.0000000   0.0000000   0.0000000   0.0000000   0.0000000   0.0000000
 NMagM=    2.7928460   2.7928460   2.7928460   2.7928460   2.7928460   2.7928460   2.7928460   2.7928460   2.7928460   2.7928460
 AtZNuc=   1.0000000   1.0000000   1.0000000   1.0000000   1.0000000   1.0000000   1.0000000   1.0000000   1.0000000   1.0000000

  Atom       101         102         103         104         105         106         107         108         109         110
 IAtWgt=           1           1           1           1           1           1           1           1           1           1
 AtmWgt=   1.0078250   1.0078250   1.0078250   1.0078250   1.0078250   1.0078250   1.0078250   1.0078250   1.0078250   1.0078250
 NucSpn=           1           1           1           1           1           1           1           1           1           1
 AtZEff=  -0.0000000  -0.0000000  -0.0000000  -0.0000000  -0.0000000  -0.0000000  -0.0000000  -0.0000000  -0.0000000  -0.0000000
 NQMom=    0.0000000   0.0000000   0.0000000   0.0000000   0.0000000   0.0000000   0.0000000   0.0000000   0.0000000   0.0000000
 NMagM=    2.7928460   2.7928460   2.7928460   2.7928460   2.7928460   2.7928460   2.7928460   2.7928460   2.7928460   2.7928460
 AtZNuc=   1.0000000   1.0000000   1.0000000   1.0000000   1.0000000   1.0000000   1.0000000   1.0000000   1.0000000   1.0000000

  Atom       111         112         113         114         115         116         117         118         119         120
 IAtWgt=           1           1           1           1           1           1           1           1           1           1
 AtmWgt=   1.0078250   1.0078250   1.0078250   1.0078250   1.0078250   1.0078250   1.0078250   1.0078250   1.0078250   1.0078250
 NucSpn=           1           1           1           1           1           1           1           1           1           1
 AtZEff=  -0.0000000  -0.0000000  -0.0000000  -0.0000000  -0.0000000  -0.0000000  -0.0000000  -0.0000000  -0.0000000  -0.0000000
 NQMom=    0.0000000   0.0000000   0.0000000   0.0000000   0.0000000   0.0000000   0.0000000   0.0000000   0.0000000   0.0000000
 NMagM=    2.7928460   2.7928460   2.7928460   2.7928460   2.7928460   2.7928460   2.7928460   2.7928460   2.7928460   2.7928460
 AtZNuc=   1.0000000   1.0000000   1.0000000   1.0000000   1.0000000   1.0000000   1.0000000   1.0000000   1.0000000   1.0000000

  Atom       121         122         123         124         125         126         127         128         129         130
 IAtWgt=           1           1           1           1           1           1           1           1           1           1
 AtmWgt=   1.0078250   1.0078250   1.0078250   1.0078250   1.0078250   1.0078250   1.0078250   1.0078250   1.0078250   1.0078250
 NucSpn=           1           1           1           1           1           1           1           1           1           1
 AtZEff=  -0.0000000  -0.0000000  -0.0000000  -0.0000000  -0.0000000  -0.0000000  -0.0000000  -0.0000000  -0.0000000  -0.0000000
 NQMom=    0.0000000   0.0000000   0.0000000   0.0000000   0.0000000   0.0000000   0.0000000   0.0000000   0.0000000   0.0000000
 NMagM=    2.7928460   2.7928460   2.7928460   2.7928460   2.7928460   2.7928460   2.7928460   2.7928460   2.7928460   2.7928460
 AtZNuc=   1.0000000   1.0000000   1.0000000   1.0000000   1.0000000   1.0000000   1.0000000   1.0000000   1.0000000   1.0000000

  Atom       131         132         133         134         135         136         137         138         139         140
 IAtWgt=           1           1           1           1           1           1           1           1           1           1
 AtmWgt=   1.0078250   1.0078250   1.0078250   1.0078250   1.0078250   1.0078250   1.0078250   1.0078250   1.0078250   1.0078250
 NucSpn=           1           1           1           1           1           1           1           1           1           1
 AtZEff=  -0.0000000  -0.0000000  -0.0000000  -0.0000000  -0.0000000  -0.0000000  -0.0000000  -0.0000000  -0.0000000  -0.0000000
 NQMom=    0.0000000   0.0000000   0.0000000   0.0000000   0.0000000   0.0000000   0.0000000   0.0000000   0.0000000   0.0000000
 NMagM=    2.7928460   2.7928460   2.7928460   2.7928460   2.7928460   2.7928460   2.7928460   2.7928460   2.7928460   2.7928460
 AtZNuc=   1.0000000   1.0000000   1.0000000   1.0000000   1.0000000   1.0000000   1.0000000   1.0000000   1.0000000   1.0000000
 Leave Link  101 at Thu Apr 28 15:42:27 2022, MaxMem= 10066329600 cpu:               3.2 elap:               0.2
 (Enter /sw/apps/gaussian-16.0/g16/l202.exe)
 Stoichiometry    C55H74MgN4O6
 Framework group  C1[X(C55H74MgN4O6)]
 Deg. of freedom   414
 Full point group                 C1      NOp   1
 Largest Abelian subgroup         C1      NOp   1
 Largest concise Abelian subgroup C1      NOp   1
                         Standard orientation:                         
 ---------------------------------------------------------------------
 Center     Atomic      Atomic             Coordinates (Angstroms)
 Number     Number       Type             X           Y           Z
 ---------------------------------------------------------------------
      1         12           0        4.560361    0.909025    0.155055
      2          6           0        3.929028   -2.457547    0.693687
      3          6           0        4.231302    0.358256   -3.271513
      4          6           0        4.443545    4.350033   -0.423204
      5          6           0        4.210220    1.524575    3.513947
      6          7           0        4.178617   -0.791788   -1.053946
      7          6           0        4.018197   -2.114210   -0.639212
      8          6           0        3.954093   -3.066228   -1.817486
      9          6           0        4.169822   -2.204280   -3.068934
     10          6           0        4.158141   -0.760648   -2.421942
     11          6           0        5.494153   -2.430237   -3.804418
     12          6           0        2.700086   -3.978298   -1.874656
     13          6           0        1.331151   -3.259990   -1.976118
     14          6           0        0.166066   -3.977843   -1.336169
     15          8           0        0.228619   -4.735374   -0.345302
     16          8           0       -0.962081   -3.833607   -2.078121
     17          7           0        4.380086    2.214831   -1.583603
     18          6           0        4.371815    1.741474   -2.878938
     19          6           0        4.172836    2.860920   -3.747380
     20          6           0        4.004449    4.015374   -2.932122
     21          6           0        4.240765    3.562403   -1.565042
     22          6           0        4.146366    2.749060   -5.221532
     23          6           0        3.712563    5.449311   -3.345616
     24          8           0        3.702488    5.799870   -4.535744
     25          6           0        3.351008    6.453356   -2.340561
     26          7           0        4.111133    2.638827    1.436388
     27          6           0        4.423349    3.926813    0.918716
     28          6           0        4.809587    4.914105    2.014649
     29          6           0        4.645636    4.025414    3.344830
     30          6           0        4.340236    2.605528    2.734528
     31          6           0        6.318504    5.443737    1.821279
     32          6           0        3.563738    4.507386    4.306627
     33          6           0        4.043044    5.353163    5.476843
     34          7           0        4.131915   -0.187765    1.846959
     35          6           0        4.096834    0.166013    3.189945
     36          6           0        4.159655   -1.078171    3.961602
     37          6           0        4.002929   -2.100696    3.049356
     38          6           0        4.032912   -1.538427    1.771118
     39          6           0        4.303414   -1.064135    5.462768
     40          6           0        3.828929   -3.471792    2.935662
     41          8           0        3.745508   -4.307923    3.781280
     42          6           0        3.843258   -3.784233    1.377365
     43          6           0        5.002393   -4.573367    1.210258
     44          8           0        6.148496   -4.192503    1.440360
     45          8           0        4.645637   -5.767771    0.638345
     46          6           0        5.717997   -6.735300    0.334953
     47          6           0       -2.234536   -4.448969   -1.638465
     48          6           0       -3.046619   -3.386734   -0.940799
     49          6           0       -4.374874   -3.381159   -0.617415
     50          6           0       -5.336463   -4.571272   -0.807359
     51          6           0       -4.967628   -2.079291   -0.079486
     52          6           0       -5.532279   -1.235208   -1.249984
     53          6           0       -4.720378    0.014152   -1.565104
     54          6           0       -5.520836    1.247920   -2.116720
     55          6           0       -4.547139    2.337094   -2.777407
     56          6           0       -6.460280    1.837632   -1.041304
     57          6           0       -7.990973    1.734910   -1.334660
     58          6           0       -8.646278    0.816089   -0.283851
     59          6           0       -9.725037    1.496687    0.578668
     60          6           0       -9.071631    2.093176    1.788112
     61          6           0      -10.874141    0.537236    1.086299
     62          6           0      -12.108326    0.528289    0.212567
     63          6           0      -13.372999   -0.175017    0.951490
     64          6           0      -14.322371    0.956425    1.398643
     65          6           0      -15.450842    1.189639    0.436584
     66          6           0      -14.916260    0.438002    2.785174
     67          1           0        4.238197    0.081676   -4.328201
     68          1           0        4.681187    5.415094   -0.455217
     69          1           0        4.379236    1.643253    4.585634
     70          1           0        4.790117   -3.716558   -1.562519
     71          1           0        3.309439   -2.260391   -3.735164
     72          1           0        5.244284   -2.712063   -4.827774
     73          1           0        6.092929   -3.213220   -3.338072
     74          1           0        6.169053   -1.577085   -3.870691
     75          1           0        2.739828   -4.644812   -1.013235
     76          1           0        2.882042   -4.536561   -2.792603
     77          1           0        1.090559   -3.051533   -3.018604
     78          1           0        1.370608   -2.317269   -1.429925
     79          1           0        3.112682    2.799378   -5.562239
     80          1           0        4.505161    1.755517   -5.491800
     81          1           0        4.779044    3.575658   -5.544396
     82          1           0        4.112147    7.190340   -2.086282
     83          1           0        2.893247    5.889645   -1.527179
     84          1           0        2.463786    6.989042   -2.680742
     85          1           0        4.154487    5.786408    2.003846
     86          1           0        5.548262    3.842765    3.928100
     87          1           0        6.250603    6.331327    1.191130
     88          1           0        6.957437    4.646373    1.442986
     89          1           0        6.621259    5.727674    2.828774
     90          1           0        3.017588    3.597345    4.556359
     91          1           0        2.985902    5.257801    3.767132
     92          1           0        3.770487    6.405630    5.394077
     93          1           0        5.119297    5.221939    5.588420
     94          1           0        3.601306    4.917853    6.372902
     95          1           0        5.124702   -0.452337    5.836879
     96          1           0        4.357458   -2.028939    5.968098
     97          1           0        3.354462   -0.696813    5.855275
     98          1           0        2.949129   -4.386806    1.217299
     99          1           0        5.726739   -6.753548   -0.754895
    100          1           0        5.331058   -7.676183    0.727099
    101          1           0        6.685059   -6.502012    0.781654
    102          1           0       -1.980086   -5.282254   -0.982248
    103          1           0       -2.703714   -4.959958   -2.478688
    104          1           0       -2.438111   -2.482908   -0.974559
    105          1           0       -5.652707   -4.736431   -1.836710
    106          1           0       -6.128194   -4.397190   -0.078201
    107          1           0       -4.780571   -5.473027   -0.550049
    108          1           0       -4.112330   -1.593540    0.389859
    109          1           0       -5.732210   -2.356757    0.646180
    110          1           0       -6.588593   -1.034754   -1.069941
    111          1           0       -5.516985   -1.888276   -2.122932
    112          1           0       -4.066743   -0.286850   -2.384683
    113          1           0       -4.134959    0.411270   -0.736846
    114          1           0       -6.128475    0.944743   -2.969049
    115          1           0       -4.633125    3.339238   -2.358108
    116          1           0       -4.650503    2.329564   -3.862985
    117          1           0       -3.539669    1.966994   -2.583363
    118          1           0       -6.325348    2.918024   -0.993413
    119          1           0       -6.103709    1.510661   -0.063844
    120          1           0       -8.317801    1.459862   -2.337008
    121          1           0       -8.360605    2.747330   -1.168873
    122          1           0       -7.969755    0.218420    0.327359
    123          1           0       -9.132066    0.046090   -0.883640
    124          1           0      -10.227324    2.256792   -0.019209
    125          1           0       -9.727493    2.786231    2.314399
    126          1           0       -8.222344    2.672149    1.424326
    127          1           0       -8.746098    1.404941    2.568492
    128          1           0      -11.193234    0.643482    2.122657
    129          1           0      -10.526479   -0.495321    1.055589
    130          1           0      -11.843741    0.143201   -0.772048
    131          1           0      -12.372763    1.537657   -0.101730
    132          1           0      -13.118099   -0.899376    1.725013
    133          1           0      -13.892767   -0.764878    0.197382
    134          1           0      -13.813509    1.911915    1.525592
    135          1           0      -15.432632    2.234728    0.127870
    136          1           0      -16.395741    1.001894    0.947471
    137          1           0      -15.480285    0.583633   -0.469057
    138          1           0      -14.173518   -0.105009    3.369433
    139          1           0      -15.819238   -0.172789    2.803310
    140          1           0      -15.141964    1.416606    3.208711
 ---------------------------------------------------------------------
 Rotational constants (GHZ):           0.0326112           0.0126538           0.0113679
 Leave Link  202 at Thu Apr 28 15:42:28 2022, MaxMem= 10066329600 cpu:               0.2 elap:               0.0
 (Enter /sw/apps/gaussian-16.0/g16/l301.exe)
 Standard basis: def2SVP (5D, 7F)
 Ernie: Thresh=  0.10000D-02 Tol=  0.10000D-05 Strict=F.
 There are  1364 symmetry adapted cartesian basis functions of A   symmetry.
 There are  1298 symmetry adapted basis functions of A   symmetry.
  1298 basis functions,  2180 primitive gaussians,  1364 cartesian basis functions
   246 alpha electrons      246 beta electrons
       nuclear repulsion energy      9771.8978023598 Hartrees.
 IExCor= 4639 DFT=T Ex+Corr=wB97XD ExCW=0 ScaHFX=  1.000000
 ScaDFX=  1.000000  1.000000  1.000000  1.000000 ScalE2=  1.000000  1.000000
 IRadAn=      5 IRanWt=     -1 IRanGd=            0 ICorTp=0 IEmpDi=121
 HFx  wShort=  0.000000 wLong=  0.200000 cFull=  0.222036 cShort=  0.000000 cLong=  0.777964
 DFx  wShort=  0.000000 wLong=  0.200000 cFull=  0.000000 cShort=  0.000000 cLong=  1.000000
 NAtoms=  140 NActive=  140 NUniq=  140 SFac= 1.00D+00 NAtFMM=   60 NAOKFM=T Big=T
 Integral buffers will be    131072 words long.
 Raffenetti 1 integral format.
 Two-electron integral symmetry is turned on.
 R6Disp:  Grimme-D2 Dispersion energy=       -0.1344875321 Hartrees.
 Nuclear repulsion after empirical dispersion term =     9771.7633148277 Hartrees.
 Leave Link  301 at Thu Apr 28 15:42:28 2022, MaxMem= 10066329600 cpu:               1.4 elap:               0.1
 (Enter /sw/apps/gaussian-16.0/g16/l302.exe)
 NPDir=0 NMtPBC=     1 NCelOv=     1 NCel=       1 NClECP=     1 NCelD=      1
         NCelK=      1 NCelE2=     1 NClLst=     1 CellRange=     0.0.
 One-electron integrals computed using PRISM.
 One-electron integral symmetry used in STVInt
   1 Symmetry operations used in ECPInt.
 ECPInt:  NShTT=  192510 NPrTT=  683786 LenC2=  100602 LenP2D=  216307.
 LDataN:  DoStor=T MaxTD1= 4 Len=   56
 NBasis=  1298 RedAO= T EigKep=  2.61D-04  NBF=  1298
 NBsUse=  1298 1.00D-06 EigRej= -1.00D+00 NBFU=  1298
 Precomputing XC quadrature grid using
 IXCGrd= 4 IRadAn=           5 IRanWt=          -1 IRanGd=           0 AccXCQ= 0.00D+00.
 Generated NRdTot=       0 NPtTot=           0 NUsed=           0 NTot=          32
 NSgBfM=  1127  1127  1127  1127  1127 MxSgAt=   140 MxSgA2=   140.
 Leave Link  302 at Thu Apr 28 15:42:31 2022, MaxMem= 10066329600 cpu:              83.6 elap:               3.5
 (Enter /sw/apps/gaussian-16.0/g16/l303.exe)
 DipDrv:  MaxL=1.
 Leave Link  303 at Thu Apr 28 15:42:31 2022, MaxMem= 10066329600 cpu:               5.8 elap:               0.3
 (Enter /sw/apps/gaussian-16.0/g16/l308.exe)
 Leave Link  308 at Thu Apr 28 15:42:32 2022, MaxMem= 10066329600 cpu:              12.9 elap:               0.6
 (Enter /sw/apps/gaussian-16.0/g16/l401.exe)
 ExpMin= 3.36D-02 ExpMax= 4.95D+03 ExpMxC= 7.45D+02 IAcc=3 IRadAn=         5 AccDes= 0.00D+00
 Harris functional with IExCor= 4639 and IRadAn=       5 diagonalized for initial guess.
 HarFok:  IExCor= 4639 AccDes= 0.00D+00 IRadAn=         5 IDoV= 1 UseB2=F ITyADJ=14
 ICtDFT=  3500011 ScaDFX=  1.000000  1.000000  1.000000  1.000000
 FoFCou: FMM=F IPFlag=           0 FMFlag=      100000 FMFlg1=        2001
         NFxFlg=           0 DoJE=T BraDBF=F KetDBF=T FulRan=T
         wScrn=  0.000000 ICntrl=       500 IOpCl=  0 I1Cent=   200000004 NGrid=           0
         NMat0=    1 NMatS0=      1 NMatT0=    0 NMatD0=    1 NMtDS0=    0 NMtDT0=    0
 Petite list used in FoFCou.
 Harris En= -2877.98583288780    
 JPrj=0 DoOrth=F DoCkMO=F.
 Leave Link  401 at Thu Apr 28 15:42:38 2022, MaxMem= 10066329600 cpu:             149.9 elap:               6.3
 (Enter /sw/apps/gaussian-16.0/g16/l502.exe)
 Integral symmetry usage will be decided dynamically.
 Closed shell SCF:
 Using DIIS extrapolation, IDIIS=  1040.
 NGot= 10066329600 LenX= 10062561258 LenY= 10060699398
 Requested convergence on RMS density matrix=1.00D-08 within 128 cycles.
 Requested convergence on MAX density matrix=1.00D-06.
 Requested convergence on             energy=1.00D-06.
 No special actions if energy rises.
 Fock matrices will be formed incrementally for  20 cycles.

 Cycle   1  Pass 1  IDiag  1:
 FoFJK:  IHMeth= 1 ICntrl=       0 DoSepK=T KAlg= 0 I1Cent=           0 FoldK=F
 IRaf=         1 NMat=       1 IRICut=       1 DoRegI=T DoRafI=F ISym2E= 0 IDoP0=0 IntGTp=1.
 FoFCou: FMM=T IPFlag=           0 FMFlag=      100000 FMFlg1=        2001
         NFxFlg=           0 DoJE=T BraDBF=F KetDBF=F FulRan=T
         wScrn=  0.000000 ICntrl=       500 IOpCl=  0 I1Cent=           0 NGrid=           0
         NMat0=    1 NMatS0=      1 NMatT0=    0 NMatD0=    1 NMtDS0=    0 NMtDT0=    0
 Symmetry not used in FoFCou.
 FMM levels:  10  Number of levels for PrismC:   9
 E= -3007.18865395972    
 DIIS: error= 2.90D-02 at cycle   1 NSaved=   1.
 NSaved= 1 IEnMin= 1 EnMin= -3007.18865395972     IErMin= 1 ErrMin= 2.90D-02
 ErrMax= 2.90D-02  0.00D+00 EMaxC= 1.00D-01 BMatC= 1.49D+00 BMatP= 1.49D+00
 IDIUse=3 WtCom= 7.10D-01 WtEn= 2.90D-01
 Coeff-Com:  0.100D+01
 Coeff-En:   0.100D+01
 Coeff:      0.100D+01
 Gap=     0.150 Goal=   None    Shift=    0.000
 GapD=    0.150 DampG=1.000 DampE=0.500 DampFc=0.5000 IDamp=-1.
 Damping current iteration by 5.00D-01
 RMSDP=1.57D-03 MaxDP=2.28D-01              OVMax= 1.84D-01

 Cycle   2  Pass 1  IDiag  1:
 RMSU=  7.75D-04    CP:  9.86D-01
 E= -3007.50877607208     Delta-E=       -0.320122112364 Rises=F Damp=T
 DIIS: error= 1.67D-02 at cycle   2 NSaved=   2.
 NSaved= 2 IEnMin= 2 EnMin= -3007.50877607208     IErMin= 2 ErrMin= 1.67D-02
 ErrMax= 1.67D-02  0.00D+00 EMaxC= 1.00D-01 BMatC= 2.90D-01 BMatP= 1.49D+00
 IDIUse=3 WtCom= 8.33D-01 WtEn= 1.67D-01
 Coeff-Com: -0.337D+00 0.134D+01
 Coeff-En:   0.000D+00 0.100D+01
 Coeff:     -0.281D+00 0.128D+01
 Gap=     0.172 Goal=   None    Shift=    0.000
 RMSDP=7.13D-04 MaxDP=6.59D-02 DE=-3.20D-01 OVMax= 1.42D-01

 Cycle   3  Pass 1  IDiag  1:
 RMSU=  6.82D-04    CP:  9.79D-01  1.26D+00
 E= -3007.74986001324     Delta-E=       -0.241083941162 Rises=F Damp=F
 DIIS: error= 1.31D-02 at cycle   3 NSaved=   3.
 NSaved= 3 IEnMin= 3 EnMin= -3007.74986001324     IErMin= 3 ErrMin= 1.31D-02
 ErrMax= 1.31D-02  0.00D+00 EMaxC= 1.00D-01 BMatC= 1.34D-01 BMatP= 2.90D-01
 IDIUse=3 WtCom= 8.69D-01 WtEn= 1.31D-01
 Coeff-Com: -0.302D+00 0.670D+00 0.632D+00
 Coeff-En:   0.000D+00 0.000D+00 0.100D+01
 Coeff:     -0.262D+00 0.582D+00 0.680D+00
 Gap=     0.155 Goal=   None    Shift=    0.000
 RMSDP=4.52D-04 MaxDP=7.45D-02 DE=-2.41D-01 OVMax= 9.21D-02

 Cycle   4  Pass 1  IDiag  1:
 RMSU=  2.27D-04    CP:  9.73D-01  1.59D+00  5.74D-01
 E= -3007.84860081486     Delta-E=       -0.098740801623 Rises=F Damp=F
 DIIS: error= 4.67D-03 at cycle   4 NSaved=   4.
 NSaved= 4 IEnMin= 4 EnMin= -3007.84860081486     IErMin= 4 ErrMin= 4.67D-03
 ErrMax= 4.67D-03  0.00D+00 EMaxC= 1.00D-01 BMatC= 2.03D-02 BMatP= 1.34D-01
 IDIUse=3 WtCom= 9.53D-01 WtEn= 4.67D-02
 Coeff-Com: -0.112D+00 0.225D+00 0.373D+00 0.514D+00
 Coeff-En:   0.000D+00 0.000D+00 0.102D+00 0.898D+00
 Coeff:     -0.107D+00 0.215D+00 0.360D+00 0.532D+00
 Gap=     0.154 Goal=   None    Shift=    0.000
 RMSDP=1.40D-04 MaxDP=1.59D-02 DE=-9.87D-02 OVMax= 2.87D-02

 Cycle   5  Pass 1  IDiag  1:
 RMSU=  6.45D-05    CP:  9.74D-01  1.54D+00  7.04D-01  6.57D-01
 E= -3007.86543428274     Delta-E=       -0.016833467873 Rises=F Damp=F
 DIIS: error= 6.22D-04 at cycle   5 NSaved=   5.
 NSaved= 5 IEnMin= 5 EnMin= -3007.86543428274     IErMin= 5 ErrMin= 6.22D-04
 ErrMax= 6.22D-04  0.00D+00 EMaxC= 1.00D-01 BMatC= 4.54D-04 BMatP= 2.03D-02
 IDIUse=3 WtCom= 9.94D-01 WtEn= 6.22D-03
 Coeff-Com: -0.291D-01 0.554D-01 0.123D+00 0.233D+00 0.618D+00
 Coeff-En:   0.000D+00 0.000D+00 0.000D+00 0.000D+00 0.100D+01
 Coeff:     -0.289D-01 0.550D-01 0.122D+00 0.231D+00 0.620D+00
 Gap=     0.154 Goal=   None    Shift=    0.000
 RMSDP=2.83D-05 MaxDP=6.11D-03 DE=-1.68D-02 OVMax= 8.04D-03

 Cycle   6  Pass 1  IDiag  1:
 RMSU=  2.29D-05    CP:  9.73D-01  1.55D+00  7.05D-01  7.15D-01  8.70D-01
 E= -3007.86580978661     Delta-E=       -0.000375503871 Rises=F Damp=F
 DIIS: error= 2.69D-04 at cycle   6 NSaved=   6.
 NSaved= 6 IEnMin= 6 EnMin= -3007.86580978661     IErMin= 6 ErrMin= 2.69D-04
 ErrMax= 2.69D-04  0.00D+00 EMaxC= 1.00D-01 BMatC= 6.88D-05 BMatP= 4.54D-04
 IDIUse=3 WtCom= 9.97D-01 WtEn= 2.69D-03
 Coeff-Com:  0.974D-02-0.210D-01-0.161D-01 0.694D-03 0.284D+00 0.742D+00
 Coeff-En:   0.000D+00 0.000D+00 0.000D+00 0.000D+00 0.000D+00 0.100D+01
 Coeff:      0.972D-02-0.209D-01-0.161D-01 0.692D-03 0.284D+00 0.743D+00
 Gap=     0.154 Goal=   None    Shift=    0.000
 RMSDP=1.29D-05 MaxDP=1.26D-03 DE=-3.76D-04 OVMax= 4.72D-03

 Cycle   7  Pass 1  IDiag  1:
 RMSU=  8.62D-06    CP:  9.73D-01  1.55D+00  7.10D-01  7.29D-01  9.89D-01
                    CP:  9.11D-01
 E= -3007.86589236326     Delta-E=       -0.000082576651 Rises=F Damp=F
 DIIS: error= 5.86D-05 at cycle   7 NSaved=   7.
 NSaved= 7 IEnMin= 7 EnMin= -3007.86589236326     IErMin= 7 ErrMin= 5.86D-05
 ErrMax= 5.86D-05  0.00D+00 EMaxC= 1.00D-01 BMatC= 7.27D-06 BMatP= 6.88D-05
 IDIUse=1 WtCom= 1.00D+00 WtEn= 0.00D+00
 Coeff-Com:  0.670D-02-0.136D-01-0.173D-01-0.223D-01 0.546D-01 0.303D+00
 Coeff-Com:  0.689D+00
 Coeff:      0.670D-02-0.136D-01-0.173D-01-0.223D-01 0.546D-01 0.303D+00
 Coeff:      0.689D+00
 Gap=     0.154 Goal=   None    Shift=    0.000
 RMSDP=5.34D-06 MaxDP=1.58D-03 DE=-8.26D-05 OVMax= 1.85D-03

 Cycle   8  Pass 1  IDiag  1:
 RMSU=  3.56D-06    CP:  9.73D-01  1.55D+00  7.12D-01  7.36D-01  1.01D+00
                    CP:  1.05D+00  9.96D-01
 E= -3007.86590381235     Delta-E=       -0.000011449087 Rises=F Damp=F
 DIIS: error= 2.78D-05 at cycle   8 NSaved=   8.
 NSaved= 8 IEnMin= 8 EnMin= -3007.86590381235     IErMin= 8 ErrMin= 2.78D-05
 ErrMax= 2.78D-05  0.00D+00 EMaxC= 1.00D-01 BMatC= 1.69D-06 BMatP= 7.27D-06
 IDIUse=1 WtCom= 1.00D+00 WtEn= 0.00D+00
 Coeff-Com:  0.147D-02-0.273D-02-0.533D-02-0.117D-01-0.304D-01-0.618D-03
 Coeff-Com:  0.338D+00 0.712D+00
 Coeff:      0.147D-02-0.273D-02-0.533D-02-0.117D-01-0.304D-01-0.618D-03
 Coeff:      0.338D+00 0.712D+00
 Gap=     0.154 Goal=   None    Shift=    0.000
 RMSDP=2.61D-06 MaxDP=3.86D-04 DE=-1.14D-05 OVMax= 1.18D-03

 Cycle   9  Pass 1  IDiag  1:
 RMSU=  1.59D-06    CP:  9.73D-01  1.55D+00  7.12D-01  7.38D-01  1.02D+00
                    CP:  1.08D+00  1.18D+00  1.07D+00
 E= -3007.86590751034     Delta-E=       -0.000003697993 Rises=F Damp=F
 DIIS: error= 1.25D-05 at cycle   9 NSaved=   9.
 NSaved= 9 IEnMin= 9 EnMin= -3007.86590751034     IErMin= 9 ErrMin= 1.25D-05
 ErrMax= 1.25D-05  0.00D+00 EMaxC= 1.00D-01 BMatC= 2.31D-07 BMatP= 1.69D-06
 IDIUse=1 WtCom= 1.00D+00 WtEn= 0.00D+00
 Coeff-Com: -0.583D-03 0.125D-02 0.109D-02-0.454D-03-0.191D-01-0.510D-01
 Coeff-Com:  0.139D-01 0.236D+00 0.819D+00
 Coeff:     -0.583D-03 0.125D-02 0.109D-02-0.454D-03-0.191D-01-0.510D-01
 Coeff:      0.139D-01 0.236D+00 0.819D+00
 Gap=     0.154 Goal=   None    Shift=    0.000
 RMSDP=1.55D-06 MaxDP=3.51D-04 DE=-3.70D-06 OVMax= 7.61D-04

 Cycle  10  Pass 1  IDiag  1:
 RMSU=  7.79D-07    CP:  9.73D-01  1.55D+00  7.12D-01  7.39D-01  1.03D+00
                    CP:  1.10D+00  1.25D+00  1.32D+00  1.29D+00
 E= -3007.86590856495     Delta-E=       -0.000001054606 Rises=F Damp=F
 DIIS: error= 8.65D-06 at cycle  10 NSaved=  10.
 NSaved=10 IEnMin=10 EnMin= -3007.86590856495     IErMin=10 ErrMin= 8.65D-06
 ErrMax= 8.65D-06  0.00D+00 EMaxC= 1.00D-01 BMatC= 8.24D-08 BMatP= 2.31D-07
 IDIUse=1 WtCom= 1.00D+00 WtEn= 0.00D+00
 Coeff-Com: -0.687D-03 0.135D-02 0.207D-02 0.323D-02 0.533D-03-0.244D-01
 Coeff-Com: -0.882D-01-0.111D+00 0.362D+00 0.854D+00
 Coeff:     -0.687D-03 0.135D-02 0.207D-02 0.323D-02 0.533D-03-0.244D-01
 Coeff:     -0.882D-01-0.111D+00 0.362D+00 0.854D+00
 Gap=     0.154 Goal=   None    Shift=    0.000
 RMSDP=1.12D-06 MaxDP=1.70D-04 DE=-1.05D-06 OVMax= 6.83D-04

 Cycle  11  Pass 1  IDiag  1:
 RMSU=  4.33D-07    CP:  9.73D-01  1.55D+00  7.12D-01  7.39D-01  1.03D+00
                    CP:  1.11D+00  1.31D+00  1.46D+00  1.71D+00  1.35D+00
 E= -3007.86590907322     Delta-E=       -0.000000508277 Rises=F Damp=F
 DIIS: error= 5.02D-06 at cycle  11 NSaved=  11.
 NSaved=11 IEnMin=11 EnMin= -3007.86590907322     IErMin=11 ErrMin= 5.02D-06
 ErrMax= 5.02D-06  0.00D+00 EMaxC= 1.00D-01 BMatC= 2.72D-08 BMatP= 8.24D-08
 IDIUse=1 WtCom= 1.00D+00 WtEn= 0.00D+00
 Coeff-Com: -0.158D-03 0.291D-03 0.655D-03 0.158D-02 0.504D-02 0.130D-02
 Coeff-Com: -0.395D-01-0.111D+00-0.444D-01 0.386D+00 0.800D+00
 Coeff:     -0.158D-03 0.291D-03 0.655D-03 0.158D-02 0.504D-02 0.130D-02
 Coeff:     -0.395D-01-0.111D+00-0.444D-01 0.386D+00 0.800D+00
 Gap=     0.154 Goal=   None    Shift=    0.000
 RMSDP=6.78D-07 MaxDP=1.04D-04 DE=-5.08D-07 OVMax= 3.90D-04

 Cycle  12  Pass 1  IDiag  1:
 RMSU=  2.31D-07    CP:  9.73D-01  1.55D+00  7.12D-01  7.39D-01  1.03D+00
                    CP:  1.12D+00  1.33D+00  1.55D+00  1.91D+00  1.81D+00
                    CP:  1.35D+00
 E= -3007.86590925842     Delta-E=       -0.000000185200 Rises=F Damp=F
 DIIS: error= 3.26D-06 at cycle  12 NSaved=  12.
 NSaved=12 IEnMin=12 EnMin= -3007.86590925842     IErMin=12 ErrMin= 3.26D-06
 ErrMax= 3.26D-06  0.00D+00 EMaxC= 1.00D-01 BMatC= 8.25D-09 BMatP= 2.72D-08
 IDIUse=1 WtCom= 1.00D+00 WtEn= 0.00D+00
 Coeff-Com:  0.236D-03-0.472D-03-0.659D-03-0.838D-03 0.112D-02 0.993D-02
 Coeff-Com:  0.283D-01 0.140D-01-0.161D+00-0.275D+00 0.221D+00 0.116D+01
 Coeff:      0.236D-03-0.472D-03-0.659D-03-0.838D-03 0.112D-02 0.993D-02
 Coeff:      0.283D-01 0.140D-01-0.161D+00-0.275D+00 0.221D+00 0.116D+01
 Gap=     0.154 Goal=   None    Shift=    0.000
 RMSDP=6.27D-07 MaxDP=4.53D-05 DE=-1.85D-07 OVMax= 4.16D-04

 Cycle  13  Pass 1  IDiag  1:
 RMSU=  1.31D-07    CP:  9.73D-01  1.55D+00  7.12D-01  7.40D-01  1.03D+00
                    CP:  1.12D+00  1.35D+00  1.61D+00  2.11D+00  2.22D+00
                    CP:  2.03D+00  1.66D+00
 E= -3007.86590935599     Delta-E=       -0.000000097572 Rises=F Damp=F
 DIIS: error= 1.40D-06 at cycle  13 NSaved=  13.
 NSaved=13 IEnMin=13 EnMin= -3007.86590935599     IErMin=13 ErrMin= 1.40D-06
 ErrMax= 1.40D-06  0.00D+00 EMaxC= 1.00D-01 BMatC= 2.29D-09 BMatP= 8.25D-09
 IDIUse=1 WtCom= 1.00D+00 WtEn= 0.00D+00
 Coeff-Com:  0.153D-03-0.299D-03-0.491D-03-0.840D-03-0.107D-02 0.348D-02
 Coeff-Com:  0.250D-01 0.399D-01-0.481D-01-0.240D+00-0.159D+00 0.478D+00
 Coeff-Com:  0.903D+00
 Coeff:      0.153D-03-0.299D-03-0.491D-03-0.840D-03-0.107D-02 0.348D-02
 Coeff:      0.250D-01 0.399D-01-0.481D-01-0.240D+00-0.159D+00 0.478D+00
 Coeff:      0.903D+00
 Gap=     0.154 Goal=   None    Shift=    0.000
 RMSDP=3.11D-07 MaxDP=2.39D-05 DE=-9.76D-08 OVMax= 1.94D-04

 Cycle  14  Pass 1  IDiag  1:
 RMSU=  6.28D-08    CP:  9.73D-01  1.55D+00  7.12D-01  7.40D-01  1.03D+00
                    CP:  1.12D+00  1.36D+00  1.63D+00  2.19D+00  2.43D+00
                    CP:  2.39D+00  2.18D+00  1.27D+00
 E= -3007.86590937524     Delta-E=       -0.000000019241 Rises=F Damp=F
 DIIS: error= 4.72D-07 at cycle  14 NSaved=  14.
 NSaved=14 IEnMin=14 EnMin= -3007.86590937524     IErMin=14 ErrMin= 4.72D-07
 ErrMax= 4.72D-07  0.00D+00 EMaxC= 1.00D-01 BMatC= 4.13D-10 BMatP= 2.29D-09
 IDIUse=1 WtCom= 1.00D+00 WtEn= 0.00D+00
 Coeff-Com:  0.126D-04-0.222D-04-0.568D-04-0.152D-03-0.598D-03-0.756D-03
 Coeff-Com:  0.397D-02 0.117D-01 0.145D-01-0.375D-01-0.101D+00-0.417D-01
 Coeff-Com:  0.340D+00 0.812D+00
 Coeff:      0.126D-04-0.222D-04-0.568D-04-0.152D-03-0.598D-03-0.756D-03
 Coeff:      0.397D-02 0.117D-01 0.145D-01-0.375D-01-0.101D+00-0.417D-01
 Coeff:      0.340D+00 0.812D+00
 Gap=     0.154 Goal=   None    Shift=    0.000
 RMSDP=9.18D-08 MaxDP=1.02D-05 DE=-1.92D-08 OVMax= 5.69D-05

 Cycle  15  Pass 1  IDiag  1:
 RMSU=  3.03D-08    CP:  9.73D-01  1.55D+00  7.12D-01  7.40D-01  1.03D+00
                    CP:  1.12D+00  1.36D+00  1.63D+00  2.21D+00  2.48D+00
                    CP:  2.49D+00  2.34D+00  1.53D+00  1.08D+00
 E= -3007.86590937716     Delta-E=       -0.000000001924 Rises=F Damp=F
 DIIS: error= 2.79D-07 at cycle  15 NSaved=  15.
 NSaved=15 IEnMin=15 EnMin= -3007.86590937716     IErMin=15 ErrMin= 2.79D-07
 ErrMax= 2.79D-07  0.00D+00 EMaxC= 1.00D-01 BMatC= 1.21D-10 BMatP= 4.13D-10
 IDIUse=1 WtCom= 1.00D+00 WtEn= 0.00D+00
 Coeff-Com: -0.307D-04 0.613D-04 0.919D-04 0.126D-03-0.284D-04-0.124D-02
 Coeff-Com: -0.408D-02-0.440D-02 0.179D-01 0.376D-01-0.873D-02-0.134D+00
 Coeff-Com: -0.667D-01 0.390D+00 0.774D+00
 Coeff:     -0.307D-04 0.613D-04 0.919D-04 0.126D-03-0.284D-04-0.124D-02
 Coeff:     -0.408D-02-0.440D-02 0.179D-01 0.376D-01-0.873D-02-0.134D+00
 Coeff:     -0.667D-01 0.390D+00 0.774D+00
 Gap=     0.154 Goal=   None    Shift=    0.000
 RMSDP=4.24D-08 MaxDP=3.19D-06 DE=-1.92D-09 OVMax= 2.34D-05

 Cycle  16  Pass 1  IDiag  1:
 RMSU=  1.16D-08    CP:  9.73D-01  1.55D+00  7.12D-01  7.40D-01  1.03D+00
                    CP:  1.12D+00  1.36D+00  1.63D+00  2.21D+00  2.50D+00
                    CP:  2.54D+00  2.42D+00  1.63D+00  1.31D+00  9.46D-01
 E= -3007.86590937748     Delta-E=       -0.000000000324 Rises=F Damp=F
 DIIS: error= 6.60D-08 at cycle  16 NSaved=  16.
 NSaved=16 IEnMin=16 EnMin= -3007.86590937748     IErMin=16 ErrMin= 6.60D-08
 ErrMax= 6.60D-08  0.00D+00 EMaxC= 1.00D-01 BMatC= 1.28D-11 BMatP= 1.21D-10
 IDIUse=1 WtCom= 1.00D+00 WtEn= 0.00D+00
 Coeff-Com: -0.131D-04 0.257D-04 0.432D-04 0.675D-04 0.742D-04-0.359D-03
 Coeff-Com: -0.207D-02-0.331D-02 0.526D-02 0.206D-01 0.112D-01-0.445D-01
 Coeff-Com: -0.750D-01 0.357D-01 0.290D+00 0.762D+00
 Coeff:     -0.131D-04 0.257D-04 0.432D-04 0.675D-04 0.742D-04-0.359D-03
 Coeff:     -0.207D-02-0.331D-02 0.526D-02 0.206D-01 0.112D-01-0.445D-01
 Coeff:     -0.750D-01 0.357D-01 0.290D+00 0.762D+00
 Gap=     0.154 Goal=   None    Shift=    0.000
 RMSDP=9.07D-09 MaxDP=2.04D-06 DE=-3.24D-10 OVMax= 3.06D-06

 Cycle  17  Pass 1  IDiag  1:
 RMSU=  5.04D-09    CP:  9.73D-01  1.55D+00  7.12D-01  7.40D-01  1.03D+00
                    CP:  1.12D+00  1.36D+00  1.63D+00  2.21D+00  2.50D+00
                    CP:  2.54D+00  2.43D+00  1.65D+00  1.36D+00  1.09D+00
                    CP:  1.03D+00
 E= -3007.86590937769     Delta-E=       -0.000000000207 Rises=F Damp=F
 DIIS: error= 4.78D-08 at cycle  17 NSaved=  17.
 NSaved=17 IEnMin=17 EnMin= -3007.86590937769     IErMin=17 ErrMin= 4.78D-08
 ErrMax= 4.78D-08  0.00D+00 EMaxC= 1.00D-01 BMatC= 2.23D-12 BMatP= 1.28D-11
 IDIUse=1 WtCom= 1.00D+00 WtEn= 0.00D+00
 Coeff-Com: -0.261D-06 0.301D-06 0.247D-05 0.536D-05 0.345D-04 0.590D-04
 Coeff-Com: -0.163D-03-0.595D-03-0.970D-03 0.204D-02 0.482D-02 0.350D-02
 Coeff-Com: -0.187D-01-0.451D-01-0.575D-02 0.292D+00 0.769D+00
 Coeff:     -0.261D-06 0.301D-06 0.247D-05 0.536D-05 0.345D-04 0.590D-04
 Coeff:     -0.163D-03-0.595D-03-0.970D-03 0.204D-02 0.482D-02 0.350D-02
 Coeff:     -0.187D-01-0.451D-01-0.575D-02 0.292D+00 0.769D+00
 Gap=     0.154 Goal=   None    Shift=    0.000
 RMSDP=4.22D-09 MaxDP=3.41D-07 DE=-2.07D-10 OVMax= 2.35D-06

 SCF Done:  E(RwB97XD) =  -3007.86590938     A.U. after   17 cycles
            NFock= 17  Conv=0.42D-08     -V/T= 2.0107
 KE= 2.976165902662D+03 PE=-2.653711562799D+04 EE= 1.078132050112D+04
 Leave Link  502 at Thu Apr 28 15:49:28 2022, MaxMem= 10066329600 cpu:            9451.9 elap:             409.5
 (Enter /sw/apps/gaussian-16.0/g16/l801.exe)
 DoSCS=F DFT=T ScalE2(SS,OS)=  1.000000  1.000000
 ExpMin= 3.36D-02 ExpMax= 4.95D+03 ExpMxC= 7.45D+02 IAcc=3 IRadAn=         5 AccDes= 0.00D+00
 HarFok:  IExCor=  205 AccDes= 0.00D+00 IRadAn=         5 IDoV=-2 UseB2=F ITyADJ=14
 ICtDFT= 12500011 ScaDFX=  1.000000  1.000000  1.000000  1.000000
 GSVD:  LWork=       -5460 too small for GESVD, short by       25550 words or       25550 for optimal perf.
 Largest valence mixing into a core orbital is  1.27D-04
 Largest core mixing into a valence orbital is  5.42D-05
 Range of M.O.s used for correlation:    71  1298
 NBasis=  1298 NAE=   246 NBE=   246 NFC=    70 NFV=     0
 NROrb=   1228 NOA=   176 NOB=   176 NVA=  1052 NVB=  1052
 Leave Link  801 at Thu Apr 28 15:49:28 2022, MaxMem= 10066329600 cpu:               6.3 elap:               0.3
 (Enter /sw/apps/gaussian-16.0/g16/l914.exe)
 RHF ground state
 Two-electron integrals replicated using symmetry.
 MDV= 10066329600 DFT=T DoStab=F Mixed=T DoRPA=T DoScal=F NonHer=T
 Making orbital integer symmetry assigments:
 Orbital symmetries:
       Occupied  (A) (A) (A) (A) (A) (A) (A) (A) (A) (A) (A) (A)
                 (A) (A) (A) (A) (A) (A) (A) (A) (A) (A) (A) (A)
                 (A) (A) (A) (A) (A) (A) (A) (A) (A) (A) (A) (A)
                 (A) (A) (A) (A) (A) (A) (A) (A) (A) (A) (A) (A)
                 (A) (A) (A) (A) (A) (A) (A) (A) (A) (A) (A) (A)
                 (A) (A) (A) (A) (A) (A) (A) (A) (A) (A) (A) (A)
                 (A) (A) (A) (A) (A) (A) (A) (A) (A) (A) (A) (A)
                 (A) (A) (A) (A) (A) (A) (A) (A) (A) (A) (A) (A)
                 (A) (A) (A) (A) (A) (A) (A) (A) (A) (A) (A) (A)
                 (A) (A) (A) (A) (A) (A) (A) (A) (A) (A) (A) (A)
                 (A) (A) (A) (A) (A) (A) (A) (A) (A) (A) (A) (A)
                 (A) (A) (A) (A) (A) (A) (A) (A) (A) (A) (A) (A)
                 (A) (A) (A) (A) (A) (A) (A) (A) (A) (A) (A) (A)
                 (A) (A) (A) (A) (A) (A) (A) (A) (A) (A) (A) (A)
                 (A) (A) (A) (A) (A) (A) (A) (A) (A) (A) (A) (A)
                 (A) (A) (A) (A) (A) (A) (A) (A) (A) (A) (A) (A)
                 (A) (A) (A) (A) (A) (A) (A) (A) (A) (A) (A) (A)
                 (A) (A) (A) (A) (A) (A) (A) (A) (A) (A) (A) (A)
                 (A) (A) (A) (A) (A) (A) (A) (A) (A) (A) (A) (A)
                 (A) (A) (A) (A) (A) (A) (A) (A) (A) (A) (A) (A)
                 (A) (A) (A) (A) (A) (A)
       Virtual   (A) (A) (A) (A) (A) (A) (A) (A) (A) (A) (A) (A)
                 (A) (A) (A) (A) (A) (A) (A) (A) (A) (A) (A) (A)
                 (A) (A) (A) (A) (A) (A) (A) (A) (A) (A) (A) (A)
                 (A) (A) (A) (A) (A) (A) (A) (A) (A) (A) (A) (A)
                 (A) (A) (A) (A) (A) (A) (A) (A) (A) (A) (A) (A)
                 (A) (A) (A) (A) (A) (A) (A) (A) (A) (A) (A) (A)
                 (A) (A) (A) (A) (A) (A) (A) (A) (A) (A) (A) (A)
                 (A) (A) (A) (A) (A) (A) (A) (A) (A) (A) (A) (A)
                 (A) (A) (A) (A) (A) (A) (A) (A) (A) (A) (A) (A)
                 (A) (A) (A) (A) (A) (A) (A) (A) (A) (A) (A) (A)
                 (A) (A) (A) (A) (A) (A) (A) (A) (A) (A) (A) (A)
                 (A) (A) (A) (A) (A) (A) (A) (A) (A) (A) (A) (A)
                 (A) (A) (A) (A) (A) (A) (A) (A) (A) (A) (A) (A)
                 (A) (A) (A) (A) (A) (A) (A) (A) (A) (A) (A) (A)
                 (A) (A) (A) (A) (A) (A) (A) (A) (A) (A) (A) (A)
                 (A) (A) (A) (A) (A) (A) (A) (A) (A) (A) (A) (A)
                 (A) (A) (A) (A) (A) (A) (A) (A) (A) (A) (A) (A)
                 (A) (A) (A) (A) (A) (A) (A) (A) (A) (A) (A) (A)
                 (A) (A) (A) (A) (A) (A) (A) (A) (A) (A) (A) (A)
                 (A) (A) (A) (A) (A) (A) (A) (A) (A) (A) (A) (A)
                 (A) (A) (A) (A) (A) (A) (A) (A) (A) (A) (A) (A)
                 (A) (A) (A) (A) (A) (A) (A) (A) (A) (A) (A) (A)
                 (A) (A) (A) (A) (A) (A) (A) (A) (A) (A) (A) (A)
                 (A) (A) (A) (A) (A) (A) (A) (A) (A) (A) (A) (A)
                 (A) (A) (A) (A) (A) (A) (A) (A) (A) (A) (A) (A)
                 (A) (A) (A) (A) (A) (A) (A) (A) (A) (A) (A) (A)
                 (A) (A) (A) (A) (A) (A) (A) (A) (A) (A) (A) (A)
                 (A) (A) (A) (A) (A) (A) (A) (A) (A) (A) (A) (A)
                 (A) (A) (A) (A) (A) (A) (A) (A) (A) (A) (A) (A)
                 (A) (A) (A) (A) (A) (A) (A) (A) (A) (A) (A) (A)
                 (A) (A) (A) (A) (A) (A) (A) (A) (A) (A) (A) (A)
                 (A) (A) (A) (A) (A) (A) (A) (A) (A) (A) (A) (A)
                 (A) (A) (A) (A) (A) (A) (A) (A) (A) (A) (A) (A)
                 (A) (A) (A) (A) (A) (A) (A) (A) (A) (A) (A) (A)
                 (A) (A) (A) (A) (A) (A) (A) (A) (A) (A) (A) (A)
                 (A) (A) (A) (A) (A) (A) (A) (A) (A) (A) (A) (A)
                 (A) (A) (A) (A) (A) (A) (A) (A) (A) (A) (A) (A)
                 (A) (A) (A) (A) (A) (A) (A) (A) (A) (A) (A) (A)
                 (A) (A) (A) (A) (A) (A) (A) (A) (A) (A) (A) (A)
                 (A) (A) (A) (A) (A) (A) (A) (A) (A) (A) (A) (A)
                 (A) (A) (A) (A) (A) (A) (A) (A) (A) (A) (A) (A)
                 (A) (A) (A) (A) (A) (A) (A) (A) (A) (A) (A) (A)
                 (A) (A) (A) (A) (A) (A) (A) (A) (A) (A) (A) (A)
                 (A) (A) (A) (A) (A) (A) (A) (A) (A) (A) (A) (A)
                 (A) (A) (A) (A) (A) (A) (A) (A) (A) (A) (A) (A)
                 (A) (A) (A) (A) (A) (A) (A) (A) (A) (A) (A) (A)
                 (A) (A) (A) (A) (A) (A) (A) (A) (A) (A) (A) (A)
                 (A) (A) (A) (A) (A) (A) (A) (A) (A) (A) (A) (A)
                 (A) (A) (A) (A) (A) (A) (A) (A) (A) (A) (A) (A)
                 (A) (A) (A) (A) (A) (A) (A) (A) (A) (A) (A) (A)
                 (A) (A) (A) (A) (A) (A) (A) (A) (A) (A) (A) (A)
                 (A) (A) (A) (A) (A) (A) (A) (A) (A) (A) (A) (A)
                 (A) (A) (A) (A) (A) (A) (A) (A) (A) (A) (A) (A)
                 (A) (A) (A) (A) (A) (A) (A) (A) (A) (A) (A) (A)
                 (A) (A) (A) (A) (A) (A) (A) (A) (A) (A) (A) (A)
                 (A) (A) (A) (A) (A) (A) (A) (A) (A) (A) (A) (A)
                 (A) (A) (A) (A) (A) (A) (A) (A) (A) (A) (A) (A)
                 (A) (A) (A) (A) (A) (A) (A) (A) (A) (A) (A) (A)
                 (A) (A) (A) (A) (A) (A) (A) (A) (A) (A) (A) (A)
                 (A) (A) (A) (A) (A) (A) (A) (A) (A) (A) (A) (A)
                 (A) (A) (A) (A) (A) (A) (A) (A) (A) (A) (A) (A)
                 (A) (A) (A) (A) (A) (A) (A) (A) (A) (A) (A) (A)
                 (A) (A) (A) (A) (A) (A) (A) (A) (A) (A) (A) (A)
                 (A) (A) (A) (A) (A) (A) (A) (A) (A) (A) (A) (A)
                 (A) (A) (A) (A) (A) (A) (A) (A) (A) (A) (A) (A)
                 (A) (A) (A) (A) (A) (A) (A) (A) (A) (A) (A) (A)
                 (A) (A) (A) (A) (A) (A) (A) (A) (A) (A) (A) (A)
                 (A) (A) (A) (A) (A) (A) (A) (A) (A) (A) (A) (A)
                 (A) (A) (A) (A) (A) (A) (A) (A) (A) (A) (A) (A)
                 (A) (A) (A) (A) (A) (A) (A) (A) (A) (A) (A) (A)
                 (A) (A) (A) (A) (A) (A) (A) (A) (A) (A) (A) (A)
                 (A) (A) (A) (A) (A) (A) (A) (A) (A) (A) (A) (A)
                 (A) (A) (A) (A) (A) (A) (A) (A) (A) (A) (A) (A)
                 (A) (A) (A) (A) (A) (A) (A) (A) (A) (A) (A) (A)
                 (A) (A) (A) (A) (A) (A) (A) (A) (A) (A) (A) (A)
                 (A) (A) (A) (A) (A) (A) (A) (A) (A) (A) (A) (A)
                 (A) (A) (A) (A) (A) (A) (A) (A) (A) (A) (A) (A)
                 (A) (A) (A) (A) (A) (A) (A) (A) (A) (A) (A) (A)
                 (A) (A) (A) (A) (A) (A) (A) (A) (A) (A) (A) (A)
                 (A) (A) (A) (A) (A) (A) (A) (A) (A) (A) (A) (A)
                 (A) (A) (A) (A) (A) (A) (A) (A) (A) (A) (A) (A)
                 (A) (A) (A) (A) (A) (A) (A) (A) (A) (A) (A) (A)
                 (A) (A) (A) (A) (A) (A) (A) (A) (A) (A) (A) (A)
                 (A) (A) (A) (A) (A) (A) (A) (A) (A) (A) (A) (A)
                 (A) (A) (A) (A) (A) (A) (A) (A) (A) (A) (A) (A)
                 (A) (A) (A) (A) (A) (A) (A) (A) (A) (A) (A) (A)
                 (A) (A) (A) (A) (A) (A) (A) (A) (A) (A) (A) (A)
                 (A) (A) (A) (A) (A) (A) (A) (A)
    20 initial guesses have been made.
 Convergence on wavefunction:    0.001000000000000
 Davidson Disk Diagonalization:  ConvIn= 1.00D-03 SkipCon=T Conv= 1.00D-03.
 Max sub-space:  2000 roots to seek:    20 dimension of matrix:       370304
 Iteration     1 Dimension    20 NMult     0 NNew     20
 CISAX will form    20 AO SS matrices at one time.
 NMat=    20 NSing=    20 JSym2X= 0.
 FoFJK:  IHMeth= 1 ICntrl=       0 DoSepK=T KAlg= 0 I1Cent=           0 FoldK=F
 IRaf=         1 NMat=      40 IRICut=       1 DoRegI=T DoRafI=F ISym2E= 0 IDoP0=3 IntGTp=3.
 FoFCou: FMM=T IPFlag=           0 FMFlag=      100000 FMFlg1=        2001
         NFxFlg=           0 DoJE=F BraDBF=F KetDBF=F FulRan=T
         wScrn=  0.000000 ICntrl=       500 IOpCl=  0 I1Cent=           0 NGrid=           0
         NMat0=   20 NMatS0=     20 NMatT0=    0 NMatD0=   20 NMtDS0=    0 NMtDT0=    0
 Symmetry not used in FoFCou.
 FMM levels:  10  Number of levels for PrismC:   9
 New state      3 was old state      4
 New state      4 was old state      6
 New state      5 was old state      8
 Excitation Energies [eV] at current iteration:
 Root      1 :     2.155366555618763
 Root      2 :     2.586066809350529
 Root      3 :     3.540248462381156
 Root      4 :     3.777996103608990
 Root      5 :     4.022299752376320
 Root      6 :     4.116109397829285
 Root      7 :     4.129579787717868
 Root      8 :     4.373688937923701
 Root      9 :     4.390924300260169
 Root     10 :     4.639379338271748
 Root     11 :     4.724993927824793
 Root     12 :     4.902073098343687
 Root     13 :     4.963102439713026
 Root     14 :     5.027812797401052
 Root     15 :     5.208482182085517
 Root     16 :     5.271315547024131
 Root     17 :     5.319556937220204
 Root     18 :     5.662164453339597
 Root     19 :     6.416002346769376
 Root     20 :     6.936007189035869
 Iteration     2 Dimension    30 NMult    20 NNew     10
 CISAX will form    10 AO SS matrices at one time.
 NMat=    10 NSing=    10 JSym2X= 0.
 Root      1 not converged, maximum delta is    0.085252254535890
 Root      2 not converged, maximum delta is    0.062128241852918
 Root      3 not converged, maximum delta is    0.056025720866163
 Root      4 not converged, maximum delta is    0.044192415614372
 Root      5 not converged, maximum delta is    0.175903847679584
 Excitation Energies [eV] at current iteration:
 Root      1 :     1.620167628474996   Change is   -0.535198927143767
 Root      2 :     2.183763638404905   Change is   -0.402303170945624
 Root      3 :     3.189928310037397   Change is   -0.350320152343758
 Root      4 :     3.406744979626513   Change is   -0.371251123982477
 Root      5 :     3.645009397781792   Change is   -0.377290354594528
 Iteration     3 Dimension    40 NMult    30 NNew     10
 CISAX will form    10 AO SS matrices at one time.
 NMat=    10 NSing=    10 JSym2X= 0.
 Root      1 not converged, maximum delta is    0.018158041056267
 Root      2 not converged, maximum delta is    0.015361886684751
 Root      3 not converged, maximum delta is    0.005682867003348
 Root      4 not converged, maximum delta is    0.024398115068498
 Root      5 not converged, maximum delta is    0.081615271616520
 Excitation Energies [eV] at current iteration:
 Root      1 :     1.579600883549783   Change is   -0.040566744925212
 Root      2 :     2.162547344254911   Change is   -0.021216294149994
 Root      3 :     3.176452673799393   Change is   -0.013475636238004
 Root      4 :     3.388598632022201   Change is   -0.018146347604312
 Root      5 :     3.522490242347092   Change is   -0.122519155434700
 Iteration     4 Dimension    50 NMult    40 NNew     10
 CISAX will form    10 AO SS matrices at one time.
 NMat=    10 NSing=    10 JSym2X= 0.
 Root      1 not converged, maximum delta is    0.005409039480828
 Root      2 not converged, maximum delta is    0.002253504321390
 Root      3 not converged, maximum delta is    0.007590458302144
 Root      4 not converged, maximum delta is    0.015190844911402
 Root      5 not converged, maximum delta is    0.018105077698092
 Excitation Energies [eV] at current iteration:
 Root      1 :     1.575014562930217   Change is   -0.004586320619567
 Root      2 :     2.159857159126209   Change is   -0.002690185128702
 Root      3 :     3.173420301847389   Change is   -0.003032371952005
 Root      4 :     3.384932726759006   Change is   -0.003665905263195
 Root      5 :     3.503196660906594   Change is   -0.019293581440498
 Iteration     5 Dimension    60 NMult    50 NNew     10
 CISAX will form    10 AO SS matrices at one time.
 NMat=    10 NSing=    10 JSym2X= 0.
 Root      1 not converged, maximum delta is    0.001397029621220
 Root      2 has converged.
 Root      3 not converged, maximum delta is    0.011083426739087
 Root      4 not converged, maximum delta is    0.010583490871934
 Root      5 not converged, maximum delta is    0.026067177954298
 Excitation Energies [eV] at current iteration:
 Root      1 :     1.574604071633470   Change is   -0.000410491296747
 Root      2 :     2.159667002352362   Change is   -0.000190156773847
 Root      3 :     3.172335869932682   Change is   -0.001084431914707
 Root      4 :     3.384198407027690   Change is   -0.000734319731315
 Root      5 :     3.500446231317363   Change is   -0.002750429589232
 Iteration     6 Dimension    68 NMult    60 NNew      8
 CISAX will form     8 AO SS matrices at one time.
 NMat=     8 NSing=     8 JSym2X= 0.
 Root      1 has converged.
 Root      2 has converged.
 Root      3 not converged, maximum delta is    0.009871899040903
 Root      4 not converged, maximum delta is    0.022572160407948
 Root      5 not converged, maximum delta is    0.297825595929420
 Excitation Energies [eV] at current iteration:
 Root      1 :     1.574564140138887   Change is   -0.000039931494583
 Root      2 :     2.159664443610453   Change is   -0.000002558741909
 Root      3 :     3.171772711929782   Change is   -0.000563158002900
 Root      4 :     3.383711577028147   Change is   -0.000486829999543
 Root      5 :     3.489791193961402   Change is   -0.010655037355960
 Iteration     7 Dimension    74 NMult    68 NNew      6
 CISAX will form     6 AO SS matrices at one time.
 NMat=     6 NSing=     6 JSym2X= 0.
 Root      1 has converged.
 Root      2 has converged.
 Root      3 not converged, maximum delta is    0.002395961225640
 Root      4 not converged, maximum delta is    0.013959141264713
 Root      5 not converged, maximum delta is    0.293184464100029
 Excitation Energies [eV] at current iteration:
 Root      1 :     1.574563897451074   Change is   -0.000000242687813
 Root      2 :     2.159663509297526   Change is   -0.000000934312928
 Root      3 :     3.171664772137921   Change is   -0.000107939791862
 Root      4 :     3.383499241225262   Change is   -0.000212335802886
 Root      5 :     3.461135059293061   Change is   -0.028656134668342
 Iteration     8 Dimension    80 NMult    74 NNew      6
 CISAX will form     6 AO SS matrices at one time.
 NMat=     6 NSing=     6 JSym2X= 0.
 Root      1 has converged.
 Root      2 has converged.
 Root      3 has converged.
 Root      4 not converged, maximum delta is    0.002224079232690
 Root      5 not converged, maximum delta is    0.017055008378772
 Excitation Energies [eV] at current iteration:
 Root      1 :     1.574563717963706   Change is   -0.000000179487368
 Root      2 :     2.159663365991606   Change is   -0.000000143305919
 Root      3 :     3.171651840526032   Change is   -0.000012931611888
 Root      4 :     3.383466936067700   Change is   -0.000032305157562
 Root      5 :     3.457119741571646   Change is   -0.004015317721414
 Iteration     9 Dimension    84 NMult    80 NNew      4
 CISAX will form     4 AO SS matrices at one time.
 NMat=     4 NSing=     4 JSym2X= 0.
 Root      1 has converged.
 Root      2 has converged.
 Root      3 has converged.
 Root      4 has converged.
 Root      5 not converged, maximum delta is    0.002628868668238
 Excitation Energies [eV] at current iteration:
 Root      1 :     1.574563698392322   Change is   -0.000000019571384
 Root      2 :     2.159662975843469   Change is   -0.000000390148138
 Root      3 :     3.171650745077979   Change is   -0.000001095448054
 Root      4 :     3.383462938370967   Change is   -0.000003997696733
 Root      5 :     3.456663417467292   Change is   -0.000456324104355
 Iteration    10 Dimension    86 NMult    84 NNew      2
 CISAX will form     2 AO SS matrices at one time.
 NMat=     2 NSing=     2 JSym2X= 0.
 Root      1 has converged.
 Root      2 has converged.
 Root      3 has converged.
 Root      4 has converged.
 Root      5 has converged.
 Excitation Energies [eV] at current iteration:
 Root      1 :     1.574563589602578   Change is   -0.000000108789744
 Root      2 :     2.159662838465183   Change is   -0.000000137378286
 Root      3 :     3.171650679344510   Change is   -0.000000065733469
 Root      4 :     3.383462686462746   Change is   -0.000000251908221
 Root      5 :     3.456610247739726   Change is   -0.000053169727566
 Convergence achieved on expansion vectors.
 ***********************************************************************
 Excited states from <AA,BB:AA,BB> singles matrix:
 ***********************************************************************
 
 1PDM for each excited state written to RWF  633
 Ground to excited state transition densities written to RWF  633
 Ground to excited state transition electric dipole moments (Au):
       state          X           Y           Z        Dip. S.      Osc.
         1         0.0738      1.6559     -2.6482      9.7606      0.3765
         2        -0.0897     -1.3659     -0.6169      2.2544      0.1193
         3        -0.0805      0.1308      0.0083      0.0237      0.0018
         4        -0.0988     -0.3944     -0.1599      0.1909      0.0158
         5        -0.0223     -0.1107     -0.0462      0.0149      0.0013
 Ground to excited state transition velocity dipole moments (Au):
       state          X           Y           Z        Dip. S.      Osc.
         1        -0.0047     -0.0932      0.1495      0.0311      0.3579
         2         0.0076      0.1033      0.0450      0.0128      0.1072
         3         0.0080     -0.0147     -0.0007      0.0003      0.0016
         4         0.0111      0.0464      0.0153      0.0025      0.0134
         5        -0.0002      0.0149      0.0096      0.0003      0.0016
 Ground to excited state transition magnetic dipole moments (Au):
       state          X           Y           Z
         1         0.3097     -1.2334     -0.7936
         2         0.1122     -0.4340      0.8778
         3        -0.9465     -0.0418     -0.2689
         4         0.4103     -0.2536      0.3798
         5        -0.0259      0.2579     -0.5908
 Ground to excited state transition velocity quadrupole moments (Au):
       state          XX          YY          ZZ          XY          XZ          YZ
         1        -0.0701     -0.2631      0.0806     -0.7395      1.2121      0.2944
         2         0.0030      0.2899      0.1227      0.8432      0.3700      0.1008
         3         0.1466     -0.4446      0.1660     -0.0080     -0.0045      0.1851
         4         0.0754      0.3334     -0.2932      0.4643      0.0904      0.3080
         5        -0.0195      0.0943     -0.1052      0.1270      0.0929      0.0848
 <0|del|b> * <b|rxdel|0> + <0|del|b> * <b|delr+rdel|0>
 Rotatory Strengths (R) in cgs (10**-40 erg-esu-cm/Gauss)
       state          XX          YY          ZZ    R(velocity)    E-M Angle
         1        -8.1101    -66.7859     11.6946    -21.0671       91.12
         2       -24.7071     14.1116    -29.0914    -13.2289       92.29
         3         2.2150    -17.8548    -25.2424    -13.6274      114.15
         4        -8.5934     18.9512    -18.2882     -2.6434       92.60
         5        -5.5590    -19.2059     14.5820     -3.3943       99.22
 1/2[<0|r|b>*<b|rxdel|0> + (<0|rxdel|b>*<b|r|0>)*]
 Rotatory Strengths (R) in cgs (10**-40 erg-esu-cm/Gauss)
       state          XX          YY          ZZ     R(length)
         1       -16.1538   1444.3421  -1486.2058    -19.3392
         2         7.1195   -419.2594    382.9785     -9.7205
         3       -53.8723      3.8688      1.5863    -16.1391
         4        28.6617    -70.7277     42.9411      0.2917
         5        -0.4082     20.1880    -19.2834      0.1654
  1/2[<0|del|b>*<b|r|0> + (<0|r|b>*<b|del|0>)*] (Au)
       state          X           Y           Z        Dip. S.   Osc.(frdel)
         1        -0.0003     -0.1543     -0.3960      0.5506      0.3671
         2        -0.0007     -0.1411     -0.0278      0.1696      0.1131
         3        -0.0006     -0.0019     -0.0000      0.0026      0.0017
         4        -0.0011     -0.0183     -0.0024      0.0218      0.0146
         5         0.0000     -0.0016     -0.0004      0.0021      0.0014

 Excitation energies and oscillator strengths:
 
 Excited State   1:      Singlet-A      1.5746 eV  787.42 nm  f=0.3765  <S**2>=0.000
     245 -> 248       -0.16553
     246 -> 247        0.68883
     245 <- 248       -0.11451
 This state for optimization and/or second-order correction.
 Total Energy, E(TD-HF/TD-DFT) =  -3007.80804523    
 Copying the excited state density for this state as the 1-particle RhoCI density.
 
 Excited State   2:      Singlet-A      2.1597 eV  574.09 nm  f=0.1193  <S**2>=0.000
     245 -> 247        0.64214
     246 -> 248        0.27522
 
 Excited State   3:      Singlet-A      3.1717 eV  390.91 nm  f=0.0018  <S**2>=0.000
     242 -> 247       -0.14226
     244 -> 247        0.66467
 
 Excited State   4:      Singlet-A      3.3835 eV  366.44 nm  f=0.0158  <S**2>=0.000
     240 -> 247        0.14509
     241 -> 247       -0.18407
     242 -> 247        0.57847
     246 -> 248       -0.27877
 
 Excited State   5:      Singlet-A      3.4566 eV  358.69 nm  f=0.0013  <S**2>=0.000
     241 -> 247        0.50747
     241 -> 248       -0.16273
     241 -> 249        0.30526
     241 -> 251        0.19156
     242 -> 247        0.12616
     242 -> 249        0.10272
 SavETr:  write IOETrn=   770 NScale= 10 NData=  16 NLR=1 NState=    5 LETran=     100.
 Leave Link  914 at Thu Apr 28 16:11:41 2022, MaxMem= 10066329600 cpu:           31700.1 elap:            1332.4
 (Enter /sw/apps/gaussian-16.0/g16/l601.exe)
 Copying SCF densities to generalized density rwf, IOpCl= 0 IROHF=0.
 Hyperfine terms turned off by default for NAtoms > 100.

 **********************************************************************

[...]
 Alpha virt. eigenvalues --    1.19829   1.20436   1.20812   1.21957   1.22201
 Alpha virt. eigenvalues --    1.22408   1.22942   1.23121   1.23524   1.24126
 Alpha virt. eigenvalues --    1.24890   1.25417   1.26056   1.26330   1.26479
 Alpha virt. eigenvalues --    1.27301   1.27489   1.27762   1.28395   1.28651
 Alpha virt. eigenvalues --    1.29158   1.29725   1.30218   1.30702   1.31465
 Alpha virt. eigenvalues --    1.32106   1.32540   1.33089   1.33636   1.34121
 Alpha virt. eigenvalues --    1.34271   1.34296   1.34910   1.35059   1.35460
 Alpha virt. eigenvalues --    1.35893   1.36843   1.37277   1.37789   1.38116
 Alpha virt. eigenvalues --    1.38586   1.38725   1.39197   1.39884   1.40164
 Alpha virt. eigenvalues --    1.40261   1.41308   1.41647   1.41715   1.41877
 Alpha virt. eigenvalues --    1.42569   1.42640   1.43325   1.43529   1.43570
 Alpha virt. eigenvalues --    1.44057   1.44181   1.45136   1.45878   1.46009
 Alpha virt. eigenvalues --    1.46561   1.46594   1.46895   1.47273   1.47670
 Alpha virt. eigenvalues --    1.48467   1.48517   1.48845   1.49014   1.49146
 Alpha virt. eigenvalues --    1.49766   1.50227   1.50570   1.51131   1.51241
 Alpha virt. eigenvalues --    1.52051   1.52708   1.53204   1.54205   1.54223
 Alpha virt. eigenvalues --    1.54897   1.54964   1.55457   1.55730   1.55894
 Alpha virt. eigenvalues --    1.56281   1.56733   1.57229   1.57404   1.58259
 Alpha virt. eigenvalues --    1.58682   1.58881   1.59270   1.59547   1.59828
 Alpha virt. eigenvalues --    1.61075   1.61343   1.61587   1.61660   1.61804
 Alpha virt. eigenvalues --    1.62014   1.62122   1.62490   1.62950   1.63069
 Alpha virt. eigenvalues --    1.63215   1.63448   1.63527   1.63669   1.64044
 Alpha virt. eigenvalues --    1.64094   1.64439   1.64531   1.64789   1.65267
 Alpha virt. eigenvalues --    1.65830   1.66005   1.66246   1.66457   1.66739
 Alpha virt. eigenvalues --    1.66867   1.67584   1.68344   1.68597   1.68675
 Alpha virt. eigenvalues --    1.69126   1.69293   1.69680   1.69865   1.70501
 Alpha virt. eigenvalues --    1.71810   1.72087   1.72863   1.73249   1.73759
 Alpha virt. eigenvalues --    1.74266   1.74455   1.74537   1.75033   1.75306
 Alpha virt. eigenvalues --    1.75341   1.76391   1.77045   1.77106   1.77528
 Alpha virt. eigenvalues --    1.77570   1.78014   1.78426   1.78498   1.79060
 Alpha virt. eigenvalues --    1.79201   1.79544   1.79778   1.80160   1.80278
 Alpha virt. eigenvalues --    1.80832   1.81079   1.81159   1.81520   1.81972
 Alpha virt. eigenvalues --    1.82192   1.82296   1.82646   1.83018   1.83152
 Alpha virt. eigenvalues --    1.83625   1.83821   1.84284   1.84495   1.84673
 Alpha virt. eigenvalues --    1.84936   1.85106   1.85349   1.85377   1.85646
 Alpha virt. eigenvalues --    1.86052   1.86168   1.86273   1.86491   1.86611
 Alpha virt. eigenvalues --    1.86746   1.86824   1.87032   1.87072   1.87268
 Alpha virt. eigenvalues --    1.87472   1.87663   1.87837   1.88167   1.88225
 Alpha virt. eigenvalues --    1.88426   1.88616   1.88702   1.88951   1.89104
 Alpha virt. eigenvalues --    1.89223   1.89400   1.89678   1.90292   1.90389
 Alpha virt. eigenvalues --    1.90717   1.91033   1.91081   1.91224   1.91339
 Alpha virt. eigenvalues --    1.91714   1.91803   1.92139   1.92292   1.92471
 Alpha virt. eigenvalues --    1.92487   1.92945   1.93120   1.93233   1.93344
 Alpha virt. eigenvalues --    1.93462   1.93680   1.93727   1.94039   1.94608
 Alpha virt. eigenvalues --    1.94671   1.94986   1.95010   1.95529   1.95674
 Alpha virt. eigenvalues --    1.95935   1.95972   1.96604   1.96675   1.96969
 Alpha virt. eigenvalues --    1.97056   1.97503   1.97728   1.98003   1.98309
 Alpha virt. eigenvalues --    1.98351   1.98510   1.98861   1.99107   1.99411
 Alpha virt. eigenvalues --    1.99880   2.00253   2.00329   2.00586   2.00739
 Alpha virt. eigenvalues --    2.00959   2.01142   2.01234   2.01588   2.01820
 Alpha virt. eigenvalues --    2.02040   2.02444   2.02493   2.02696   2.02790
 Alpha virt. eigenvalues --    2.03294   2.03458   2.03786   2.04265   2.04410
 Alpha virt. eigenvalues --    2.04614   2.05170   2.05730   2.05884   2.06113
 Alpha virt. eigenvalues --    2.06321   2.06880   2.07218   2.07429   2.07989
 Alpha virt. eigenvalues --    2.08109   2.08501   2.08571   2.09165   2.09397
 Alpha virt. eigenvalues --    2.09564   2.09762   2.10010   2.10249   2.10736
 Alpha virt. eigenvalues --    2.10882   2.10970   2.11385   2.11582   2.12159
 Alpha virt. eigenvalues --    2.12320   2.12528   2.12893   2.13091   2.13474
 Alpha virt. eigenvalues --    2.13592   2.13929   2.14216   2.14961   2.15260
 Alpha virt. eigenvalues --    2.15307   2.15679   2.15838   2.15987   2.16484
 Alpha virt. eigenvalues --    2.16573   2.17055   2.17632   2.17901   2.18013
 Alpha virt. eigenvalues --    2.18360   2.18899   2.19299   2.19586   2.19752
 Alpha virt. eigenvalues --    2.19845   2.20490   2.20526   2.20547   2.21156
 Alpha virt. eigenvalues --    2.21619   2.22124   2.22361   2.22509   2.22603
 Alpha virt. eigenvalues --    2.22715   2.23046   2.23441   2.23859   2.24256
 Alpha virt. eigenvalues --    2.24305   2.24662   2.24977   2.25886   2.25918
 Alpha virt. eigenvalues --    2.26390   2.26648   2.26978   2.27981   2.28867
 Alpha virt. eigenvalues --    2.29090   2.29639   2.30197   2.30423   2.31512
 Alpha virt. eigenvalues --    2.31712   2.32165   2.32604   2.32704   2.32848
 Alpha virt. eigenvalues --    2.32945   2.33163   2.33782   2.34101   2.34369
 Alpha virt. eigenvalues --    2.34776   2.35407   2.35510   2.35894   2.36362
 Alpha virt. eigenvalues --    2.36735   2.36810   2.37859   2.38311   2.38375
 Alpha virt. eigenvalues --    2.39741   2.39865   2.40377   2.40833   2.41145
 Alpha virt. eigenvalues --    2.41556   2.41671   2.41703   2.42319   2.42328
 Alpha virt. eigenvalues --    2.42444   2.43022   2.43087   2.43503   2.43733
 Alpha virt. eigenvalues --    2.43969   2.44262   2.44394   2.44532   2.44988
 Alpha virt. eigenvalues --    2.45761   2.45832   2.46647   2.46828   2.47081
 Alpha virt. eigenvalues --    2.47537   2.47664   2.48732   2.48977   2.49527
 Alpha virt. eigenvalues --    2.49731   2.49983   2.51156   2.51591   2.51975
 Alpha virt. eigenvalues --    2.52240   2.52770   2.53530   2.53633   2.53732
 Alpha virt. eigenvalues --    2.54020   2.54484   2.54590   2.55089   2.55174
 Alpha virt. eigenvalues --    2.56182   2.56258   2.56289   2.56518   2.56749
 Alpha virt. eigenvalues --    2.57932   2.58075   2.58427   2.58800   2.59227
 Alpha virt. eigenvalues --    2.59603   2.60184   2.60609   2.61097   2.61313
 Alpha virt. eigenvalues --    2.61652   2.62029   2.62495   2.62753   2.63041
 Alpha virt. eigenvalues --    2.64081   2.64240   2.64326   2.64421   2.65276
 Alpha virt. eigenvalues --    2.65381   2.65564   2.65665   2.65895   2.66382
 Alpha virt. eigenvalues --    2.67709   2.68478   2.69088   2.69267   2.69790
 Alpha virt. eigenvalues --    2.70032   2.70582   2.71480   2.71584   2.72261
 Alpha virt. eigenvalues --    2.72581   2.72751   2.73062   2.73289   2.73686
 Alpha virt. eigenvalues --    2.74291   2.74677   2.75270   2.75435   2.75708
 Alpha virt. eigenvalues --    2.75804   2.76037   2.76556   2.76631   2.77061
 Alpha virt. eigenvalues --    2.77131   2.78214   2.78379   2.78634   2.79424
 Alpha virt. eigenvalues --    2.80197   2.80273   2.80454   2.80796   2.81306
 Alpha virt. eigenvalues --    2.81881   2.82007   2.82871   2.83010   2.83386
 Alpha virt. eigenvalues --    2.83642   2.84288   2.84582   2.85632   2.86281
 Alpha virt. eigenvalues --    2.86694   2.87059   2.87469   2.87598   2.88314
 Alpha virt. eigenvalues --    2.88986   2.90101   2.90676   2.90835   2.91017
 Alpha virt. eigenvalues --    2.91440   2.91811   2.92783   2.93063   2.93188
 Alpha virt. eigenvalues --    2.94636   2.94900   2.95180   2.95527   2.96063
 Alpha virt. eigenvalues --    2.96227   2.97413   2.97594   2.97932   2.98289
 Alpha virt. eigenvalues --    2.98651   2.98927   2.99105   2.99433   2.99527
 Alpha virt. eigenvalues --    2.99669   2.99996   3.00074   3.00347   3.00485
 Alpha virt. eigenvalues --    3.00567   3.01269   3.01306   3.01684   3.02136
 Alpha virt. eigenvalues --    3.02524   3.03199   3.03273   3.03947   3.04024
 Alpha virt. eigenvalues --    3.04443   3.04920   3.05280   3.05694   3.05741
 Alpha virt. eigenvalues --    3.06123   3.06307   3.06588   3.06597   3.06864
 Alpha virt. eigenvalues --    3.06976   3.07255   3.07510   3.07811   3.07909
 Alpha virt. eigenvalues --    3.08288   3.08375   3.08684   3.08914   3.09544
 Alpha virt. eigenvalues --    3.10199   3.10511   3.10909   3.11106   3.11588
 Alpha virt. eigenvalues --    3.12776   3.12834   3.13037   3.13766   3.13801
 Alpha virt. eigenvalues --    3.14111   3.15328   3.15438   3.15582   3.16170
 Alpha virt. eigenvalues --    3.16305   3.16918   3.17613   3.18853   3.19804
 Alpha virt. eigenvalues --    3.19883   3.20381   3.22986   3.23307   3.24145
 Alpha virt. eigenvalues --    3.24372   3.24808   3.25189   3.26709   3.27009
 Alpha virt. eigenvalues --    3.27439   3.28490   3.29788   3.31932   3.32167
 Alpha virt. eigenvalues --    3.32484   3.35438   3.46046   3.47065   3.48739
 Alpha virt. eigenvalues --    3.49597   3.52298   3.53623   3.59218   3.59417
 Alpha virt. eigenvalues --    3.64469   3.67190   3.70951   3.71258   3.71611
 Alpha virt. eigenvalues --    3.75502   3.81668
          Condensed to atoms (all electrons):
 Mulliken charges:
               1
     1  Mg   0.939257
     2  C    0.004539
     3  C   -0.071320
     4  C   -0.088717
     5  C   -0.089627
     6  N   -0.387666
     7  C   -0.023866
     8  C   -0.031795
     9  C   -0.117137
    10  C    0.041706
    11  C    0.028368
    12  C    0.020136
    13  C   -0.015758
    14  C    0.217313
    15  O   -0.283097
    16  O   -0.365635
    17  N   -0.424422
    18  C    0.169398
    19  C   -0.204896
    20  C   -0.085120
    21  C    0.201686
    22  C    0.103852
    23  C    0.048204
    24  O   -0.259064
    25  C   -0.017998
    26  N   -0.341690
    27  C    0.039778
    28  C   -0.114913
    29  C   -0.069357
    30  C    0.073603
    31  C    0.010325
    32  C   -0.009174
    33  C   -0.040023
    34  N   -0.461890
    35  C    0.102653
    36  C   -0.161618
    37  C    0.045302
    38  C    0.149292
    39  C    0.062315
    40  C    0.041134
    41  O   -0.166586
    42  C   -0.092042
    43  C    0.264402
    44  O   -0.265140
    45  O   -0.371810
    46  C    0.130099
    47  C    0.235044
    48  C   -0.131966
    49  C   -0.249608
    50  C    0.037447
    51  C    0.039982
    52  C    0.002010
    53  C   -0.007309
    54  C   -0.192509
    55  C   -0.000593
    56  C    0.012193
    57  C   -0.008520
    58  C   -0.029468
    59  C   -0.136690
    60  C    0.007020
    61  C    0.018755
    62  C   -0.051459
    63  C    0.028187
    64  C   -0.229175
    65  C    0.017308
    66  C   -0.032330
    67  H    0.001299
    68  H    0.002969
    69  H   -0.007547
    70  H    0.039667
    71  H    0.043350
    72  H    0.037305
    73  H    0.037697
    74  H    0.048787
    75  H    0.061260
    76  H    0.034853
    77  H    0.057148
    78  H    0.075616
    79  H    0.057254
    80  H    0.018805
    81  H    0.072532
    82  H    0.078365
    83  H    0.042918
    84  H    0.053339
    85  H    0.041479
    86  H    0.026662
    87  H    0.046001
    88  H    0.050328
    89  H    0.040597
    90  H    0.041747
    91  H    0.026463
    92  H    0.045898
    93  H    0.022518
    94  H    0.037736
    95  H    0.049698
    96  H    0.050391
    97  H    0.046508
    98  H    0.083568
    99  H    0.051438
   100  H    0.062603
   101  H    0.076826
   102  H    0.060667
   103  H    0.047467
   104  H    0.034177
   105  H    0.057312
   106  H    0.039770
   107  H    0.040409
   108  H    0.035456
   109  H    0.022839
   110  H    0.019592
   111  H    0.023225
   112  H    0.024275
   113  H    0.027326
   114  H    0.011904
   115  H    0.034668
   116  H    0.032966
   117  H    0.016493
   118  H    0.006259
   119  H    0.020533
   120  H    0.033332
   121  H    0.019254
   122  H    0.023079
   123  H    0.007324
   124  H    0.012504
   125  H    0.022619
   126  H    0.014993
   127  H    0.030094
   128  H    0.009555
   129  H    0.008669
   130  H    0.004563
   131  H    0.001819
   132  H    0.020962
   133  H    0.009982
   134  H    0.036209
   135  H    0.024776
   136  H    0.022224
   137  H    0.029671
   138  H    0.029192
   139  H    0.038732
   140  H    0.027711
 Sum of Mulliken charges =  -0.00000
 Mulliken charges with hydrogens summed into heavy atoms:
               1
     1  Mg   0.939257
     2  C    0.004539
     3  C   -0.070021
     4  C   -0.085749
     5  C   -0.097174
     6  N   -0.387666
     7  C   -0.023866
     8  C    0.007873
     9  C   -0.073787
    10  C    0.041706
    11  C    0.152158
    12  C    0.116249
    13  C    0.117006
    14  C    0.217313
    15  O   -0.283097
    16  O   -0.365635
    17  N   -0.424422
    18  C    0.169398
    19  C   -0.204896
    20  C   -0.085120
    21  C    0.201686
    22  C    0.252443
    23  C    0.048204
    24  O   -0.259064
    25  C    0.156624
    26  N   -0.341690
    27  C    0.039778
    28  C   -0.073433
    29  C   -0.042695
    30  C    0.073603
    31  C    0.147251
    32  C    0.059035
    33  C    0.066129
    34  N   -0.461890
    35  C    0.102653
    36  C   -0.161618
    37  C    0.045302
    38  C    0.149292
    39  C    0.208911
    40  C    0.041134
    41  O   -0.166586
    42  C   -0.008474
    43  C    0.264402
    44  O   -0.265140
    45  O   -0.371810
    46  C    0.320967
    47  C    0.343178
    48  C   -0.097789
    49  C   -0.249608
    50  C    0.174939
    51  C    0.098277
    52  C    0.044827
    53  C    0.044292
    54  C   -0.180605
    55  C    0.083534
    56  C    0.038985
    57  C    0.044066
    58  C    0.000934
    59  C   -0.124187
    60  C    0.074727
    61  C    0.036979
    62  C   -0.045077
    63  C    0.059131
    64  C   -0.192967
    65  C    0.093980
    66  C    0.063305
 Electronic spatial extent (au):  <R**2>=         100560.3274
 Charge=             -0.0000 electrons
 Dipole moment (field-independent basis, Debye):
    X=             -0.4897    Y=              1.0243    Z=             -0.9762  Tot=              1.4973
 Quadrupole moment (field-independent basis, Debye-Ang):
   XX=           -377.4352   YY=           -397.2081   ZZ=           -408.8218
   XY=              9.6871   XZ=              5.7185   YZ=             59.1967
 Traceless Quadrupole moment (field-independent basis, Debye-Ang):
   XX=             17.0532   YY=             -2.7197   ZZ=            -14.3334
   XY=              9.6871   XZ=              5.7185   YZ=             59.1967
 Octapole moment (field-independent basis, Debye-Ang**2):
  XXX=             35.6440  YYY=           -114.2465  ZZZ=             86.0980  XYY=             48.2365
  XXY=            -41.1437  XXZ=            -47.8568  XZZ=              5.3301  YZZ=           -101.5635
  YYZ=             44.8501  XYZ=            220.4028
 Hexadecapole moment (field-independent basis, Debye-Ang**3):
 XXXX=         -95908.5198 YYYY=         -25153.8941 ZZZZ=         -15356.0698 XXXY=            202.0970
 XXXZ=            275.2791 YYYX=           -632.4282 YYYZ=           1448.4401 ZZZX=            578.9894
 ZZZY=            962.3285 XXYY=         -19467.9267 XXZZ=         -18778.5605 YYZZ=          -7942.8825
 XXYZ=            872.8958 YYXZ=            379.8219 ZZXY=           -227.4267
 N-N= 9.771763314828D+03 E-N=-2.653711562541D+04  KE= 2.976165902662D+03
 Leave Link  601 at Thu Apr 28 16:11:42 2022, MaxMem= 10066329600 cpu:               9.8 elap:               0.5
 (Enter /sw/apps/gaussian-16.0/g16/l9999.exe)
 1\1\GINC-BP1-COMPUTE137\SP\RwB97XD TD-FC\def2SVP\C55H74Mg1N4O6\OF15641
 \28-Apr-2022\0\\#p wB97XD/Def2SVP td=(nstates=5)\\step_1601_chromophor
 e_8 TDDFT with wB97XD functional\\0,1\Mg,0,44.058,3.503,47.952\C,0,42.
 077,6.268,47.279\C,0,41.235,1.482,47.637\C,0,46.066,0.648,47.878\C,0,4
 6.881,5.422,47.589\N,0,42.004,3.858,47.558\C,0,41.37,5.088,47.38\C,0,3
 9.863,4.936,47.312\C,0,39.578,3.446,47.545\C,0,41.053,2.874,47.546\C,0
 ,38.891,3.106,48.871\C,0,39.186,5.529,46.048\C,0,39.624,4.93,44.688\C,
 0,39.579,5.876,43.511\O,0,39.751,7.112,43.559\O,0,39.157,5.238,42.389\
 N,0,43.74,1.35,47.797\C,0,42.486,0.776,47.791\C,0,42.656,-0.633,47.61\
 C,0,44.048,-0.883,47.45\C,0,44.701,0.403,47.673\C,0,41.529,-1.59,47.59
 1\C,0,44.763,-2.197,47.177\O,0,44.163,-3.283,47.178\C,0,46.185,-2.209,
 46.821\N,0,46.187,3.168,47.515\C,0,46.723,1.892,47.845\C,0,48.195,1.96
 5,48.236\C,0,48.517,3.53,48.054\C,0,47.086,4.107,47.736\C,0,48.424,1.4
 71,49.752\C,0,49.544,3.85,46.972\C,0,50.969,4.077,47.454\N,0,44.492,5.
 467,47.501\C,0,45.696,6.159,47.462\C,0,45.37,7.587,47.506\C,0,44.003,7
 .671,47.343\C,0,43.489,6.373,47.387\C,0,46.447,8.634,47.641\C,0,42.959
 ,8.564,47.154\O,0,42.973,9.752,47.056\C,0,41.631,7.691,47.174\C,0,40.9
 53,8.149,48.325\O,0,41.38,8.054,49.474\O,0,39.708,8.592,47.958\C,0,38.
 808,9.08,49.021\C,0,39.042,5.969,41.107\C,0,40.288,5.694,40.303\C,0,40
 .527,5.901,38.973\C,0,39.559,6.602,37.999\C,0,41.827,5.346,38.392\C,0,
 41.59,3.916,37.844\C,0,42.241,2.816,38.672\C,0,42.719,1.541,37.889\C,0
 ,43.011,0.314,38.879\C,0,43.902,1.866,36.95\C,0,43.627,1.714,35.42\C,0
 ,43.731,3.098,34.748\C,0,44.827,3.207,33.672\C,0,46.104,3.641,34.325\C
 ,0,44.518,4.232,32.509\C,0,43.895,3.609,31.28\C,0,43.931,4.613,30.003\
 C,0,45.048,4.111,29.064\C,0,44.532,3.255,27.944\C,0,45.672,5.447,28.45
 6\H,0,40.289,0.936,47.647\H,0,46.791,-0.129,48.128\H,0,47.726,6.093,47
 .753\H,0,39.584,5.588,48.139\H,0,39.068,3.007,46.688\H,0,37.966,2.584,
 48.624\H,0,38.67,3.998,49.458\H,0,39.441,2.461,49.556\H,0,39.33,6.609,
 46.075\H,0,38.14,5.283,46.229\H,0,39.03,4.046,44.456\H,0,40.675,4.644,
 44.735\H,0,41.326,-1.878,46.56\H,0,40.637,-1.069,47.94\H,0,41.878,-2.3
 97,48.235\H,0,46.881,-2.545,47.589\H,0,46.369,-1.242,46.352\H,0,46.323
 ,-2.84,45.942\H,0,48.803,1.329,47.591\H,0,48.8,4.081,48.951\H,0,48.6,0
 .396,49.698\H,0,47.592,1.78,50.384\H,0,49.339,1.981,50.052\H,0,49.084,
 4.666,46.414\H,0,49.69,2.93,46.406\H,0,51.651,3.267,47.194\H,0,50.952,
 4.262,48.528\H,0,51.302,5.011,47.002\H,0,47.14,8.472,48.467\H,0,46.128
 ,9.676,47.681\H,0,46.988,8.637,46.694\H,0,41.097,7.996,46.274\H,0,38.0
 2,8.327,49.036\H,0,38.427,10.02,48.621\H,0,39.286,9.24,49.988\H,0,38.9
 22,7.026,41.348\H,0,38.087,5.736,40.637\H,0,40.897,5.035,40.922\H,0,38
 .712,5.992,37.687\H,0,40.203,6.981,37.205\H,0,39.106,7.431,38.543\H,0,
 42.499,5.341,39.25\H,0,42.151,6.044,37.62\H,0,41.863,3.887,36.789\H,0,
 40.51,3.767,37.857\H,0,41.444,2.462,39.327\H,0,43.107,3.123,39.257\H,0
 ,41.902,1.15,37.283\H,0,44.014,-0.105,38.802\H,0,42.234,-0.445,38.782\
 H,0,42.885,0.726,39.881\H,0,44.695,1.133,37.097\H,0,44.366,2.79,37.297
 \H,0,42.722,1.201,35.096\H,0,44.458,1.106,35.061\H,0,43.743,3.961,35.4
 14\H,0,42.765,3.218,34.257\H,0,44.938,2.24,33.182\H,0,46.968,3.51,33.6
 74\H,0,46.249,2.984,35.183\H,0,46.174,4.683,34.638\H,0,45.331,4.881,32
 .185\H,0,43.769,4.949,32.845\H,0,42.923,3.194,31.546\H,0,44.382,2.667,
 31.029\H,0,43.971,5.675,30.245\H,0,42.982,4.496,29.481\H,0,45.808,3.52
 7,29.583\H,0,45.047,2.295,27.976\H,0,44.767,3.736,26.994\H,0,43.462,3.
 049,27.913\H,0,45.703,6.253,29.189\H,0,45.259,5.883,27.546\H,0,46.662,
 5.046,28.239\\Version=ES64L-G16RevA.03\State=1-A\HF=-3007.8659094\RMSD
 =4.223e-09\PG=C01 [X(C55H74Mg1N4O6)]\\@


 THOSE WHO ARE UNABLE TO LEARN FROM PAST MEETINGS
 ARE CONDEMNED TO REPEAT THEM.
 Job cpu time:       0 days 11 hours 30 minutes 36.9 seconds.
 Elapsed time:       0 days  0 hours 29 minutes 14.2 seconds.
 File lengths (MBytes):  RWF=   8929 Int=      0 D2E=      0 Chk=    390 Scr=      1
 Normal termination of Gaussian 16 at Thu Apr 28 16:11:42 2022.
