 Entering Gaussian System, Link 0=g16
 Initial command:
 /sw/apps/gaussian-16.0/g16/l1.exe "/tmp/Gau-17933.inp" -scrdir="/tmp/"
 Entering Link 1 = /sw/apps/gaussian-16.0/g16/l1.exe PID=     17934.
  
 Copyright (c) 1988,1990,1992,1993,1995,1998,2003,2009,2016,
            Gaussian, Inc.  All Rights Reserved.
  
 This is part of the Gaussian(R) 16 program.  It is based on
 the Gaussian(R) 09 system (copyright 2009, Gaussian, Inc.),
 the Gaussian(R) 03 system (copyright 2003, Gaussian, Inc.),
 the Gaussian(R) 98 system (copyright 1998, Gaussian, Inc.),
 the Gaussian(R) 94 system (copyright 1995, Gaussian, Inc.),
 the Gaussian 92(TM) system (copyright 1992, Gaussian, Inc.),
 the Gaussian 90(TM) system (copyright 1990, Gaussian, Inc.),
 the Gaussian 88(TM) system (copyright 1988, Gaussian, Inc.),
 the Gaussian 86(TM) system (copyright 1986, Carnegie Mellon
 University), and the Gaussian 82(TM) system (copyright 1983,
 Carnegie Mellon University). Gaussian is a federally registered
 trademark of Gaussian, Inc.
  
 This software contains proprietary and confidential information,
 including trade secrets, belonging to Gaussian, Inc.
  
 This software is provided under written license and may be
 used, copied, transmitted, or stored only in accord with that
 written license.
  
 The following legend is applicable only to US Government
 contracts under FAR:
  
                    RESTRICTED RIGHTS LEGEND
  
 Use, reproduction and disclosure by the US Government is
 subject to restrictions as set forth in subparagraphs (a)
 and (c) of the Commercial Computer Software - Restricted
 Rights clause in FAR 52.227-19.
  
 Gaussian, Inc.
 340 Quinnipiac St., Bldg. 40, Wallingford CT 06492
  
  
 ---------------------------------------------------------------
 Warning -- This program may not be used in any manner that
 competes with the business of Gaussian, Inc. or will provide
 assistance to any competitor of Gaussian, Inc.  The licensee
 of this program is prohibited from giving any competitor of
 Gaussian, Inc. access to this program.  By using this program,
 the user acknowledges that Gaussian, Inc. is engaged in the
 business of creating and licensing software in the field of
 computational chemistry and represents and warrants to the
 licensee that it is not a competitor of Gaussian, Inc. and that
 it will not use this program in any manner prohibited above.
 ---------------------------------------------------------------
  

 Cite this work as:
 Gaussian 16, Revision A.03,
 M. J. Frisch, G. W. Trucks, H. B. Schlegel, G. E. Scuseria, 
 M. A. Robb, J. R. Cheeseman, G. Scalmani, V. Barone, 
 G. A. Petersson, H. Nakatsuji, X. Li, M. Caricato, A. V. Marenich, 
 J. Bloino, B. G. Janesko, R. Gomperts, B. Mennucci, H. P. Hratchian, 
 J. V. Ortiz, A. F. Izmaylov, J. L. Sonnenberg, D. Williams-Young, 
 F. Ding, F. Lipparini, F. Egidi, J. Goings, B. Peng, A. Petrone, 
 T. Henderson, D. Ranasinghe, V. G. Zakrzewski, J. Gao, N. Rega, 
 G. Zheng, W. Liang, M. Hada, M. Ehara, K. Toyota, R. Fukuda, 
 J. Hasegawa, M. Ishida, T. Nakajima, Y. Honda, O. Kitao, H. Nakai, 
 T. Vreven, K. Throssell, J. A. Montgomery, Jr., J. E. Peralta, 
 F. Ogliaro, M. J. Bearpark, J. J. Heyd, E. N. Brothers, K. N. Kudin, 
 V. N. Staroverov, T. A. Keith, R. Kobayashi, J. Normand, 
 K. Raghavachari, A. P. Rendell, J. C. Burant, S. S. Iyengar, 
 J. Tomasi, M. Cossi, J. M. Millam, M. Klene, C. Adamo, R. Cammi, 
 J. W. Ochterski, R. L. Martin, K. Morokuma, O. Farkas, 
 J. B. Foresman, and D. J. Fox, Gaussian, Inc., Wallingford CT, 2016.
 
 ******************************************
 Gaussian 16:  ES64L-G16RevA.03 25-Dec-2016
                 4-May-2022 
 ******************************************
 %nproc=24
 Will use up to   24 processors via shared memory.
 %mem=50gb
 --------------------
 #p ZINDO=(nstates=5)
 --------------------
 1/38=1,172=1/1;
 2/12=2,17=6,18=5,40=1/2;
 3/5=2,25=1,41=400000/1,2,3,8;
 4/5=3,35=1/1;
 5/5=2,35=1,38=5/2;
 8/6=1,108=5/1;
 9/41=5,42=1,49=10/14;
 6/7=2,8=2,9=2,10=2/1;
 99/5=1,9=1/99;
 Leave Link    1 at Wed May  4 04:54:47 2022, MaxMem=  6710886400 cpu:               0.7 elap:               0.0
 (Enter /sw/apps/gaussian-16.0/g16/l101.exe)
 ------------------------------
 step_1351_chromophore_21 ZINDO
 ------------------------------
 Symbolic Z-matrix:
 Charge =  0 Multiplicity = 1
 Mg                    15.747    52.153    25.506 
 C                     17.773    51.004    28.013 
 C                     13.301    52.837    27.673 
 C                     13.967    53.424    22.988 
 C                     18.195    50.962    23.213 
 N                     15.648    51.964    27.579 
 C                     16.646    51.679    28.472 
 C                     16.243    51.98     29.882 
 C                     14.728    52.29     29.736 
 C                     14.52     52.377    28.246 
 C                     13.743    51.287    30.438 
 C                     17.123    53.063    30.527 
 C                     17.099    53.091    32.064 
 C                     16.185    52.158    32.885 
 O                     16.415    50.993    33.197 
 O                     15.034    52.795    33.313 
 N                     13.97     53.157    25.346 
 C                     13.102    53.241    26.352 
 C                     11.924    54.003    25.892 
 C                     12.113    54.247    24.494 
 C                     13.407    53.548    24.199 
 C                     10.703    54.298    26.708 
 C                     11.227    54.996    23.5 
 O                     11.473    55.074    22.308 
 C                     9.955     55.805    23.883 
 N                     15.958    51.994    23.359 
 C                     15.12     52.779    22.593 
 C                     15.68     52.903    21.176 
 C                     17.116    52.234    21.283 
 C                     17.097    51.665    22.744 
 C                     14.814    52.225    20.105 
 C                     18.323    53.086    20.883 
 C                     19.403    52.474    20.018 
 N                     17.423    50.892    25.568 
 C                     18.35     50.522    24.554 
 C                     19.474    49.745    25.138 
 C                     19.285    50.023    26.542 
 C                     17.99     50.707    26.692 
 C                     20.552    49.103    24.397 
 C                     19.765    49.659    27.828 
 O                     20.734    49.029    28.211 
 C                     18.791    50.31     28.837 
 C                     18.272    49.254    29.812 
 O                     17.357    48.46     29.671 
 O                     18.874    49.527    31.011 
 C                     18.533    48.596    32.068 
 C                     14.049    52.031    34.095 
 C                     12.705    52.78     33.941 
 C                     11.525    52.24     34.191 
 C                     11.305    50.735    34.541 
 C                     10.189    53.033    34.065 
 C                     9.482     53.515    35.371 
 C                     9.637     54.993    35.702 
 C                     8.248     55.747    35.654 
 C                     7.973     56.417    34.229 
 C                     8.272     56.864    36.787 
 C                     6.894     57.1      37.492 
 C                     6.365     58.545    37.651 
 C                     4.894     58.818    37.157 
 C                     4.848     60.176    36.39 
 C                     3.951     58.715    38.374 
 C                     2.96      57.53     38.33 
 C                     1.52      57.821    37.739 
 C                     1.053     56.892    36.532 
 C                     0.829     57.777    35.252 
 C                    -0.163     56.008    36.831 
 H                     12.504    53.068    28.383 
 H                     13.423    53.782    22.112 
 H                     18.981    50.691    22.504 
 H                     16.407    51.109    30.516 
 H                     14.351    53.189    30.223 
 H                     13.594    50.524    29.673 
 H                     12.729    51.63     30.639 
 H                     14.093    50.739    31.313 
 H                     16.662    54.025    30.303 
 H                     18.179    53.013    30.263 
 H                     16.824    54.114    32.321 
 H                     18.126    53.063    32.429 
 H                     10.535    55.371    26.617 
 H                     10.755    54.116    27.781 
 H                     9.813     53.776    26.356 
 H                     9.443     56.068    22.957 
 H                     10.288    56.811    24.14 
 H                     9.331     55.402    24.681 
 H                     15.838    53.932    20.856 
 H                     17.155    51.343    20.656 
 H                     15.345    51.433    19.576 
 H                     14.389    52.93     19.39 
 H                     14.19     51.597    20.74 
 H                     18.851    53.459    21.761 
 H                     18.058    53.977    20.313 
 H                     19.157    52.72     18.985 
 H                     19.493    51.394    20.138 
 H                     20.363    52.955    20.207 
 H                     20.149    48.141    24.08 
 H                     21.414    49.113    25.064 
 H                     20.854    49.811    23.625 
 H                     19.328    51.088    29.381 
 H                     18.874    49.029    33.009 
 H                     19.185    47.731    31.949 
 H                     17.452    48.457    32.103 
 H                     14.346    52.01     35.143 
 H                     14.009    50.99     33.774 
 H                     12.721    53.859    33.788 
 H                     10.321    50.5      34.949 
 H                     12.12     50.392    35.178 
 H                     11.403    50.346    33.527 
 H                     9.587     52.357    33.459 
 H                     10.461    53.938    33.523 
 H                     10.032    52.947    36.121 
 H                     8.459     53.17     35.222 
 H                     10.363    55.474    35.046 
 H                     10.171    55.197    36.63 
 H                     7.404     55.059    35.706 
 H                     7.637     57.454    34.244 
 H                     7.19      55.786    33.81 
 H                     8.924     56.357    33.7 
 H                     8.706     57.762    36.346 
 H                     8.898     56.594    37.637 
 H                     7.046     56.727    38.505 
 H                     6.08      56.524    37.052 
 H                     7.098     59.094    37.06 
 H                     6.539     58.771    38.703 
 H                     4.589     58.107    36.389 
 H                     3.916     60.198    35.825 
 H                     5.663     60.088    35.67 
 H                     5.025     60.979    37.104 
 H                     3.458     59.671    38.554 
 H                     4.527     58.503    39.274 
 H                     2.896     57.259    39.384 
 H                     3.402     56.792    37.66 
 H                     1.541     58.869    37.442 
 H                     0.846     57.655    38.579 
 H                     1.912     56.237    36.383 
 H                     1.79      57.963    34.773 
 H                     0.23      58.681    35.37 
 H                     0.275     57.157    34.548 
 H                    -0.452     56.181    37.868 
 H                     0.089     54.95     36.751 
 H                    -1.059     56.249    36.26 
 
 ITRead=  0  0  0  0  0  0  0  0  0  0  0  0  0  0  0  0  0  0  0  0
 ITRead=  0  0  0  0  0  0  0  0  0  0  0  0  0  0  0  0  0  0  0  0
 ITRead=  0  0  0  0  0  0  0  0  0  0  0  0  0  0  0  0  0  0  0  0
 ITRead=  0  0  0  0  0  0  0  0  0  0  0  0  0  0  0  0  0  0  0  0
 ITRead=  0  0  0  0  0  0  0  0  0  0  0  0  0  0  0  0  0  0  0  0
 ITRead=  0  0  0  0  0  0  0  0  0  0  0  0  0  0  0  0  0  0  0  0
 ITRead=  0  0  0  0  0  0  0  0  0  0  0  0  0  0  0  0  0  0  0  0
 MicOpt= -1 -1 -1 -1 -1 -1 -1 -1 -1 -1 -1 -1 -1 -1 -1 -1 -1 -1 -1 -1
 MicOpt= -1 -1 -1 -1 -1 -1 -1 -1 -1 -1 -1 -1 -1 -1 -1 -1 -1 -1 -1 -1
 MicOpt= -1 -1 -1 -1 -1 -1 -1 -1 -1 -1 -1 -1 -1 -1 -1 -1 -1 -1 -1 -1
 MicOpt= -1 -1 -1 -1 -1 -1 -1 -1 -1 -1 -1 -1 -1 -1 -1 -1 -1 -1 -1 -1
 MicOpt= -1 -1 -1 -1 -1 -1 -1 -1 -1 -1 -1 -1 -1 -1 -1 -1 -1 -1 -1 -1
 MicOpt= -1 -1 -1 -1 -1 -1 -1 -1 -1 -1 -1 -1 -1 -1 -1 -1 -1 -1 -1 -1
 MicOpt= -1 -1 -1 -1 -1 -1 -1 -1 -1 -1 -1 -1 -1 -1 -1 -1 -1 -1 -1 -1
 NAtoms=    140 NQM=      140 NQMF=       0 NMMI=      0 NMMIF=      0
                NMic=       0 NMicF=      0.
                    Isotopes and Nuclear Properties:
 (Nuclear quadrupole moments (NQMom) in fm**2, nuclear magnetic moments (NMagM)
  in nuclear magnetons)

  Atom         1           2           3           4           5           6           7           8           9          10
 IAtWgt=          24          12          12          12          12          14          12          12          12          12
 AtmWgt=  23.9850450  12.0000000  12.0000000  12.0000000  12.0000000  14.0030740  12.0000000  12.0000000  12.0000000  12.0000000
 NucSpn=           0           0           0           0           0           2           0           0           0           0
 AtZEff=  -0.0000000  -0.0000000  -0.0000000  -0.0000000  -0.0000000  -0.0000000  -0.0000000  -0.0000000  -0.0000000  -0.0000000
 NQMom=    0.0000000   0.0000000   0.0000000   0.0000000   0.0000000   2.0440000   0.0000000   0.0000000   0.0000000   0.0000000
 NMagM=    0.0000000   0.0000000   0.0000000   0.0000000   0.0000000   0.4037610   0.0000000   0.0000000   0.0000000   0.0000000
 AtZNuc=  12.0000000   6.0000000   6.0000000   6.0000000   6.0000000   7.0000000   6.0000000   6.0000000   6.0000000   6.0000000

  Atom        11          12          13          14          15          16          17          18          19          20
 IAtWgt=          12          12          12          12          16          16          14          12          12          12
 AtmWgt=  12.0000000  12.0000000  12.0000000  12.0000000  15.9949146  15.9949146  14.0030740  12.0000000  12.0000000  12.0000000
 NucSpn=           0           0           0           0           0           0           2           0           0           0
 AtZEff=  -0.0000000  -0.0000000  -0.0000000  -0.0000000  -0.0000000  -0.0000000  -0.0000000  -0.0000000  -0.0000000  -0.0000000
 NQMom=    0.0000000   0.0000000   0.0000000   0.0000000   0.0000000   0.0000000   2.0440000   0.0000000   0.0000000   0.0000000
 NMagM=    0.0000000   0.0000000   0.0000000   0.0000000   0.0000000   0.0000000   0.4037610   0.0000000   0.0000000   0.0000000
 AtZNuc=   6.0000000   6.0000000   6.0000000   6.0000000   8.0000000   8.0000000   7.0000000   6.0000000   6.0000000   6.0000000

  Atom        21          22          23          24          25          26          27          28          29          30
 IAtWgt=          12          12          12          16          12          14          12          12          12          12
 AtmWgt=  12.0000000  12.0000000  12.0000000  15.9949146  12.0000000  14.0030740  12.0000000  12.0000000  12.0000000  12.0000000
 NucSpn=           0           0           0           0           0           2           0           0           0           0
 AtZEff=  -0.0000000  -0.0000000  -0.0000000  -0.0000000  -0.0000000  -0.0000000  -0.0000000  -0.0000000  -0.0000000  -0.0000000
 NQMom=    0.0000000   0.0000000   0.0000000   0.0000000   0.0000000   2.0440000   0.0000000   0.0000000   0.0000000   0.0000000
 NMagM=    0.0000000   0.0000000   0.0000000   0.0000000   0.0000000   0.4037610   0.0000000   0.0000000   0.0000000   0.0000000
 AtZNuc=   6.0000000   6.0000000   6.0000000   8.0000000   6.0000000   7.0000000   6.0000000   6.0000000   6.0000000   6.0000000

  Atom        31          32          33          34          35          36          37          38          39          40
 IAtWgt=          12          12          12          14          12          12          12          12          12          12
 AtmWgt=  12.0000000  12.0000000  12.0000000  14.0030740  12.0000000  12.0000000  12.0000000  12.0000000  12.0000000  12.0000000
 NucSpn=           0           0           0           2           0           0           0           0           0           0
 AtZEff=  -0.0000000  -0.0000000  -0.0000000  -0.0000000  -0.0000000  -0.0000000  -0.0000000  -0.0000000  -0.0000000  -0.0000000
 NQMom=    0.0000000   0.0000000   0.0000000   2.0440000   0.0000000   0.0000000   0.0000000   0.0000000   0.0000000   0.0000000
 NMagM=    0.0000000   0.0000000   0.0000000   0.4037610   0.0000000   0.0000000   0.0000000   0.0000000   0.0000000   0.0000000
 AtZNuc=   6.0000000   6.0000000   6.0000000   7.0000000   6.0000000   6.0000000   6.0000000   6.0000000   6.0000000   6.0000000

  Atom        41          42          43          44          45          46          47          48          49          50
 IAtWgt=          16          12          12          16          16          12          12          12          12          12
 AtmWgt=  15.9949146  12.0000000  12.0000000  15.9949146  15.9949146  12.0000000  12.0000000  12.0000000  12.0000000  12.0000000
 NucSpn=           0           0           0           0           0           0           0           0           0           0
 AtZEff=  -0.0000000  -0.0000000  -0.0000000  -0.0000000  -0.0000000  -0.0000000  -0.0000000  -0.0000000  -0.0000000  -0.0000000
 NQMom=    0.0000000   0.0000000   0.0000000   0.0000000   0.0000000   0.0000000   0.0000000   0.0000000   0.0000000   0.0000000
 NMagM=    0.0000000   0.0000000   0.0000000   0.0000000   0.0000000   0.0000000   0.0000000   0.0000000   0.0000000   0.0000000
 AtZNuc=   8.0000000   6.0000000   6.0000000   8.0000000   8.0000000   6.0000000   6.0000000   6.0000000   6.0000000   6.0000000

  Atom        51          52          53          54          55          56          57          58          59          60
 IAtWgt=          12          12          12          12          12          12          12          12          12          12
 AtmWgt=  12.0000000  12.0000000  12.0000000  12.0000000  12.0000000  12.0000000  12.0000000  12.0000000  12.0000000  12.0000000
 NucSpn=           0           0           0           0           0           0           0           0           0           0
 AtZEff=  -0.0000000  -0.0000000  -0.0000000  -0.0000000  -0.0000000  -0.0000000  -0.0000000  -0.0000000  -0.0000000  -0.0000000
 NQMom=    0.0000000   0.0000000   0.0000000   0.0000000   0.0000000   0.0000000   0.0000000   0.0000000   0.0000000   0.0000000
 NMagM=    0.0000000   0.0000000   0.0000000   0.0000000   0.0000000   0.0000000   0.0000000   0.0000000   0.0000000   0.0000000
 AtZNuc=   6.0000000   6.0000000   6.0000000   6.0000000   6.0000000   6.0000000   6.0000000   6.0000000   6.0000000   6.0000000

  Atom        61          62          63          64          65          66          67          68          69          70
 IAtWgt=          12          12          12          12          12          12           1           1           1           1
 AtmWgt=  12.0000000  12.0000000  12.0000000  12.0000000  12.0000000  12.0000000   1.0078250   1.0078250   1.0078250   1.0078250
 NucSpn=           0           0           0           0           0           0           1           1           1           1
 AtZEff=  -0.0000000  -0.0000000  -0.0000000  -0.0000000  -0.0000000  -0.0000000  -0.0000000  -0.0000000  -0.0000000  -0.0000000
 NQMom=    0.0000000   0.0000000   0.0000000   0.0000000   0.0000000   0.0000000   0.0000000   0.0000000   0.0000000   0.0000000
 NMagM=    0.0000000   0.0000000   0.0000000   0.0000000   0.0000000   0.0000000   2.7928460   2.7928460   2.7928460   2.7928460
 AtZNuc=   6.0000000   6.0000000   6.0000000   6.0000000   6.0000000   6.0000000   1.0000000   1.0000000   1.0000000   1.0000000

  Atom        71          72          73          74          75          76          77          78          79          80
 IAtWgt=           1           1           1           1           1           1           1           1           1           1
 AtmWgt=   1.0078250   1.0078250   1.0078250   1.0078250   1.0078250   1.0078250   1.0078250   1.0078250   1.0078250   1.0078250
 NucSpn=           1           1           1           1           1           1           1           1           1           1
 AtZEff=  -0.0000000  -0.0000000  -0.0000000  -0.0000000  -0.0000000  -0.0000000  -0.0000000  -0.0000000  -0.0000000  -0.0000000
 NQMom=    0.0000000   0.0000000   0.0000000   0.0000000   0.0000000   0.0000000   0.0000000   0.0000000   0.0000000   0.0000000
 NMagM=    2.7928460   2.7928460   2.7928460   2.7928460   2.7928460   2.7928460   2.7928460   2.7928460   2.7928460   2.7928460
 AtZNuc=   1.0000000   1.0000000   1.0000000   1.0000000   1.0000000   1.0000000   1.0000000   1.0000000   1.0000000   1.0000000

  Atom        81          82          83          84          85          86          87          88          89          90
 IAtWgt=           1           1           1           1           1           1           1           1           1           1
 AtmWgt=   1.0078250   1.0078250   1.0078250   1.0078250   1.0078250   1.0078250   1.0078250   1.0078250   1.0078250   1.0078250
 NucSpn=           1           1           1           1           1           1           1           1           1           1
 AtZEff=  -0.0000000  -0.0000000  -0.0000000  -0.0000000  -0.0000000  -0.0000000  -0.0000000  -0.0000000  -0.0000000  -0.0000000
 NQMom=    0.0000000   0.0000000   0.0000000   0.0000000   0.0000000   0.0000000   0.0000000   0.0000000   0.0000000   0.0000000
 NMagM=    2.7928460   2.7928460   2.7928460   2.7928460   2.7928460   2.7928460   2.7928460   2.7928460   2.7928460   2.7928460
 AtZNuc=   1.0000000   1.0000000   1.0000000   1.0000000   1.0000000   1.0000000   1.0000000   1.0000000   1.0000000   1.0000000

  Atom        91          92          93          94          95          96          97          98          99         100
 IAtWgt=           1           1           1           1           1           1           1           1           1           1
 AtmWgt=   1.0078250   1.0078250   1.0078250   1.0078250   1.0078250   1.0078250   1.0078250   1.0078250   1.0078250   1.0078250
 NucSpn=           1           1           1           1           1           1           1           1           1           1
 AtZEff=  -0.0000000  -0.0000000  -0.0000000  -0.0000000  -0.0000000  -0.0000000  -0.0000000  -0.0000000  -0.0000000  -0.0000000
 NQMom=    0.0000000   0.0000000   0.0000000   0.0000000   0.0000000   0.0000000   0.0000000   0.0000000   0.0000000   0.0000000
 NMagM=    2.7928460   2.7928460   2.7928460   2.7928460   2.7928460   2.7928460   2.7928460   2.7928460   2.7928460   2.7928460
 AtZNuc=   1.0000000   1.0000000   1.0000000   1.0000000   1.0000000   1.0000000   1.0000000   1.0000000   1.0000000   1.0000000

  Atom       101         102         103         104         105         106         107         108         109         110
 IAtWgt=           1           1           1           1           1           1           1           1           1           1
 AtmWgt=   1.0078250   1.0078250   1.0078250   1.0078250   1.0078250   1.0078250   1.0078250   1.0078250   1.0078250   1.0078250
 NucSpn=           1           1           1           1           1           1           1           1           1           1
 AtZEff=  -0.0000000  -0.0000000  -0.0000000  -0.0000000  -0.0000000  -0.0000000  -0.0000000  -0.0000000  -0.0000000  -0.0000000
 NQMom=    0.0000000   0.0000000   0.0000000   0.0000000   0.0000000   0.0000000   0.0000000   0.0000000   0.0000000   0.0000000
 NMagM=    2.7928460   2.7928460   2.7928460   2.7928460   2.7928460   2.7928460   2.7928460   2.7928460   2.7928460   2.7928460
 AtZNuc=   1.0000000   1.0000000   1.0000000   1.0000000   1.0000000   1.0000000   1.0000000   1.0000000   1.0000000   1.0000000

  Atom       111         112         113         114         115         116         117         118         119         120
 IAtWgt=           1           1           1           1           1           1           1           1           1           1
 AtmWgt=   1.0078250   1.0078250   1.0078250   1.0078250   1.0078250   1.0078250   1.0078250   1.0078250   1.0078250   1.0078250
 NucSpn=           1           1           1           1           1           1           1           1           1           1
 AtZEff=  -0.0000000  -0.0000000  -0.0000000  -0.0000000  -0.0000000  -0.0000000  -0.0000000  -0.0000000  -0.0000000  -0.0000000
 NQMom=    0.0000000   0.0000000   0.0000000   0.0000000   0.0000000   0.0000000   0.0000000   0.0000000   0.0000000   0.0000000
 NMagM=    2.7928460   2.7928460   2.7928460   2.7928460   2.7928460   2.7928460   2.7928460   2.7928460   2.7928460   2.7928460
 AtZNuc=   1.0000000   1.0000000   1.0000000   1.0000000   1.0000000   1.0000000   1.0000000   1.0000000   1.0000000   1.0000000

  Atom       121         122         123         124         125         126         127         128         129         130
 IAtWgt=           1           1           1           1           1           1           1           1           1           1
 AtmWgt=   1.0078250   1.0078250   1.0078250   1.0078250   1.0078250   1.0078250   1.0078250   1.0078250   1.0078250   1.0078250
 NucSpn=           1           1           1           1           1           1           1           1           1           1
 AtZEff=  -0.0000000  -0.0000000  -0.0000000  -0.0000000  -0.0000000  -0.0000000  -0.0000000  -0.0000000  -0.0000000  -0.0000000
 NQMom=    0.0000000   0.0000000   0.0000000   0.0000000   0.0000000   0.0000000   0.0000000   0.0000000   0.0000000   0.0000000
 NMagM=    2.7928460   2.7928460   2.7928460   2.7928460   2.7928460   2.7928460   2.7928460   2.7928460   2.7928460   2.7928460
 AtZNuc=   1.0000000   1.0000000   1.0000000   1.0000000   1.0000000   1.0000000   1.0000000   1.0000000   1.0000000   1.0000000

  Atom       131         132         133         134         135         136         137         138         139         140
 IAtWgt=           1           1           1           1           1           1           1           1           1           1
 AtmWgt=   1.0078250   1.0078250   1.0078250   1.0078250   1.0078250   1.0078250   1.0078250   1.0078250   1.0078250   1.0078250
 NucSpn=           1           1           1           1           1           1           1           1           1           1
 AtZEff=  -0.0000000  -0.0000000  -0.0000000  -0.0000000  -0.0000000  -0.0000000  -0.0000000  -0.0000000  -0.0000000  -0.0000000
 NQMom=    0.0000000   0.0000000   0.0000000   0.0000000   0.0000000   0.0000000   0.0000000   0.0000000   0.0000000   0.0000000
 NMagM=    2.7928460   2.7928460   2.7928460   2.7928460   2.7928460   2.7928460   2.7928460   2.7928460   2.7928460   2.7928460
 AtZNuc=   1.0000000   1.0000000   1.0000000   1.0000000   1.0000000   1.0000000   1.0000000   1.0000000   1.0000000   1.0000000
 Leave Link  101 at Wed May  4 04:54:47 2022, MaxMem=  6710886400 cpu:               3.0 elap:               0.1
 (Enter /sw/apps/gaussian-16.0/g16/l202.exe)
 Stoichiometry    C55H74MgN4O6
 Framework group  C1[X(C55H74MgN4O6)]
 Deg. of freedom   414
 Full point group                 C1      NOp   1
 Largest Abelian subgroup         C1      NOp   1
 Largest concise Abelian subgroup C1      NOp   1
                         Standard orientation:                         
 ---------------------------------------------------------------------
 Center     Atomic      Atomic             Coordinates (Angstroms)
 Number     Number       Type             X           Y           Z
 ---------------------------------------------------------------------
      1         12           0       -4.866362    1.199988    0.030890
      2          6           0       -4.983179   -2.210819   -0.219455
      3          6           0       -1.548581    1.149791    0.400306
      4          6           0       -4.889109    4.535100    0.056930
      5          6           0       -8.424350    1.145864    0.113522
      6          7           0       -3.501684   -0.374967    0.026310
      7          6           0       -3.695934   -1.689177   -0.305044
      8          6           0       -2.403124   -2.413449   -0.517608
      9          6           0       -1.355691   -1.373128   -0.034641
     10          6           0       -2.158701   -0.110907    0.146765
     11          6           0       -0.525739   -1.763966    1.241079
     12          6           0       -2.255622   -2.945155   -1.952476
     13          6           0       -1.226050   -4.073731   -2.125756
     14          6           0       -0.345805   -4.564447   -0.957726
     15          8           0       -0.660493   -5.375648   -0.091474
     16          8           0        0.926042   -4.021552   -0.995438
     17          7           0       -3.432776    2.661523    0.040633
     18          6           0       -2.149534    2.404119    0.284656
     19          6           0       -1.400699    3.675952    0.244449
     20          6           0       -2.369533    4.718175    0.086997
     21          6           0       -3.672450    3.974935    0.095063
     22          6           0        0.067507    3.832006    0.496921
     23          6           0       -2.175476    6.229177   -0.028095
     24          8           0       -3.100337    7.021747   -0.090782
     25          6           0       -0.796310    6.937576   -0.151488
     26          7           0       -6.464221    2.634833    0.290656
     27          6           0       -6.143245    3.963275    0.097160
     28          6           0       -7.417965    4.774597   -0.134593
     29          6           0       -8.547087    3.665750   -0.263619
     30          6           0       -7.754902    2.358664    0.086542
     31          6           0       -7.728504    5.776141    0.986637
     32          6           0       -9.379752    3.652597   -1.547851
     33          6           0      -10.880363    3.485039   -1.451627
     34          7           0       -6.373500   -0.234299    0.303463
     35          6           0       -7.791027   -0.113974    0.279707
     36          6           0       -8.426141   -1.455751    0.346223
     37          6           0       -7.292266   -2.298906    0.050185
     38          6           0       -6.088037   -1.452271    0.070776
     39          6           0       -9.853603   -1.726904    0.456485
     40          6           0       -6.896061   -3.661626   -0.001841
     41          8           0       -7.510010   -4.712514    0.033521
     42          6           0       -5.362582   -3.643491   -0.198492
     43          6           0       -4.692692   -4.508812    0.868086
     44          8           0       -4.397465   -4.223552    2.016568
     45          8           0       -4.241046   -5.623117    0.213202
     46          6           0       -3.602024   -6.596333    1.076215
     47          6           0        1.882040   -4.379164    0.064575
     48          6           0        2.941553   -3.253068    0.084376
     49          6           0        3.753841   -3.020219    1.100481
     50          6           0        3.670076   -3.751916    2.476536
     51          6           0        4.839702   -1.902233    1.075293
     52          6           0        6.330543   -2.315420    0.864389
     53          6           0        6.895896   -2.070063   -0.527820
     54          6           0        8.057322   -0.997429   -0.501556
     55          6           0        7.523044    0.479236   -0.800151
     56          6           0        9.125856   -1.424095   -1.600712
     57          6           0       10.611835   -1.123892   -1.209114
     58          6           0       11.527384   -0.396763   -2.222129
     59          6           0       12.305586    0.866509   -1.692081
     60          6           0       12.255349    1.995728   -2.767679
     61          6           0       13.720825    0.418086   -1.271413
     62          6           0       14.011281    0.518774    0.243097
     63          6           0       14.710228    1.845216    0.752594
     64          6           0       13.957563    2.637520    1.911788
     65          6           0       13.549146    4.062053    1.386715
     66          6           0       14.720574    2.718727    3.238714
     67          1           0       -0.462459    1.133674    0.513217
     68          1           0       -4.975018    5.622310    0.102424
     69          1           0       -9.514562    1.151513    0.040557
     70          1           0       -2.371039   -3.316123    0.092018
     71          1           0       -0.499402   -1.186099   -0.682165
     72          1           0       -1.158142   -1.408318    2.055435
     73          1           0        0.412339   -1.238781    1.415542
     74          1           0       -0.365038   -2.820803    1.454854
     75          1           0       -1.786425   -2.155594   -2.539493
     76          1           0       -3.173459   -3.331299   -2.394968
     77          1           0       -0.552280   -3.720441   -2.906412
     78          1           0       -1.706037   -4.907368   -2.638981
     79          1           0        0.455355    4.408493   -0.342764
     80          1           0        0.676533    2.928776    0.517373
     81          1           0        0.291533    4.368165    1.419327
     82          1           0       -0.966332    8.008117   -0.033909
     83          1           0       -0.548030    6.959180   -1.213026
     84          1           0        0.032049    6.515747    0.418135
     85          1           0       -7.418664    5.331322   -1.070682
     86          1           0       -9.258767    3.767508    0.555946
     87          1           0       -8.685654    5.579994    1.470843
     88          1           0       -7.684355    6.814345    0.656399
     89          1           0       -7.076104    5.388772    1.768497
     90          1           0       -9.055847    2.857513   -2.219956
     91          1           0       -9.294034    4.569085   -2.132408
     92          1           0      -11.309407    4.486958   -1.437454
     93          1           0      -11.197509    2.925782   -0.570974
     94          1           0      -11.271939    3.017672   -2.355462
     95          1           0      -10.079126   -1.648941    1.520159
     96          1           0      -10.010475   -2.683924   -0.041046
     97          1           0      -10.348269   -1.033474   -0.223891
     98          1           0       -5.138141   -4.035038   -1.191420
     99          1           0       -3.089180   -7.315274    0.436398
    100          1           0       -4.397429   -7.193026    1.522062
    101          1           0       -2.874882   -6.098842    1.718768
    102          1           0        2.355083   -5.331851   -0.171163
    103          1           0        1.378618   -4.523082    1.020701
    104          1           0        3.163561   -2.726131   -0.843501
    105          1           0        4.544275   -3.623369    3.116220
    106          1           0        3.417130   -4.798978    2.311241
    107          1           0        2.819680   -3.195790    2.872354
    108          1           0        4.651158   -1.389675    2.017817
    109          1           0        4.576870   -1.288375    0.214555
    110          1           0        6.265153   -3.393267    1.011334
    111          1           0        6.833779   -1.791323    1.676688
    112          1           0        6.113900   -1.778809   -1.229551
    113          1           0        7.196163   -2.971746   -1.061452
    114          1           0        8.462306   -0.853488    0.500268
    115          1           0        8.085165    1.052031   -1.537996
    116          1           0        7.595689    0.965913    0.171795
    117          1           0        6.501533    0.344005   -1.155213
    118          1           0        8.814888   -0.975300   -2.544705
    119          1           0        9.165260   -2.501335   -1.759705
    120          1           0       11.053582   -2.110088   -1.065310
    121          1           0       10.709160   -0.583448   -0.267615
    122          1           0       10.804011   -0.131465   -2.993051
    123          1           0       12.164296   -1.190365   -2.612764
    124          1           0       11.795098    1.328088   -0.846672
    125          1           0       12.537132    2.926179   -2.274536
    126          1           0       11.194389    2.065485   -3.012357
    127          1           0       12.847420    1.678945   -3.625021
    128          1           0       14.474279    0.919527   -1.879894
    129          1           0       13.845363   -0.647289   -1.461638
    130          1           0       14.660599   -0.342902    0.399151
    131          1           0       13.040178    0.496980    0.738468
    132          1           0       14.825115    2.465351   -0.135768
    133          1           0       15.673743    1.511054    1.136528
    134          1           0       13.064297    2.034545    2.077933
    135          1           0       12.629325    3.979924    0.808146
    136          1           0       14.319302    4.646369    0.881368
    137          1           0       13.280672    4.644261    2.267560
    138          1           0       15.651345    2.163238    3.120755
    139          1           0       14.167557    2.231384    4.042416
    140          1           0       15.041150    3.719835    3.524987
 ---------------------------------------------------------------------
 Rotational constants (GHZ):           0.0424468           0.0102870           0.0085981
 Leave Link  202 at Wed May  4 04:54:47 2022, MaxMem=  6710886400 cpu:               0.2 elap:               0.0
 (Enter /sw/apps/gaussian-16.0/g16/l301.exe)
 Standard basis: VSTO-6G (5D, 7F)
 Ernie: Thresh=  0.10000D-02 Tol=  0.10000D-05 Strict=F.
 There are   338 symmetry adapted cartesian basis functions of A   symmetry.
 There are   338 symmetry adapted basis functions of A   symmetry.
   338 basis functions,  2028 primitive gaussians,   338 cartesian basis functions
   176 alpha electrons      176 beta electrons
       nuclear repulsion energy      4822.1701290763 Hartrees.
 IExCor=    0 DFT=F Ex=HF Corr=None ExCW=0 ScaHFX=  1.000000
 ScaDFX=  1.000000  1.000000  1.000000  1.000000 ScalE2=  1.000000  1.000000
 IRadAn=      5 IRanWt=     -1 IRanGd=            0 ICorTp=0 IEmpDi=  4
 Integral buffers will be    131072 words long.
 Regular integral format.
 Two-electron integral symmetry is turned off.
 Leave Link  301 at Wed May  4 04:54:47 2022, MaxMem=  6710886400 cpu:               1.2 elap:               0.1
 (Enter /sw/apps/gaussian-16.0/g16/l302.exe)
 Do NDO integrals.
 NPDir=0 NMtPBC=     1 NCelOv=     1 NCel=       1 NClECP=     1 NCelD=      1
         NCelK=      1 NCelE2=     1 NClLst=     1 CellRange=     0.0.
 One-electron integrals computed using PRISM.
 Generate ZINDO/S integrals.
 NDO Nuclear repulsion=  4333.123808461783 Hartrees.
 NBasis=   338 RedAO= F EigKep=  0.00D+00  NBF=   338
 NBsUse=   338 1.00D-04 EigRej=  0.00D+00 NBFU=   338
 Leave Link  302 at Wed May  4 04:54:47 2022, MaxMem=  6710886400 cpu:               8.0 elap:               0.4
 (Enter /sw/apps/gaussian-16.0/g16/l303.exe)
 DipDrv:  MaxL=1.
 DipDrv:  will hold  3 matrices at once.
 Leave Link  303 at Wed May  4 04:54:48 2022, MaxMem=  6710886400 cpu:               0.9 elap:               0.1
 (Enter /sw/apps/gaussian-16.0/g16/l308.exe)
 Leave Link  308 at Wed May  4 04:54:48 2022, MaxMem=  6710886400 cpu:               4.5 elap:               0.2
 (Enter /sw/apps/gaussian-16.0/g16/l401.exe)
 Simple Huckel Guess.
 JPrj=0 DoOrth=F DoCkMO=F.
 Leave Link  401 at Wed May  4 04:54:48 2022, MaxMem=  6710886400 cpu:               2.5 elap:               0.1
 (Enter /sw/apps/gaussian-16.0/g16/l502.exe)
 Two-electron integral symmetry not used.
 Closed shell SCF:
 Using DIIS extrapolation, IDIIS=  1040.
 Overlap will be assumed to be unity.
 NGot=  6710886400 LenX=  6710643598 LenY=  6710528913
 Requested convergence on RMS density matrix=1.00D-08 within 128 cycles.
 Requested convergence on MAX density matrix=1.00D-06.
 Requested convergence on             energy=1.00D-06.
 No special actions if energy rises.
 Fock matrices will be formed incrementally for  20 cycles.

 Cycle   1  Pass 1  IDiag  1:
 E= -472.456345141827    
 DIIS: error= 5.61D-02 at cycle   1 NSaved=   1.
 NSaved= 1 IEnMin= 1 EnMin= -472.456345141827     IErMin= 1 ErrMin= 5.61D-02
 ErrMax= 5.61D-02  0.00D+00 EMaxC= 1.00D-01 BMatC= 8.30D-01 BMatP= 8.30D-01
 IDIUse=3 WtCom= 4.39D-01 WtEn= 5.61D-01
 Coeff-Com:  0.100D+01
 Coeff-En:   0.100D+01
 Coeff:      0.100D+01
 GapD=    2.000 DampG=2.000 DampE=0.500 DampFc=1.0000 IDamp=-1.
 RMSDP=4.00D-03 MaxDP=1.69D-01              OVMax= 0.00D+00

 Cycle   2  Pass 1  IDiag  1:
 RMSU=  3.99D-03    CP:  9.95D-01
 E= -474.283624510667     Delta-E=       -1.827279368840 Rises=F Damp=F
 DIIS: error= 1.94D-02 at cycle   2 NSaved=   2.
 NSaved= 2 IEnMin= 2 EnMin= -474.283624510667     IErMin= 2 ErrMin= 1.94D-02
 ErrMax= 1.94D-02  0.00D+00 EMaxC= 1.00D-01 BMatC= 5.09D-02 BMatP= 8.30D-01
 IDIUse=3 WtCom= 8.06D-01 WtEn= 1.94D-01
 Coeff-Com: -0.786D-01 0.108D+01
 Coeff-En:   0.000D+00 0.100D+01
 Coeff:     -0.634D-01 0.106D+01
 RMSDP=1.12D-03 MaxDP=5.62D-02 DE=-1.83D+00 OVMax= 0.00D+00

 Cycle   3  Pass 1  IDiag  1:
 RMSU=  1.04D-03    CP:  9.93D-01  1.10D+00
 E= -474.385051972121     Delta-E=       -0.101427461454 Rises=F Damp=F
 DIIS: error= 7.51D-03 at cycle   3 NSaved=   3.
 NSaved= 3 IEnMin= 3 EnMin= -474.385051972121     IErMin= 3 ErrMin= 7.51D-03
 ErrMax= 7.51D-03  0.00D+00 EMaxC= 1.00D-01 BMatC= 7.05D-03 BMatP= 5.09D-02
 IDIUse=3 WtCom= 9.25D-01 WtEn= 7.51D-02
 Coeff-Com: -0.675D-01 0.243D+00 0.824D+00
 Coeff-En:   0.000D+00 0.000D+00 0.100D+01
 Coeff:     -0.625D-01 0.225D+00 0.837D+00
 RMSDP=3.93D-04 MaxDP=1.57D-02 DE=-1.01D-01 OVMax= 0.00D+00

 Cycle   4  Pass 1  IDiag  1:
 RMSU=  2.64D-04    CP:  9.93D-01  1.17D+00  9.03D-01
 E= -474.397738138120     Delta-E=       -0.012686165999 Rises=F Damp=F
 DIIS: error= 1.47D-03 at cycle   4 NSaved=   4.
 NSaved= 4 IEnMin= 4 EnMin= -474.397738138120     IErMin= 4 ErrMin= 1.47D-03
 ErrMax= 1.47D-03  0.00D+00 EMaxC= 1.00D-01 BMatC= 3.42D-04 BMatP= 7.05D-03
 IDIUse=3 WtCom= 9.85D-01 WtEn= 1.47D-02
 Coeff-Com: -0.248D-02-0.257D-01 0.623D-01 0.966D+00
 Coeff-En:   0.000D+00 0.000D+00 0.000D+00 0.100D+01
 Coeff:     -0.244D-02-0.254D-01 0.614D-01 0.966D+00
 RMSDP=1.38D-04 MaxDP=8.53D-03 DE=-1.27D-02 OVMax= 0.00D+00

 Cycle   5  Pass 1  IDiag  1:
 RMSU=  9.36D-05    CP:  9.92D-01  1.17D+00  9.98D-01  9.83D-01
 E= -474.398780030189     Delta-E=       -0.001041892069 Rises=F Damp=F
 DIIS: error= 6.04D-04 at cycle   5 NSaved=   5.
 NSaved= 5 IEnMin= 5 EnMin= -474.398780030189     IErMin= 5 ErrMin= 6.04D-04
 ErrMax= 6.04D-04  0.00D+00 EMaxC= 1.00D-01 BMatC= 6.69D-05 BMatP= 3.42D-04
 IDIUse=3 WtCom= 9.94D-01 WtEn= 6.04D-03
 Coeff-Com:  0.648D-02-0.283D-01-0.958D-01 0.208D+00 0.910D+00
 Coeff-En:   0.000D+00 0.000D+00 0.000D+00 0.000D+00 0.100D+01
 Coeff:      0.644D-02-0.281D-01-0.952D-01 0.206D+00 0.911D+00
 RMSDP=6.44D-05 MaxDP=2.98D-03 DE=-1.04D-03 OVMax= 0.00D+00

 Cycle   6  Pass 1  IDiag  1:
 RMSU=  3.40D-05    CP:  9.92D-01  1.17D+00  1.01D+00  1.18D+00  1.01D+00
 E= -474.398993881200     Delta-E=       -0.000213851011 Rises=F Damp=F
 DIIS: error= 1.68D-04 at cycle   6 NSaved=   6.
 NSaved= 6 IEnMin= 6 EnMin= -474.398993881200     IErMin= 6 ErrMin= 1.68D-04
 ErrMax= 1.68D-04  0.00D+00 EMaxC= 1.00D-01 BMatC= 7.09D-06 BMatP= 6.69D-05
 IDIUse=3 WtCom= 9.98D-01 WtEn= 1.68D-03
 Coeff-Com:  0.409D-03 0.318D-02-0.214D-01-0.870D-01 0.933D-01 0.101D+01
 Coeff-En:   0.000D+00 0.000D+00 0.000D+00 0.000D+00 0.000D+00 0.100D+01
 Coeff:      0.408D-03 0.317D-02-0.214D-01-0.869D-01 0.932D-01 0.101D+01
 RMSDP=2.63D-05 MaxDP=1.57D-03 DE=-2.14D-04 OVMax= 0.00D+00

 Cycle   7  Pass 1  IDiag  1:
 RMSU=  1.34D-05    CP:  9.92D-01  1.17D+00  1.02D+00  1.21D+00  1.20D+00
                    CP:  1.21D+00
 E= -474.399025329746     Delta-E=       -0.000031448546 Rises=F Damp=F
 DIIS: error= 9.64D-05 at cycle   7 NSaved=   7.
 NSaved= 7 IEnMin= 7 EnMin= -474.399025329746     IErMin= 7 ErrMin= 9.64D-05
 ErrMax= 9.64D-05  0.00D+00 EMaxC= 1.00D-01 BMatC= 9.88D-07 BMatP= 7.09D-06
 IDIUse=1 WtCom= 1.00D+00 WtEn= 0.00D+00
 Coeff-Com: -0.691D-03 0.377D-02 0.670D-02-0.308D-01-0.944D-01 0.998D-01
 Coeff-Com:  0.102D+01
 Coeff:     -0.691D-03 0.377D-02 0.670D-02-0.308D-01-0.944D-01 0.998D-01
 Coeff:      0.102D+01
 RMSDP=1.47D-05 MaxDP=9.25D-04 DE=-3.14D-05 OVMax= 0.00D+00

 Cycle   8  Pass 1  IDiag  1:
 RMSU=  6.50D-06    CP:  9.92D-01  1.18D+00  1.02D+00  1.22D+00  1.25D+00
                    CP:  1.49D+00  1.48D+00
 E= -474.399033484772     Delta-E=       -0.000008155026 Rises=F Damp=F
 DIIS: error= 4.74D-05 at cycle   8 NSaved=   8.
 NSaved= 8 IEnMin= 8 EnMin= -474.399033484772     IErMin= 8 ErrMin= 4.74D-05
 ErrMax= 4.74D-05  0.00D+00 EMaxC= 1.00D-01 BMatC= 3.25D-07 BMatP= 9.88D-07
 IDIUse=1 WtCom= 1.00D+00 WtEn= 0.00D+00
 Coeff-Com: -0.430D-04-0.737D-03 0.374D-02 0.186D-01-0.202D-01-0.183D+00
 Coeff-Com:  0.526D-01 0.113D+01
 Coeff:     -0.430D-04-0.737D-03 0.374D-02 0.186D-01-0.202D-01-0.183D+00
 Coeff:      0.526D-01 0.113D+01
 RMSDP=1.13D-05 MaxDP=5.67D-04 DE=-8.16D-06 OVMax= 0.00D+00

 Cycle   9  Pass 1  IDiag  1:
 RMSU=  2.79D-06    CP:  9.92D-01  1.18D+00  1.02D+00  1.23D+00  1.28D+00
                    CP:  1.64D+00  2.07D+00  1.64D+00
 E= -474.399037488586     Delta-E=       -0.000004003814 Rises=F Damp=F
 DIIS: error= 2.40D-05 at cycle   9 NSaved=   9.
 NSaved= 9 IEnMin= 9 EnMin= -474.399037488586     IErMin= 9 ErrMin= 2.40D-05
 ErrMax= 2.40D-05  0.00D+00 EMaxC= 1.00D-01 BMatC= 1.26D-07 BMatP= 3.25D-07
 IDIUse=1 WtCom= 1.00D+00 WtEn= 0.00D+00
 Coeff-Com:  0.235D-03-0.106D-02-0.284D-02 0.481D-02 0.346D-01 0.164D-01
 Coeff-Com: -0.380D+00-0.367D+00 0.169D+01
 Coeff:      0.235D-03-0.106D-02-0.284D-02 0.481D-02 0.346D-01 0.164D-01
 Coeff:     -0.380D+00-0.367D+00 0.169D+01
 RMSDP=1.37D-05 MaxDP=6.51D-04 DE=-4.00D-06 OVMax= 0.00D+00

 Cycle  10  Pass 1  IDiag  1:
 RMSU=  1.55D-06    CP:  9.92D-01  1.18D+00  1.02D+00  1.23D+00  1.31D+00
                    CP:  1.81D+00  2.73D+00  2.72D+00  2.33D+00
 E= -474.399040334593     Delta-E=       -0.000002846007 Rises=F Damp=F
 DIIS: error= 1.58D-05 at cycle  10 NSaved=  10.
 NSaved=10 IEnMin=10 EnMin= -474.399040334593     IErMin=10 ErrMin= 1.58D-05
 ErrMax= 1.58D-05  0.00D+00 EMaxC= 1.00D-01 BMatC= 3.61D-08 BMatP= 1.26D-07
 IDIUse=1 WtCom= 1.00D+00 WtEn= 0.00D+00
 Coeff-Com: -0.441D-04 0.514D-03-0.584D-03-0.883D-02 0.253D-02 0.652D-01
 Coeff-Com:  0.454D-01-0.266D+00-0.375D+00 0.154D+01
 Coeff:     -0.441D-04 0.514D-03-0.584D-03-0.883D-02 0.253D-02 0.652D-01
 Coeff:      0.454D-01-0.266D+00-0.375D+00 0.154D+01
 RMSDP=8.48D-06 MaxDP=3.60D-04 DE=-2.85D-06 OVMax= 0.00D+00

 Cycle  11  Pass 1  IDiag  1:
 RMSU=  3.42D-06    CP:  9.92D-01  1.18D+00  1.02D+00  1.24D+00  1.33D+00
                    CP:  1.90D+00  3.00D+00  3.00D+00  3.00D+00  1.98D+00
 E= -474.399041166704     Delta-E=       -0.000000832110 Rises=F Damp=F
 DIIS: error= 7.12D-06 at cycle  11 NSaved=  11.
 NSaved=11 IEnMin=11 EnMin= -474.399041166704     IErMin=11 ErrMin= 7.12D-06
 ErrMax= 7.12D-06  0.00D+00 EMaxC= 1.00D-01 BMatC= 7.91D-09 BMatP= 3.61D-08
 IDIUse=1 WtCom= 1.00D+00 WtEn= 0.00D+00
 Coeff-Com: -0.513D-04 0.243D-03 0.707D-03-0.200D-02-0.612D-02-0.165D-02
 Coeff-Com:  0.766D-01 0.112D+00-0.456D+00-0.202D-01 0.130D+01
 Coeff:     -0.513D-04 0.243D-03 0.707D-03-0.200D-02-0.612D-02-0.165D-02
 Coeff:      0.766D-01 0.112D+00-0.456D+00-0.202D-01 0.130D+01
 RMSDP=4.13D-06 MaxDP=2.07D-04 DE=-8.32D-07 OVMax= 0.00D+00

 Cycle  12  Pass 1  IDiag  1:
 RMSU=  9.63D-07    CP:  9.92D-01  1.18D+00  1.02D+00  1.24D+00  1.34D+00
                    CP:  1.94D+00  3.00D+00  3.00D+00  3.00D+00  2.76D+00
                    CP:  2.04D+00
 E= -474.399041324567     Delta-E=       -0.000000157864 Rises=F Damp=F
 DIIS: error= 4.06D-06 at cycle  12 NSaved=  12.
 NSaved=12 IEnMin=12 EnMin= -474.399041324567     IErMin=12 ErrMin= 4.06D-06
 ErrMax= 4.06D-06  0.00D+00 EMaxC= 1.00D-01 BMatC= 1.57D-09 BMatP= 7.91D-09
 IDIUse=1 WtCom= 1.00D+00 WtEn= 0.00D+00
 Coeff-Com:  0.152D-04-0.141D-03 0.140D-03 0.180D-02 0.806D-03-0.153D-01
 Coeff-Com: -0.222D-01 0.777D-01 0.108D+00-0.386D+00-0.713D-02 0.124D+01
 Coeff:      0.152D-04-0.141D-03 0.140D-03 0.180D-02 0.806D-03-0.153D-01
 Coeff:     -0.222D-01 0.777D-01 0.108D+00-0.386D+00-0.713D-02 0.124D+01
 RMSDP=1.20D-06 MaxDP=6.56D-05 DE=-1.58D-07 OVMax= 0.00D+00

 Cycle  13  Pass 1  IDiag  1:
 RMSU=  3.44D-07    CP:  9.92D-01  1.18D+00  1.02D+00  1.24D+00  1.34D+00
                    CP:  1.94D+00  3.00D+00  3.00D+00  3.00D+00  3.00D+00
                    CP:  2.32D+00  1.25D+00
 E= -474.399041341672     Delta-E=       -0.000000017105 Rises=F Damp=F
 DIIS: error= 2.20D-06 at cycle  13 NSaved=  13.
 NSaved=13 IEnMin=13 EnMin= -474.399041341672     IErMin=13 ErrMin= 2.20D-06
 ErrMax= 2.20D-06  0.00D+00 EMaxC= 1.00D-01 BMatC= 1.66D-10 BMatP= 1.57D-09
 IDIUse=1 WtCom= 1.00D+00 WtEn= 0.00D+00
 Coeff-Com:  0.972D-05-0.560D-04-0.897D-04 0.499D-03 0.144D-02-0.217D-02
 Coeff-Com: -0.159D-01-0.218D-02 0.718D-01-0.444D-01-0.164D+00 0.996D-01
 Coeff-Com:  0.106D+01
 Coeff:      0.972D-05-0.560D-04-0.897D-04 0.499D-03 0.144D-02-0.217D-02
 Coeff:     -0.159D-01-0.218D-02 0.718D-01-0.444D-01-0.164D+00 0.996D-01
 Coeff:      0.106D+01
 RMSDP=3.27D-07 MaxDP=2.01D-05 DE=-1.71D-08 OVMax= 0.00D+00

 Cycle  14  Pass 1  IDiag  1:
 RMSU=  1.30D-07    CP:  9.92D-01  1.18D+00  1.02D+00  1.24D+00  1.34D+00
                    CP:  1.95D+00  3.00D+00  3.00D+00  3.00D+00  3.00D+00
                    CP:  2.39D+00  1.33D+00  1.43D+00
 E= -474.399041343316     Delta-E=       -0.000000001643 Rises=F Damp=F
 DIIS: error= 1.19D-06 at cycle  14 NSaved=  14.
 NSaved=14 IEnMin=14 EnMin= -474.399041343316     IErMin=14 ErrMin= 1.19D-06
 ErrMax= 1.19D-06  0.00D+00 EMaxC= 1.00D-01 BMatC= 3.47D-11 BMatP= 1.66D-10
 IDIUse=1 WtCom= 1.00D+00 WtEn= 0.00D+00
 Coeff-Com: -0.332D-05 0.263D-04-0.174D-04-0.329D-03-0.849D-04 0.208D-02
 Coeff-Com:  0.460D-02-0.100D-01-0.226D-01 0.629D-01 0.167D-01-0.219D+00
 Coeff-Com: -0.113D-01 0.118D+01
 Coeff:     -0.332D-05 0.263D-04-0.174D-04-0.329D-03-0.849D-04 0.208D-02
 Coeff:      0.460D-02-0.100D-01-0.226D-01 0.629D-01 0.167D-01-0.219D+00
 Coeff:     -0.113D-01 0.118D+01
 RMSDP=9.79D-08 MaxDP=9.71D-06 DE=-1.64D-09 OVMax= 0.00D+00

 Cycle  15  Pass 1  IDiag  1:
 RMSU=  5.36D-08    CP:  9.92D-01  1.18D+00  1.02D+00  1.24D+00  1.34D+00
                    CP:  1.95D+00  3.00D+00  3.00D+00  3.00D+00  3.00D+00
                    CP:  2.39D+00  1.34D+00  1.63D+00  1.29D+00
 E= -474.399041343629     Delta-E=       -0.000000000313 Rises=F Damp=F
 DIIS: error= 5.57D-07 at cycle  15 NSaved=  15.
 NSaved=15 IEnMin=15 EnMin= -474.399041343629     IErMin=15 ErrMin= 5.57D-07
 ErrMax= 5.57D-07  0.00D+00 EMaxC= 1.00D-01 BMatC= 7.49D-12 BMatP= 3.47D-11
 IDIUse=1 WtCom= 1.00D+00 WtEn= 0.00D+00
 Coeff-Com: -0.215D-05 0.120D-04 0.222D-04-0.112D-03-0.285D-03 0.256D-03
 Coeff-Com:  0.421D-02-0.427D-03-0.161D-01 0.930D-02 0.376D-01-0.297D-01
 Coeff-Com: -0.204D+00 0.643D-02 0.119D+01
 Coeff:     -0.215D-05 0.120D-04 0.222D-04-0.112D-03-0.285D-03 0.256D-03
 Coeff:      0.421D-02-0.427D-03-0.161D-01 0.930D-02 0.376D-01-0.297D-01
 Coeff:     -0.204D+00 0.643D-02 0.119D+01
 RMSDP=6.25D-08 MaxDP=5.16D-06 DE=-3.13D-10 OVMax= 0.00D+00

 Cycle  16  Pass 1  IDiag  1:
 RMSU=  1.61D-08    CP:  9.92D-01  1.18D+00  1.02D+00  1.24D+00  1.34D+00
                    CP:  1.95D+00  3.00D+00  3.00D+00  3.00D+00  3.00D+00
                    CP:  2.40D+00  1.35D+00  1.71D+00  1.52D+00  1.67D+00
 E= -474.399041343710     Delta-E=       -0.000000000082 Rises=F Damp=F
 DIIS: error= 2.22D-07 at cycle  16 NSaved=  16.
 NSaved=16 IEnMin=16 EnMin= -474.399041343710     IErMin=16 ErrMin= 2.22D-07
 ErrMax= 2.22D-07  0.00D+00 EMaxC= 1.00D-01 BMatC= 2.12D-12 BMatP= 7.49D-12
 IDIUse=1 WtCom= 1.00D+00 WtEn= 0.00D+00
 Coeff-Com:  0.123D-05-0.851D-05 0.909D-06 0.895D-04 0.946D-04-0.645D-03
 Coeff-Com: -0.113D-02 0.763D-03 0.937D-02-0.151D-01-0.922D-02 0.439D-01
 Coeff-Com:  0.556D-01-0.231D+00-0.336D+00 0.148D+01
 Coeff:      0.123D-05-0.851D-05 0.909D-06 0.895D-04 0.946D-04-0.645D-03
 Coeff:     -0.113D-02 0.763D-03 0.937D-02-0.151D-01-0.922D-02 0.439D-01
 Coeff:      0.556D-01-0.231D+00-0.336D+00 0.148D+01
 RMSDP=4.06D-08 MaxDP=2.88D-06 DE=-8.19D-11 OVMax= 0.00D+00

 Cycle  17  Pass 1  IDiag  1:
 RMSU=  1.19D-08    CP:  9.92D-01  1.18D+00  1.02D+00  1.24D+00  1.34D+00
                    CP:  1.95D+00  3.00D+00  3.00D+00  3.00D+00  3.00D+00
                    CP:  2.40D+00  1.34D+00  1.74D+00  1.63D+00  2.18D+00
                    CP:  2.03D+00
 E= -474.399041343769     Delta-E=       -0.000000000058 Rises=F Damp=F
 DIIS: error= 6.89D-08 at cycle  17 NSaved=  17.
 NSaved=17 IEnMin=17 EnMin= -474.399041343769     IErMin=17 ErrMin= 6.89D-08
 ErrMax= 6.89D-08  0.00D+00 EMaxC= 1.00D-01 BMatC= 8.72D-13 BMatP= 2.12D-12
 IDIUse=1 WtCom= 1.00D+00 WtEn= 0.00D+00
 Coeff-Com:  0.256D-06-0.138D-05-0.351D-05 0.764D-05 0.642D-04-0.124D-03
 Coeff-Com: -0.199D-03-0.782D-03 0.257D-02-0.133D-02-0.294D-02-0.347D-02
 Coeff-Com:  0.342D-01 0.236D-01-0.201D+00-0.487D-01 0.120D+01
 Coeff:      0.256D-06-0.138D-05-0.351D-05 0.764D-05 0.642D-04-0.124D-03
 Coeff:     -0.199D-03-0.782D-03 0.257D-02-0.133D-02-0.294D-02-0.347D-02
 Coeff:      0.342D-01 0.236D-01-0.201D+00-0.487D-01 0.120D+01
 RMSDP=2.26D-08 MaxDP=9.87D-07 DE=-5.82D-11 OVMax= 0.00D+00

 Cycle  18  Pass 1  IDiag  1:
 RMSU=  4.12D-09    CP:  9.92D-01  1.18D+00  1.02D+00  1.24D+00  1.34D+00
                    CP:  1.95D+00  3.00D+00  3.00D+00  3.00D+00  3.00D+00
                    CP:  2.40D+00  1.34D+00  1.74D+00  1.69D+00  2.37D+00
                    CP:  2.75D+00  1.91D+00
 E= -474.399041343751     Delta-E=        0.000000000017 Rises=F Damp=F
 DIIS: error= 4.71D-08 at cycle  18 NSaved=  18.
 NSaved=18 IEnMin=17 EnMin= -474.399041343769     IErMin=18 ErrMin= 4.71D-08
 ErrMax= 4.71D-08  0.00D+00 EMaxC= 1.00D-01 BMatC= 5.15D-13 BMatP= 8.72D-13
 IDIUse=1 WtCom= 1.00D+00 WtEn= 0.00D+00
 Coeff-Com: -0.676D-06 0.447D-05 0.115D-05-0.502D-04-0.309D-04 0.200D-03
 Coeff-Com:  0.104D-02-0.785D-03-0.451D-02 0.629D-02 0.862D-02-0.249D-01
 Coeff-Com: -0.320D-01 0.981D-01 0.207D+00-0.597D+00-0.682D+00 0.202D+01
 Coeff:     -0.676D-06 0.447D-05 0.115D-05-0.502D-04-0.309D-04 0.200D-03
 Coeff:      0.104D-02-0.785D-03-0.451D-02 0.629D-02 0.862D-02-0.249D-01
 Coeff:     -0.320D-01 0.981D-01 0.207D+00-0.597D+00-0.682D+00 0.202D+01
 RMSDP=3.23D-08 MaxDP=1.39D-06 DE= 1.73D-11 OVMax= 0.00D+00

 Cycle  19  Pass 1  IDiag  1:
 RMSU=  1.42D-08    CP:  9.92D-01  1.18D+00  1.02D+00  1.24D+00  1.34D+00
                    CP:  1.95D+00  3.00D+00  3.00D+00  3.00D+00  3.00D+00
                    CP:  2.40D+00  1.34D+00  1.75D+00  1.75D+00  2.61D+00
                    CP:  3.00D+00  3.00D+00  2.83D+00
 E= -474.399041343787     Delta-E=       -0.000000000035 Rises=F Damp=F
 DIIS: error= 3.65D-08 at cycle  19 NSaved=  19.
 NSaved=19 IEnMin=19 EnMin= -474.399041343787     IErMin=19 ErrMin= 3.65D-08
 ErrMax= 3.65D-08  0.00D+00 EMaxC= 1.00D-01 BMatC= 2.13D-13 BMatP= 5.15D-13
 IDIUse=1 WtCom= 1.00D+00 WtEn= 0.00D+00
 Coeff-Com:  0.281D-07-0.413D-06 0.294D-05 0.414D-05-0.755D-05-0.799D-04
 Coeff-Com:  0.699D-04 0.256D-03 0.879D-04-0.169D-02 0.136D-02 0.596D-02
 Coeff-Com: -0.479D-02-0.531D-01 0.424D-01 0.283D+00-0.585D+00-0.639D+00
 Coeff-Com:  0.195D+01
 Coeff:      0.281D-07-0.413D-06 0.294D-05 0.414D-05-0.755D-05-0.799D-04
 Coeff:      0.699D-04 0.256D-03 0.879D-04-0.169D-02 0.136D-02 0.596D-02
 Coeff:     -0.479D-02-0.531D-01 0.424D-01 0.283D+00-0.585D+00-0.639D+00
 Coeff:      0.195D+01
 RMSDP=3.31D-08 MaxDP=1.39D-06 DE=-3.55D-11 OVMax= 0.00D+00

 Cycle  20  Pass 1  IDiag  1:
 RMSU=  1.43D-08    CP:  9.92D-01  1.18D+00  1.02D+00  1.24D+00  1.34D+00
                    CP:  1.95D+00  3.00D+00  3.00D+00  3.00D+00  3.00D+00
                    CP:  2.40D+00  1.33D+00  1.75D+00  1.81D+00  2.83D+00
                    CP:  3.00D+00  3.00D+00  3.00D+00  2.62D+00
 E= -474.399041343787     Delta-E=        0.000000000000 Rises=F Damp=F
 DIIS: error= 1.98D-08 at cycle  20 NSaved=  20.
 NSaved=20 IEnMin=19 EnMin= -474.399041343787     IErMin=20 ErrMin= 1.98D-08
 ErrMax= 1.98D-08  0.00D+00 EMaxC= 1.00D-01 BMatC= 4.54D-14 BMatP= 2.13D-13
 IDIUse=1 WtCom= 1.00D+00 WtEn= 0.00D+00
 Large coefficients: NSaved= 20 BigCof=    0.00 CofMax=   10.00 Det=-8.71D-15
 Inversion failed.  Reducing to 19 matrices.
 Large coefficients: NSaved= 19 BigCof=    0.00 CofMax=   10.00 Det=-8.72D-15
 Inversion failed.  Reducing to 18 matrices.
 Large coefficients: NSaved= 18 BigCof=    0.00 CofMax=   10.00 Det=-8.79D-15
 Inversion failed.  Reducing to 17 matrices.
 Coeff-Com: -0.145D-05 0.432D-05 0.388D-05-0.135D-04-0.653D-04 0.145D-03
 Coeff-Com:  0.110D-03-0.606D-03-0.473D-03 0.630D-02-0.368D-02-0.367D-01
 Coeff-Com:  0.416D-01 0.292D+00-0.434D+00-0.309D+00 0.144D+01
 Coeff:     -0.145D-05 0.432D-05 0.388D-05-0.135D-04-0.653D-04 0.145D-03
 Coeff:      0.110D-03-0.606D-03-0.473D-03 0.630D-02-0.368D-02-0.367D-01
 Coeff:      0.416D-01 0.292D+00-0.434D+00-0.309D+00 0.144D+01
 RMSDP=1.43D-08 MaxDP=6.44D-07 DE= 0.00D+00 OVMax= 0.00D+00

 Cycle  21  Pass 1  IDiag  1:
 Restarting incremental Fock formation.
 E= -474.399041343784     Delta-E=        0.000000000003 Rises=F Damp=F
 DIIS: error= 1.08D-08 at cycle  21 NSaved=  18.
 NSaved=18 IEnMin=16 EnMin= -474.399041343787     IErMin=18 ErrMin= 1.08D-08
 ErrMax= 1.08D-08  0.00D+00 EMaxC= 1.00D-01 BMatC= 7.15D-15 BMatP= 4.54D-14
 IDIUse=1 WtCom= 1.00D+00 WtEn= 0.00D+00
 Large coefficients: NSaved= 18 BigCof=    0.00 CofMax=   10.00 Det=-7.66D-15
 Inversion failed.  Reducing to 17 matrices.
 Large coefficients: NSaved= 17 BigCof=    0.00 CofMax=   10.00 Det=-7.67D-15
 Inversion failed.  Reducing to 16 matrices.
 Large coefficients: NSaved= 16 BigCof=    0.00 CofMax=   10.00 Det=-7.72D-15
 Inversion failed.  Reducing to 15 matrices.
 Coeff-Com: -0.403D-05-0.120D-05 0.159D-04 0.495D-04-0.205D-03-0.596D-03
 Coeff-Com:  0.260D-02 0.451D-02-0.133D-01-0.353D-01 0.187D+00 0.128D-01
 Coeff-Com: -0.458D+00 0.150D+00 0.115D+01
 Coeff:     -0.403D-05-0.120D-05 0.159D-04 0.495D-04-0.205D-03-0.596D-03
 Coeff:      0.260D-02 0.451D-02-0.133D-01-0.353D-01 0.187D+00 0.128D-01
 Coeff:     -0.458D+00 0.150D+00 0.115D+01
 RMSDP=5.52D-09 MaxDP=2.69D-07 DE= 2.73D-12 OVMax= 0.00D+00

 SCF Done:  E(RZINDO/S) =  -474.399041344     A.U. after   21 cycles
            NFock= 21  Conv=0.55D-08     -V/T= 0.9492
 KE=-9.340796933648D+03 PE= 7.372691470664D-07 EE= 4.533274083106D+03
 Leave Link  502 at Wed May  4 04:54:49 2022, MaxMem=  6710886400 cpu:              23.4 elap:               1.0
 (Enter /sw/apps/gaussian-16.0/g16/l801.exe)
 Range of M.O.s used for correlation:     1   338
 NBasis=   338 NAE=   176 NBE=   176 NFC=     0 NFV=     0
 NROrb=    338 NOA=   176 NOB=   176 NVA=   162 NVB=   162
 Leave Link  801 at Wed May  4 04:54:49 2022, MaxMem=  6710886400 cpu:               0.5 elap:               0.0
 (Enter /sw/apps/gaussian-16.0/g16/l914.exe)
 RHF ground state
 Two-electron integral symmetry not used.
 MDV=  6710886400 DFT=F DoStab=F Mixed=F DoRPA=F DoScal=F NonHer=F
 Making orbital integer symmetry assigments:
 Orbital symmetries:
       Occupied  (A) (A) (A) (A) (A) (A) (A) (A) (A) (A) (A) (A)
                 (A) (A) (A) (A) (A) (A) (A) (A) (A) (A) (A) (A)
                 (A) (A) (A) (A) (A) (A) (A) (A) (A) (A) (A) (A)
                 (A) (A) (A) (A) (A) (A) (A) (A) (A) (A) (A) (A)
                 (A) (A) (A) (A) (A) (A) (A) (A) (A) (A) (A) (A)
                 (A) (A) (A) (A) (A) (A) (A) (A) (A) (A) (A) (A)
                 (A) (A) (A) (A) (A) (A) (A) (A) (A) (A) (A) (A)
                 (A) (A) (A) (A) (A) (A) (A) (A) (A) (A) (A) (A)
                 (A) (A) (A) (A) (A) (A) (A) (A) (A) (A) (A) (A)
                 (A) (A) (A) (A) (A) (A) (A) (A) (A) (A) (A) (A)
                 (A) (A) (A) (A) (A) (A) (A) (A) (A) (A) (A) (A)
                 (A) (A) (A) (A) (A) (A) (A) (A) (A) (A) (A) (A)
                 (A) (A) (A) (A) (A) (A) (A) (A) (A) (A) (A) (A)
                 (A) (A) (A) (A) (A) (A) (A) (A) (A) (A) (A) (A)
                 (A) (A) (A) (A) (A) (A) (A) (A)
       Virtual   (A) (A) (A) (A) (A) (A) (A) (A) (A) (A) (A) (A)
                 (A) (A) (A) (A) (A) (A) (A) (A) (A) (A) (A) (A)
                 (A) (A) (A) (A) (A) (A) (A) (A) (A) (A) (A) (A)
                 (A) (A) (A) (A) (A) (A) (A) (A) (A) (A) (A) (A)
                 (A) (A) (A) (A) (A) (A) (A) (A) (A) (A) (A) (A)
                 (A) (A) (A) (A) (A) (A) (A) (A) (A) (A) (A) (A)
                 (A) (A) (A) (A) (A) (A) (A) (A) (A) (A) (A) (A)
                 (A) (A) (A) (A) (A) (A) (A) (A) (A) (A) (A) (A)
                 (A) (A) (A) (A) (A) (A) (A) (A) (A) (A) (A) (A)
                 (A) (A) (A) (A) (A) (A) (A) (A) (A) (A) (A) (A)
                 (A) (A) (A) (A) (A) (A) (A) (A) (A) (A) (A) (A)
                 (A) (A) (A) (A) (A) (A) (A) (A) (A) (A) (A) (A)
                 (A) (A) (A) (A) (A) (A) (A) (A) (A) (A) (A) (A)
                 (A) (A) (A) (A) (A) (A)
    20 initial guesses have been made.
 Convergence on wavefunction:    0.001000000000000
 Davidson Disk Diagonalization:  ConvIn= 1.00D-03 SkipCon=T Conv= 1.00D-03.
 Max sub-space:  2000 roots to seek:    20 dimension of matrix:        57024
 Iteration     1 Dimension    20 NMult     0 NNew     20
 CISAX will form    20 AO SS matrices at one time.
 NMat=    20 NSing=    20 JSym2X= 0.
 New state      3 was old state      4
 New state      4 was old state      3
 New state      5 was old state      9
 Excitation Energies [eV] at current iteration:
 Root      1 :     1.598187906586545
 Root      2 :     2.132672605983295
 Root      3 :     3.094229465597762
 Root      4 :     3.325041833846046
 Root      5 :     3.410361680114727
 Root      6 :     3.572735824632335
 Root      7 :     3.614165303798099
 Root      8 :     3.707146040828562
 Root      9 :     3.937717169477803
 Root     10 :     4.091060462766024
 Root     11 :     4.115869067038602
 Root     12 :     4.191906759770879
 Root     13 :     4.262798789582632
 Root     14 :     4.396044204697704
 Root     15 :     4.439492343204060
 Root     16 :     4.473652211835866
 Root     17 :     4.607341645591971
 Root     18 :     4.772514489522263
 Root     19 :     5.341534919380690
 Root     20 :     5.554507013412246
 Iteration     2 Dimension    40 NMult    20 NNew     20
 CISAX will form    20 AO SS matrices at one time.
 NMat=    20 NSing=    20 JSym2X= 0.
 Root      1 not converged, maximum delta is    0.039813846005573
 Root      2 not converged, maximum delta is    0.028082238139386
 Root      3 not converged, maximum delta is    0.062038095286516
 Root      4 not converged, maximum delta is    0.185947463816591
 New state      5 was old state      7
 Root      5 not converged, maximum delta is    0.321281838676356
 Excitation Energies [eV] at current iteration:
 Root      1 :     1.241565681434432   Change is   -0.356622225152112
 Root      2 :     1.946496589803047   Change is   -0.186176016180247
 Root      3 :     2.855357790587064   Change is   -0.238871675010698
 Root      4 :     2.973030272215448   Change is   -0.352011561630598
 Root      5 :     3.320817266743350   Change is   -0.293348037054749
 Root      6 :     3.370775715430225   Change is   -0.039585964684502
 Root      7 :     3.409699830092426   Change is   -0.297446210736136
 Root      8 :     3.428124624955962   Change is   -0.144611199676373
 Root      9 :     3.555856854945570   Change is   -0.840187349752134
 Root     10 :     3.685082299437199   Change is   -0.252634870040604
 Root     11 :     3.744834304577329   Change is   -0.371034762461273
 Root     12 :     3.804196711990219   Change is   -0.968317777532044
 Root     13 :     3.856411697294245   Change is   -0.335495062476635
 Root     14 :     3.989618944684070   Change is   -0.101441518081954
 Root     15 :     4.126712290486988   Change is   -0.312780052717072
 Root     16 :     4.209976303890071   Change is   -0.052822485692562
 Root     17 :     4.246755401783907   Change is   -0.226896810051959
 Root     18 :     4.309837734760447   Change is   -0.297503910831524
 Root     19 :     5.329568895999900   Change is   -0.011966023380790
 Root     20 :     5.533542389045106   Change is   -0.020964624367140
 Iteration     3 Dimension    45 NMult    40 NNew      5
 CISAX will form     5 AO SS matrices at one time.
 NMat=     5 NSing=     5 JSym2X= 0.
 Root      1 not converged, maximum delta is    0.012061285033401
 Root      2 not converged, maximum delta is    0.019443485269320
 Root      3 not converged, maximum delta is    0.022529400828813
 Root      4 not converged, maximum delta is    0.014936499197753
 Root      5 not converged, maximum delta is    0.117219989407230
 Excitation Energies [eV] at current iteration:
 Root      1 :     1.224167791077229   Change is   -0.017397890357204
 Root      2 :     1.919761243938870   Change is   -0.026735345864177
 Root      3 :     2.820533065398878   Change is   -0.034824725188187
 Root      4 :     2.954117228890253   Change is   -0.018913043325196
 Root      5 :     3.247604726227145   Change is   -0.073212540516205
 Iteration     4 Dimension    50 NMult    45 NNew      5
 CISAX will form     5 AO SS matrices at one time.
 NMat=     5 NSing=     5 JSym2X= 0.
 Root      1 not converged, maximum delta is    0.001951018888297
 Root      2 not converged, maximum delta is    0.003329420654429
 Root      3 not converged, maximum delta is    0.031409671993138
 Root      4 not converged, maximum delta is    0.006535922262424
 Root      5 not converged, maximum delta is    0.320905311989068
 Excitation Energies [eV] at current iteration:
 Root      1 :     1.223393000312806   Change is   -0.000774790764422
 Root      2 :     1.918959151706203   Change is   -0.000802092232667
 Root      3 :     2.814057106084405   Change is   -0.006475959314473
 Root      4 :     2.950930473227678   Change is   -0.003186755662574
 Root      5 :     3.065357834006166   Change is   -0.182246892220980
 Iteration     5 Dimension    55 NMult    50 NNew      5
 CISAX will form     5 AO SS matrices at one time.
 NMat=     5 NSing=     5 JSym2X= 0.
 Root      1 has converged.
 Root      2 has converged.
 Root      3 not converged, maximum delta is    0.018813721378644
 Root      4 not converged, maximum delta is    0.009614411095286
 Root      5 not converged, maximum delta is    0.069221351427587
 Excitation Energies [eV] at current iteration:
 Root      1 :     1.223343172714738   Change is   -0.000049827598068
 Root      2 :     1.918908915691357   Change is   -0.000050236014847
 Root      3 :     2.811280083432971   Change is   -0.002777022651434
 Root      4 :     2.949891235006004   Change is   -0.001039238221675
 Root      5 :     2.994728073638505   Change is   -0.070629760367660
 Iteration     6 Dimension    58 NMult    55 NNew      3
 CISAX will form     3 AO SS matrices at one time.
 NMat=     3 NSing=     3 JSym2X= 0.
 Root      1 has converged.
 Root      2 has converged.
 Root      3 not converged, maximum delta is    0.004871449217486
 Root      4 not converged, maximum delta is    0.034600800320863
 Root      5 not converged, maximum delta is    0.012955655334334
 Excitation Energies [eV] at current iteration:
 Root      1 :     1.223342842298051   Change is   -0.000000330416687
 Root      2 :     1.918907992858703   Change is   -0.000000922832654
 Root      3 :     2.810721203372612   Change is   -0.000558880060359
 Root      4 :     2.948078242704308   Change is   -0.001812992301696
 Root      5 :     2.984912018158678   Change is   -0.009816055479827
 Iteration     7 Dimension    61 NMult    58 NNew      3
 CISAX will form     3 AO SS matrices at one time.
 NMat=     3 NSing=     3 JSym2X= 0.
 Root      1 has converged.
 Root      2 has converged.
 Root      3 not converged, maximum delta is    0.005819514756043
 Root      4 not converged, maximum delta is    0.141026431332260
 Root      5 not converged, maximum delta is    0.250428728799302
 Excitation Energies [eV] at current iteration:
 Root      1 :     1.223342584004223   Change is   -0.000000258293828
 Root      2 :     1.918907586309254   Change is   -0.000000406549449
 Root      3 :     2.810589755905015   Change is   -0.000131447467597
 Root      4 :     2.940685661120439   Change is   -0.007392581583869
 Root      5 :     2.979955259467664   Change is   -0.004956758691014
 Iteration     8 Dimension    64 NMult    61 NNew      3
 CISAX will form     3 AO SS matrices at one time.
 NMat=     3 NSing=     3 JSym2X= 0.
 Root      1 has converged.
 Root      2 has converged.
 Root      3 not converged, maximum delta is    0.001954833775399
 Root      4 not converged, maximum delta is    0.083083227019439
 Root      5 not converged, maximum delta is    0.155506826887917
 Excitation Energies [eV] at current iteration:
 Root      1 :     1.223342524577994   Change is   -0.000000059426229
 Root      2 :     1.918907507827144   Change is   -0.000000078482110
 Root      3 :     2.810554251448905   Change is   -0.000035504456110
 Root      4 :     2.933785346347843   Change is   -0.006900314772596
 Root      5 :     2.967407792342276   Change is   -0.012547467125388
 Iteration     9 Dimension    67 NMult    64 NNew      3
 CISAX will form     3 AO SS matrices at one time.
 NMat=     3 NSing=     3 JSym2X= 0.
 Root      1 has converged.
 Root      2 has converged.
 Root      3 has converged.
 Root      4 not converged, maximum delta is    0.014655926779450
 Root      5 not converged, maximum delta is    0.012655768792325
 Excitation Energies [eV] at current iteration:
 Root      1 :     1.223342516530472   Change is   -0.000000008047522
 Root      2 :     1.918907372404209   Change is   -0.000000135422935
 Root      3 :     2.810548155366226   Change is   -0.000006096082678
 Root      4 :     2.932459489401038   Change is   -0.001325856946805
 Root      5 :     2.965981057197799   Change is   -0.001426735144477
 Iteration    10 Dimension    69 NMult    67 NNew      2
 CISAX will form     2 AO SS matrices at one time.
 NMat=     2 NSing=     2 JSym2X= 0.
 Root      1 has converged.
 Root      2 has converged.
 Root      3 has converged.
 Root      4 not converged, maximum delta is    0.002009171532130
 Root      5 not converged, maximum delta is    0.001623437120861
 Excitation Energies [eV] at current iteration:
 Root      1 :     1.223342510392532   Change is   -0.000000006137939
 Root      2 :     1.918907165718243   Change is   -0.000000206685966
 Root      3 :     2.810547413926803   Change is   -0.000000741439423
 Root      4 :     2.932279684675888   Change is   -0.000179804725150
 Root      5 :     2.965800236399272   Change is   -0.000180820798526
 Iteration    11 Dimension    71 NMult    69 NNew      2
 CISAX will form     2 AO SS matrices at one time.
 NMat=     2 NSing=     2 JSym2X= 0.
 Root      1 has converged.
 Root      2 has converged.
 Root      3 has converged.
 Root      4 has converged.
 Root      5 has converged.
 Excitation Energies [eV] at current iteration:
 Root      1 :     1.223342500729529   Change is   -0.000000009663003
 Root      2 :     1.918907103033584   Change is   -0.000000062684660
 Root      3 :     2.810547243962367   Change is   -0.000000169964436
 Root      4 :     2.932248674159554   Change is   -0.000031010516334
 Root      5 :     2.965768982572074   Change is   -0.000031253827198
 Convergence achieved on expansion vectors.
 ***********************************************************************
 Excited states from <AA,BB:AA,BB> singles matrix:
 ***********************************************************************
 
 1PDM for each excited state written to RWF  633
 Ground to excited state transition densities written to RWF  633
 Ground to excited state transition electric dipole moments (Au):
       state          X           Y           Z        Dip. S.      Osc.
         1        -3.4421     -2.9257     -0.0812     20.4143      0.6118
         2         0.1002      0.0710     -0.0447      0.0171      0.0008
         3        -0.3839      0.1219      0.1452      0.1833      0.0126
         4         1.4467     -1.8677     -0.0784      5.5874      0.4014
         5         1.7357     -2.5770     -0.0573      9.6570      0.7017
 Ground to excited state transition velocity dipole moments (Au):
       state          X           Y           Z        Dip. S.      Osc.
         1        -0.0692     -0.0190      0.0064      0.0052      0.0769
         2         0.0001     -0.0095      0.0032      0.0001      0.0009
         3        -0.0015     -0.0100     -0.0050      0.0001      0.0008
         4        -0.0558      0.0466     -0.0067      0.0053      0.0329
         5        -0.0621      0.0800     -0.0043      0.0103      0.0629
 Ground to excited state transition magnetic dipole moments (Au):
       state          X           Y           Z
         1         0.0057      0.1524     -0.3067
         2         0.0213      0.0558     -0.1225
         3        -0.0827     -0.3051     -0.3387
         4         0.4161     -0.4049     -0.3328
         5        -0.3307      0.1689     -0.6085
 Ground to excited state transition velocity quadrupole moments (Au):
       state          XX          YY          ZZ          XY          XZ          YZ
         1         1.4651     -0.0279     -0.0218      0.2165     -0.1024      0.0447
         2        -0.0208     -0.0912      0.0088      0.0124     -0.0125      0.0012
         3         0.3969     -0.3269      0.0572     -0.5656      0.0266      0.0288
         4         0.9076     -0.1085     -0.0152     -0.6488      0.0825     -0.0718
         5         1.0324      0.0769     -0.0234     -0.8796      0.1435      0.0245
 <0|del|b> * <b|rxdel|0> + <0|del|b> * <b|delr+rdel|0>
 Rotatory Strengths (R) in cgs (10**-40 erg-esu-cm/Gauss)
       state          XX          YY          ZZ    R(velocity)    E-M Angle
         1       -42.6589    -53.7601     13.7357    -27.5611      102.30
         2        -5.0172     -2.1652     -2.0501     -3.0775      132.48
         3        26.9321     -3.6457     10.0717     11.1194       21.14
         4       -52.9627    -69.9327   -138.5651    -87.1535      144.68
         5        27.2645     57.8941    152.6486     79.2691       59.52
 1/2[<0|r|b>*<b|rxdel|0> + (<0|rxdel|b>*<b|r|0>)*]
 Rotatory Strengths (R) in cgs (10**-40 erg-esu-cm/Gauss)
       state          XX          YY          ZZ     R(length)
         1        13.7870    315.2471    -17.6063    103.8093
         2        -1.5125     -2.8036     -3.8767     -2.7310
         3       -22.4587     26.3077     34.7887     12.8792
         4      -425.7220   -534.7668    -18.4467   -326.3119
         5       405.9554    307.7708    -24.6487    229.6925
  1/2[<0|del|b>*<b|r|0> + (<0|r|b>*<b|del|0>)*] (Au)
       state          X           Y           Z        Dip. S.   Osc.(frdel)
         1         0.2381      0.0557     -0.0005     -0.2932     -0.1955
         2         0.0000     -0.0007     -0.0001      0.0008      0.0005
         3         0.0006     -0.0012     -0.0007      0.0014      0.0009
         4        -0.0807     -0.0870      0.0005      0.1671      0.1114
         5        -0.1077     -0.2062      0.0002      0.3137      0.2092

 Excitation energies and oscillator strengths:
 
 Excited State   1:      Singlet-A      1.2233 eV 1013.49 nm  f=0.6118  <S**2>=0.000
     175 ->178         0.19396
     176 ->177         0.66227
 This state for optimization and/or second-order correction.
 Total Energy, E(CIS/TDA) =  -474.354084334    
 Copying the excited state density for this state as the 1-particle RhoCI density.
 
 Excited State   2:      Singlet-A      1.9189 eV  646.12 nm  f=0.0008  <S**2>=0.000
     175 ->177        -0.46900
     176 ->178         0.51055
 
 Excited State   3:      Singlet-A      2.8105 eV  441.14 nm  f=0.0126  <S**2>=0.000
     176 ->179         0.63426
 
 Excited State   4:      Singlet-A      2.9322 eV  422.83 nm  f=0.4014  <S**2>=0.000
     168 ->177         0.21489
     168 ->179        -0.29925
     168 ->180        -0.20619
     168 ->186        -0.18137
     175 ->177         0.30075
     176 ->178         0.28478
     176 ->180         0.10506
 
 Excited State   5:      Singlet-A      2.9658 eV  418.05 nm  f=0.7017  <S**2>=0.000
     168 ->177        -0.17145
     168 ->179         0.25512
     168 ->180         0.17261
     168 ->186         0.15302
     175 ->177         0.36801
     176 ->178         0.34839
 SavETr:  write IOETrn=   770 NScale= 10 NData=  16 NLR=1 NState=    5 LETran=     100.
 Leave Link  914 at Wed May  4 04:54:53 2022, MaxMem=  6710886400 cpu:              93.0 elap:               3.9
 (Enter /sw/apps/gaussian-16.0/g16/l601.exe)
 Copying SCF densities to generalized density rwf, IOpCl= 0 IROHF=0.

 **********************************************************************

            Population analysis using the SCF density.

 **********************************************************************

 Orbital symmetries:
       Occupied  (A) (A) (A) (A) (A) (A) (A) (A) (A) (A) (A) (A)
                 (A) (A) (A) (A) (A) (A) (A) (A) (A) (A) (A) (A)
                 (A) (A) (A) (A) (A) (A) (A) (A) (A) (A) (A) (A)
                 (A) (A) (A) (A) (A) (A) (A) (A) (A) (A) (A) (A)
                 (A) (A) (A) (A) (A) (A) (A) (A) (A) (A) (A) (A)
                 (A) (A) (A) (A) (A) (A) (A) (A) (A) (A) (A) (A)
                 (A) (A) (A) (A) (A) (A) (A) (A) (A) (A) (A) (A)
                 (A) (A) (A) (A) (A) (A) (A) (A) (A) (A) (A) (A)
                 (A) (A) (A) (A) (A) (A) (A) (A) (A) (A) (A) (A)
                 (A) (A) (A) (A) (A) (A) (A) (A) (A) (A) (A) (A)
                 (A) (A) (A) (A) (A) (A) (A) (A) (A) (A) (A) (A)
                 (A) (A) (A) (A) (A) (A) (A) (A) (A) (A) (A) (A)
                 (A) (A) (A) (A) (A) (A) (A) (A) (A) (A) (A) (A)
                 (A) (A) (A) (A) (A) (A) (A) (A) (A) (A) (A) (A)
                 (A) (A) (A) (A) (A) (A) (A) (A)
       Virtual   (A) (A) (A) (A) (A) (A) (A) (A) (A) (A) (A) (A)
                 (A) (A) (A) (A) (A) (A) (A) (A) (A) (A) (A) (A)
                 (A) (A) (A) (A) (A) (A) (A) (A) (A) (A) (A) (A)
                 (A) (A) (A) (A) (A) (A) (A) (A) (A) (A) (A) (A)
                 (A) (A) (A) (A) (A) (A) (A) (A) (A) (A) (A) (A)
                 (A) (A) (A) (A) (A) (A) (A) (A) (A) (A) (A) (A)
                 (A) (A) (A) (A) (A) (A) (A) (A) (A) (A) (A) (A)
                 (A) (A) (A) (A) (A) (A) (A) (A) (A) (A) (A) (A)
                 (A) (A) (A) (A) (A) (A) (A) (A) (A) (A) (A) (A)
                 (A) (A) (A) (A) (A) (A) (A) (A) (A) (A) (A) (A)
                 (A) (A) (A) (A) (A) (A) (A) (A) (A) (A) (A) (A)
                 (A) (A) (A) (A) (A) (A) (A) (A) (A) (A) (A) (A)
                 (A) (A) (A) (A) (A) (A) (A) (A) (A) (A) (A) (A)
                 (A) (A) (A) (A) (A) (A)
 The electronic state is 1-A.
 Alpha  occ. eigenvalues --   -1.85732  -1.83249  -1.80729  -1.72905  -1.72570
 Alpha  occ. eigenvalues --   -1.70207  -1.63284  -1.59464  -1.59359  -1.59231
 Alpha  occ. eigenvalues --   -1.53700  -1.50818  -1.48627  -1.48513  -1.47445
 Alpha  occ. eigenvalues --   -1.44244  -1.43577  -1.40813  -1.39575  -1.38668
 Alpha  occ. eigenvalues --   -1.37181  -1.35588  -1.33638  -1.32530  -1.29256
 Alpha  occ. eigenvalues --   -1.27986  -1.24984  -1.20845  -1.20143  -1.18870
 Alpha  occ. eigenvalues --   -1.17776  -1.15481  -1.15103  -1.14926  -1.13746
 Alpha  occ. eigenvalues --   -1.12307  -1.10851  -1.10036  -1.04874  -1.03935
 Alpha  occ. eigenvalues --   -1.02507  -1.01349  -0.99007  -0.97579  -0.95917
 Alpha  occ. eigenvalues --   -0.95380  -0.94265  -0.93561  -0.92661  -0.91755
 Alpha  occ. eigenvalues --   -0.90409  -0.90121  -0.89027  -0.88272  -0.87307
 Alpha  occ. eigenvalues --   -0.86076  -0.84699  -0.83857  -0.82624  -0.80757
 Alpha  occ. eigenvalues --   -0.79229  -0.78366  -0.76343  -0.76199  -0.76021
 Alpha  occ. eigenvalues --   -0.75564  -0.74989  -0.74195  -0.73334  -0.73283
 Alpha  occ. eigenvalues --   -0.72437  -0.71907  -0.71590  -0.71164  -0.70753
 Alpha  occ. eigenvalues --   -0.69932  -0.68924  -0.68686  -0.68121  -0.67973
 Alpha  occ. eigenvalues --   -0.67475  -0.67140  -0.66940  -0.66593  -0.66003
 Alpha  occ. eigenvalues --   -0.65624  -0.65484  -0.65179  -0.64826  -0.64579
 Alpha  occ. eigenvalues --   -0.63674  -0.63170  -0.62511  -0.62427  -0.62229
 Alpha  occ. eigenvalues --   -0.61656  -0.61559  -0.60808  -0.60639  -0.60216
 Alpha  occ. eigenvalues --   -0.59769  -0.59433  -0.58937  -0.58761  -0.58400
 Alpha  occ. eigenvalues --   -0.58195  -0.57997  -0.57505  -0.57235  -0.56887
 Alpha  occ. eigenvalues --   -0.56668  -0.56132  -0.55754  -0.55206  -0.54951
 Alpha  occ. eigenvalues --   -0.54530  -0.53482  -0.53248  -0.53040  -0.52478
 Alpha  occ. eigenvalues --   -0.52103  -0.51795  -0.51610  -0.51048  -0.50899
 Alpha  occ. eigenvalues --   -0.50789  -0.50402  -0.50091  -0.49949  -0.49599
 Alpha  occ. eigenvalues --   -0.49253  -0.49187  -0.48984  -0.48965  -0.48762
 Alpha  occ. eigenvalues --   -0.48559  -0.48469  -0.48233  -0.48014  -0.47727
 Alpha  occ. eigenvalues --   -0.47499  -0.47352  -0.47028  -0.46866  -0.46303
 Alpha  occ. eigenvalues --   -0.46249  -0.45897  -0.45739  -0.45729  -0.45365
 Alpha  occ. eigenvalues --   -0.45259  -0.44821  -0.44675  -0.44321  -0.44163
 Alpha  occ. eigenvalues --   -0.43930  -0.43801  -0.43422  -0.42269  -0.42059
 Alpha  occ. eigenvalues --   -0.41677  -0.41076  -0.40866  -0.39188  -0.38951
 Alpha  occ. eigenvalues --   -0.38057  -0.36640  -0.35364  -0.34748  -0.33925
 Alpha  occ. eigenvalues --   -0.33235  -0.33186  -0.32264  -0.32050  -0.26786
 Alpha  occ. eigenvalues --   -0.20994
 Alpha virt. eigenvalues --   -0.07862  -0.02201  -0.00567   0.01465   0.01614
 Alpha virt. eigenvalues --    0.02851   0.02961   0.03134   0.05086   0.05108
 Alpha virt. eigenvalues --    0.06514   0.06922   0.07457   0.08014   0.08210
 Alpha virt. eigenvalues --    0.08552   0.08910   0.09099   0.09486   0.09553
 Alpha virt. eigenvalues --    0.09990   0.10083   0.10170   0.10429   0.10700
 Alpha virt. eigenvalues --    0.10781   0.11207   0.11298   0.11796   0.12408
 Alpha virt. eigenvalues --    0.12580   0.12954   0.13231   0.13565   0.13696
 Alpha virt. eigenvalues --    0.13919   0.14046   0.14452   0.14856   0.15180
 Alpha virt. eigenvalues --    0.15207   0.15241   0.15406   0.15531   0.15697
 Alpha virt. eigenvalues --    0.15832   0.16323   0.16389   0.16710   0.16981
 Alpha virt. eigenvalues --    0.17076   0.17251   0.17792   0.18103   0.18355
 Alpha virt. eigenvalues --    0.18393   0.18647   0.19038   0.19237   0.19376
 Alpha virt. eigenvalues --    0.19583   0.19996   0.20350   0.20517   0.20995
 Alpha virt. eigenvalues --    0.21446   0.21767   0.22717   0.23535   0.23643
 Alpha virt. eigenvalues --    0.23695   0.23833   0.24107   0.24196   0.24395
 Alpha virt. eigenvalues --    0.24507   0.24677   0.24738   0.24819   0.24833
 Alpha virt. eigenvalues --    0.24961   0.24974   0.25005   0.25053   0.25081
 Alpha virt. eigenvalues --    0.25091   0.25333   0.25415   0.25447   0.25525
 Alpha virt. eigenvalues --    0.25573   0.25620   0.25755   0.25836   0.25912
 Alpha virt. eigenvalues --    0.26071   0.26183   0.26258   0.26307   0.26311
 Alpha virt. eigenvalues --    0.26423   0.26425   0.26460   0.26524   0.26642
 Alpha virt. eigenvalues --    0.26710   0.26924   0.27011   0.27076   0.27193
 Alpha virt. eigenvalues --    0.27623   0.27624   0.27689   0.27698   0.27769
 Alpha virt. eigenvalues --    0.28189   0.28240   0.28302   0.28634   0.28709
 Alpha virt. eigenvalues --    0.29071   0.29108   0.30305   0.30539   0.31423
 Alpha virt. eigenvalues --    0.31570   0.31696   0.32599   0.34110   0.34547
 Alpha virt. eigenvalues --    0.34834   0.34946   0.35194   0.35490   0.35932
 Alpha virt. eigenvalues --    0.36531   0.36950   0.36958   0.37980   0.38327
 Alpha virt. eigenvalues --    0.39095   0.39667   0.39744   0.39980   0.40541
 Alpha virt. eigenvalues --    0.40974   0.41322   0.41719   0.42088   0.42938
 Alpha virt. eigenvalues --    0.43786   0.44500   0.44720   0.46088   0.46959
 Alpha virt. eigenvalues --    0.47915   0.48292   0.48563   0.51657   0.53584
 Alpha virt. eigenvalues --    0.55569   0.57407
          Condensed to atoms (all electrons):
 Mulliken charges:
               1
     1  Mg   0.428298
     2  C   -0.053658
     3  C   -0.098232
     4  C   -0.047185
     5  C   -0.060309
     6  N   -0.292034
     7  C    0.126694
     8  C    0.016511
     9  C    0.010374
    10  C    0.143912
    11  C   -0.058625
    12  C   -0.014627
    13  C    0.001184
    14  C    0.471156
    15  O   -0.516219
    16  O   -0.280778
    17  N   -0.304524
    18  C    0.127305
    19  C    0.004776
    20  C   -0.056512
    21  C    0.141409
    22  C   -0.039843
    23  C    0.325103
    24  O   -0.518734
    25  C   -0.037185
    26  N   -0.262199
    27  C    0.129085
    28  C    0.001944
    29  C   -0.008782
    30  C    0.112787
    31  C   -0.059033
    32  C   -0.025278
    33  C   -0.055138
    34  N   -0.306314
    35  C    0.058024
    36  C    0.046012
    37  C   -0.091365
    38  C    0.152110
    39  C   -0.032493
    40  C    0.331511
    41  O   -0.536791
    42  C    0.054539
    43  C    0.490720
    44  O   -0.515438
    45  O   -0.268128
    46  C    0.073928
    47  C    0.106463
    48  C   -0.097499
    49  C   -0.009907
    50  C   -0.052439
    51  C   -0.033847
    52  C   -0.028804
    53  C   -0.031701
    54  C   -0.023204
    55  C   -0.067235
    56  C   -0.037074
    57  C   -0.045354
    58  C   -0.041704
    59  C   -0.013291
    60  C   -0.061814
    61  C   -0.035489
    62  C   -0.047202
    63  C   -0.046105
    64  C   -0.012680
    65  C   -0.057829
    66  C   -0.054663
    67  H    0.026770
    68  H    0.041686
    69  H    0.032792
    70  H    0.047701
    71  H    0.026951
    72  H    0.013135
    73  H    0.021402
    74  H    0.034963
    75  H    0.023319
    76  H    0.035234
    77  H    0.021957
    78  H    0.040173
    79  H    0.023964
    80  H    0.023110
    81  H    0.033216
    82  H    0.041845
    83  H    0.035581
    84  H    0.035134
    85  H    0.028633
    86  H    0.025740
    87  H    0.015686
    88  H    0.036697
    89  H    0.028743
    90  H    0.015298
    91  H    0.016514
    92  H    0.014662
    93  H    0.021488
    94  H    0.017214
    95  H    0.054348
    96  H    0.036386
    97  H    0.029575
    98  H    0.047998
    99  H    0.024078
   100  H    0.044187
   101  H    0.059738
   102  H    0.047183
   103  H    0.056337
   104  H    0.035601
   105  H    0.029491
   106  H    0.029591
   107  H    0.033067
   108  H    0.024583
   109  H    0.016619
   110  H    0.021502
   111  H    0.029214
   112  H    0.018148
   113  H    0.020042
   114  H    0.030080
   115  H    0.025199
   116  H    0.018583
   117  H    0.022106
   118  H    0.024118
   119  H    0.016413
   120  H    0.010619
   121  H    0.018518
   122  H    0.013169
   123  H    0.023588
   124  H    0.022800
   125  H    0.021213
   126  H    0.015357
   127  H    0.028705
   128  H    0.019188
   129  H    0.013333
   130  H    0.021916
   131  H    0.026008
   132  H    0.023248
   133  H    0.019438
   134  H    0.022166
   135  H    0.017396
   136  H    0.029159
   137  H    0.007537
   138  H    0.012828
   139  H    0.020418
   140  H    0.023024
 Sum of Mulliken charges =  -0.00000
 Mulliken charges with hydrogens summed into heavy atoms:
               1
     1  Mg   0.428298
     2  C   -0.053658
     3  C   -0.071462
     4  C   -0.005499
     5  C   -0.027517
     6  N   -0.292034
     7  C    0.126694
     8  C    0.064212
     9  C    0.037325
    10  C    0.143912
    11  C    0.010876
    12  C    0.043925
    13  C    0.063315
    14  C    0.471156
    15  O   -0.516219
    16  O   -0.280778
    17  N   -0.304524
    18  C    0.127305
    19  C    0.004776
    20  C   -0.056512
    21  C    0.141409
    22  C    0.040447
    23  C    0.325103
    24  O   -0.518734
    25  C    0.075376
    26  N   -0.262199
    27  C    0.129085
    28  C    0.030577
    29  C    0.016958
    30  C    0.112787
    31  C    0.022092
    32  C    0.006533
    33  C   -0.001774
    34  N   -0.306314
    35  C    0.058024
    36  C    0.046012
    37  C   -0.091365
    38  C    0.152110
    39  C    0.087817
    40  C    0.331511
    41  O   -0.536791
    42  C    0.102537
    43  C    0.490720
    44  O   -0.515438
    45  O   -0.268128
    46  C    0.201931
    47  C    0.209983
    48  C   -0.061898
    49  C   -0.009907
    50  C    0.039710
    51  C    0.007355
    52  C    0.021912
    53  C    0.006489
    54  C    0.006876
    55  C   -0.001347
    56  C    0.003456
    57  C   -0.016217
    58  C   -0.004947
    59  C    0.009509
    60  C    0.003460
    61  C   -0.002968
    62  C    0.000721
    63  C   -0.003419
    64  C    0.009486
    65  C   -0.003737
    66  C    0.001606
 Charge=              0.0000 electrons
 Dipole moment (field-independent basis, Debye):
    X=              6.7390    Y=              3.5175    Z=             -4.4204  Tot=              8.7936
 N-N= 4.333123808462D+03 E-N= 0.000000000000D+00  KE=-9.340796933648D+03
 Leave Link  601 at Wed May  4 04:54:53 2022, MaxMem=  6710886400 cpu:               0.8 elap:               0.0
 (Enter /sw/apps/gaussian-16.0/g16/l9999.exe)
 1\1\GINC-BP1-COMPUTE065\SP\RZINDO CIS\STO-3G\C55H74Mg1N4O6\OF15641\04-
 May-2022\0\\#p ZINDO=(nstates=5)\\step_1351_chromophore_21 ZINDO\\0,1\
 Mg,0,15.747,52.153,25.506\C,0,17.773,51.004,28.013\C,0,13.301,52.837,2
 7.673\C,0,13.967,53.424,22.988\C,0,18.195,50.962,23.213\N,0,15.648,51.
 964,27.579\C,0,16.646,51.679,28.472\C,0,16.243,51.98,29.882\C,0,14.728
 ,52.29,29.736\C,0,14.52,52.377,28.246\C,0,13.743,51.287,30.438\C,0,17.
 123,53.063,30.527\C,0,17.099,53.091,32.064\C,0,16.185,52.158,32.885\O,
 0,16.415,50.993,33.197\O,0,15.034,52.795,33.313\N,0,13.97,53.157,25.34
 6\C,0,13.102,53.241,26.352\C,0,11.924,54.003,25.892\C,0,12.113,54.247,
 24.494\C,0,13.407,53.548,24.199\C,0,10.703,54.298,26.708\C,0,11.227,54
 .996,23.5\O,0,11.473,55.074,22.308\C,0,9.955,55.805,23.883\N,0,15.958,
 51.994,23.359\C,0,15.12,52.779,22.593\C,0,15.68,52.903,21.176\C,0,17.1
 16,52.234,21.283\C,0,17.097,51.665,22.744\C,0,14.814,52.225,20.105\C,0
 ,18.323,53.086,20.883\C,0,19.403,52.474,20.018\N,0,17.423,50.892,25.56
 8\C,0,18.35,50.522,24.554\C,0,19.474,49.745,25.138\C,0,19.285,50.023,2
 6.542\C,0,17.99,50.707,26.692\C,0,20.552,49.103,24.397\C,0,19.765,49.6
 59,27.828\O,0,20.734,49.029,28.211\C,0,18.791,50.31,28.837\C,0,18.272,
 49.254,29.812\O,0,17.357,48.46,29.671\O,0,18.874,49.527,31.011\C,0,18.
 533,48.596,32.068\C,0,14.049,52.031,34.095\C,0,12.705,52.78,33.941\C,0
 ,11.525,52.24,34.191\C,0,11.305,50.735,34.541\C,0,10.189,53.033,34.065
 \C,0,9.482,53.515,35.371\C,0,9.637,54.993,35.702\C,0,8.248,55.747,35.6
 54\C,0,7.973,56.417,34.229\C,0,8.272,56.864,36.787\C,0,6.894,57.1,37.4
 92\C,0,6.365,58.545,37.651\C,0,4.894,58.818,37.157\C,0,4.848,60.176,36
 .39\C,0,3.951,58.715,38.374\C,0,2.96,57.53,38.33\C,0,1.52,57.821,37.73
 9\C,0,1.053,56.892,36.532\C,0,0.829,57.777,35.252\C,0,-0.163,56.008,36
 .831\H,0,12.504,53.068,28.383\H,0,13.423,53.782,22.112\H,0,18.981,50.6
 91,22.504\H,0,16.407,51.109,30.516\H,0,14.351,53.189,30.223\H,0,13.594
 ,50.524,29.673\H,0,12.729,51.63,30.639\H,0,14.093,50.739,31.313\H,0,16
 .662,54.025,30.303\H,0,18.179,53.013,30.263\H,0,16.824,54.114,32.321\H
 ,0,18.126,53.063,32.429\H,0,10.535,55.371,26.617\H,0,10.755,54.116,27.
 781\H,0,9.813,53.776,26.356\H,0,9.443,56.068,22.957\H,0,10.288,56.811,
 24.14\H,0,9.331,55.402,24.681\H,0,15.838,53.932,20.856\H,0,17.155,51.3
 43,20.656\H,0,15.345,51.433,19.576\H,0,14.389,52.93,19.39\H,0,14.19,51
 .597,20.74\H,0,18.851,53.459,21.761\H,0,18.058,53.977,20.313\H,0,19.15
 7,52.72,18.985\H,0,19.493,51.394,20.138\H,0,20.363,52.955,20.207\H,0,2
 0.149,48.141,24.08\H,0,21.414,49.113,25.064\H,0,20.854,49.811,23.625\H
 ,0,19.328,51.088,29.381\H,0,18.874,49.029,33.009\H,0,19.185,47.731,31.
 949\H,0,17.452,48.457,32.103\H,0,14.346,52.01,35.143\H,0,14.009,50.99,
 33.774\H,0,12.721,53.859,33.788\H,0,10.321,50.5,34.949\H,0,12.12,50.39
 2,35.178\H,0,11.403,50.346,33.527\H,0,9.587,52.357,33.459\H,0,10.461,5
 3.938,33.523\H,0,10.032,52.947,36.121\H,0,8.459,53.17,35.222\H,0,10.36
 3,55.474,35.046\H,0,10.171,55.197,36.63\H,0,7.404,55.059,35.706\H,0,7.
 637,57.454,34.244\H,0,7.19,55.786,33.81\H,0,8.924,56.357,33.7\H,0,8.70
 6,57.762,36.346\H,0,8.898,56.594,37.637\H,0,7.046,56.727,38.505\H,0,6.
 08,56.524,37.052\H,0,7.098,59.094,37.06\H,0,6.539,58.771,38.703\H,0,4.
 589,58.107,36.389\H,0,3.916,60.198,35.825\H,0,5.663,60.088,35.67\H,0,5
 .025,60.979,37.104\H,0,3.458,59.671,38.554\H,0,4.527,58.503,39.274\H,0
 ,2.896,57.259,39.384\H,0,3.402,56.792,37.66\H,0,1.541,58.869,37.442\H,
 0,0.846,57.655,38.579\H,0,1.912,56.237,36.383\H,0,1.79,57.963,34.773\H
 ,0,0.23,58.681,35.37\H,0,0.275,57.157,34.548\H,0,-0.452,56.181,37.868\
 H,0,0.089,54.95,36.751\H,0,-1.059,56.249,36.26\\Version=ES64L-G16RevA.
 03\State=1-A\HF=-474.3990413\RMSD=5.518e-09\PG=C01 [X(C55H74Mg1N4O6)]\
 \@


 CURIOUSER AND CURIOUSER

                  -- ALICE, IN WONDERLAND
 Job cpu time:       0 days  0 hours  2 minutes 20.1 seconds.
 Elapsed time:       0 days  0 hours  0 minutes  6.1 seconds.
 File lengths (MBytes):  RWF=   1263 Int=      0 D2E=      0 Chk=     38 Scr=      1
 Normal termination of Gaussian 16 at Wed May  4 04:54:53 2022.
