 Entering Gaussian System, Link 0=g16
 Initial command:
 /sw/apps/gaussian-16.0/g16/l1.exe "/tmp/Gau-81952.inp" -scrdir="/tmp/"
 Entering Link 1 = /sw/apps/gaussian-16.0/g16/l1.exe PID=     81953.
  
 Copyright (c) 1988,1990,1992,1993,1995,1998,2003,2009,2016,
            Gaussian, Inc.  All Rights Reserved.
  
 This is part of the Gaussian(R) 16 program.  It is based on
 the Gaussian(R) 09 system (copyright 2009, Gaussian, Inc.),
 the Gaussian(R) 03 system (copyright 2003, Gaussian, Inc.),
 the Gaussian(R) 98 system (copyright 1998, Gaussian, Inc.),
 the Gaussian(R) 94 system (copyright 1995, Gaussian, Inc.),
 the Gaussian 92(TM) system (copyright 1992, Gaussian, Inc.),
 the Gaussian 90(TM) system (copyright 1990, Gaussian, Inc.),
 the Gaussian 88(TM) system (copyright 1988, Gaussian, Inc.),
 the Gaussian 86(TM) system (copyright 1986, Carnegie Mellon
 University), and the Gaussian 82(TM) system (copyright 1983,
 Carnegie Mellon University). Gaussian is a federally registered
 trademark of Gaussian, Inc.
  
 This software contains proprietary and confidential information,
 including trade secrets, belonging to Gaussian, Inc.
  
 This software is provided under written license and may be
 used, copied, transmitted, or stored only in accord with that
 written license.
  
 The following legend is applicable only to US Government
 contracts under FAR:
  
                    RESTRICTED RIGHTS LEGEND
  
 Use, reproduction and disclosure by the US Government is
 subject to restrictions as set forth in subparagraphs (a)
 and (c) of the Commercial Computer Software - Restricted
 Rights clause in FAR 52.227-19.
  
 Gaussian, Inc.
 340 Quinnipiac St., Bldg. 40, Wallingford CT 06492
  
  
 ---------------------------------------------------------------
 Warning -- This program may not be used in any manner that
 competes with the business of Gaussian, Inc. or will provide
 assistance to any competitor of Gaussian, Inc.  The licensee
 of this program is prohibited from giving any competitor of
 Gaussian, Inc. access to this program.  By using this program,
 the user acknowledges that Gaussian, Inc. is engaged in the
 business of creating and licensing software in the field of
 computational chemistry and represents and warrants to the
 licensee that it is not a competitor of Gaussian, Inc. and that
 it will not use this program in any manner prohibited above.
 ---------------------------------------------------------------
  

 Cite this work as:
 Gaussian 16, Revision A.03,
 M. J. Frisch, G. W. Trucks, H. B. Schlegel, G. E. Scuseria, 
 M. A. Robb, J. R. Cheeseman, G. Scalmani, V. Barone, 
 G. A. Petersson, H. Nakatsuji, X. Li, M. Caricato, A. V. Marenich, 
 J. Bloino, B. G. Janesko, R. Gomperts, B. Mennucci, H. P. Hratchian, 
 J. V. Ortiz, A. F. Izmaylov, J. L. Sonnenberg, D. Williams-Young, 
 F. Ding, F. Lipparini, F. Egidi, J. Goings, B. Peng, A. Petrone, 
 T. Henderson, D. Ranasinghe, V. G. Zakrzewski, J. Gao, N. Rega, 
 G. Zheng, W. Liang, M. Hada, M. Ehara, K. Toyota, R. Fukuda, 
 J. Hasegawa, M. Ishida, T. Nakajima, Y. Honda, O. Kitao, H. Nakai, 
 T. Vreven, K. Throssell, J. A. Montgomery, Jr., J. E. Peralta, 
 F. Ogliaro, M. J. Bearpark, J. J. Heyd, E. N. Brothers, K. N. Kudin, 
 V. N. Staroverov, T. A. Keith, R. Kobayashi, J. Normand, 
 K. Raghavachari, A. P. Rendell, J. C. Burant, S. S. Iyengar, 
 J. Tomasi, M. Cossi, J. M. Millam, M. Klene, C. Adamo, R. Cammi, 
 J. W. Ochterski, R. L. Martin, K. Morokuma, O. Farkas, 
 J. B. Foresman, and D. J. Fox, Gaussian, Inc., Wallingford CT, 2016.
 
 ******************************************
 Gaussian 16:  ES64L-G16RevA.03 25-Dec-2016
                27-Apr-2022 
 ******************************************
 %nproc=24
 Will use up to   24 processors via shared memory.
 %mem=75GB
 -----------------------------------
 #p cam-b3lyp/Def2SVP td=(nstates=5)
 -----------------------------------
 1/38=1,172=1/1;
 2/12=2,17=6,18=5,40=1/2;
 3/5=43,7=101,11=9,25=1,30=1,74=-40/1,2,3,8;
 4//1;
 5/5=2,38=5/2;
 8/6=1,10=1,108=5/1;
 9/41=5,42=1,70=2/14;
 6/7=2,8=2,9=2,10=2/1;
 99/5=1,9=1/99;
 Leave Link    1 at Wed Apr 27 20:07:15 2022, MaxMem= 10066329600 cpu:               1.6 elap:               0.1
 (Enter /sw/apps/gaussian-16.0/g16/l101.exe)
 --------------------------------------------------------
 step_1301_chromophore_20 TDDFT with cam-b3lyp functional
 --------------------------------------------------------
 Symbolic Z-matrix:
 Charge =  0 Multiplicity = 1
 Mg                    5.184     57.097    41.926 
 C                     5.249     53.612    41.469 
 C                     8.132     57.336    40.27 
 C                     4.652     60.5      41.752 
 C                     1.902     56.67     43.241 
 N                     6.384     55.646    40.892 
 C                     6.215     54.276    40.776 
 C                     7.365     53.705    39.909 
 C                     8.445     54.756    40.066 
 C                     7.631     56.011    40.427 
 C                     9.522     54.429    41.106 
 C                     6.842     53.417    38.46 
 C                     7.358     52.085    37.826 
 C                     6.501     51.572    36.688 
 O                     5.612     50.715    36.791 
 O                     6.932     52.158    35.545 
 N                     6.273     58.764    41.087 
 C                     7.505     58.592    40.525 
 C                     7.912     59.89     40.09 
 C                     6.877     60.836    40.419 
 C                     5.904     60.062    41.162 
 C                     9.303     60.135    39.499 
 C                     6.902     62.346    40.106 
 O                     7.965     62.881    39.727 
 C                     5.766     63.27     40.375 
 N                     3.497     58.345    42.392 
 C                     3.696     59.729    42.439 
 C                     2.424     60.449    42.985 
 C                     1.635     59.234    43.499 
 C                     2.403     57.957    43.043 
 C                     2.757     61.52     44.013 
 C                     0.086     59.146    43.161 
 C                    -1.032     58.623    44.109 
 N                     3.885     55.525    42.43 
 C                     2.576     55.468    42.945 
 C                     2.153     54.096    43.083 
 C                     3.216     53.4      42.564 
 C                     4.219     54.268    42.086 
 C                     1.009     53.626    43.822 
 C                     3.696     52.067    42.415 
 O                     3.309     51.007    42.724 
 C                     5.033     52.161    41.713 
 C                     5.011     51.333    40.476 
 O                     4.154     51.345    39.558 
 O                     5.97      50.304    40.585 
 C                     5.914     49.257    39.578 
 C                     6.181     51.833    34.347 
 C                     6.373     52.818    33.245 
 C                     5.904     52.843    31.977 
 C                     4.85      51.898    31.388 
 C                     6.249     54.014    31.036 
 C                     5.786     55.391    31.58 
 C                     5.082     56.25     30.601 
 C                     5.884     57.351    29.829 
 C                     4.969     57.956    28.723 
 C                     7.195     56.878    29.271 
 C                     8.151     58.103    29.148 
 C                     9.196     58.293    30.32 
 C                     10.703    58.087    29.858 
 C                     11.041    56.558    29.94 
 C                     11.618    58.926    30.711 
 C                     12.16     60.143    29.925 
 C                     13.652    59.965    29.521 
 C                     14.008    58.711    28.679 
 C                     15.213    57.879    29.316 
 C                     14.146    59.051    27.168 
 H                     9.094     57.361    39.753 
 H                     4.459     61.574    41.713 
 H                     1.031     56.508    43.88 
 H                     7.684     52.735    40.29 
 H                     9.013     55.166    39.231 
 H                     10.492    54.546    40.623 
 H                     9.423     53.367    41.333 
 H                     9.28      55.064    41.958 
 H                     7.395     54.192    37.931 
 H                     5.765     53.576    38.401 
 H                     7.371     51.33     38.611 
 H                     8.377     52.164    37.446 
 H                     9.065     60.798    38.667 
 H                     9.821     59.242    39.151 
 H                     9.935     60.675    40.204 
 H                     4.877     62.803    39.951 
 H                     6.046     64.182    39.846 
 H                     5.61      63.42     41.443 
 H                     1.785     60.886    42.218 
 H                     1.657     59.093    44.58 
 H                     3.84      61.625    43.952 
 H                     2.47      61.222    45.022 
 H                     2.161     62.405    43.788 
 H                    -0.059     58.88     42.114 
 H                    -0.191     60.182    42.97 
 H                    -1.664     59.408    44.526 
 H                    -0.452     58.002    44.791 
 H                    -1.699     57.912    43.622 
 H                     1.212     53.582    44.892 
 H                     0.532     52.714    43.461 
 H                     0.178     54.323    43.718 
 H                     5.846     51.811    42.349 
 H                     6.96      48.984    39.433 
 H                     5.406     49.495    38.644 
 H                     5.454     48.392    40.056 
 H                     5.1       51.717    34.429 
 H                     6.613     50.912    33.956 
 H                     7.032     53.649    33.497 
 H                     5.305     51.269    30.623 
 H                     4.099     52.633    31.1 
 H                     4.399     51.214    32.107 
 H                     5.883     53.7      30.058 
 H                     7.339     53.997    31.015 
 H                     6.663     55.793    32.087 
 H                     5.172     55.306    32.477 
 H                     4.223     56.594    31.177 
 H                     4.727     55.544    29.851 
 H                     5.993     58.109    30.605 
 H                     4.844     59.005    28.99 
 H                     3.991     57.511    28.536 
 H                     5.484     57.798    27.776 
 H                     7.024     56.526    28.254 
 H                     7.59      56.01     29.798 
 H                     7.524     58.99     29.237 
 H                     8.785     57.926    28.279 
 H                     9.028     57.571    31.12 
 H                     9.092     59.275    30.783 
 H                     10.882    58.398    28.829 
 H                     11.707    56.362    30.78 
 H                     11.408    56.16     28.994 
 H                     10.136    56.01     30.2 
 H                     12.522    58.414    31.039 
 H                     11.035    59.21     31.587 
 H                     11.985    61.063    30.482 
 H                     11.76     60.358    28.934 
 H                     14.186    60.064    30.465 
 H                     14.061    60.84     29.014 
 H                     13.279    57.91     28.798 
 H                     14.874    56.861    29.507 
 H                     15.558    58.314    30.254 
 H                     15.984    57.982    28.553 
 H                     15.174    59.152    26.82 
 H                     13.616    59.955    26.87 
 H                     13.514    58.336    26.643 
 
 ITRead=  0  0  0  0  0  0  0  0  0  0  0  0  0  0  0  0  0  0  0  0
 ITRead=  0  0  0  0  0  0  0  0  0  0  0  0  0  0  0  0  0  0  0  0
 ITRead=  0  0  0  0  0  0  0  0  0  0  0  0  0  0  0  0  0  0  0  0
 ITRead=  0  0  0  0  0  0  0  0  0  0  0  0  0  0  0  0  0  0  0  0
 ITRead=  0  0  0  0  0  0  0  0  0  0  0  0  0  0  0  0  0  0  0  0
 ITRead=  0  0  0  0  0  0  0  0  0  0  0  0  0  0  0  0  0  0  0  0
 ITRead=  0  0  0  0  0  0  0  0  0  0  0  0  0  0  0  0  0  0  0  0
 MicOpt= -1 -1 -1 -1 -1 -1 -1 -1 -1 -1 -1 -1 -1 -1 -1 -1 -1 -1 -1 -1
 MicOpt= -1 -1 -1 -1 -1 -1 -1 -1 -1 -1 -1 -1 -1 -1 -1 -1 -1 -1 -1 -1
 MicOpt= -1 -1 -1 -1 -1 -1 -1 -1 -1 -1 -1 -1 -1 -1 -1 -1 -1 -1 -1 -1
 MicOpt= -1 -1 -1 -1 -1 -1 -1 -1 -1 -1 -1 -1 -1 -1 -1 -1 -1 -1 -1 -1
 MicOpt= -1 -1 -1 -1 -1 -1 -1 -1 -1 -1 -1 -1 -1 -1 -1 -1 -1 -1 -1 -1
 MicOpt= -1 -1 -1 -1 -1 -1 -1 -1 -1 -1 -1 -1 -1 -1 -1 -1 -1 -1 -1 -1
 MicOpt= -1 -1 -1 -1 -1 -1 -1 -1 -1 -1 -1 -1 -1 -1 -1 -1 -1 -1 -1 -1
 NAtoms=    140 NQM=      140 NQMF=       0 NMMI=      0 NMMIF=      0
                NMic=       0 NMicF=      0.
                    Isotopes and Nuclear Properties:
 (Nuclear quadrupole moments (NQMom) in fm**2, nuclear magnetic moments (NMagM)
  in nuclear magnetons)

  Atom         1           2           3           4           5           6           7           8           9          10
 IAtWgt=          24          12          12          12          12          14          12          12          12          12
 AtmWgt=  23.9850450  12.0000000  12.0000000  12.0000000  12.0000000  14.0030740  12.0000000  12.0000000  12.0000000  12.0000000
 NucSpn=           0           0           0           0           0           2           0           0           0           0
 AtZEff=  -0.0000000  -0.0000000  -0.0000000  -0.0000000  -0.0000000  -0.0000000  -0.0000000  -0.0000000  -0.0000000  -0.0000000
 NQMom=    0.0000000   0.0000000   0.0000000   0.0000000   0.0000000   2.0440000   0.0000000   0.0000000   0.0000000   0.0000000
 NMagM=    0.0000000   0.0000000   0.0000000   0.0000000   0.0000000   0.4037610   0.0000000   0.0000000   0.0000000   0.0000000
 AtZNuc=  12.0000000   6.0000000   6.0000000   6.0000000   6.0000000   7.0000000   6.0000000   6.0000000   6.0000000   6.0000000

  Atom        11          12          13          14          15          16          17          18          19          20
 IAtWgt=          12          12          12          12          16          16          14          12          12          12
 AtmWgt=  12.0000000  12.0000000  12.0000000  12.0000000  15.9949146  15.9949146  14.0030740  12.0000000  12.0000000  12.0000000
 NucSpn=           0           0           0           0           0           0           2           0           0           0
 AtZEff=  -0.0000000  -0.0000000  -0.0000000  -0.0000000  -0.0000000  -0.0000000  -0.0000000  -0.0000000  -0.0000000  -0.0000000
 NQMom=    0.0000000   0.0000000   0.0000000   0.0000000   0.0000000   0.0000000   2.0440000   0.0000000   0.0000000   0.0000000
 NMagM=    0.0000000   0.0000000   0.0000000   0.0000000   0.0000000   0.0000000   0.4037610   0.0000000   0.0000000   0.0000000
 AtZNuc=   6.0000000   6.0000000   6.0000000   6.0000000   8.0000000   8.0000000   7.0000000   6.0000000   6.0000000   6.0000000

  Atom        21          22          23          24          25          26          27          28          29          30
 IAtWgt=          12          12          12          16          12          14          12          12          12          12
 AtmWgt=  12.0000000  12.0000000  12.0000000  15.9949146  12.0000000  14.0030740  12.0000000  12.0000000  12.0000000  12.0000000
 NucSpn=           0           0           0           0           0           2           0           0           0           0
 AtZEff=  -0.0000000  -0.0000000  -0.0000000  -0.0000000  -0.0000000  -0.0000000  -0.0000000  -0.0000000  -0.0000000  -0.0000000
 NQMom=    0.0000000   0.0000000   0.0000000   0.0000000   0.0000000   2.0440000   0.0000000   0.0000000   0.0000000   0.0000000
 NMagM=    0.0000000   0.0000000   0.0000000   0.0000000   0.0000000   0.4037610   0.0000000   0.0000000   0.0000000   0.0000000
 AtZNuc=   6.0000000   6.0000000   6.0000000   8.0000000   6.0000000   7.0000000   6.0000000   6.0000000   6.0000000   6.0000000

  Atom        31          32          33          34          35          36          37          38          39          40
 IAtWgt=          12          12          12          14          12          12          12          12          12          12
 AtmWgt=  12.0000000  12.0000000  12.0000000  14.0030740  12.0000000  12.0000000  12.0000000  12.0000000  12.0000000  12.0000000
 NucSpn=           0           0           0           2           0           0           0           0           0           0
 AtZEff=  -0.0000000  -0.0000000  -0.0000000  -0.0000000  -0.0000000  -0.0000000  -0.0000000  -0.0000000  -0.0000000  -0.0000000
 NQMom=    0.0000000   0.0000000   0.0000000   2.0440000   0.0000000   0.0000000   0.0000000   0.0000000   0.0000000   0.0000000
 NMagM=    0.0000000   0.0000000   0.0000000   0.4037610   0.0000000   0.0000000   0.0000000   0.0000000   0.0000000   0.0000000
 AtZNuc=   6.0000000   6.0000000   6.0000000   7.0000000   6.0000000   6.0000000   6.0000000   6.0000000   6.0000000   6.0000000

  Atom        41          42          43          44          45          46          47          48          49          50
 IAtWgt=          16          12          12          16          16          12          12          12          12          12
 AtmWgt=  15.9949146  12.0000000  12.0000000  15.9949146  15.9949146  12.0000000  12.0000000  12.0000000  12.0000000  12.0000000
 NucSpn=           0           0           0           0           0           0           0           0           0           0
 AtZEff=  -0.0000000  -0.0000000  -0.0000000  -0.0000000  -0.0000000  -0.0000000  -0.0000000  -0.0000000  -0.0000000  -0.0000000
 NQMom=    0.0000000   0.0000000   0.0000000   0.0000000   0.0000000   0.0000000   0.0000000   0.0000000   0.0000000   0.0000000
 NMagM=    0.0000000   0.0000000   0.0000000   0.0000000   0.0000000   0.0000000   0.0000000   0.0000000   0.0000000   0.0000000
 AtZNuc=   8.0000000   6.0000000   6.0000000   8.0000000   8.0000000   6.0000000   6.0000000   6.0000000   6.0000000   6.0000000

  Atom        51          52          53          54          55          56          57          58          59          60
 IAtWgt=          12          12          12          12          12          12          12          12          12          12
 AtmWgt=  12.0000000  12.0000000  12.0000000  12.0000000  12.0000000  12.0000000  12.0000000  12.0000000  12.0000000  12.0000000
 NucSpn=           0           0           0           0           0           0           0           0           0           0
 AtZEff=  -0.0000000  -0.0000000  -0.0000000  -0.0000000  -0.0000000  -0.0000000  -0.0000000  -0.0000000  -0.0000000  -0.0000000
 NQMom=    0.0000000   0.0000000   0.0000000   0.0000000   0.0000000   0.0000000   0.0000000   0.0000000   0.0000000   0.0000000
 NMagM=    0.0000000   0.0000000   0.0000000   0.0000000   0.0000000   0.0000000   0.0000000   0.0000000   0.0000000   0.0000000
 AtZNuc=   6.0000000   6.0000000   6.0000000   6.0000000   6.0000000   6.0000000   6.0000000   6.0000000   6.0000000   6.0000000

  Atom        61          62          63          64          65          66          67          68          69          70
 IAtWgt=          12          12          12          12          12          12           1           1           1           1
 AtmWgt=  12.0000000  12.0000000  12.0000000  12.0000000  12.0000000  12.0000000   1.0078250   1.0078250   1.0078250   1.0078250
 NucSpn=           0           0           0           0           0           0           1           1           1           1
 AtZEff=  -0.0000000  -0.0000000  -0.0000000  -0.0000000  -0.0000000  -0.0000000  -0.0000000  -0.0000000  -0.0000000  -0.0000000
 NQMom=    0.0000000   0.0000000   0.0000000   0.0000000   0.0000000   0.0000000   0.0000000   0.0000000   0.0000000   0.0000000
 NMagM=    0.0000000   0.0000000   0.0000000   0.0000000   0.0000000   0.0000000   2.7928460   2.7928460   2.7928460   2.7928460
 AtZNuc=   6.0000000   6.0000000   6.0000000   6.0000000   6.0000000   6.0000000   1.0000000   1.0000000   1.0000000   1.0000000

  Atom        71          72          73          74          75          76          77          78          79          80
 IAtWgt=           1           1           1           1           1           1           1           1           1           1
 AtmWgt=   1.0078250   1.0078250   1.0078250   1.0078250   1.0078250   1.0078250   1.0078250   1.0078250   1.0078250   1.0078250
 NucSpn=           1           1           1           1           1           1           1           1           1           1
 AtZEff=  -0.0000000  -0.0000000  -0.0000000  -0.0000000  -0.0000000  -0.0000000  -0.0000000  -0.0000000  -0.0000000  -0.0000000
 NQMom=    0.0000000   0.0000000   0.0000000   0.0000000   0.0000000   0.0000000   0.0000000   0.0000000   0.0000000   0.0000000
 NMagM=    2.7928460   2.7928460   2.7928460   2.7928460   2.7928460   2.7928460   2.7928460   2.7928460   2.7928460   2.7928460
 AtZNuc=   1.0000000   1.0000000   1.0000000   1.0000000   1.0000000   1.0000000   1.0000000   1.0000000   1.0000000   1.0000000

  Atom        81          82          83          84          85          86          87          88          89          90
 IAtWgt=           1           1           1           1           1           1           1           1           1           1
 AtmWgt=   1.0078250   1.0078250   1.0078250   1.0078250   1.0078250   1.0078250   1.0078250   1.0078250   1.0078250   1.0078250
 NucSpn=           1           1           1           1           1           1           1           1           1           1
 AtZEff=  -0.0000000  -0.0000000  -0.0000000  -0.0000000  -0.0000000  -0.0000000  -0.0000000  -0.0000000  -0.0000000  -0.0000000
 NQMom=    0.0000000   0.0000000   0.0000000   0.0000000   0.0000000   0.0000000   0.0000000   0.0000000   0.0000000   0.0000000
 NMagM=    2.7928460   2.7928460   2.7928460   2.7928460   2.7928460   2.7928460   2.7928460   2.7928460   2.7928460   2.7928460
 AtZNuc=   1.0000000   1.0000000   1.0000000   1.0000000   1.0000000   1.0000000   1.0000000   1.0000000   1.0000000   1.0000000

  Atom        91          92          93          94          95          96          97          98          99         100
 IAtWgt=           1           1           1           1           1           1           1           1           1           1
 AtmWgt=   1.0078250   1.0078250   1.0078250   1.0078250   1.0078250   1.0078250   1.0078250   1.0078250   1.0078250   1.0078250
 NucSpn=           1           1           1           1           1           1           1           1           1           1
 AtZEff=  -0.0000000  -0.0000000  -0.0000000  -0.0000000  -0.0000000  -0.0000000  -0.0000000  -0.0000000  -0.0000000  -0.0000000
 NQMom=    0.0000000   0.0000000   0.0000000   0.0000000   0.0000000   0.0000000   0.0000000   0.0000000   0.0000000   0.0000000
 NMagM=    2.7928460   2.7928460   2.7928460   2.7928460   2.7928460   2.7928460   2.7928460   2.7928460   2.7928460   2.7928460
 AtZNuc=   1.0000000   1.0000000   1.0000000   1.0000000   1.0000000   1.0000000   1.0000000   1.0000000   1.0000000   1.0000000

  Atom       101         102         103         104         105         106         107         108         109         110
 IAtWgt=           1           1           1           1           1           1           1           1           1           1
 AtmWgt=   1.0078250   1.0078250   1.0078250   1.0078250   1.0078250   1.0078250   1.0078250   1.0078250   1.0078250   1.0078250
 NucSpn=           1           1           1           1           1           1           1           1           1           1
 AtZEff=  -0.0000000  -0.0000000  -0.0000000  -0.0000000  -0.0000000  -0.0000000  -0.0000000  -0.0000000  -0.0000000  -0.0000000
 NQMom=    0.0000000   0.0000000   0.0000000   0.0000000   0.0000000   0.0000000   0.0000000   0.0000000   0.0000000   0.0000000
 NMagM=    2.7928460   2.7928460   2.7928460   2.7928460   2.7928460   2.7928460   2.7928460   2.7928460   2.7928460   2.7928460
 AtZNuc=   1.0000000   1.0000000   1.0000000   1.0000000   1.0000000   1.0000000   1.0000000   1.0000000   1.0000000   1.0000000

  Atom       111         112         113         114         115         116         117         118         119         120
 IAtWgt=           1           1           1           1           1           1           1           1           1           1
 AtmWgt=   1.0078250   1.0078250   1.0078250   1.0078250   1.0078250   1.0078250   1.0078250   1.0078250   1.0078250   1.0078250
 NucSpn=           1           1           1           1           1           1           1           1           1           1
 AtZEff=  -0.0000000  -0.0000000  -0.0000000  -0.0000000  -0.0000000  -0.0000000  -0.0000000  -0.0000000  -0.0000000  -0.0000000
 NQMom=    0.0000000   0.0000000   0.0000000   0.0000000   0.0000000   0.0000000   0.0000000   0.0000000   0.0000000   0.0000000
 NMagM=    2.7928460   2.7928460   2.7928460   2.7928460   2.7928460   2.7928460   2.7928460   2.7928460   2.7928460   2.7928460
 AtZNuc=   1.0000000   1.0000000   1.0000000   1.0000000   1.0000000   1.0000000   1.0000000   1.0000000   1.0000000   1.0000000

  Atom       121         122         123         124         125         126         127         128         129         130
 IAtWgt=           1           1           1           1           1           1           1           1           1           1
 AtmWgt=   1.0078250   1.0078250   1.0078250   1.0078250   1.0078250   1.0078250   1.0078250   1.0078250   1.0078250   1.0078250
 NucSpn=           1           1           1           1           1           1           1           1           1           1
 AtZEff=  -0.0000000  -0.0000000  -0.0000000  -0.0000000  -0.0000000  -0.0000000  -0.0000000  -0.0000000  -0.0000000  -0.0000000
 NQMom=    0.0000000   0.0000000   0.0000000   0.0000000   0.0000000   0.0000000   0.0000000   0.0000000   0.0000000   0.0000000
 NMagM=    2.7928460   2.7928460   2.7928460   2.7928460   2.7928460   2.7928460   2.7928460   2.7928460   2.7928460   2.7928460
 AtZNuc=   1.0000000   1.0000000   1.0000000   1.0000000   1.0000000   1.0000000   1.0000000   1.0000000   1.0000000   1.0000000

  Atom       131         132         133         134         135         136         137         138         139         140
 IAtWgt=           1           1           1           1           1           1           1           1           1           1
 AtmWgt=   1.0078250   1.0078250   1.0078250   1.0078250   1.0078250   1.0078250   1.0078250   1.0078250   1.0078250   1.0078250
 NucSpn=           1           1           1           1           1           1           1           1           1           1
 AtZEff=  -0.0000000  -0.0000000  -0.0000000  -0.0000000  -0.0000000  -0.0000000  -0.0000000  -0.0000000  -0.0000000  -0.0000000
 NQMom=    0.0000000   0.0000000   0.0000000   0.0000000   0.0000000   0.0000000   0.0000000   0.0000000   0.0000000   0.0000000
 NMagM=    2.7928460   2.7928460   2.7928460   2.7928460   2.7928460   2.7928460   2.7928460   2.7928460   2.7928460   2.7928460
 AtZNuc=   1.0000000   1.0000000   1.0000000   1.0000000   1.0000000   1.0000000   1.0000000   1.0000000   1.0000000   1.0000000
 Leave Link  101 at Wed Apr 27 20:07:15 2022, MaxMem= 10066329600 cpu:               2.9 elap:               0.1
 (Enter /sw/apps/gaussian-16.0/g16/l202.exe)
 Stoichiometry    C55H74MgN4O6
 Framework group  C1[X(C55H74MgN4O6)]
 Deg. of freedom   414
 Full point group                 C1      NOp   1
 Largest Abelian subgroup         C1      NOp   1
 Largest concise Abelian subgroup C1      NOp   1
                         Standard orientation:                         
 ---------------------------------------------------------------------
 Center     Atomic      Atomic             Coordinates (Angstroms)
 Number     Number       Type             X           Y           Z
 ---------------------------------------------------------------------
      1         12           0        4.304346    1.329446   -0.764960
      2          6           0        4.130276   -2.136238   -1.328017
      3          6           0        1.448019    1.728937   -2.545961
      4          6           0        4.147647    4.545691    0.469918
      5          6           0        7.030816    0.642946    1.420940
      6          7           0        2.939724   -0.076994   -1.644898
      7          6           0        3.018448   -1.457676   -1.725125
      8          6           0        1.758943   -1.985645   -2.456648
      9          6           0        1.313371   -0.776490   -3.253555
     10          6           0        1.919240    0.387322   -2.449561
     11          6           0        1.748937   -0.771546   -4.722811
     12          6           0        0.749492   -2.575376   -1.412953
     13          6           0        0.048535   -3.901683   -1.851138
     14          6           0       -0.513980   -4.710124   -0.701068
     15          8           0        0.056657   -5.660310   -0.147083
     16          8           0       -1.765669   -4.258061   -0.447064
     17          7           0        2.931908    2.981739   -0.999638
     18          6           0        1.872914    2.904114   -1.857401
     19          6           0        1.202955    4.161095   -1.753328
     20          6           0        1.907087    4.985801   -0.805467
     21          6           0        3.074382    4.206842   -0.446997
     22          6           0        0.013008    4.509162   -2.651695
     23          6           0        1.507698    6.413373   -0.379767
     24          8           0        0.636479    7.030488   -1.027828
     25          6           0        2.207936    7.192214    0.678394
     26          7           0        5.412015    2.375492    0.751446
     27          6           0        5.257452    3.763180    0.839180
     28          6           0        6.280408    4.367340    1.850641
     29          6           0        7.192653    3.148134    2.061089
     30          6           0        6.526317    1.940901    1.335091
     31          6           0        6.950041    5.626198    1.319998
     32          6           0        7.627008    2.781429    3.543740
     33          6           0        9.024062    2.259105    3.988231
     34          7           0        5.473128   -0.314489   -0.178424
     35          6           0        6.543803   -0.479205    0.720731
     36          6           0        6.965258   -1.858330    0.748064
     37          6           0        6.062169   -2.465320   -0.088440
     38          6           0        5.107163   -1.547771   -0.572158
     39          6           0        8.186542   -2.366192    1.319290
     40          6           0        5.805159   -3.720198   -0.711912
     41          8           0        6.337146   -4.762100   -0.728666
     42          6           0        4.553982   -3.545215   -1.544466
     43          6           0        3.536652   -4.554821   -1.142010
     44          8           0        3.128857   -4.815532    0.016891
     45          8           0        3.259906   -5.401526   -2.236041
     46          6           0        2.477259   -6.593058   -1.951246
     47          6           0       -2.444609   -4.877077    0.675741
     48          6           0       -3.577897   -4.063924    1.201033
     49          6           0       -4.476514   -4.311220    2.180697
     50          6           0       -4.431338   -5.482279    3.169353
     51          6           0       -5.553512   -3.268322    2.538731
     52          6           0       -4.959955   -1.904745    2.980074
     53          6           0       -5.555990   -1.326007    4.205530
     54          6           0       -6.693014   -0.257503    4.075659
     55          6           0       -7.283194    0.022068    5.489877
     56          6           0       -7.763136   -0.616760    3.085919
     57          6           0       -8.410079    0.699264    2.557490
     58          6           0       -7.881691    1.225353    1.162590
     59          6           0       -8.978903    1.170794    0.013643
     60          6           0       -8.951480   -0.259201   -0.629141
     61          6           0       -8.718678    2.260317   -0.993322
     62          6           0       -9.754879    3.401770   -0.866745
     63          6           0      -10.796079    3.381637   -2.022799
     64          6           0      -11.611029    2.074749   -2.212838
     65          6           0      -11.552732    1.540910   -3.716712
     66          6           0      -13.031243    2.184859   -1.589434
     67          1           0        0.540462    1.811317   -3.148383
     68          1           0        4.123958    5.559626    0.874418
     69          1           0        8.013341    0.459684    1.861694
     70          1           0        2.017014   -2.824848   -3.102372
     71          1           0        0.281765   -0.426862   -3.292261
     72          1           0        0.860739   -0.592741   -5.328625
     73          1           0        2.074004   -1.786388   -4.954330
     74          1           0        2.565260   -0.050633   -4.762746
     75          1           0       -0.032773   -1.822629   -1.500754
     76          1           0        1.190110   -2.587212   -0.415753
     77          1           0        0.789645   -4.511083   -2.366702
     78          1           0       -0.769104   -3.736307   -2.553362
     79          1           0       -0.657282    4.988301   -1.937851
     80          1           0       -0.469671    3.657496   -3.129778
     81          1           0        0.297657    5.241690   -3.406960
     82          1           0        2.285626    6.538342    1.547072
     83          1           0        1.543348    8.038750    0.856401
     84          1           0        3.210166    7.486854    0.368262
     85          1           0        5.871916    4.577591    2.838825
     86          1           0        8.144574    3.186833    1.530736
     87          1           0        6.381360    5.877407    0.424939
     88          1           0        7.994934    5.454888    1.059027
     89          1           0        6.965351    6.366874    2.120142
     90          1           0        6.792840    2.332868    4.083135
     91          1           0        7.511651    3.721634    4.081525
     92          1           0        9.628898    2.999711    4.512841
     93          1           0        9.399007    1.846989    3.051886
     94          1           0        8.960436    1.389440    4.641846
     95          1           0        9.036813   -2.208078    0.655901
     96          1           0        8.159794   -3.384088    1.710142
     97          1           0        8.432394   -1.824049    2.231882
     98          1           0        4.759191   -3.666055   -2.608069
     99          1           0        1.880012   -6.729714   -2.853627
    100          1           0        1.875159   -6.584644   -1.043243
    101          1           0        3.177750   -7.428221   -1.940066
    102          1           0       -1.857559   -5.135369    1.557443
    103          1           0       -2.922794   -5.775547    0.286078
    104          1           0       -3.726336   -3.115922    0.683728
    105          1           0       -5.271258   -6.152233    2.986083
    106          1           0       -4.387772   -4.920802    4.102100
    107          1           0       -3.536313   -6.100838    3.102029
    108          1           0       -6.219869   -3.785029    3.230119
    109          1           0       -6.081195   -3.128777    1.594853
    110          1           0       -4.954124   -1.302788    2.071561
    111          1           0       -3.876348   -1.933915    3.097440
    112          1           0       -4.672118   -1.023653    4.767086
    113          1           0       -5.997656   -2.187255    4.705674
    114          1           0       -6.117112    0.622672    3.788867
    115          1           0       -7.067457    1.070555    5.693463
    116          1           0       -6.956793   -0.585397    6.334819
    117          1           0       -8.346420   -0.208470    5.431558
    118          1           0       -8.552330   -1.148273    3.617050
    119          1           0       -7.419684   -1.321888    2.329603
    120          1           0       -8.103942    1.487643    3.244919
    121          1           0       -9.458949    0.480084    2.356795
    122          1           0       -7.045061    0.624083    0.804775
    123          1           0       -7.498248    2.242898    1.246747
    124          1           0       -9.991792    1.335787    0.380297
    125          1           0       -8.509252   -0.218549   -1.624306
    126          1           0       -9.926698   -0.745520   -0.607866
    127          1           0       -8.258062   -0.884943   -0.068296
    128          1           0       -8.815233    1.945324   -2.031783
    129          1           0       -7.695473    2.592533   -0.818380
    130          1           0       -9.250822    4.363456   -0.775311
    131          1           0      -10.456034    3.394408   -0.032099
    132          1           0      -10.222370    3.707603   -2.889227
    133          1           0      -11.498961    4.214454   -1.974559
    134          1           0      -11.105392    1.205205   -1.793997
    135          1           0      -11.150233    0.528134   -3.714068
    136          1           0      -10.920740    2.166256   -4.347285
    137          1           0      -12.593221    1.632085   -4.027016
    138          1           0      -13.826556    2.378153   -2.309298
    139          1           0      -13.112524    2.942050   -0.810347
    140          1           0      -13.144420    1.310325   -0.950173
 ---------------------------------------------------------------------
 Rotational constants (GHZ):           0.0327580           0.0141894           0.0117835
 Leave Link  202 at Wed Apr 27 20:07:15 2022, MaxMem= 10066329600 cpu:               0.2 elap:               0.0
 (Enter /sw/apps/gaussian-16.0/g16/l301.exe)
 Standard basis: def2SVP (5D, 7F)
 Ernie: Thresh=  0.10000D-02 Tol=  0.10000D-05 Strict=F.
 There are  1364 symmetry adapted cartesian basis functions of A   symmetry.
 There are  1298 symmetry adapted basis functions of A   symmetry.
  1298 basis functions,  2180 primitive gaussians,  1364 cartesian basis functions
   246 alpha electrons      246 beta electrons
       nuclear repulsion energy      9788.2511337572 Hartrees.
 IExCor=20419 DFT=T Ex+Corr=CAM-B3LYP ExCW=0 ScaHFX=  1.000000
 ScaDFX=  1.000000  1.000000  1.000000  0.810000 ScalE2=  1.000000  1.000000
 IRadAn=      5 IRanWt=     -1 IRanGd=            0 ICorTp=0 IEmpDi=  4
 HFx  wShort=  0.000000 wLong=  0.330000 cFull=  0.190000 cShort=  0.000000 cLong=  0.460000
 DFx  wShort=  0.000000 wLong=  0.330000 cFull=  0.190000 cShort=  0.000000 cLong=  0.460000
 NAtoms=  140 NActive=  140 NUniq=  140 SFac= 1.00D+00 NAtFMM=   60 NAOKFM=T Big=T
 Integral buffers will be    131072 words long.
 Raffenetti 1 integral format.
 Two-electron integral symmetry is turned on.
 Leave Link  301 at Wed Apr 27 20:07:15 2022, MaxMem= 10066329600 cpu:               1.5 elap:               0.1
 (Enter /sw/apps/gaussian-16.0/g16/l302.exe)
 NPDir=0 NMtPBC=     1 NCelOv=     1 NCel=       1 NClECP=     1 NCelD=      1
         NCelK=      1 NCelE2=     1 NClLst=     1 CellRange=     0.0.
 One-electron integrals computed using PRISM.
 One-electron integral symmetry used in STVInt
   1 Symmetry operations used in ECPInt.
 ECPInt:  NShTT=  192510 NPrTT=  683786 LenC2=  100249 LenP2D=  214810.
 LDataN:  DoStor=T MaxTD1= 4 Len=   56
 NBasis=  1298 RedAO= T EigKep=  2.75D-04  NBF=  1298
 NBsUse=  1298 1.00D-06 EigRej= -1.00D+00 NBFU=  1298
 Precomputing XC quadrature grid using
 IXCGrd= 4 IRadAn=           5 IRanWt=          -1 IRanGd=           0 AccXCQ= 0.00D+00.
 Generated NRdTot=       0 NPtTot=           0 NUsed=           0 NTot=          32
 NSgBfM=  1039  1029  1033  1037  1039 MxSgAt=   140 MxSgA2=   140.
 Leave Link  302 at Wed Apr 27 20:07:19 2022, MaxMem= 10066329600 cpu:              90.1 elap:               3.8
 (Enter /sw/apps/gaussian-16.0/g16/l303.exe)
 DipDrv:  MaxL=1.
 Leave Link  303 at Wed Apr 27 20:07:19 2022, MaxMem= 10066329600 cpu:               5.8 elap:               0.3
 (Enter /sw/apps/gaussian-16.0/g16/l308.exe)
 Leave Link  308 at Wed Apr 27 20:07:20 2022, MaxMem= 10066329600 cpu:               8.9 elap:               0.4
 (Enter /sw/apps/gaussian-16.0/g16/l401.exe)
 ExpMin= 3.36D-02 ExpMax= 4.95D+03 ExpMxC= 7.45D+02 IAcc=3 IRadAn=         5 AccDes= 0.00D+00
 Harris functional with IExCor=20419 and IRadAn=       5 diagonalized for initial guess.
 HarFok:  IExCor=20419 AccDes= 0.00D+00 IRadAn=         5 IDoV= 1 UseB2=F ITyADJ=14
 ICtDFT=  3500011 ScaDFX=  1.000000  1.000000  1.000000  1.000000
 FoFCou: FMM=F IPFlag=           0 FMFlag=      100000 FMFlg1=        2001
         NFxFlg=           0 DoJE=T BraDBF=F KetDBF=T FulRan=T
         wScrn=  0.000000 ICntrl=       500 IOpCl=  0 I1Cent=   200000004 NGrid=           0
         NMat0=    1 NMatS0=      1 NMatT0=    0 NMatD0=    1 NMtDS0=    0 NMtDT0=    0
 Petite list used in FoFCou.
 Harris En= -2890.80930856567    
 JPrj=0 DoOrth=F DoCkMO=F.
 Leave Link  401 at Wed Apr 27 20:07:25 2022, MaxMem= 10066329600 cpu:             132.9 elap:               5.6
 (Enter /sw/apps/gaussian-16.0/g16/l502.exe)
 Integral symmetry usage will be decided dynamically.
 Closed shell SCF:
 Using DIIS extrapolation, IDIIS=  1040.
 NGot= 10066329600 LenX= 10062561258 LenY= 10060699398
 Requested convergence on RMS density matrix=1.00D-08 within 128 cycles.
 Requested convergence on MAX density matrix=1.00D-06.
 Requested convergence on             energy=1.00D-06.
 No special actions if energy rises.
 Fock matrices will be formed incrementally for  20 cycles.

 Cycle   1  Pass 1  IDiag  1:
 FoFJK:  IHMeth= 1 ICntrl=       0 DoSepK=T KAlg= 0 I1Cent=           0 FoldK=F
 IRaf=         1 NMat=       1 IRICut=       1 DoRegI=T DoRafI=F ISym2E= 0 IDoP0=0 IntGTp=1.
 FoFCou: FMM=T IPFlag=           0 FMFlag=      100000 FMFlg1=        2001
         NFxFlg=           0 DoJE=T BraDBF=F KetDBF=F FulRan=T
         wScrn=  0.000000 ICntrl=       500 IOpCl=  0 I1Cent=           0 NGrid=           0
         NMat0=    1 NMatS0=      1 NMatT0=    0 NMatD0=    1 NMtDS0=    0 NMtDT0=    0
 Symmetry not used in FoFCou.
 FMM levels:  10  Number of levels for PrismC:   9
 E= -3006.44608264566    
 DIIS: error= 3.05D-02 at cycle   1 NSaved=   1.
 NSaved= 1 IEnMin= 1 EnMin= -3006.44608264566     IErMin= 1 ErrMin= 3.05D-02
 ErrMax= 3.05D-02  0.00D+00 EMaxC= 1.00D-01 BMatC= 1.27D+00 BMatP= 1.27D+00
 IDIUse=3 WtCom= 6.95D-01 WtEn= 3.05D-01
 Coeff-Com:  0.100D+01
 Coeff-En:   0.100D+01
 Coeff:      0.100D+01
 Gap=     0.122 Goal=   None    Shift=    0.000
 GapD=    0.122 DampG=1.000 DampE=0.500 DampFc=0.5000 IDamp=-1.
 Damping current iteration by 5.00D-01
 RMSDP=1.58D-03 MaxDP=1.68D-01              OVMax= 2.33D-01

 Cycle   2  Pass 1  IDiag  1:
 RMSU=  7.73D-04    CP:  9.84D-01
 E= -3006.75434787098     Delta-E=       -0.308265225314 Rises=F Damp=T
 DIIS: error= 1.22D-02 at cycle   2 NSaved=   2.
 NSaved= 2 IEnMin= 2 EnMin= -3006.75434787098     IErMin= 2 ErrMin= 1.22D-02
 ErrMax= 1.22D-02  0.00D+00 EMaxC= 1.00D-01 BMatC= 2.34D-01 BMatP= 1.27D+00
 IDIUse=3 WtCom= 8.78D-01 WtEn= 1.22D-01
 Coeff-Com: -0.209D+00 0.121D+01
 Coeff-En:   0.000D+00 0.100D+01
 Coeff:     -0.184D+00 0.118D+01
 Gap=     0.138 Goal=   None    Shift=    0.000
 RMSDP=7.57D-04 MaxDP=8.89D-02 DE=-3.08D-01 OVMax= 2.17D-01

 Cycle   3  Pass 1  IDiag  1:
 RMSU=  7.42D-04    CP:  9.73D-01  1.14D+00
 E= -3006.98104622119     Delta-E=       -0.226698350210 Rises=F Damp=F
 DIIS: error= 1.09D-02 at cycle   3 NSaved=   3.
 NSaved= 3 IEnMin= 3 EnMin= -3006.98104622119     IErMin= 3 ErrMin= 1.09D-02
 ErrMax= 1.09D-02  0.00D+00 EMaxC= 1.00D-01 BMatC= 1.59D-01 BMatP= 2.34D-01
 IDIUse=3 WtCom= 8.91D-01 WtEn= 1.09D-01
 Coeff-Com: -0.264D+00 0.655D+00 0.609D+00
 Coeff-En:   0.000D+00 0.000D+00 0.100D+01
 Coeff:     -0.236D+00 0.584D+00 0.652D+00
 Gap=     0.124 Goal=   None    Shift=    0.000
 RMSDP=5.18D-04 MaxDP=4.60D-02 DE=-2.27D-01 OVMax= 1.66D-01

 Cycle   4  Pass 1  IDiag  1:
 RMSU=  2.84D-04    CP:  9.70D-01  1.47D+00  5.29D-01
 E= -3007.09182627749     Delta-E=       -0.110780056300 Rises=F Damp=F
 DIIS: error= 4.63D-03 at cycle   4 NSaved=   4.
 NSaved= 4 IEnMin= 4 EnMin= -3007.09182627749     IErMin= 4 ErrMin= 4.63D-03
 ErrMax= 4.63D-03  0.00D+00 EMaxC= 1.00D-01 BMatC= 3.46D-02 BMatP= 1.59D-01
 IDIUse=3 WtCom= 9.54D-01 WtEn= 4.63D-02
 Coeff-Com: -0.113D+00 0.231D+00 0.392D+00 0.489D+00
 Coeff-En:   0.000D+00 0.000D+00 0.193D+00 0.807D+00
 Coeff:     -0.107D+00 0.221D+00 0.383D+00 0.504D+00
 Gap=     0.122 Goal=   None    Shift=    0.000
 RMSDP=1.95D-04 MaxDP=1.95D-02 DE=-1.11D-01 OVMax= 6.93D-02

 Cycle   5  Pass 1  IDiag  1:
 RMSU=  7.98D-05    CP:  9.69D-01  1.43D+00  6.92D-01  5.60D-01
 E= -3007.12238066953     Delta-E=       -0.030554392039 Rises=F Damp=F
 DIIS: error= 7.14D-04 at cycle   5 NSaved=   5.
 NSaved= 5 IEnMin= 5 EnMin= -3007.12238066953     IErMin= 5 ErrMin= 7.14D-04
 ErrMax= 7.14D-04  0.00D+00 EMaxC= 1.00D-01 BMatC= 9.45D-04 BMatP= 3.46D-02
 IDIUse=3 WtCom= 9.93D-01 WtEn= 7.14D-03
 Coeff-Com: -0.437D-01 0.860D-01 0.173D+00 0.261D+00 0.523D+00
 Coeff-En:   0.000D+00 0.000D+00 0.000D+00 0.000D+00 0.100D+01
 Coeff:     -0.434D-01 0.853D-01 0.172D+00 0.260D+00 0.526D+00
 Gap=     0.122 Goal=   None    Shift=    0.000
 RMSDP=4.48D-05 MaxDP=4.21D-03 DE=-3.06D-02 OVMax= 2.41D-02

 Cycle   6  Pass 1  IDiag  1:
 RMSU=  3.30D-05    CP:  9.69D-01  1.43D+00  6.89D-01  6.20D-01  6.90D-01
 E= -3007.12323504602     Delta-E=       -0.000854376491 Rises=F Damp=F
 DIIS: error= 2.94D-04 at cycle   6 NSaved=   6.
 NSaved= 6 IEnMin= 6 EnMin= -3007.12323504602     IErMin= 6 ErrMin= 2.94D-04
 ErrMax= 2.94D-04  0.00D+00 EMaxC= 1.00D-01 BMatC= 1.40D-04 BMatP= 9.45D-04
 IDIUse=3 WtCom= 9.97D-01 WtEn= 2.94D-03
 Coeff-Com:  0.126D-02-0.453D-02 0.995D-02 0.314D-01 0.288D+00 0.674D+00
 Coeff-En:   0.000D+00 0.000D+00 0.000D+00 0.000D+00 0.120D+00 0.880D+00
 Coeff:      0.126D-02-0.451D-02 0.992D-02 0.313D-01 0.288D+00 0.674D+00
 Gap=     0.123 Goal=   None    Shift=    0.000
 RMSDP=1.79D-05 MaxDP=1.83D-03 DE=-8.54D-04 OVMax= 8.01D-03

 Cycle   7  Pass 1  IDiag  1:
 RMSU=  1.15D-05    CP:  9.69D-01  1.43D+00  6.95D-01  6.20D-01  8.20D-01
                    CP:  7.73D-01
 E= -3007.12339546725     Delta-E=       -0.000160421232 Rises=F Damp=F
 DIIS: error= 1.25D-04 at cycle   7 NSaved=   7.
 NSaved= 7 IEnMin= 7 EnMin= -3007.12339546725     IErMin= 7 ErrMin= 1.25D-04
 ErrMax= 1.25D-04  0.00D+00 EMaxC= 1.00D-01 BMatC= 1.74D-05 BMatP= 1.40D-04
 IDIUse=3 WtCom= 9.99D-01 WtEn= 1.25D-03
 Coeff-Com:  0.459D-02-0.996D-02-0.983D-02-0.907D-02 0.100D+00 0.343D+00
 Coeff-Com:  0.581D+00
 Coeff-En:   0.000D+00 0.000D+00 0.000D+00 0.000D+00 0.000D+00 0.000D+00
 Coeff-En:   0.100D+01
 Coeff:      0.459D-02-0.995D-02-0.982D-02-0.906D-02 0.100D+00 0.342D+00
 Coeff:      0.582D+00
 Gap=     0.123 Goal=   None    Shift=    0.000
 RMSDP=6.93D-06 MaxDP=1.09D-03 DE=-1.60D-04 OVMax= 4.67D-03

 Cycle   8  Pass 1  IDiag  1:
 RMSU=  4.87D-06    CP:  9.69D-01  1.43D+00  6.96D-01  6.27D-01  8.18D-01
                    CP:  8.97D-01  8.43D-01
 E= -3007.12341786930     Delta-E=       -0.000022402055 Rises=F Damp=F
 DIIS: error= 3.89D-05 at cycle   8 NSaved=   8.
 NSaved= 8 IEnMin= 8 EnMin= -3007.12341786930     IErMin= 8 ErrMin= 3.89D-05
 ErrMax= 3.89D-05  0.00D+00 EMaxC= 1.00D-01 BMatC= 3.82D-06 BMatP= 1.74D-05
 IDIUse=1 WtCom= 1.00D+00 WtEn= 0.00D+00
 Coeff-Com:  0.245D-02-0.486D-02-0.765D-02-0.130D-01-0.257D-02 0.349D-01
 Coeff-Com:  0.326D+00 0.664D+00
 Coeff:      0.245D-02-0.486D-02-0.765D-02-0.130D-01-0.257D-02 0.349D-01
 Coeff:      0.326D+00 0.664D+00
 Gap=     0.123 Goal=   None    Shift=    0.000
 RMSDP=3.35D-06 MaxDP=4.93D-04 DE=-2.24D-05 OVMax= 1.34D-03

 Cycle   9  Pass 1  IDiag  1:
 RMSU=  2.02D-06    CP:  9.69D-01  1.43D+00  6.96D-01  6.27D-01  8.36D-01
                    CP:  9.18D-01  1.02D+00  1.06D+00
 E= -3007.12342421357     Delta-E=       -0.000006344264 Rises=F Damp=F
 DIIS: error= 2.33D-05 at cycle   9 NSaved=   9.
 NSaved= 9 IEnMin= 9 EnMin= -3007.12342421357     IErMin= 9 ErrMin= 2.33D-05
 ErrMax= 2.33D-05  0.00D+00 EMaxC= 1.00D-01 BMatC= 6.08D-07 BMatP= 3.82D-06
 IDIUse=1 WtCom= 1.00D+00 WtEn= 0.00D+00
 Coeff-Com:  0.443D-03-0.741D-03-0.198D-02-0.529D-02-0.157D-01-0.486D-01
 Coeff-Com:  0.925D-01 0.289D+00 0.690D+00
 Coeff:      0.443D-03-0.741D-03-0.198D-02-0.529D-02-0.157D-01-0.486D-01
 Coeff:      0.925D-01 0.289D+00 0.690D+00
 Gap=     0.123 Goal=   None    Shift=    0.000
 RMSDP=1.90D-06 MaxDP=3.78D-04 DE=-6.34D-06 OVMax= 1.25D-03

 Cycle  10  Pass 1  IDiag  1:
 RMSU=  1.08D-06    CP:  9.69D-01  1.43D+00  6.96D-01  6.28D-01  8.40D-01
                    CP:  9.37D-01  1.08D+00  1.28D+00  1.15D+00
 E= -3007.12342578136     Delta-E=       -0.000001567794 Rises=F Damp=F
 DIIS: error= 1.11D-05 at cycle  10 NSaved=  10.
 NSaved=10 IEnMin=10 EnMin= -3007.12342578136     IErMin=10 ErrMin= 1.11D-05
 ErrMax= 1.11D-05  0.00D+00 EMaxC= 1.00D-01 BMatC= 2.74D-07 BMatP= 6.08D-07
 IDIUse=1 WtCom= 1.00D+00 WtEn= 0.00D+00
 Coeff-Com: -0.548D-03 0.114D-02 0.155D-02 0.137D-02-0.343D-02-0.404D-01
 Coeff-Com: -0.366D-01-0.112D+00 0.370D+00 0.819D+00
 Coeff:     -0.548D-03 0.114D-02 0.155D-02 0.137D-02-0.343D-02-0.404D-01
 Coeff:     -0.366D-01-0.112D+00 0.370D+00 0.819D+00
 Gap=     0.123 Goal=   None    Shift=    0.000
 RMSDP=1.56D-06 MaxDP=1.50D-04 DE=-1.57D-06 OVMax= 8.28D-04

 Cycle  11  Pass 1  IDiag  1:
 RMSU=  6.24D-07    CP:  9.69D-01  1.43D+00  6.97D-01  6.28D-01  8.42D-01
                    CP:  9.46D-01  1.15D+00  1.43D+00  1.56D+00  1.39D+00
 E= -3007.12342676474     Delta-E=       -0.000000983380 Rises=F Damp=F
 DIIS: error= 7.33D-06 at cycle  11 NSaved=  11.
 NSaved=11 IEnMin=11 EnMin= -3007.12342676474     IErMin=11 ErrMin= 7.33D-06
 ErrMax= 7.33D-06  0.00D+00 EMaxC= 1.00D-01 BMatC= 8.11D-08 BMatP= 2.74D-07
 IDIUse=1 WtCom= 1.00D+00 WtEn= 0.00D+00
 Coeff-Com: -0.426D-03 0.829D-03 0.148D-02 0.231D-02 0.492D-02-0.951D-02
 Coeff-Com: -0.360D-01-0.176D+00 0.113D-01 0.348D+00 0.853D+00
 Coeff:     -0.426D-03 0.829D-03 0.148D-02 0.231D-02 0.492D-02-0.951D-02
 Coeff:     -0.360D-01-0.176D+00 0.113D-01 0.348D+00 0.853D+00
 Gap=     0.123 Goal=   None    Shift=    0.000
 RMSDP=1.16D-06 MaxDP=1.81D-04 DE=-9.83D-07 OVMax= 7.55D-04

 Cycle  12  Pass 1  IDiag  1:
 RMSU=  3.35D-07    CP:  9.69D-01  1.43D+00  6.97D-01  6.28D-01  8.44D-01
                    CP:  9.52D-01  1.18D+00  1.54D+00  1.84D+00  1.90D+00
                    CP:  1.29D+00
 E= -3007.12342716240     Delta-E=       -0.000000397657 Rises=F Damp=F
 DIIS: error= 4.04D-06 at cycle  12 NSaved=  12.
 NSaved=12 IEnMin=12 EnMin= -3007.12342716240     IErMin=12 ErrMin= 4.04D-06
 ErrMax= 4.04D-06  0.00D+00 EMaxC= 1.00D-01 BMatC= 3.05D-08 BMatP= 8.11D-08
 IDIUse=1 WtCom= 1.00D+00 WtEn= 0.00D+00
 Coeff-Com: -0.154D-04 0.852D-05 0.192D-03 0.574D-03 0.431D-02 0.700D-02
 Coeff-Com:  0.436D-02-0.552D-01-0.756D-01-0.192D+00 0.408D+00 0.898D+00
 Coeff:     -0.154D-04 0.852D-05 0.192D-03 0.574D-03 0.431D-02 0.700D-02
 Coeff:      0.436D-02-0.552D-01-0.756D-01-0.192D+00 0.408D+00 0.898D+00
 Gap=     0.123 Goal=   None    Shift=    0.000
 RMSDP=7.41D-07 MaxDP=4.72D-05 DE=-3.98D-07 OVMax= 4.53D-04

 Cycle  13  Pass 1  IDiag  1:
 RMSU=  1.92D-07    CP:  9.69D-01  1.43D+00  6.97D-01  6.28D-01  8.45D-01
                    CP:  9.53D-01  1.20D+00  1.60D+00  2.04D+00  2.18D+00
                    CP:  1.83D+00  1.33D+00
 E= -3007.12342730449     Delta-E=       -0.000000142089 Rises=F Damp=F
 DIIS: error= 2.10D-06 at cycle  13 NSaved=  13.
 NSaved=13 IEnMin=13 EnMin= -3007.12342730449     IErMin=13 ErrMin= 2.10D-06
 ErrMax= 2.10D-06  0.00D+00 EMaxC= 1.00D-01 BMatC= 7.67D-09 BMatP= 3.05D-08
 IDIUse=1 WtCom= 1.00D+00 WtEn= 0.00D+00
 Coeff-Com:  0.144D-03-0.294D-03-0.421D-03-0.512D-03 0.972D-03 0.657D-02
 Coeff-Com:  0.181D-01 0.257D-01-0.286D-01-0.271D+00-0.569D-01 0.493D+00
 Coeff-Com:  0.813D+00
 Coeff:      0.144D-03-0.294D-03-0.421D-03-0.512D-03 0.972D-03 0.657D-02
 Coeff:      0.181D-01 0.257D-01-0.286D-01-0.271D+00-0.569D-01 0.493D+00
 Coeff:      0.813D+00
 Gap=     0.123 Goal=   None    Shift=    0.000
 RMSDP=4.39D-07 MaxDP=3.52D-05 DE=-1.42D-07 OVMax= 2.81D-04

 Cycle  14  Pass 1  IDiag  1:
 RMSU=  8.91D-08    CP:  9.69D-01  1.43D+00  6.97D-01  6.29D-01  8.45D-01
                    CP:  9.55D-01  1.21D+00  1.64D+00  2.14D+00  2.38D+00
                    CP:  2.11D+00  1.75D+00  1.07D+00
 E= -3007.12342733859     Delta-E=       -0.000000034101 Rises=F Damp=F
 DIIS: error= 7.95D-07 at cycle  14 NSaved=  14.
 NSaved=14 IEnMin=14 EnMin= -3007.12342733859     IErMin=14 ErrMin= 7.95D-07
 ErrMax= 7.95D-07  0.00D+00 EMaxC= 1.00D-01 BMatC= 1.29D-09 BMatP= 7.67D-09
 IDIUse=1 WtCom= 1.00D+00 WtEn= 0.00D+00
 Coeff-Com:  0.774D-04-0.153D-03-0.257D-03-0.386D-03-0.345D-03 0.157D-02
 Coeff-Com:  0.892D-02 0.228D-01 0.781D-02-0.104D+00-0.104D+00 0.585D-01
 Coeff-Com:  0.429D+00 0.680D+00
 Coeff:      0.774D-04-0.153D-03-0.257D-03-0.386D-03-0.345D-03 0.157D-02
 Coeff:      0.892D-02 0.228D-01 0.781D-02-0.104D+00-0.104D+00 0.585D-01
 Coeff:      0.429D+00 0.680D+00
 Gap=     0.123 Goal=   None    Shift=    0.000
 RMSDP=1.17D-07 MaxDP=1.00D-05 DE=-3.41D-08 OVMax= 6.84D-05

 Cycle  15  Pass 1  IDiag  1:
 RMSU=  3.79D-08    CP:  9.69D-01  1.43D+00  6.97D-01  6.29D-01  8.45D-01
                    CP:  9.55D-01  1.21D+00  1.64D+00  2.17D+00  2.41D+00
                    CP:  2.21D+00  1.84D+00  1.30D+00  9.85D-01
 E= -3007.12342734164     Delta-E=       -0.000000003054 Rises=F Damp=F
 DIIS: error= 4.24D-07 at cycle  15 NSaved=  15.
 NSaved=15 IEnMin=15 EnMin= -3007.12342734164     IErMin=15 ErrMin= 4.24D-07
 ErrMax= 4.24D-07  0.00D+00 EMaxC= 1.00D-01 BMatC= 1.54D-10 BMatP= 1.29D-09
 IDIUse=1 WtCom= 1.00D+00 WtEn= 0.00D+00
 Coeff-Com:  0.128D-04-0.237D-04-0.513D-04-0.964D-04-0.301D-03-0.366D-03
 Coeff-Com:  0.116D-02 0.554D-02 0.900D-02-0.703D-02-0.360D-01-0.542D-01
 Coeff-Com:  0.721D-01 0.298D+00 0.712D+00
 Coeff:      0.128D-04-0.237D-04-0.513D-04-0.964D-04-0.301D-03-0.366D-03
 Coeff:      0.116D-02 0.554D-02 0.900D-02-0.703D-02-0.360D-01-0.542D-01
 Coeff:      0.721D-01 0.298D+00 0.712D+00
 Gap=     0.123 Goal=   None    Shift=    0.000
 RMSDP=3.84D-08 MaxDP=2.58D-06 DE=-3.05D-09 OVMax= 2.16D-05

 Cycle  16  Pass 1  IDiag  1:
 RMSU=  1.86D-08    CP:  9.69D-01  1.43D+00  6.97D-01  6.29D-01  8.45D-01
                    CP:  9.55D-01  1.21D+00  1.64D+00  2.17D+00  2.43D+00
                    CP:  2.23D+00  1.88D+00  1.34D+00  1.13D+00  9.54D-01
 E= -3007.12342734191     Delta-E=       -0.000000000267 Rises=F Damp=F
 DIIS: error= 1.14D-07 at cycle  16 NSaved=  16.
 NSaved=16 IEnMin=16 EnMin= -3007.12342734191     IErMin=16 ErrMin= 1.14D-07
 ErrMax= 1.14D-07  0.00D+00 EMaxC= 1.00D-01 BMatC= 4.70D-11 BMatP= 1.54D-10
 IDIUse=1 WtCom= 1.00D+00 WtEn= 0.00D+00
 Coeff-Com: -0.101D-04 0.206D-04 0.289D-04 0.320D-04-0.845D-04-0.536D-03
 Coeff-Com: -0.128D-02-0.220D-02 0.349D-02 0.169D-01 0.441D-02-0.387D-01
 Coeff-Com: -0.473D-01-0.428D-02 0.390D+00 0.680D+00
 Coeff:     -0.101D-04 0.206D-04 0.289D-04 0.320D-04-0.845D-04-0.536D-03
 Coeff:     -0.128D-02-0.220D-02 0.349D-02 0.169D-01 0.441D-02-0.387D-01
 Coeff:     -0.473D-01-0.428D-02 0.390D+00 0.680D+00
 Gap=     0.123 Goal=   None    Shift=    0.000
 RMSDP=1.54D-08 MaxDP=1.57D-06 DE=-2.67D-10 OVMax= 8.19D-06

 Cycle  17  Pass 1  IDiag  1:
 RMSU=  8.98D-09    CP:  9.69D-01  1.43D+00  6.97D-01  6.29D-01  8.45D-01
                    CP:  9.55D-01  1.21D+00  1.64D+00  2.18D+00  2.43D+00
                    CP:  2.24D+00  1.89D+00  1.37D+00  1.17D+00  1.16D+00
                    CP:  1.06D+00
 E= -3007.12342734235     Delta-E=       -0.000000000440 Rises=F Damp=F
 DIIS: error= 8.06D-08 at cycle  17 NSaved=  17.
 NSaved=17 IEnMin=17 EnMin= -3007.12342734235     IErMin=17 ErrMin= 8.06D-08
 ErrMax= 8.06D-08  0.00D+00 EMaxC= 1.00D-01 BMatC= 6.59D-12 BMatP= 4.70D-11
 IDIUse=1 WtCom= 1.00D+00 WtEn= 0.00D+00
 Coeff-Com: -0.668D-05 0.132D-04 0.222D-04 0.312D-04 0.206D-04-0.151D-03
 Coeff-Com: -0.779D-03-0.204D-02 0.811D-04 0.896D-02 0.899D-02-0.763D-02
 Coeff-Com: -0.339D-01-0.690D-01 0.544D-01 0.265D+00 0.775D+00
 Coeff:     -0.668D-05 0.132D-04 0.222D-04 0.312D-04 0.206D-04-0.151D-03
 Coeff:     -0.779D-03-0.204D-02 0.811D-04 0.896D-02 0.899D-02-0.763D-02
 Coeff:     -0.339D-01-0.690D-01 0.544D-01 0.265D+00 0.775D+00
 Gap=     0.123 Goal=   None    Shift=    0.000
 RMSDP=8.23D-09 MaxDP=7.76D-07 DE=-4.40D-10 OVMax= 5.22D-06

 SCF Done:  E(RCAM-B3LYP) =  -3007.12342734     A.U. after   17 cycles
            NFock= 17  Conv=0.82D-08     -V/T= 2.0105
 KE= 2.975890448322D+03 PE=-2.656843338332D+04 EE= 1.079716837390D+04
 Leave Link  502 at Wed Apr 27 20:13:38 2022, MaxMem= 10066329600 cpu:            8570.1 elap:             372.5
 (Enter /sw/apps/gaussian-16.0/g16/l801.exe)
 DoSCS=F DFT=T ScalE2(SS,OS)=  1.000000  1.000000
 ExpMin= 3.36D-02 ExpMax= 4.95D+03 ExpMxC= 7.45D+02 IAcc=3 IRadAn=         5 AccDes= 0.00D+00
 HarFok:  IExCor=  205 AccDes= 0.00D+00 IRadAn=         5 IDoV=-2 UseB2=F ITyADJ=14
 ICtDFT= 12500011 ScaDFX=  1.000000  1.000000  1.000000  1.000000
 GSVD:  LWork=       -5460 too small for GESVD, short by       25550 words or       25550 for optimal perf.
 Largest valence mixing into a core orbital is  1.21D-04
 Largest core mixing into a valence orbital is  5.06D-05
 Range of M.O.s used for correlation:    71  1298
 NBasis=  1298 NAE=   246 NBE=   246 NFC=    70 NFV=     0
 NROrb=   1228 NOA=   176 NOB=   176 NVA=  1052 NVB=  1052
 Leave Link  801 at Wed Apr 27 20:13:38 2022, MaxMem= 10066329600 cpu:               6.1 elap:               0.3
 (Enter /sw/apps/gaussian-16.0/g16/l914.exe)
 RHF ground state
 Two-electron integrals replicated using symmetry.
 MDV= 10066329600 DFT=T DoStab=F Mixed=T DoRPA=T DoScal=F NonHer=T
 Making orbital integer symmetry assigments:
 Orbital symmetries:
       Occupied  (A) (A) (A) (A) (A) (A) (A) (A) (A) (A) (A) (A)
                 (A) (A) (A) (A) (A) (A) (A) (A) (A) (A) (A) (A)
                 (A) (A) (A) (A) (A) (A) (A) (A) (A) (A) (A) (A)
                 (A) (A) (A) (A) (A) (A) (A) (A) (A) (A) (A) (A)
                 (A) (A) (A) (A) (A) (A) (A) (A) (A) (A) (A) (A)
                 (A) (A) (A) (A) (A) (A) (A) (A) (A) (A) (A) (A)
                 (A) (A) (A) (A) (A) (A) (A) (A) (A) (A) (A) (A)
                 (A) (A) (A) (A) (A) (A) (A) (A) (A) (A) (A) (A)
                 (A) (A) (A) (A) (A) (A) (A) (A) (A) (A) (A) (A)
                 (A) (A) (A) (A) (A) (A) (A) (A) (A) (A) (A) (A)
                 (A) (A) (A) (A) (A) (A) (A) (A) (A) (A) (A) (A)
                 (A) (A) (A) (A) (A) (A) (A) (A) (A) (A) (A) (A)
                 (A) (A) (A) (A) (A) (A) (A) (A) (A) (A) (A) (A)
                 (A) (A) (A) (A) (A) (A) (A) (A) (A) (A) (A) (A)
                 (A) (A) (A) (A) (A) (A) (A) (A) (A) (A) (A) (A)
                 (A) (A) (A) (A) (A) (A) (A) (A) (A) (A) (A) (A)
                 (A) (A) (A) (A) (A) (A) (A) (A) (A) (A) (A) (A)
                 (A) (A) (A) (A) (A) (A) (A) (A) (A) (A) (A) (A)
                 (A) (A) (A) (A) (A) (A) (A) (A) (A) (A) (A) (A)
                 (A) (A) (A) (A) (A) (A) (A) (A) (A) (A) (A) (A)
                 (A) (A) (A) (A) (A) (A)
       Virtual   (A) (A) (A) (A) (A) (A) (A) (A) (A) (A) (A) (A)
                 (A) (A) (A) (A) (A) (A) (A) (A) (A) (A) (A) (A)
                 (A) (A) (A) (A) (A) (A) (A) (A) (A) (A) (A) (A)
                 (A) (A) (A) (A) (A) (A) (A) (A) (A) (A) (A) (A)
                 (A) (A) (A) (A) (A) (A) (A) (A) (A) (A) (A) (A)
                 (A) (A) (A) (A) (A) (A) (A) (A) (A) (A) (A) (A)
                 (A) (A) (A) (A) (A) (A) (A) (A) (A) (A) (A) (A)
                 (A) (A) (A) (A) (A) (A) (A) (A) (A) (A) (A) (A)
                 (A) (A) (A) (A) (A) (A) (A) (A) (A) (A) (A) (A)
                 (A) (A) (A) (A) (A) (A) (A) (A) (A) (A) (A) (A)
                 (A) (A) (A) (A) (A) (A) (A) (A) (A) (A) (A) (A)
                 (A) (A) (A) (A) (A) (A) (A) (A) (A) (A) (A) (A)
                 (A) (A) (A) (A) (A) (A) (A) (A) (A) (A) (A) (A)
                 (A) (A) (A) (A) (A) (A) (A) (A) (A) (A) (A) (A)
                 (A) (A) (A) (A) (A) (A) (A) (A) (A) (A) (A) (A)
                 (A) (A) (A) (A) (A) (A) (A) (A) (A) (A) (A) (A)
                 (A) (A) (A) (A) (A) (A) (A) (A) (A) (A) (A) (A)
                 (A) (A) (A) (A) (A) (A) (A) (A) (A) (A) (A) (A)
                 (A) (A) (A) (A) (A) (A) (A) (A) (A) (A) (A) (A)
                 (A) (A) (A) (A) (A) (A) (A) (A) (A) (A) (A) (A)
                 (A) (A) (A) (A) (A) (A) (A) (A) (A) (A) (A) (A)
                 (A) (A) (A) (A) (A) (A) (A) (A) (A) (A) (A) (A)
                 (A) (A) (A) (A) (A) (A) (A) (A) (A) (A) (A) (A)
                 (A) (A) (A) (A) (A) (A) (A) (A) (A) (A) (A) (A)
                 (A) (A) (A) (A) (A) (A) (A) (A) (A) (A) (A) (A)
                 (A) (A) (A) (A) (A) (A) (A) (A) (A) (A) (A) (A)
                 (A) (A) (A) (A) (A) (A) (A) (A) (A) (A) (A) (A)
                 (A) (A) (A) (A) (A) (A) (A) (A) (A) (A) (A) (A)
                 (A) (A) (A) (A) (A) (A) (A) (A) (A) (A) (A) (A)
                 (A) (A) (A) (A) (A) (A) (A) (A) (A) (A) (A) (A)
                 (A) (A) (A) (A) (A) (A) (A) (A) (A) (A) (A) (A)
                 (A) (A) (A) (A) (A) (A) (A) (A) (A) (A) (A) (A)
                 (A) (A) (A) (A) (A) (A) (A) (A) (A) (A) (A) (A)
                 (A) (A) (A) (A) (A) (A) (A) (A) (A) (A) (A) (A)
                 (A) (A) (A) (A) (A) (A) (A) (A) (A) (A) (A) (A)
                 (A) (A) (A) (A) (A) (A) (A) (A) (A) (A) (A) (A)
                 (A) (A) (A) (A) (A) (A) (A) (A) (A) (A) (A) (A)
                 (A) (A) (A) (A) (A) (A) (A) (A) (A) (A) (A) (A)
                 (A) (A) (A) (A) (A) (A) (A) (A) (A) (A) (A) (A)
                 (A) (A) (A) (A) (A) (A) (A) (A) (A) (A) (A) (A)
                 (A) (A) (A) (A) (A) (A) (A) (A) (A) (A) (A) (A)
                 (A) (A) (A) (A) (A) (A) (A) (A) (A) (A) (A) (A)
                 (A) (A) (A) (A) (A) (A) (A) (A) (A) (A) (A) (A)
                 (A) (A) (A) (A) (A) (A) (A) (A) (A) (A) (A) (A)
                 (A) (A) (A) (A) (A) (A) (A) (A) (A) (A) (A) (A)
                 (A) (A) (A) (A) (A) (A) (A) (A) (A) (A) (A) (A)
                 (A) (A) (A) (A) (A) (A) (A) (A) (A) (A) (A) (A)
                 (A) (A) (A) (A) (A) (A) (A) (A) (A) (A) (A) (A)
                 (A) (A) (A) (A) (A) (A) (A) (A) (A) (A) (A) (A)
                 (A) (A) (A) (A) (A) (A) (A) (A) (A) (A) (A) (A)
                 (A) (A) (A) (A) (A) (A) (A) (A) (A) (A) (A) (A)
                 (A) (A) (A) (A) (A) (A) (A) (A) (A) (A) (A) (A)
                 (A) (A) (A) (A) (A) (A) (A) (A) (A) (A) (A) (A)
                 (A) (A) (A) (A) (A) (A) (A) (A) (A) (A) (A) (A)
                 (A) (A) (A) (A) (A) (A) (A) (A) (A) (A) (A) (A)
                 (A) (A) (A) (A) (A) (A) (A) (A) (A) (A) (A) (A)
                 (A) (A) (A) (A) (A) (A) (A) (A) (A) (A) (A) (A)
                 (A) (A) (A) (A) (A) (A) (A) (A) (A) (A) (A) (A)
                 (A) (A) (A) (A) (A) (A) (A) (A) (A) (A) (A) (A)
                 (A) (A) (A) (A) (A) (A) (A) (A) (A) (A) (A) (A)
                 (A) (A) (A) (A) (A) (A) (A) (A) (A) (A) (A) (A)
                 (A) (A) (A) (A) (A) (A) (A) (A) (A) (A) (A) (A)
                 (A) (A) (A) (A) (A) (A) (A) (A) (A) (A) (A) (A)
                 (A) (A) (A) (A) (A) (A) (A) (A) (A) (A) (A) (A)
                 (A) (A) (A) (A) (A) (A) (A) (A) (A) (A) (A) (A)
                 (A) (A) (A) (A) (A) (A) (A) (A) (A) (A) (A) (A)
                 (A) (A) (A) (A) (A) (A) (A) (A) (A) (A) (A) (A)
                 (A) (A) (A) (A) (A) (A) (A) (A) (A) (A) (A) (A)
                 (A) (A) (A) (A) (A) (A) (A) (A) (A) (A) (A) (A)
                 (A) (A) (A) (A) (A) (A) (A) (A) (A) (A) (A) (A)
                 (A) (A) (A) (A) (A) (A) (A) (A) (A) (A) (A) (A)
                 (A) (A) (A) (A) (A) (A) (A) (A) (A) (A) (A) (A)
                 (A) (A) (A) (A) (A) (A) (A) (A) (A) (A) (A) (A)
                 (A) (A) (A) (A) (A) (A) (A) (A) (A) (A) (A) (A)
                 (A) (A) (A) (A) (A) (A) (A) (A) (A) (A) (A) (A)
                 (A) (A) (A) (A) (A) (A) (A) (A) (A) (A) (A) (A)
                 (A) (A) (A) (A) (A) (A) (A) (A) (A) (A) (A) (A)
                 (A) (A) (A) (A) (A) (A) (A) (A) (A) (A) (A) (A)
                 (A) (A) (A) (A) (A) (A) (A) (A) (A) (A) (A) (A)
                 (A) (A) (A) (A) (A) (A) (A) (A) (A) (A) (A) (A)
                 (A) (A) (A) (A) (A) (A) (A) (A) (A) (A) (A) (A)
                 (A) (A) (A) (A) (A) (A) (A) (A) (A) (A) (A) (A)
                 (A) (A) (A) (A) (A) (A) (A) (A) (A) (A) (A) (A)
                 (A) (A) (A) (A) (A) (A) (A) (A) (A) (A) (A) (A)
                 (A) (A) (A) (A) (A) (A) (A) (A) (A) (A) (A) (A)
                 (A) (A) (A) (A) (A) (A) (A) (A) (A) (A) (A) (A)
                 (A) (A) (A) (A) (A) (A) (A) (A) (A) (A) (A) (A)
                 (A) (A) (A) (A) (A) (A) (A) (A)
    20 initial guesses have been made.
 Convergence on wavefunction:    0.001000000000000
 Davidson Disk Diagonalization:  ConvIn= 1.00D-03 SkipCon=T Conv= 1.00D-03.
 Max sub-space:  2000 roots to seek:    20 dimension of matrix:       370304
 Iteration     1 Dimension    20 NMult     0 NNew     20
 CISAX will form    20 AO SS matrices at one time.
 NMat=    20 NSing=    20 JSym2X= 0.
 FoFJK:  IHMeth= 1 ICntrl=       0 DoSepK=T KAlg= 0 I1Cent=           0 FoldK=F
 IRaf=         1 NMat=      40 IRICut=       1 DoRegI=T DoRafI=F ISym2E= 0 IDoP0=3 IntGTp=3.
 FoFCou: FMM=T IPFlag=           0 FMFlag=      100000 FMFlg1=        2001
         NFxFlg=           0 DoJE=F BraDBF=F KetDBF=F FulRan=T
         wScrn=  0.000000 ICntrl=       500 IOpCl=  0 I1Cent=           0 NGrid=           0
         NMat0=   20 NMatS0=     20 NMatT0=    0 NMatD0=   20 NMtDS0=    0 NMtDT0=    0
 Symmetry not used in FoFCou.
 FMM levels:  10  Number of levels for PrismC:   9
 New state      3 was old state      4
 New state      4 was old state      6
 New state      5 was old state      8
 Excitation Energies [eV] at current iteration:
 Root      1 :     2.219164890129123
 Root      2 :     2.627641363331140
 Root      3 :     3.444853411929249
 Root      4 :     3.715034493225176
 Root      5 :     3.929816507133842
 Root      6 :     4.028957148693459
 Root      7 :     4.130980353527966
 Root      8 :     4.323804577505042
 Root      9 :     4.397384891170939
 Root     10 :     4.461936956384871
 Root     11 :     4.534195713940080
 Root     12 :     4.598417988964414
 Root     13 :     4.788050236557119
 Root     14 :     4.909980256537393
 Root     15 :     5.133906772358719
 Root     16 :     5.184996327352374
 Root     17 :     5.320610988264053
 Root     18 :     5.371406886097264
 Root     19 :     6.004972309275527
 Root     20 :     6.185260997150844
 Iteration     2 Dimension    30 NMult    20 NNew     10
 CISAX will form    10 AO SS matrices at one time.
 NMat=    10 NSing=    10 JSym2X= 0.
 Root      1 not converged, maximum delta is    0.076385622214703
 Root      2 not converged, maximum delta is    0.059330821376823
 Root      3 not converged, maximum delta is    0.056075985257528
 Root      4 not converged, maximum delta is    0.053670864162717
 Root      5 not converged, maximum delta is    0.168749745776172
 Excitation Energies [eV] at current iteration:
 Root      1 :     1.732047730066001   Change is   -0.487117160063122
 Root      2 :     2.266080144602358   Change is   -0.361561218728783
 Root      3 :     3.156609617619887   Change is   -0.288243794309362
 Root      4 :     3.388616300690015   Change is   -0.326418192535160
 Root      5 :     3.573818175277470   Change is   -0.355998331856372
 Iteration     3 Dimension    40 NMult    30 NNew     10
 CISAX will form    10 AO SS matrices at one time.
 NMat=    10 NSing=    10 JSym2X= 0.
 Root      1 not converged, maximum delta is    0.016994625364046
 Root      2 not converged, maximum delta is    0.013044154525997
 Root      3 not converged, maximum delta is    0.007475444209917
 Root      4 not converged, maximum delta is    0.076381481465952
 Root      5 not converged, maximum delta is    0.096396190873749
 Excitation Energies [eV] at current iteration:
 Root      1 :     1.694940850648645   Change is   -0.037106879417356
 Root      2 :     2.246645885304422   Change is   -0.019434259297935
 Root      3 :     3.144180420599148   Change is   -0.012429197020739
 Root      4 :     3.360096223478496   Change is   -0.028520077211520
 Root      5 :     3.501302740433100   Change is   -0.072515434844371
 Iteration     4 Dimension    50 NMult    40 NNew     10
 CISAX will form    10 AO SS matrices at one time.
 NMat=    10 NSing=    10 JSym2X= 0.
 Root      1 not converged, maximum delta is    0.002826813397994
 Root      2 not converged, maximum delta is    0.002415405422109
 Root      3 not converged, maximum delta is    0.011395288361055
 Root      4 not converged, maximum delta is    0.012366987021879
 Root      5 not converged, maximum delta is    0.019878609393377
 Excitation Energies [eV] at current iteration:
 Root      1 :     1.690920045185100   Change is   -0.004020805463545
 Root      2 :     2.243923962244841   Change is   -0.002721923059581
 Root      3 :     3.140089132991273   Change is   -0.004091287607875
 Root      4 :     3.356015342853185   Change is   -0.004080880625310
 Root      5 :     3.493453269404667   Change is   -0.007849471028433
 Iteration     5 Dimension    60 NMult    50 NNew     10
 CISAX will form    10 AO SS matrices at one time.
 NMat=    10 NSing=    10 JSym2X= 0.
 Root      1 not converged, maximum delta is    0.001347213178590
 Root      2 has converged.
 Root      3 not converged, maximum delta is    0.010243579930146
 Root      4 not converged, maximum delta is    0.007155735551487
 Root      5 not converged, maximum delta is    0.012795183612672
 Excitation Energies [eV] at current iteration:
 Root      1 :     1.690565744413848   Change is   -0.000354300771252
 Root      2 :     2.243748691827392   Change is   -0.000175270417449
 Root      3 :     3.138784834567805   Change is   -0.001304298423467
 Root      4 :     3.355374444166731   Change is   -0.000640898686454
 Root      5 :     3.492247357849389   Change is   -0.001205911555278
 Iteration     6 Dimension    68 NMult    60 NNew      8
 CISAX will form     8 AO SS matrices at one time.
 NMat=     8 NSing=     8 JSym2X= 0.
 Root      1 has converged.
 Root      2 has converged.
 Root      3 not converged, maximum delta is    0.002833985777177
 Root      4 not converged, maximum delta is    0.003251470696348
 Root      5 not converged, maximum delta is    0.011018598677926
 Excitation Energies [eV] at current iteration:
 Root      1 :     1.690528732196356   Change is   -0.000037012217492
 Root      2 :     2.243746320583174   Change is   -0.000002371244218
 Root      3 :     3.138574360449021   Change is   -0.000210474118784
 Root      4 :     3.355237315855412   Change is   -0.000137128311319
 Root      5 :     3.491886096795576   Change is   -0.000361261053813
 Iteration     7 Dimension    74 NMult    68 NNew      6
 CISAX will form     6 AO SS matrices at one time.
 NMat=     6 NSing=     6 JSym2X= 0.
 Root      1 has converged.
 Root      2 has converged.
 Root      3 has converged.
 Root      4 has converged.
 Root      5 not converged, maximum delta is    0.005019031206032
 Excitation Energies [eV] at current iteration:
 Root      1 :     1.690528370397536   Change is   -0.000000361798820
 Root      2 :     2.243746083815675   Change is   -0.000000236767499
 Root      3 :     3.138549770749518   Change is   -0.000024589699503
 Root      4 :     3.355215660866540   Change is   -0.000021654988872
 Root      5 :     3.491800421120675   Change is   -0.000085675674900
 Iteration     8 Dimension    76 NMult    74 NNew      2
 CISAX will form     2 AO SS matrices at one time.
 NMat=     2 NSing=     2 JSym2X= 0.
 Root      1 has converged.
 Root      2 has converged.
 Root      3 has converged.
 Root      4 has converged.
 Root      5 not converged, maximum delta is    0.002330358891839
 Excitation Energies [eV] at current iteration:
 Root      1 :     1.690528364101241   Change is   -0.000000006296295
 Root      2 :     2.243745087209444   Change is   -0.000000996606231
 Root      3 :     3.138549693343718   Change is   -0.000000077405800
 Root      4 :     3.355214938136208   Change is   -0.000000722730333
 Root      5 :     3.491779648274818   Change is   -0.000020772845857
 Iteration     9 Dimension    78 NMult    76 NNew      2
 CISAX will form     2 AO SS matrices at one time.
 NMat=     2 NSing=     2 JSym2X= 0.
 Root      1 has converged.
 Root      2 has converged.
 Root      3 has converged.
 Root      4 has converged.
 Root      5 has converged.
 Excitation Energies [eV] at current iteration:
 Root      1 :     1.690528343748305   Change is   -0.000000020352936
 Root      2 :     2.243744985909226   Change is   -0.000000101300218
 Root      3 :     3.138549651300943   Change is   -0.000000042042775
 Root      4 :     3.355214875139661   Change is   -0.000000062996546
 Root      5 :     3.491775744028257   Change is   -0.000003904246562
 Convergence achieved on expansion vectors.
 ***********************************************************************
 Excited states from <AA,BB:AA,BB> singles matrix:
 ***********************************************************************
 
 1PDM for each excited state written to RWF  633
 Ground to excited state transition densities written to RWF  633
 Ground to excited state transition electric dipole moments (Au):
       state          X           Y           Z        Dip. S.      Osc.
         1         1.8213     -2.2436      0.8116      9.0100      0.3732
         2        -0.6248     -0.9784     -0.6777      1.8069      0.0993
         3        -0.0076      0.1395      0.0835      0.0265      0.0020
         4         0.3700      0.6206      0.2626      0.5910      0.0486
         5        -0.0107     -0.0010     -0.0142      0.0003      0.0000
 Ground to excited state transition velocity dipole moments (Au):
       state          X           Y           Z        Dip. S.      Osc.
         1        -0.1084      0.1360     -0.0484      0.0326      0.3497
         2         0.0480      0.0768      0.0520      0.0109      0.0882
         3         0.0007     -0.0153     -0.0079      0.0003      0.0017
         4        -0.0403     -0.0748     -0.0301      0.0081      0.0439
         5        -0.0008     -0.0010     -0.0013      0.0000      0.0000
 Ground to excited state transition magnetic dipole moments (Au):
       state          X           Y           Z
         1         0.0318      0.5026      1.4125
         2         0.1862     -0.5691      0.6905
         3        -0.5928     -0.0392      0.3956
         4        -0.6674      0.5271     -0.0516
         5        -0.0645      0.5325     -0.1952
 Ground to excited state transition velocity quadrupole moments (Au):
       state          XX          YY          ZZ          XY          XZ          YZ
         1        -1.7167      0.5824      0.1328      0.7665     -0.2820     -0.2681
         2         0.7464      0.2570     -0.0932      0.6170      0.4513      0.0362
         3         0.1798     -0.4233      0.0552     -0.0274      0.0600     -0.1469
         4        -0.3927     -0.2375      0.0176     -0.7759     -0.2683     -0.1257
         5        -0.1477      0.1791     -0.0100      0.1510     -0.0429      0.1292
 <0|del|b> * <b|rxdel|0> + <0|del|b> * <b|delr+rdel|0>
 Rotatory Strengths (R) in cgs (10**-40 erg-esu-cm/Gauss)
       state          XX          YY          ZZ    R(velocity)    E-M Angle
         1         7.2871    -32.1680    -14.1712    -13.0174       90.73
         2       -44.2617     62.1780     -7.9127      3.3346       89.30
         3        -4.3154    -11.9317     -1.9526     -6.0666      103.94
         4       -99.1664     29.0983      7.0664    -21.0006       98.22
         5        -1.4548      1.0833     -0.9399     -0.4371      103.18
 1/2[<0|r|b>*<b|rxdel|0> + (<0|rxdel|b>*<b|r|0>)*]
 Rotatory Strengths (R) in cgs (10**-40 erg-esu-cm/Gauss)
       state          XX          YY          ZZ     R(length)
         1       -40.9113    797.3998   -810.6924    -18.0680
         2        82.2527   -393.7122    330.9524      6.4976
         3        -3.1860      3.8711    -23.3564     -7.5571
         4       174.6330   -231.3279      9.5904    -15.7015
         5        -0.4889      0.3613     -1.9551     -0.6942
  1/2[<0|del|b>*<b|r|0> + (<0|r|b>*<b|del|0>)*] (Au)
       state          X           Y           Z        Dip. S.   Osc.(frdel)
         1        -0.1974     -0.3052     -0.0393      0.5419      0.3612
         2        -0.0300     -0.0751     -0.0353      0.1404      0.0936
         3        -0.0000     -0.0021     -0.0007      0.0028      0.0019
         4        -0.0149     -0.0464     -0.0079      0.0692      0.0462
         5         0.0000      0.0000      0.0000     -0.0000     -0.0000

 Excitation energies and oscillator strengths:
 
 Excited State   1:      Singlet-A      1.6905 eV  733.40 nm  f=0.3732  <S**2>=0.000
     245 -> 248        0.17238
     246 -> 247        0.68758
     245 <- 248        0.10685
 This state for optimization and/or second-order correction.
 Total Energy, E(TD-HF/TD-DFT) =  -3007.06130157    
 Copying the excited state density for this state as the 1-particle RhoCI density.
 
 Excited State   2:      Singlet-A      2.2437 eV  552.58 nm  f=0.0993  <S**2>=0.000
     245 -> 247        0.62983
     246 -> 248       -0.30505
 
 Excited State   3:      Singlet-A      3.1385 eV  395.04 nm  f=0.0020  <S**2>=0.000
     242 -> 247        0.12324
     244 -> 247        0.67446
 
 Excited State   4:      Singlet-A      3.3552 eV  369.53 nm  f=0.0486  <S**2>=0.000
     240 -> 247        0.13262
     242 -> 247        0.59135
     246 -> 248       -0.28738
 
 Excited State   5:      Singlet-A      3.4918 eV  355.07 nm  f=0.0000  <S**2>=0.000
     240 -> 247        0.60867
     240 -> 249       -0.20608
     240 -> 251       -0.14743
     242 -> 247       -0.17775
 SavETr:  write IOETrn=   770 NScale= 10 NData=  16 NLR=1 NState=    5 LETran=     100.
 Leave Link  914 at Wed Apr 27 20:31:56 2022, MaxMem= 10066329600 cpu:           26096.1 elap:            1098.1
 (Enter /sw/apps/gaussian-16.0/g16/l601.exe)
 Copying SCF densities to generalized density rwf, IOpCl= 0 IROHF=0.
 Hyperfine terms turned off by default for NAtoms > 100.

 **********************************************************************

            Population analysis using the SCF density.

 **********************************************************************

 Orbital symmetries:
       Occupied  (A) (A) (A) (A) (A) (A) (A) (A) (A) (A) (A) (A)
                 (A) (A) (A) (A) (A) (A) (A) (A) (A) (A) (A) (A)
                 (A) (A) (A) (A) (A) (A) (A) (A) (A) (A) (A) (A)
                 (A) (A) (A) (A) (A) (A) (A) (A) (A) (A) (A) (A)
                 (A) (A) (A) (A) (A) (A) (A) (A) (A) (A) (A) (A)
                 (A) (A) (A) (A) (A) (A) (A) (A) (A) (A) (A) (A)
                 (A) (A) (A) (A) (A) (A) (A) (A) (A) (A) (A) (A)
                 (A) (A) (A) (A) (A) (A) (A) (A) (A) (A) (A) (A)
                 (A) (A) (A) (A) (A) (A) (A) (A) (A) (A) (A) (A)
                 (A) (A) (A) (A) (A) (A) (A) (A) (A) (A) (A) (A)
                 (A) (A) (A) (A) (A) (A) (A) (A) (A) (A) (A) (A)
                 (A) (A) (A) (A) (A) (A) (A) (A) (A) (A) (A) (A)
                 (A) (A) (A) (A) (A) (A) (A) (A) (A) (A) (A) (A)
[...]
 Alpha virt. eigenvalues --    1.19774   1.20030   1.20202   1.20455   1.21177
 Alpha virt. eigenvalues --    1.21738   1.22383   1.23004   1.24042   1.24067
 Alpha virt. eigenvalues --    1.24430   1.24608   1.25249   1.25501   1.26622
 Alpha virt. eigenvalues --    1.27655   1.28231   1.28782   1.28944   1.29133
 Alpha virt. eigenvalues --    1.29620   1.29981   1.30251   1.30608   1.31019
 Alpha virt. eigenvalues --    1.31465   1.31946   1.32134   1.33158   1.33531
 Alpha virt. eigenvalues --    1.34032   1.34301   1.34618   1.35532   1.36154
 Alpha virt. eigenvalues --    1.36494   1.36545   1.37351   1.38003   1.38348
 Alpha virt. eigenvalues --    1.38808   1.38990   1.39195   1.39536   1.40010
 Alpha virt. eigenvalues --    1.40174   1.41121   1.41645   1.42170   1.42833
 Alpha virt. eigenvalues --    1.43101   1.43451   1.43742   1.44164   1.44758
 Alpha virt. eigenvalues --    1.45040   1.45661   1.45708   1.45945   1.47301
 Alpha virt. eigenvalues --    1.47728   1.48442   1.48602   1.48831   1.49203
 Alpha virt. eigenvalues --    1.49268   1.49780   1.50541   1.50591   1.51131
 Alpha virt. eigenvalues --    1.51405   1.51578   1.52118   1.52271   1.52541
 Alpha virt. eigenvalues --    1.52870   1.53432   1.53841   1.54565   1.54710
 Alpha virt. eigenvalues --    1.55096   1.55280   1.56128   1.56624   1.56900
 Alpha virt. eigenvalues --    1.57081   1.57119   1.58283   1.58488   1.58641
 Alpha virt. eigenvalues --    1.59014   1.59321   1.59847   1.59994   1.60103
 Alpha virt. eigenvalues --    1.60401   1.60561   1.61033   1.61309   1.61543
 Alpha virt. eigenvalues --    1.61616   1.61812   1.61869   1.62224   1.62552
 Alpha virt. eigenvalues --    1.62783   1.63161   1.63319   1.63576   1.64121
 Alpha virt. eigenvalues --    1.64706   1.64771   1.64922   1.65047   1.65294
 Alpha virt. eigenvalues --    1.65582   1.65793   1.66061   1.66187   1.67170
 Alpha virt. eigenvalues --    1.67606   1.67813   1.68021   1.68289   1.69130
 Alpha virt. eigenvalues --    1.69257   1.69718   1.70158   1.70409   1.71569
 Alpha virt. eigenvalues --    1.72166   1.72318   1.72625   1.72874   1.73112
 Alpha virt. eigenvalues --    1.74238   1.74854   1.75031   1.75573   1.75945
 Alpha virt. eigenvalues --    1.76200   1.76398   1.77008   1.77270   1.77352
 Alpha virt. eigenvalues --    1.77529   1.77772   1.78110   1.78687   1.79306
 Alpha virt. eigenvalues --    1.79450   1.79484   1.79881   1.80158   1.80342
 Alpha virt. eigenvalues --    1.80798   1.80899   1.80984   1.81081   1.81349
 Alpha virt. eigenvalues --    1.81685   1.81745   1.82001   1.82064   1.82402
 Alpha virt. eigenvalues --    1.82470   1.82768   1.82804   1.83006   1.83220
 Alpha virt. eigenvalues --    1.83952   1.84032   1.84105   1.84307   1.84591
 Alpha virt. eigenvalues --    1.84720   1.84974   1.85368   1.85444   1.85568
 Alpha virt. eigenvalues --    1.85761   1.85892   1.86076   1.86313   1.86403
 Alpha virt. eigenvalues --    1.86457   1.86866   1.87034   1.87278   1.87414
 Alpha virt. eigenvalues --    1.87670   1.88170   1.88242   1.88361   1.88417
 Alpha virt. eigenvalues --    1.88561   1.88808   1.88947   1.89008   1.89341
 Alpha virt. eigenvalues --    1.89536   1.89711   1.90165   1.90693   1.90826
 Alpha virt. eigenvalues --    1.90858   1.91243   1.91377   1.91423   1.91590
 Alpha virt. eigenvalues --    1.91772   1.91929   1.92527   1.92627   1.92825
 Alpha virt. eigenvalues --    1.93167   1.93758   1.93957   1.94036   1.94119
 Alpha virt. eigenvalues --    1.94273   1.94341   1.94539   1.94871   1.95343
 Alpha virt. eigenvalues --    1.95606   1.95874   1.96127   1.96417   1.96620
 Alpha virt. eigenvalues --    1.96720   1.97025   1.97458   1.97609   1.98001
 Alpha virt. eigenvalues --    1.98171   1.98280   1.98874   1.99253   1.99412
 Alpha virt. eigenvalues --    1.99691   2.00125   2.00405   2.00602   2.00966
 Alpha virt. eigenvalues --    2.01074   2.01650   2.01785   2.01875   2.02138
 Alpha virt. eigenvalues --    2.02822   2.03009   2.03110   2.03368   2.03748
 Alpha virt. eigenvalues --    2.03909   2.04091   2.04334   2.04528   2.04694
 Alpha virt. eigenvalues --    2.05034   2.05222   2.05494   2.05584   2.05952
 Alpha virt. eigenvalues --    2.06300   2.06471   2.07108   2.07494   2.07917
 Alpha virt. eigenvalues --    2.08121   2.08392   2.08521   2.08673   2.08910
 Alpha virt. eigenvalues --    2.09225   2.09558   2.09664   2.10327   2.10551
 Alpha virt. eigenvalues --    2.10879   2.11339   2.11388   2.11711   2.12239
 Alpha virt. eigenvalues --    2.12783   2.13220   2.13975   2.14043   2.14316
 Alpha virt. eigenvalues --    2.14445   2.14691   2.14953   2.15133   2.15282
 Alpha virt. eigenvalues --    2.15488   2.15946   2.16138   2.16380   2.17109
 Alpha virt. eigenvalues --    2.17250   2.17505   2.17699   2.17717   2.18032
 Alpha virt. eigenvalues --    2.18369   2.18937   2.19022   2.19145   2.19318
 Alpha virt. eigenvalues --    2.19810   2.20170   2.20897   2.21101   2.21295
 Alpha virt. eigenvalues --    2.22073   2.22321   2.22499   2.22710   2.22725
 Alpha virt. eigenvalues --    2.23086   2.23362   2.23639   2.23891   2.24493
 Alpha virt. eigenvalues --    2.25353   2.25415   2.26095   2.26486   2.26597
 Alpha virt. eigenvalues --    2.26883   2.27039   2.27928   2.28628   2.28952
 Alpha virt. eigenvalues --    2.29086   2.29535   2.29981   2.30238   2.30970
 Alpha virt. eigenvalues --    2.31294   2.32302   2.32472   2.32840   2.32940
 Alpha virt. eigenvalues --    2.33518   2.34239   2.34437   2.34627   2.34935
 Alpha virt. eigenvalues --    2.35199   2.35682   2.36292   2.36989   2.37101
 Alpha virt. eigenvalues --    2.37670   2.38053   2.38179   2.38541   2.39079
 Alpha virt. eigenvalues --    2.39626   2.39845   2.40004   2.40164   2.40372
 Alpha virt. eigenvalues --    2.40759   2.41004   2.41230   2.41396   2.41771
 Alpha virt. eigenvalues --    2.41950   2.42396   2.42724   2.43131   2.43484
 Alpha virt. eigenvalues --    2.43524   2.44293   2.44507   2.44861   2.45491
 Alpha virt. eigenvalues --    2.45561   2.46606   2.46926   2.47181   2.48009
 Alpha virt. eigenvalues --    2.48069   2.48346   2.48726   2.48796   2.49351
 Alpha virt. eigenvalues --    2.49520   2.49897   2.50287   2.50923   2.51021
 Alpha virt. eigenvalues --    2.51596   2.52545   2.52880   2.52939   2.53371
 Alpha virt. eigenvalues --    2.53760   2.53886   2.54221   2.54394   2.55053
 Alpha virt. eigenvalues --    2.55387   2.55778   2.55913   2.56677   2.57036
 Alpha virt. eigenvalues --    2.57446   2.58389   2.58969   2.59389   2.60128
 Alpha virt. eigenvalues --    2.60744   2.61289   2.61476   2.61842   2.62425
 Alpha virt. eigenvalues --    2.62718   2.62875   2.63123   2.63532   2.64082
 Alpha virt. eigenvalues --    2.64386   2.64887   2.65379   2.65944   2.65984
 Alpha virt. eigenvalues --    2.66630   2.66708   2.67210   2.67506   2.68232
 Alpha virt. eigenvalues --    2.69378   2.69760   2.69926   2.70062   2.70201
 Alpha virt. eigenvalues --    2.70582   2.71355   2.71858   2.71943   2.72579
 Alpha virt. eigenvalues --    2.72933   2.73350   2.74509   2.75052   2.75533
 Alpha virt. eigenvalues --    2.76009   2.76180   2.76745   2.77453   2.77675
 Alpha virt. eigenvalues --    2.78269   2.78377   2.78397   2.78845   2.79062
 Alpha virt. eigenvalues --    2.79108   2.79688   2.80108   2.80573   2.80607
 Alpha virt. eigenvalues --    2.81260   2.81649   2.81879   2.82178   2.82216
 Alpha virt. eigenvalues --    2.82538   2.83088   2.83383   2.83621   2.84506
 Alpha virt. eigenvalues --    2.84731   2.85027   2.85643   2.87109   2.87927
 Alpha virt. eigenvalues --    2.88234   2.89362   2.89693   2.89985   2.90746
 Alpha virt. eigenvalues --    2.91382   2.91563   2.91796   2.92146   2.92555
 Alpha virt. eigenvalues --    2.92863   2.93240   2.93415   2.94362   2.94946
 Alpha virt. eigenvalues --    2.95107   2.95169   2.96071   2.96326   2.96815
 Alpha virt. eigenvalues --    2.97184   2.97318   2.97506   2.98075   2.98301
 Alpha virt. eigenvalues --    2.98493   2.98735   2.98965   2.99056   2.99611
 Alpha virt. eigenvalues --    3.00128   3.00178   3.00379   3.00642   3.00699
 Alpha virt. eigenvalues --    3.00958   3.01050   3.01815   3.02068   3.02211
 Alpha virt. eigenvalues --    3.02741   3.02917   3.03048   3.03255   3.03608
 Alpha virt. eigenvalues --    3.03703   3.04200   3.04622   3.04719   3.04786
 Alpha virt. eigenvalues --    3.05112   3.05459   3.05690   3.05758   3.05987
 Alpha virt. eigenvalues --    3.06523   3.06950   3.07062   3.07270   3.08438
 Alpha virt. eigenvalues --    3.08900   3.09557   3.09879   3.10482   3.10999
 Alpha virt. eigenvalues --    3.11053   3.11201   3.11957   3.12739   3.13113
 Alpha virt. eigenvalues --    3.13457   3.14080   3.14237   3.14954   3.15247
 Alpha virt. eigenvalues --    3.16182   3.17120   3.17270   3.17496   3.19189
 Alpha virt. eigenvalues --    3.19437   3.20230   3.21001   3.21334   3.22609
 Alpha virt. eigenvalues --    3.23157   3.23600   3.24040   3.25132   3.25818
 Alpha virt. eigenvalues --    3.26545   3.28059   3.28584   3.30003   3.30093
 Alpha virt. eigenvalues --    3.33833   3.34924   3.43227   3.45006   3.45304
 Alpha virt. eigenvalues --    3.47558   3.48007   3.54442   3.54981   3.57243
 Alpha virt. eigenvalues --    3.63265   3.66045   3.67686   3.68783   3.71272
 Alpha virt. eigenvalues --    3.72780   3.81855
          Condensed to atoms (all electrons):
 Mulliken charges:
               1
     1  Mg   0.803210
     2  C   -0.070097
     3  C   -0.051392
     4  C   -0.053908
     5  C   -0.083972
     6  N   -0.310446
     7  C   -0.046168
     8  C   -0.035547
     9  C   -0.082308
    10  C    0.009993
    11  C    0.106499
    12  C    0.079828
    13  C    0.072267
    14  C    0.175661
    15  O   -0.236115
    16  O   -0.321101
    17  N   -0.352913
    18  C    0.147444
    19  C   -0.162658
    20  C   -0.034308
    21  C    0.112300
    22  C    0.128797
    23  C   -0.010725
    24  O   -0.238477
    25  C    0.062178
    26  N   -0.297113
    27  C    0.057948
    28  C   -0.060014
    29  C   -0.016978
    30  C    0.083943
    31  C    0.086529
    32  C   -0.005035
    33  C    0.027872
    34  N   -0.352496
    35  C    0.085331
    36  C   -0.148817
    37  C    0.014169
    38  C    0.164702
    39  C    0.111378
    40  C    0.009923
    41  O   -0.101274
    42  C    0.089343
    43  C    0.194060
    44  O   -0.233167
    45  O   -0.363376
    46  C    0.156794
    47  C    0.305613
    48  C   -0.140511
    49  C   -0.217900
    50  C    0.074944
    51  C    0.054279
    52  C    0.003105
    53  C    0.073324
    54  C   -0.141404
    55  C    0.060650
    56  C    0.063487
    57  C    0.049533
    58  C    0.036747
    59  C   -0.173419
    60  C    0.057804
    61  C    0.089074
    62  C    0.009046
    63  C    0.025189
    64  C   -0.177436
    65  C    0.037798
    66  C    0.060200
    67  H   -0.028078
    68  H   -0.035093
    69  H   -0.029080
    70  H    0.005663
    71  H    0.001214
    72  H    0.021206
    73  H    0.009353
    74  H    0.029430
    75  H    0.008702
    76  H    0.049646
    77  H    0.009937
    78  H    0.023578
    79  H    0.033368
    80  H    0.000828
    81  H    0.037579
    82  H    0.029123
    83  H    0.036683
    84  H    0.055688
    85  H    0.018886
    86  H   -0.001834
    87  H    0.022946
    88  H    0.008904
    89  H    0.015603
    90  H   -0.001572
    91  H   -0.017002
    92  H    0.030629
    93  H    0.015910
    94  H    0.015912
    95  H    0.040668
    96  H    0.034830
    97  H    0.002373
    98  H    0.036458
    99  H    0.018755
   100  H    0.087035
   101  H    0.027007
   102  H    0.048046
   103  H    0.026018
   104  H   -0.008689
   105  H    0.033882
   106  H    0.032326
   107  H    0.004243
   108  H   -0.001638
   109  H    0.019996
   110  H   -0.010442
   111  H   -0.001462
   112  H   -0.006601
   113  H   -0.020562
   114  H   -0.005151
   115  H    0.014512
   116  H    0.009434
   117  H   -0.000959
   118  H   -0.013956
   119  H   -0.005113
   120  H    0.009103
   121  H    0.000522
   122  H   -0.009701
   123  H   -0.005974
   124  H    0.003165
   125  H    0.002773
   126  H    0.019261
   127  H   -0.009108
   128  H   -0.008231
   129  H   -0.005480
   130  H   -0.007105
   131  H   -0.005927
   132  H   -0.015361
   133  H   -0.014464
   134  H    0.001871
   135  H    0.014999
   136  H    0.010114
   137  H    0.003706
   138  H    0.022614
   139  H    0.000497
   140  H    0.001699
 Sum of Mulliken charges =  -0.00000
 Mulliken charges with hydrogens summed into heavy atoms:
               1
     1  Mg   0.803210
     2  C   -0.070097
     3  C   -0.079470
     4  C   -0.089000
     5  C   -0.113053
     6  N   -0.310446
     7  C   -0.046168
     8  C   -0.029884
     9  C   -0.081094
    10  C    0.009993
    11  C    0.166488
    12  C    0.138176
    13  C    0.105782
    14  C    0.175661
    15  O   -0.236115
    16  O   -0.321101
    17  N   -0.352913
    18  C    0.147444
    19  C   -0.162658
    20  C   -0.034308
    21  C    0.112300
    22  C    0.200572
    23  C   -0.010725
    24  O   -0.238477
    25  C    0.183673
    26  N   -0.297113
    27  C    0.057948
    28  C   -0.041128
    29  C   -0.018812
    30  C    0.083943
    31  C    0.133982
    32  C   -0.023610
    33  C    0.090323
    34  N   -0.352496
    35  C    0.085331
    36  C   -0.148817
    37  C    0.014169
    38  C    0.164702
    39  C    0.189249
    40  C    0.009923
    41  O   -0.101274
    42  C    0.125801
    43  C    0.194060
    44  O   -0.233167
    45  O   -0.363376
    46  C    0.289591
    47  C    0.379676
    48  C   -0.149199
    49  C   -0.217900
    50  C    0.145394
    51  C    0.072637
    52  C   -0.008798
    53  C    0.046161
    54  C   -0.146555
    55  C    0.083637
    56  C    0.044418
    57  C    0.059158
    58  C    0.021073
    59  C   -0.170255
    60  C    0.070729
    61  C    0.075363
    62  C   -0.003985
    63  C   -0.004636
    64  C   -0.175565
    65  C    0.066616
    66  C    0.085010
 Electronic spatial extent (au):  <R**2>=          94427.9355
 Charge=             -0.0000 electrons
 Dipole moment (field-independent basis, Debye):
    X=              0.7597    Y=              2.0584    Z=              0.2715  Tot=              2.2109
 Quadrupole moment (field-independent basis, Debye-Ang):
   XX=           -372.1889   YY=           -443.4841   ZZ=           -388.1796
   XY=             49.8445   XZ=              5.5539   YZ=             19.5284
 Traceless Quadrupole moment (field-independent basis, Debye-Ang):
   XX=             29.0953   YY=            -42.1999   ZZ=             13.1046
   XY=             49.8445   XZ=              5.5539   YZ=             19.5284
 Octapole moment (field-independent basis, Debye-Ang**2):
  XXX=            283.1430  YYY=           -129.7087  ZZZ=            -14.6797  XYY=            -61.1563
  XXY=            191.6516  XXZ=            162.5151  XZZ=             87.8148  YZZ=            -47.6303
  YYZ=             82.4719  XYZ=             66.7152
 Hexadecapole moment (field-independent basis, Debye-Ang**3):
 XXXX=         -86302.3792 YYYY=         -31519.3162 ZZZZ=         -12089.3242 XXXY=           1320.6804
 XXXZ=            646.4789 YYYX=           1380.6941 YYYZ=            994.0182 ZZZX=             91.0162
 ZZZY=            123.6393 XXYY=         -19942.4437 XXZZ=         -16640.1790 YYZZ=          -6832.7850
 XXYZ=            -41.6921 YYXZ=            152.4904 ZZXY=            133.9419
 N-N= 9.788251133757D+03 E-N=-2.656843338936D+04  KE= 2.975890448322D+03
 Leave Link  601 at Wed Apr 27 20:31:57 2022, MaxMem= 10066329600 cpu:              11.1 elap:               0.6
 (Enter /sw/apps/gaussian-16.0/g16/l9999.exe)
 1\1\GINC-BP1-COMPUTE142\SP\RCAM-B3LYP TD-FC\def2SVP\C55H74Mg1N4O6\OF15
 641\27-Apr-2022\0\\#p cam-b3lyp/Def2SVP td=(nstates=5)\\step_1301_chro
 mophore_20 TDDFT with cam-b3lyp functional\\0,1\Mg,0,5.184,57.097,41.9
 26\C,0,5.249,53.612,41.469\C,0,8.132,57.336,40.27\C,0,4.652,60.5,41.75
 2\C,0,1.902,56.67,43.241\N,0,6.384,55.646,40.892\C,0,6.215,54.276,40.7
 76\C,0,7.365,53.705,39.909\C,0,8.445,54.756,40.066\C,0,7.631,56.011,40
 .427\C,0,9.522,54.429,41.106\C,0,6.842,53.417,38.46\C,0,7.358,52.085,3
 7.826\C,0,6.501,51.572,36.688\O,0,5.612,50.715,36.791\O,0,6.932,52.158
 ,35.545\N,0,6.273,58.764,41.087\C,0,7.505,58.592,40.525\C,0,7.912,59.8
 9,40.09\C,0,6.877,60.836,40.419\C,0,5.904,60.062,41.162\C,0,9.303,60.1
 35,39.499\C,0,6.902,62.346,40.106\O,0,7.965,62.881,39.727\C,0,5.766,63
 .27,40.375\N,0,3.497,58.345,42.392\C,0,3.696,59.729,42.439\C,0,2.424,6
 0.449,42.985\C,0,1.635,59.234,43.499\C,0,2.403,57.957,43.043\C,0,2.757
 ,61.52,44.013\C,0,0.086,59.146,43.161\C,0,-1.032,58.623,44.109\N,0,3.8
 85,55.525,42.43\C,0,2.576,55.468,42.945\C,0,2.153,54.096,43.083\C,0,3.
 216,53.4,42.564\C,0,4.219,54.268,42.086\C,0,1.009,53.626,43.822\C,0,3.
 696,52.067,42.415\O,0,3.309,51.007,42.724\C,0,5.033,52.161,41.713\C,0,
 5.011,51.333,40.476\O,0,4.154,51.345,39.558\O,0,5.97,50.304,40.585\C,0
 ,5.914,49.257,39.578\C,0,6.181,51.833,34.347\C,0,6.373,52.818,33.245\C
 ,0,5.904,52.843,31.977\C,0,4.85,51.898,31.388\C,0,6.249,54.014,31.036\
 C,0,5.786,55.391,31.58\C,0,5.082,56.25,30.601\C,0,5.884,57.351,29.829\
 C,0,4.969,57.956,28.723\C,0,7.195,56.878,29.271\C,0,8.151,58.103,29.14
 8\C,0,9.196,58.293,30.32\C,0,10.703,58.087,29.858\C,0,11.041,56.558,29
 .94\C,0,11.618,58.926,30.711\C,0,12.16,60.143,29.925\C,0,13.652,59.965
 ,29.521\C,0,14.008,58.711,28.679\C,0,15.213,57.879,29.316\C,0,14.146,5
 9.051,27.168\H,0,9.094,57.361,39.753\H,0,4.459,61.574,41.713\H,0,1.031
 ,56.508,43.88\H,0,7.684,52.735,40.29\H,0,9.013,55.166,39.231\H,0,10.49
 2,54.546,40.623\H,0,9.423,53.367,41.333\H,0,9.28,55.064,41.958\H,0,7.3
 95,54.192,37.931\H,0,5.765,53.576,38.401\H,0,7.371,51.33,38.611\H,0,8.
 377,52.164,37.446\H,0,9.065,60.798,38.667\H,0,9.821,59.242,39.151\H,0,
 9.935,60.675,40.204\H,0,4.877,62.803,39.951\H,0,6.046,64.182,39.846\H,
 0,5.61,63.42,41.443\H,0,1.785,60.886,42.218\H,0,1.657,59.093,44.58\H,0
 ,3.84,61.625,43.952\H,0,2.47,61.222,45.022\H,0,2.161,62.405,43.788\H,0
 ,-0.059,58.88,42.114\H,0,-0.191,60.182,42.97\H,0,-1.664,59.408,44.526\
 H,0,-0.452,58.002,44.791\H,0,-1.699,57.912,43.622\H,0,1.212,53.582,44.
 892\H,0,0.532,52.714,43.461\H,0,0.178,54.323,43.718\H,0,5.846,51.811,4
 2.349\H,0,6.96,48.984,39.433\H,0,5.406,49.495,38.644\H,0,5.454,48.392,
 40.056\H,0,5.1,51.717,34.429\H,0,6.613,50.912,33.956\H,0,7.032,53.649,
 33.497\H,0,5.305,51.269,30.623\H,0,4.099,52.633,31.1\H,0,4.399,51.214,
 32.107\H,0,5.883,53.7,30.058\H,0,7.339,53.997,31.015\H,0,6.663,55.793,
 32.087\H,0,5.172,55.306,32.477\H,0,4.223,56.594,31.177\H,0,4.727,55.54
 4,29.851\H,0,5.993,58.109,30.605\H,0,4.844,59.005,28.99\H,0,3.991,57.5
 11,28.536\H,0,5.484,57.798,27.776\H,0,7.024,56.526,28.254\H,0,7.59,56.
 01,29.798\H,0,7.524,58.99,29.237\H,0,8.785,57.926,28.279\H,0,9.028,57.
 571,31.12\H,0,9.092,59.275,30.783\H,0,10.882,58.398,28.829\H,0,11.707,
 56.362,30.78\H,0,11.408,56.16,28.994\H,0,10.136,56.01,30.2\H,0,12.522,
 58.414,31.039\H,0,11.035,59.21,31.587\H,0,11.985,61.063,30.482\H,0,11.
 76,60.358,28.934\H,0,14.186,60.064,30.465\H,0,14.061,60.84,29.014\H,0,
 13.279,57.91,28.798\H,0,14.874,56.861,29.507\H,0,15.558,58.314,30.254\
 H,0,15.984,57.982,28.553\H,0,15.174,59.152,26.82\H,0,13.616,59.955,26.
 87\H,0,13.514,58.336,26.643\\Version=ES64L-G16RevA.03\State=1-A\HF=-30
 07.1234273\RMSD=8.228e-09\PG=C01 [X(C55H74Mg1N4O6)]\\@


 CONTRAIWISE...CONTINUED TWEEDLEDEE, IF IT WAS SO, IT MIGHT BE,
 AND IF IT WERE SO, IT WOULD BE.....
 BUT AS IT ISN'T, IT AIN'T....
 THAT'S LOGIC.....
 ALICE THROUGH THE LOOKING GLASS
 Job cpu time:       0 days  9 hours 42 minutes 15.2 seconds.
 Elapsed time:       0 days  0 hours 24 minutes 42.2 seconds.
 File lengths (MBytes):  RWF=   8929 Int=      0 D2E=      0 Chk=    390 Scr=      1
 Normal termination of Gaussian 16 at Wed Apr 27 20:31:58 2022.
