 Entering Gaussian System, Link 0=g16
 Initial command:
 /sw/apps/gaussian-16.0/g16/l1.exe "/tmp/Gau-226765.inp" -scrdir="/tmp/"
 Entering Link 1 = /sw/apps/gaussian-16.0/g16/l1.exe PID=    226766.
  
 Copyright (c) 1988,1990,1992,1993,1995,1998,2003,2009,2016,
            Gaussian, Inc.  All Rights Reserved.
  
 This is part of the Gaussian(R) 16 program.  It is based on
 the Gaussian(R) 09 system (copyright 2009, Gaussian, Inc.),
 the Gaussian(R) 03 system (copyright 2003, Gaussian, Inc.),
 the Gaussian(R) 98 system (copyright 1998, Gaussian, Inc.),
 the Gaussian(R) 94 system (copyright 1995, Gaussian, Inc.),
 the Gaussian 92(TM) system (copyright 1992, Gaussian, Inc.),
 the Gaussian 90(TM) system (copyright 1990, Gaussian, Inc.),
 the Gaussian 88(TM) system (copyright 1988, Gaussian, Inc.),
 the Gaussian 86(TM) system (copyright 1986, Carnegie Mellon
 University), and the Gaussian 82(TM) system (copyright 1983,
 Carnegie Mellon University). Gaussian is a federally registered
 trademark of Gaussian, Inc.
  
 This software contains proprietary and confidential information,
 including trade secrets, belonging to Gaussian, Inc.
  
 This software is provided under written license and may be
 used, copied, transmitted, or stored only in accord with that
 written license.
  
 The following legend is applicable only to US Government
 contracts under FAR:
  
                    RESTRICTED RIGHTS LEGEND
  
 Use, reproduction and disclosure by the US Government is
 subject to restrictions as set forth in subparagraphs (a)
 and (c) of the Commercial Computer Software - Restricted
 Rights clause in FAR 52.227-19.
  
 Gaussian, Inc.
 340 Quinnipiac St., Bldg. 40, Wallingford CT 06492
  
  
 ---------------------------------------------------------------
 Warning -- This program may not be used in any manner that
 competes with the business of Gaussian, Inc. or will provide
 assistance to any competitor of Gaussian, Inc.  The licensee
 of this program is prohibited from giving any competitor of
 Gaussian, Inc. access to this program.  By using this program,
 the user acknowledges that Gaussian, Inc. is engaged in the
 business of creating and licensing software in the field of
 computational chemistry and represents and warrants to the
 licensee that it is not a competitor of Gaussian, Inc. and that
 it will not use this program in any manner prohibited above.
 ---------------------------------------------------------------
  

 Cite this work as:
 Gaussian 16, Revision A.03,
 M. J. Frisch, G. W. Trucks, H. B. Schlegel, G. E. Scuseria, 
 M. A. Robb, J. R. Cheeseman, G. Scalmani, V. Barone, 
 G. A. Petersson, H. Nakatsuji, X. Li, M. Caricato, A. V. Marenich, 
 J. Bloino, B. G. Janesko, R. Gomperts, B. Mennucci, H. P. Hratchian, 
 J. V. Ortiz, A. F. Izmaylov, J. L. Sonnenberg, D. Williams-Young, 
 F. Ding, F. Lipparini, F. Egidi, J. Goings, B. Peng, A. Petrone, 
 T. Henderson, D. Ranasinghe, V. G. Zakrzewski, J. Gao, N. Rega, 
 G. Zheng, W. Liang, M. Hada, M. Ehara, K. Toyota, R. Fukuda, 
 J. Hasegawa, M. Ishida, T. Nakajima, Y. Honda, O. Kitao, H. Nakai, 
 T. Vreven, K. Throssell, J. A. Montgomery, Jr., J. E. Peralta, 
 F. Ogliaro, M. J. Bearpark, J. J. Heyd, E. N. Brothers, K. N. Kudin, 
 V. N. Staroverov, T. A. Keith, R. Kobayashi, J. Normand, 
 K. Raghavachari, A. P. Rendell, J. C. Burant, S. S. Iyengar, 
 J. Tomasi, M. Cossi, J. M. Millam, M. Klene, C. Adamo, R. Cammi, 
 J. W. Ochterski, R. L. Martin, K. Morokuma, O. Farkas, 
 J. B. Foresman, and D. J. Fox, Gaussian, Inc., Wallingford CT, 2016.
 
 ******************************************
 Gaussian 16:  ES64L-G16RevA.03 25-Dec-2016
                28-Apr-2022 
 ******************************************
 %nproc=24
 Will use up to   24 processors via shared memory.
 %mem=75GB
 ------------------------------
 #p blyp/Def2SVP td=(nstates=5)
 ------------------------------
 1/38=1,172=1/1;
 2/12=2,17=6,18=5,40=1/2;
 3/5=43,7=101,11=9,25=1,30=1,74=402/1,2,3,8;
 4//1;
 5/5=2,38=5/2;
 8/6=1,10=1,108=5/1;
 9/41=5,42=1,70=2/14;
 6/7=2,8=2,9=2,10=2/1;
 99/5=1,9=1/99;
 Leave Link    1 at Thu Apr 28 08:58:30 2022, MaxMem= 10066329600 cpu:               1.8 elap:               0.1
 (Enter /sw/apps/gaussian-16.0/g16/l101.exe)
 --------------------------------------------------
 step_1501_chromophore_5 TDDFT with blyp functional
 --------------------------------------------------
 Symbolic Z-matrix:
 Charge =  0 Multiplicity = 1
 Mg                    24.652   -7.431     46.515 
 C                     26.866   -4.807     45.315 
 C                     22.34    -6.287     44.137 
 C                     22.847   -10.087    47.177 
 C                     27.41    -8.822     48.055 
 N                     24.6     -5.745     44.978 
 C                     25.658   -4.856     44.592 
 C                     25.261   -4.077     43.395 
 C                     23.712   -4.319     43.396 
 C                     23.468   -5.527     44.232 
 C                     22.754   -3.121     43.744 
 C                     26.07    -4.412     42.087 
 C                     26.801   -3.281     41.323 
 C                     26.544   -3.201     39.81 
 O                     25.792   -2.312     39.304 
 O                     27.254   -4.118     39.073 
 N                     22.694   -7.882     46.053 
 C                     21.943   -7.329     45.047 
 C                     20.671   -8.049     45.043 
 C                     20.767   -9.169     45.953 
 C                     22.171   -9.114     46.457 
 C                     19.498   -7.699     44.107 
 C                     19.721   -10.155    46.176 
 O                     18.634   -9.979     45.668 
 C                     19.955   -11.318    47.1 
 N                     25.098   -9.274     47.496 
 C                     24.153   -10.146    47.711 
 C                     24.701   -11.343    48.684 
 C                     26.165   -10.925    48.822 
 C                     26.247   -9.601     48.103 
 C                     23.975   -11.482    50.09 
 C                     27.276   -11.898    48.455 
 C                     28.484   -12.028    49.452 
 N                     26.702   -6.801     46.849 
 C                     27.619   -7.505     47.531 
 C                     28.796   -6.673     47.658 
 C                     28.552   -5.637     46.756 
 C                     27.229   -5.755     46.281 
 C                     30.025   -7.146     48.387 
 C                     29.065   -4.386     46.111 
 O                     30.145   -3.841     46.199 
 C                     28.052   -3.992     45.049 
 C                     27.608   -2.572     45.415 
 O                     27.745   -1.576     44.675 
 O                     26.81    -2.618     46.522 
 C                     26.29    -1.381     46.98 
 C                     26.651   -4.105     37.691 
 C                     26.055   -5.45      37.426 
 C                     26.314   -6.252     36.345 
 C                     26.999   -5.973     35.029 
 C                     25.876   -7.741     36.529 
 C                     24.417   -8.058     36.264 
 C                     24.112   -8.546     34.822 
 C                     23.3     -7.484     34.032 
 C                     21.776   -7.445     34.331 
 C                     23.651   -7.402     32.521 
 C                     24.057   -6.013     31.974 
 C                     25.455   -5.921     31.154 
 C                     25.309   -4.953     29.954 
 C                     25.345   -3.446     30.485 
 C                     26.364   -5.202     28.766 
 C                     25.675   -5.618     27.435 
 C                     24.972   -4.451     26.775 
 C                     23.488   -4.723     26.505 
 C                     23.114   -5.099     24.981 
 C                     22.653   -3.427     26.871 
 H                     21.663   -6.011     43.325 
 H                     22.217   -10.922    47.493 
 H                     28.255   -9.18      48.647 
 H                     25.502   -3.049     43.665 
 H                     23.369   -4.505     42.378 
 H                     22.135   -3.311     44.621 
 H                     22.168   -2.881     42.857 
 H                     23.482   -2.338     43.952 
 H                     25.473   -4.944     41.346 
 H                     26.833   -5.117     42.414 
 H                     27.855   -3.465     41.531 
 H                     26.472   -2.346     41.777 
 H                     18.999   -8.61      43.778 
 H                     19.853   -7.059     43.299 
 H                     18.804   -7.173     44.763 
 H                     20.297   -10.994    48.083 
 H                     20.601   -12.074    46.655 
 H                     18.977   -11.789    47.193 
 H                     24.77    -12.349    48.271 
 H                     26.3     -10.674    49.874 
 H                     24.338   -12.27     50.749 
 H                     22.896   -11.602    49.987 
 H                     24.149   -10.493    50.513 
 H                     27.659   -11.647    47.466 
 H                     26.855   -12.899    48.367 
 H                     28.19    -11.571    50.396 
 H                     29.33    -11.477    49.039 
 H                     28.727   -13.074    49.64 
 H                     30.711   -6.316     48.559 
 H                     30.486   -7.981     47.859 
 H                     29.668   -7.414     49.381 
 H                     28.372   -4.02      44.007 
 H                     27.127   -0.929     47.513 
 H                     25.448   -1.39      47.671 
 H                     25.912   -0.648     46.267 
 H                     27.427   -3.871     36.961 
 H                     25.773   -3.546     37.366 
 H                     25.463   -5.94      38.199 
 H                     27.501   -5.007     34.966 
 H                     26.27    -6.092     34.227 
 H                     27.779   -6.734     35.035 
 H                     25.96    -8.191     37.518 
 H                     26.558   -8.394     35.983 
 H                     23.889   -7.126     36.462 
 H                     24.026   -8.768     36.994 
 H                     23.52    -9.448     34.974 
 H                     25.045   -8.874     34.364 
 H                     23.639   -6.532     34.441 
 H                     21.573   -8.039     35.223 
 H                     21.235   -7.925     33.516 
 H                     21.324   -6.454     34.309 
 H                     22.824   -7.721     31.887 
 H                     24.492   -8.074     32.355 
 H                     24.058   -5.319     32.814 
 H                     23.214   -5.772     31.326 
 H                     25.704   -6.919     30.795 
 H                     26.152   -5.603     31.929 
 H                     24.303   -5.002     29.539 
 H                     25.935   -2.876     29.768 
 H                     25.904   -3.377     31.418 
 H                     24.374   -2.951     30.456 
 H                     26.973   -6.        29.191 
 H                     26.936   -4.353     28.391 
 H                     25.118   -6.511     27.719 
 H                     26.473   -5.969     26.781 
 H                     25.491   -4.314     25.827 
 H                     25.169   -3.573     27.39 
 H                     23.174   -5.556     27.134 
 H                     23.519   -6.1       24.831 
 H                     23.499   -4.335     24.306 
 H                     22.072   -5.276     24.716 
 H                     23.024   -3.09      27.839 
 H                     21.589   -3.596     27.036 
 H                     22.742   -2.709     26.056 
 
 ITRead=  0  0  0  0  0  0  0  0  0  0  0  0  0  0  0  0  0  0  0  0
 ITRead=  0  0  0  0  0  0  0  0  0  0  0  0  0  0  0  0  0  0  0  0
 ITRead=  0  0  0  0  0  0  0  0  0  0  0  0  0  0  0  0  0  0  0  0
 ITRead=  0  0  0  0  0  0  0  0  0  0  0  0  0  0  0  0  0  0  0  0
 ITRead=  0  0  0  0  0  0  0  0  0  0  0  0  0  0  0  0  0  0  0  0
 ITRead=  0  0  0  0  0  0  0  0  0  0  0  0  0  0  0  0  0  0  0  0
 ITRead=  0  0  0  0  0  0  0  0  0  0  0  0  0  0  0  0  0  0  0  0
 MicOpt= -1 -1 -1 -1 -1 -1 -1 -1 -1 -1 -1 -1 -1 -1 -1 -1 -1 -1 -1 -1
 MicOpt= -1 -1 -1 -1 -1 -1 -1 -1 -1 -1 -1 -1 -1 -1 -1 -1 -1 -1 -1 -1
 MicOpt= -1 -1 -1 -1 -1 -1 -1 -1 -1 -1 -1 -1 -1 -1 -1 -1 -1 -1 -1 -1
 MicOpt= -1 -1 -1 -1 -1 -1 -1 -1 -1 -1 -1 -1 -1 -1 -1 -1 -1 -1 -1 -1
 MicOpt= -1 -1 -1 -1 -1 -1 -1 -1 -1 -1 -1 -1 -1 -1 -1 -1 -1 -1 -1 -1
 MicOpt= -1 -1 -1 -1 -1 -1 -1 -1 -1 -1 -1 -1 -1 -1 -1 -1 -1 -1 -1 -1
 MicOpt= -1 -1 -1 -1 -1 -1 -1 -1 -1 -1 -1 -1 -1 -1 -1 -1 -1 -1 -1 -1
 NAtoms=    140 NQM=      140 NQMF=       0 NMMI=      0 NMMIF=      0
                NMic=       0 NMicF=      0.
                    Isotopes and Nuclear Properties:
 (Nuclear quadrupole moments (NQMom) in fm**2, nuclear magnetic moments (NMagM)
  in nuclear magnetons)

  Atom         1           2           3           4           5           6           7           8           9          10
 IAtWgt=          24          12          12          12          12          14          12          12          12          12
 AtmWgt=  23.9850450  12.0000000  12.0000000  12.0000000  12.0000000  14.0030740  12.0000000  12.0000000  12.0000000  12.0000000
 NucSpn=           0           0           0           0           0           2           0           0           0           0
 AtZEff=  -0.0000000  -0.0000000  -0.0000000  -0.0000000  -0.0000000  -0.0000000  -0.0000000  -0.0000000  -0.0000000  -0.0000000
 NQMom=    0.0000000   0.0000000   0.0000000   0.0000000   0.0000000   2.0440000   0.0000000   0.0000000   0.0000000   0.0000000
 NMagM=    0.0000000   0.0000000   0.0000000   0.0000000   0.0000000   0.4037610   0.0000000   0.0000000   0.0000000   0.0000000
 AtZNuc=  12.0000000   6.0000000   6.0000000   6.0000000   6.0000000   7.0000000   6.0000000   6.0000000   6.0000000   6.0000000

  Atom        11          12          13          14          15          16          17          18          19          20
 IAtWgt=          12          12          12          12          16          16          14          12          12          12
 AtmWgt=  12.0000000  12.0000000  12.0000000  12.0000000  15.9949146  15.9949146  14.0030740  12.0000000  12.0000000  12.0000000
 NucSpn=           0           0           0           0           0           0           2           0           0           0
 AtZEff=  -0.0000000  -0.0000000  -0.0000000  -0.0000000  -0.0000000  -0.0000000  -0.0000000  -0.0000000  -0.0000000  -0.0000000
 NQMom=    0.0000000   0.0000000   0.0000000   0.0000000   0.0000000   0.0000000   2.0440000   0.0000000   0.0000000   0.0000000
 NMagM=    0.0000000   0.0000000   0.0000000   0.0000000   0.0000000   0.0000000   0.4037610   0.0000000   0.0000000   0.0000000
 AtZNuc=   6.0000000   6.0000000   6.0000000   6.0000000   8.0000000   8.0000000   7.0000000   6.0000000   6.0000000   6.0000000

  Atom        21          22          23          24          25          26          27          28          29          30
 IAtWgt=          12          12          12          16          12          14          12          12          12          12
 AtmWgt=  12.0000000  12.0000000  12.0000000  15.9949146  12.0000000  14.0030740  12.0000000  12.0000000  12.0000000  12.0000000
 NucSpn=           0           0           0           0           0           2           0           0           0           0
 AtZEff=  -0.0000000  -0.0000000  -0.0000000  -0.0000000  -0.0000000  -0.0000000  -0.0000000  -0.0000000  -0.0000000  -0.0000000
 NQMom=    0.0000000   0.0000000   0.0000000   0.0000000   0.0000000   2.0440000   0.0000000   0.0000000   0.0000000   0.0000000
 NMagM=    0.0000000   0.0000000   0.0000000   0.0000000   0.0000000   0.4037610   0.0000000   0.0000000   0.0000000   0.0000000
 AtZNuc=   6.0000000   6.0000000   6.0000000   8.0000000   6.0000000   7.0000000   6.0000000   6.0000000   6.0000000   6.0000000

  Atom        31          32          33          34          35          36          37          38          39          40
 IAtWgt=          12          12          12          14          12          12          12          12          12          12
 AtmWgt=  12.0000000  12.0000000  12.0000000  14.0030740  12.0000000  12.0000000  12.0000000  12.0000000  12.0000000  12.0000000
 NucSpn=           0           0           0           2           0           0           0           0           0           0
 AtZEff=  -0.0000000  -0.0000000  -0.0000000  -0.0000000  -0.0000000  -0.0000000  -0.0000000  -0.0000000  -0.0000000  -0.0000000
 NQMom=    0.0000000   0.0000000   0.0000000   2.0440000   0.0000000   0.0000000   0.0000000   0.0000000   0.0000000   0.0000000
 NMagM=    0.0000000   0.0000000   0.0000000   0.4037610   0.0000000   0.0000000   0.0000000   0.0000000   0.0000000   0.0000000
 AtZNuc=   6.0000000   6.0000000   6.0000000   7.0000000   6.0000000   6.0000000   6.0000000   6.0000000   6.0000000   6.0000000

  Atom        41          42          43          44          45          46          47          48          49          50
 IAtWgt=          16          12          12          16          16          12          12          12          12          12
 AtmWgt=  15.9949146  12.0000000  12.0000000  15.9949146  15.9949146  12.0000000  12.0000000  12.0000000  12.0000000  12.0000000
 NucSpn=           0           0           0           0           0           0           0           0           0           0
 AtZEff=  -0.0000000  -0.0000000  -0.0000000  -0.0000000  -0.0000000  -0.0000000  -0.0000000  -0.0000000  -0.0000000  -0.0000000
 NQMom=    0.0000000   0.0000000   0.0000000   0.0000000   0.0000000   0.0000000   0.0000000   0.0000000   0.0000000   0.0000000
 NMagM=    0.0000000   0.0000000   0.0000000   0.0000000   0.0000000   0.0000000   0.0000000   0.0000000   0.0000000   0.0000000
 AtZNuc=   8.0000000   6.0000000   6.0000000   8.0000000   8.0000000   6.0000000   6.0000000   6.0000000   6.0000000   6.0000000

  Atom        51          52          53          54          55          56          57          58          59          60
 IAtWgt=          12          12          12          12          12          12          12          12          12          12
 AtmWgt=  12.0000000  12.0000000  12.0000000  12.0000000  12.0000000  12.0000000  12.0000000  12.0000000  12.0000000  12.0000000
 NucSpn=           0           0           0           0           0           0           0           0           0           0
 AtZEff=  -0.0000000  -0.0000000  -0.0000000  -0.0000000  -0.0000000  -0.0000000  -0.0000000  -0.0000000  -0.0000000  -0.0000000
 NQMom=    0.0000000   0.0000000   0.0000000   0.0000000   0.0000000   0.0000000   0.0000000   0.0000000   0.0000000   0.0000000
 NMagM=    0.0000000   0.0000000   0.0000000   0.0000000   0.0000000   0.0000000   0.0000000   0.0000000   0.0000000   0.0000000
 AtZNuc=   6.0000000   6.0000000   6.0000000   6.0000000   6.0000000   6.0000000   6.0000000   6.0000000   6.0000000   6.0000000

  Atom        61          62          63          64          65          66          67          68          69          70
 IAtWgt=          12          12          12          12          12          12           1           1           1           1
 AtmWgt=  12.0000000  12.0000000  12.0000000  12.0000000  12.0000000  12.0000000   1.0078250   1.0078250   1.0078250   1.0078250
 NucSpn=           0           0           0           0           0           0           1           1           1           1
 AtZEff=  -0.0000000  -0.0000000  -0.0000000  -0.0000000  -0.0000000  -0.0000000  -0.0000000  -0.0000000  -0.0000000  -0.0000000
 NQMom=    0.0000000   0.0000000   0.0000000   0.0000000   0.0000000   0.0000000   0.0000000   0.0000000   0.0000000   0.0000000
 NMagM=    0.0000000   0.0000000   0.0000000   0.0000000   0.0000000   0.0000000   2.7928460   2.7928460   2.7928460   2.7928460
 AtZNuc=   6.0000000   6.0000000   6.0000000   6.0000000   6.0000000   6.0000000   1.0000000   1.0000000   1.0000000   1.0000000

  Atom        71          72          73          74          75          76          77          78          79          80
 IAtWgt=           1           1           1           1           1           1           1           1           1           1
 AtmWgt=   1.0078250   1.0078250   1.0078250   1.0078250   1.0078250   1.0078250   1.0078250   1.0078250   1.0078250   1.0078250
 NucSpn=           1           1           1           1           1           1           1           1           1           1
 AtZEff=  -0.0000000  -0.0000000  -0.0000000  -0.0000000  -0.0000000  -0.0000000  -0.0000000  -0.0000000  -0.0000000  -0.0000000
 NQMom=    0.0000000   0.0000000   0.0000000   0.0000000   0.0000000   0.0000000   0.0000000   0.0000000   0.0000000   0.0000000
 NMagM=    2.7928460   2.7928460   2.7928460   2.7928460   2.7928460   2.7928460   2.7928460   2.7928460   2.7928460   2.7928460
 AtZNuc=   1.0000000   1.0000000   1.0000000   1.0000000   1.0000000   1.0000000   1.0000000   1.0000000   1.0000000   1.0000000

  Atom        81          82          83          84          85          86          87          88          89          90
 IAtWgt=           1           1           1           1           1           1           1           1           1           1
 AtmWgt=   1.0078250   1.0078250   1.0078250   1.0078250   1.0078250   1.0078250   1.0078250   1.0078250   1.0078250   1.0078250
 NucSpn=           1           1           1           1           1           1           1           1           1           1
 AtZEff=  -0.0000000  -0.0000000  -0.0000000  -0.0000000  -0.0000000  -0.0000000  -0.0000000  -0.0000000  -0.0000000  -0.0000000
 NQMom=    0.0000000   0.0000000   0.0000000   0.0000000   0.0000000   0.0000000   0.0000000   0.0000000   0.0000000   0.0000000
 NMagM=    2.7928460   2.7928460   2.7928460   2.7928460   2.7928460   2.7928460   2.7928460   2.7928460   2.7928460   2.7928460
 AtZNuc=   1.0000000   1.0000000   1.0000000   1.0000000   1.0000000   1.0000000   1.0000000   1.0000000   1.0000000   1.0000000

  Atom        91          92          93          94          95          96          97          98          99         100
 IAtWgt=           1           1           1           1           1           1           1           1           1           1
 AtmWgt=   1.0078250   1.0078250   1.0078250   1.0078250   1.0078250   1.0078250   1.0078250   1.0078250   1.0078250   1.0078250
 NucSpn=           1           1           1           1           1           1           1           1           1           1
 AtZEff=  -0.0000000  -0.0000000  -0.0000000  -0.0000000  -0.0000000  -0.0000000  -0.0000000  -0.0000000  -0.0000000  -0.0000000
 NQMom=    0.0000000   0.0000000   0.0000000   0.0000000   0.0000000   0.0000000   0.0000000   0.0000000   0.0000000   0.0000000
 NMagM=    2.7928460   2.7928460   2.7928460   2.7928460   2.7928460   2.7928460   2.7928460   2.7928460   2.7928460   2.7928460
 AtZNuc=   1.0000000   1.0000000   1.0000000   1.0000000   1.0000000   1.0000000   1.0000000   1.0000000   1.0000000   1.0000000

  Atom       101         102         103         104         105         106         107         108         109         110
 IAtWgt=           1           1           1           1           1           1           1           1           1           1
 AtmWgt=   1.0078250   1.0078250   1.0078250   1.0078250   1.0078250   1.0078250   1.0078250   1.0078250   1.0078250   1.0078250
 NucSpn=           1           1           1           1           1           1           1           1           1           1
 AtZEff=  -0.0000000  -0.0000000  -0.0000000  -0.0000000  -0.0000000  -0.0000000  -0.0000000  -0.0000000  -0.0000000  -0.0000000
 NQMom=    0.0000000   0.0000000   0.0000000   0.0000000   0.0000000   0.0000000   0.0000000   0.0000000   0.0000000   0.0000000
 NMagM=    2.7928460   2.7928460   2.7928460   2.7928460   2.7928460   2.7928460   2.7928460   2.7928460   2.7928460   2.7928460
 AtZNuc=   1.0000000   1.0000000   1.0000000   1.0000000   1.0000000   1.0000000   1.0000000   1.0000000   1.0000000   1.0000000

  Atom       111         112         113         114         115         116         117         118         119         120
 IAtWgt=           1           1           1           1           1           1           1           1           1           1
 AtmWgt=   1.0078250   1.0078250   1.0078250   1.0078250   1.0078250   1.0078250   1.0078250   1.0078250   1.0078250   1.0078250
 NucSpn=           1           1           1           1           1           1           1           1           1           1
 AtZEff=  -0.0000000  -0.0000000  -0.0000000  -0.0000000  -0.0000000  -0.0000000  -0.0000000  -0.0000000  -0.0000000  -0.0000000
 NQMom=    0.0000000   0.0000000   0.0000000   0.0000000   0.0000000   0.0000000   0.0000000   0.0000000   0.0000000   0.0000000
 NMagM=    2.7928460   2.7928460   2.7928460   2.7928460   2.7928460   2.7928460   2.7928460   2.7928460   2.7928460   2.7928460
 AtZNuc=   1.0000000   1.0000000   1.0000000   1.0000000   1.0000000   1.0000000   1.0000000   1.0000000   1.0000000   1.0000000

  Atom       121         122         123         124         125         126         127         128         129         130
 IAtWgt=           1           1           1           1           1           1           1           1           1           1
 AtmWgt=   1.0078250   1.0078250   1.0078250   1.0078250   1.0078250   1.0078250   1.0078250   1.0078250   1.0078250   1.0078250
 NucSpn=           1           1           1           1           1           1           1           1           1           1
 AtZEff=  -0.0000000  -0.0000000  -0.0000000  -0.0000000  -0.0000000  -0.0000000  -0.0000000  -0.0000000  -0.0000000  -0.0000000
 NQMom=    0.0000000   0.0000000   0.0000000   0.0000000   0.0000000   0.0000000   0.0000000   0.0000000   0.0000000   0.0000000
 NMagM=    2.7928460   2.7928460   2.7928460   2.7928460   2.7928460   2.7928460   2.7928460   2.7928460   2.7928460   2.7928460
 AtZNuc=   1.0000000   1.0000000   1.0000000   1.0000000   1.0000000   1.0000000   1.0000000   1.0000000   1.0000000   1.0000000

  Atom       131         132         133         134         135         136         137         138         139         140
 IAtWgt=           1           1           1           1           1           1           1           1           1           1
 AtmWgt=   1.0078250   1.0078250   1.0078250   1.0078250   1.0078250   1.0078250   1.0078250   1.0078250   1.0078250   1.0078250
 NucSpn=           1           1           1           1           1           1           1           1           1           1
 AtZEff=  -0.0000000  -0.0000000  -0.0000000  -0.0000000  -0.0000000  -0.0000000  -0.0000000  -0.0000000  -0.0000000  -0.0000000
 NQMom=    0.0000000   0.0000000   0.0000000   0.0000000   0.0000000   0.0000000   0.0000000   0.0000000   0.0000000   0.0000000
 NMagM=    2.7928460   2.7928460   2.7928460   2.7928460   2.7928460   2.7928460   2.7928460   2.7928460   2.7928460   2.7928460
 AtZNuc=   1.0000000   1.0000000   1.0000000   1.0000000   1.0000000   1.0000000   1.0000000   1.0000000   1.0000000   1.0000000
 Leave Link  101 at Thu Apr 28 08:58:30 2022, MaxMem= 10066329600 cpu:               4.6 elap:               0.2
 (Enter /sw/apps/gaussian-16.0/g16/l202.exe)
 Stoichiometry    C55H74MgN4O6
 Framework group  C1[X(C55H74MgN4O6)]
 Deg. of freedom   414
 Full point group                 C1      NOp   1
 Largest Abelian subgroup         C1      NOp   1
 Largest concise Abelian subgroup C1      NOp   1
                         Standard orientation:                         
 ---------------------------------------------------------------------
 Center     Atomic      Atomic             Coordinates (Angstroms)
 Number     Number       Type             X           Y           Z
 ---------------------------------------------------------------------
      1         12           0        5.338017    0.537161   -0.342544
      2          6           0        3.835611   -2.772940   -0.457350
      3          6           0        2.709491    1.579682   -2.419313
      4          6           0        6.332792    3.621048    0.158121
      5          6           0        7.198710   -0.584154    2.339530
      6          7           0        3.552377   -0.476792   -1.338062
      7          6           0        3.077168   -1.819447   -1.164463
      8          6           0        1.755536   -1.982937   -1.815478
      9          6           0        1.726848   -0.709924   -2.730125
     10          6           0        2.732255    0.238388   -2.175548
     11          6           0        1.838095   -0.889112   -4.288839
     12          6           0        0.554004   -2.221592   -0.827077
     13          6           0       -0.346785   -3.469312   -0.997348
     14          6           0       -1.863143   -3.220442   -1.015829
     15          8           0       -2.536222   -3.262821   -2.091482
     16          8           0       -2.413533   -3.028934    0.228580
     17          7           0        4.867806    2.284515   -1.330605
     18          6           0        3.754852    2.515541   -2.098593
     19          6           0        3.809182    3.924360   -2.484182
     20          6           0        4.888564    4.563003   -1.763916
     21          6           0        5.438649    3.483132   -0.892399
     22          6           0        2.778921    4.592076   -3.415441
     23          6           0        5.218899    5.977732   -1.837821
     24          8           0        4.642171    6.670992   -2.648613
     25          6           0        6.324970    6.546799   -0.992911
     26          7           0        6.617430    1.424102    1.118402
     27          6           0        6.926237    2.688052    1.036537
     28          6           0        8.099823    3.052967    2.117914
     29          6           0        8.233981    1.706835    2.829949
     30          6           0        7.318473    0.783864    2.064031
     31          6           0        9.476813    3.554716    1.505232
     32          6           0        8.075041    1.621735    4.340987
     33          6           0        9.132130    0.770942    5.134011
     34          7           0        5.657634   -1.390203    0.603008
     35          6           0        6.482233   -1.608446    1.639364
     36          6           0        6.527299   -3.037394    1.862431
     37          6           0        5.462624   -3.512640    1.096242
     38          6           0        4.954689   -2.448973    0.321326
     39          6           0        7.375340   -3.642773    2.948687
     40          6           0        4.650613   -4.698033    0.672360
     41          8           0        4.698450   -5.854792    1.034008
     42          6           0        3.496121   -4.164950   -0.159637
     43          6           0        3.612505   -4.866719   -1.516644
     44          8           0        2.730700   -5.598775   -2.011517
     45          8           0        4.676663   -4.354425   -2.201839
     46          6           0        4.909468   -4.881921   -3.497171
     47          6           0       -3.805252   -2.497183   -0.003933
     48          6           0       -3.879585   -1.114159    0.558372
     49          6           0       -4.807331   -0.653568    1.456141
     50          6           0       -6.119544   -1.230808    1.929230
     51          6           0       -4.409012    0.681080    2.165281
     52          6           0       -4.684232    1.963485    1.404304
     53          6           0       -6.042615    2.636497    1.739541
     54          6           0       -7.025888    2.539184    0.541629
     55          6           0       -6.804088    3.574758   -0.594983
     56          6           0       -8.513883    2.352955    0.946889
     57          6           0       -9.255808    1.139885    0.337484
     58          6           0      -10.017813    0.144696    1.369093
     59          6           0      -11.361342   -0.329171    0.761871
     60          6           0      -11.074915   -1.447039   -0.343857
     61          6           0      -12.447338   -0.812762    1.844979
     62          6           0      -13.724515    0.075019    1.845192
     63          6           0      -14.591418   -0.183575    0.631394
     64          6           0      -14.879803    1.085715   -0.177850
     65          6           0      -16.339856    1.736498    0.042504
     66          6           0      -14.760935    0.749121   -1.721667
     67          1           0        1.835060    1.935313   -2.969536
     68          1           0        6.749194    4.626512    0.256266
     69          1           0        7.876518   -0.984825    3.096293
     70          1           0        1.869465   -2.892434   -2.405054
     71          1           0        0.737140   -0.254158   -2.693731
     72          1           0        2.706079   -0.385717   -4.714972
     73          1           0        0.899391   -0.567282   -4.739421
     74          1           0        1.951103   -1.970259   -4.357289
     75          1           0       -0.118781   -1.365934   -0.766060
     76          1           0        1.021834   -2.300858    0.153216
     77          1           0       -0.066150   -4.109411   -0.160954
     78          1           0       -0.061657   -3.922342   -1.947110
     79          1           0        2.576914    5.608786   -3.079797
     80          1           0        1.896058    3.957976   -3.498869
     81          1           0        3.312107    4.667983   -4.363386
     82          1           0        7.258232    5.998437   -1.121554
     83          1           0        6.034265    6.648392    0.052099
     84          1           0        6.448416    7.564770   -1.360974
     85          1           0        7.854972    3.737557    2.929548
     86          1           0        9.237784    1.351388    2.597640
     87          1           0       10.267709    3.791863    2.216035
     88          1           0        9.346846    4.415955    0.849012
     89          1           0        9.744898    2.707889    0.874090
     90          1           0        7.076547    1.253121    4.575385
     91          1           0        8.128446    2.626184    4.759576
     92          1           0        9.977901    0.586585    4.472872
     93          1           0        8.674563   -0.182962    5.399691
     94          1           0        9.494075    1.311123    6.009059
     95          1           0        7.443542   -4.723821    2.823128
     96          1           0        7.007164   -3.347584    3.931459
     97          1           0        8.382604   -3.281259    2.743661
     98          1           0        2.486814   -4.290069    0.233544
     99          1           0        5.400312   -5.836316   -3.304392
    100          1           0        5.555494   -4.330662   -4.179292
    101          1           0        4.073369   -5.065734   -4.172222
    102          1           0       -4.528317   -3.154962    0.480148
    103          1           0       -4.253014   -2.234387   -0.962806
    104          1           0       -3.065437   -0.412730    0.376019
    105          1           0       -6.312784   -2.256529    1.613502
    106          1           0       -6.923772   -0.563784    1.617617
    107          1           0       -5.958715   -1.257450    3.006718
    108          1           0       -3.358455    0.855294    2.396917
    109          1           0       -4.814089    0.693363    3.177906
    110          1           0       -4.659882    1.674975    0.354170
    111          1           0       -3.868790    2.678265    1.522734
    112          1           0       -5.775688    3.674681    1.934721
    113          1           0       -6.401391    2.236383    2.687710
    114          1           0       -6.758499    1.601593    0.053846
    115          1           0       -5.838986    4.061697   -0.449457
    116          1           0       -7.555648    4.360202   -0.520543
    117          1           0       -7.002755    3.208604   -1.601627
    118          1           0       -9.124997    3.215685    0.682538
    119          1           0       -8.534141    2.234621    2.029482
    120          1           0       -8.537235    0.588444   -0.268158
    121          1           0       -9.970216    1.625111   -0.327956
    122          1           0      -10.202761    0.691032    2.293321
    123          1           0       -9.273171   -0.635946    1.522926
    124          1           0      -11.807109    0.455583    0.151859
    125          1           0      -11.846597   -2.207253   -0.226935
    126          1           0      -10.141012   -1.968522   -0.135023
    127          1           0      -11.224649   -1.097089   -1.365533
    128          1           0      -11.874863   -0.725300    2.768523
    129          1           0      -12.926703   -1.781888    1.704928
    130          1           0      -13.327276    1.071392    2.039603
    131          1           0      -14.278905   -0.197094    2.743150
    132          1           0      -15.525424   -0.573055    1.034845
    133          1           0      -14.115342   -0.984890    0.066447
    134          1           0      -14.141102    1.839357    0.095045
    135          1           0      -16.311324    2.156924    1.047966
    136          1           0      -17.109872    0.983975   -0.125815
    137          1           0      -16.618954    2.624045   -0.524666
    138          1           0      -13.843255    0.172228   -1.836961
    139          1           0      -14.618127    1.612301   -2.371597
    140          1           0      -15.674752    0.250932   -2.044800
 ---------------------------------------------------------------------
 Rotational constants (GHZ):           0.0429739           0.0101898           0.0092540
 Leave Link  202 at Thu Apr 28 08:58:30 2022, MaxMem= 10066329600 cpu:               0.2 elap:               0.0
 (Enter /sw/apps/gaussian-16.0/g16/l301.exe)
 Standard basis: def2SVP (5D, 7F)
 Ernie: Thresh=  0.10000D-02 Tol=  0.10000D-05 Strict=F.
 There are  1364 symmetry adapted cartesian basis functions of A   symmetry.
 There are  1298 symmetry adapted basis functions of A   symmetry.
  1298 basis functions,  2180 primitive gaussians,  1364 cartesian basis functions
   246 alpha electrons      246 beta electrons
       nuclear repulsion energy      9595.4878323814 Hartrees.
 IExCor=  402 DFT=T Ex=B Corr=LYP ExCW=0 ScaHFX=  0.000000
 ScaDFX=  1.000000  1.000000  1.000000  1.000000 ScalE2=  1.000000  1.000000
 IRadAn=      5 IRanWt=     -1 IRanGd=            0 ICorTp=0 IEmpDi=  4
 NAtoms=  140 NActive=  140 NUniq=  140 SFac= 1.00D+00 NAtFMM=   60 NAOKFM=T Big=T
 Integral buffers will be    131072 words long.
 Regular integral format.
 Two-electron integral symmetry is turned on.
 Leave Link  301 at Thu Apr 28 08:58:30 2022, MaxMem= 10066329600 cpu:               1.3 elap:               0.1
 (Enter /sw/apps/gaussian-16.0/g16/l302.exe)
 NPDir=0 NMtPBC=     1 NCelOv=     1 NCel=       1 NClECP=     1 NCelD=      1
         NCelK=      1 NCelE2=     1 NClLst=     1 CellRange=     0.0.
 One-electron integrals computed using PRISM.
 One-electron integral symmetry used in STVInt
   1 Symmetry operations used in ECPInt.
 ECPInt:  NShTT=  192510 NPrTT=  683786 LenC2=   96289 LenP2D=  210455.
 LDataN:  DoStor=T MaxTD1= 4 Len=   56
 NBasis=  1298 RedAO= T EigKep=  2.91D-04  NBF=  1298
 NBsUse=  1298 1.00D-06 EigRej= -1.00D+00 NBFU=  1298
 Precomputing XC quadrature grid using
 IXCGrd= 4 IRadAn=           5 IRanWt=          -1 IRanGd=           0 AccXCQ= 0.00D+00.
 Generated NRdTot=       0 NPtTot=           0 NUsed=           0 NTot=          32
 NSgBfM=  1046  1046  1046  1046  1046 MxSgAt=   140 MxSgA2=   140.
 Leave Link  302 at Thu Apr 28 08:58:34 2022, MaxMem= 10066329600 cpu:              94.4 elap:               4.0
 (Enter /sw/apps/gaussian-16.0/g16/l303.exe)
 DipDrv:  MaxL=1.
 Leave Link  303 at Thu Apr 28 08:58:34 2022, MaxMem= 10066329600 cpu:               5.8 elap:               0.3
 (Enter /sw/apps/gaussian-16.0/g16/l308.exe)
 Leave Link  308 at Thu Apr 28 08:58:35 2022, MaxMem= 10066329600 cpu:               8.4 elap:               0.4
 (Enter /sw/apps/gaussian-16.0/g16/l401.exe)
 ExpMin= 3.36D-02 ExpMax= 4.95D+03 ExpMxC= 7.45D+02 IAcc=3 IRadAn=         5 AccDes= 0.00D+00
 Harris functional with IExCor=  402 and IRadAn=       5 diagonalized for initial guess.
 HarFok:  IExCor=  402 AccDes= 0.00D+00 IRadAn=         5 IDoV= 1 UseB2=F ITyADJ=14
 ICtDFT=  3500011 ScaDFX=  1.000000  1.000000  1.000000  1.000000
 FoFCou: FMM=F IPFlag=           0 FMFlag=      100000 FMFlg1=        2001
         NFxFlg=           0 DoJE=T BraDBF=F KetDBF=T FulRan=T
         wScrn=  0.000000 ICntrl=       500 IOpCl=  0 I1Cent=   200000004 NGrid=           0
         NMat0=    1 NMatS0=      1 NMatT0=    0 NMatD0=    1 NMtDS0=    0 NMtDT0=    0
 Petite list used in FoFCou.
 Harris En= -3008.71951443516    
 JPrj=0 DoOrth=F DoCkMO=F.
 Leave Link  401 at Thu Apr 28 08:58:40 2022, MaxMem= 10066329600 cpu:             136.7 elap:               5.7
 (Enter /sw/apps/gaussian-16.0/g16/l502.exe)
 Integral symmetry usage will be decided dynamically.
 Closed shell SCF:
 Using DIIS extrapolation, IDIIS=  1040.
 NGot= 10066329600 LenX= 10062561258 LenY= 10060699398
 Requested convergence on RMS density matrix=1.00D-08 within 128 cycles.
 Requested convergence on MAX density matrix=1.00D-06.
 Requested convergence on             energy=1.00D-06.
 No special actions if energy rises.
 Fock matrices will be formed incrementally for  20 cycles.

 Cycle   1  Pass 1  IDiag  1:
 FoFJK:  IHMeth= 1 ICntrl=     500 DoSepK=F KAlg= 0 I1Cent=           0 FoldK=F
 IRaf= 530000000 NMat=       1 IRICut=       1 DoRegI=T DoRafI=F ISym2E= 0 IDoP0=0 IntGTp=1.
 FoFCou: FMM=T IPFlag=           0 FMFlag=      100000 FMFlg1=        2001
         NFxFlg=           0 DoJE=T BraDBF=F KetDBF=F FulRan=T
         wScrn=  0.000000 ICntrl=       500 IOpCl=  0 I1Cent=           0 NGrid=           0
         NMat0=    1 NMatS0=      1 NMatT0=    0 NMatD0=    1 NMtDS0=    0 NMtDT0=    0
 Symmetry not used in FoFCou.
 FMM levels:  10  Number of levels for PrismC:   9
 E= -3005.62599514586    
 DIIS: error= 1.92D-02 at cycle   1 NSaved=   1.
 NSaved= 1 IEnMin= 1 EnMin= -3005.62599514586     IErMin= 1 ErrMin= 1.92D-02
 ErrMax= 1.92D-02  0.00D+00 EMaxC= 1.00D-01 BMatC= 1.55D+00 BMatP= 1.55D+00
 IDIUse=3 WtCom= 8.08D-01 WtEn= 1.92D-01
 Coeff-Com:  0.100D+01
 Coeff-En:   0.100D+01
 Coeff:      0.100D+01
 Gap=     0.054 Goal=   None    Shift=    0.000
 GapD=    0.054 DampG=0.500 DampE=0.500 DampFc=0.2500 IDamp=-1.
 Damping current iteration by 2.50D-01
 RMSDP=4.19D-03 MaxDP=1.66D+00              OVMax= 8.86D-01

 Cycle   2  Pass 1  IDiag  1:
 RMSU=  1.04D-03    CP:  9.92D-01
 E= -3006.10143903945     Delta-E=       -0.475443893583 Rises=F Damp=T
 DIIS: error= 8.57D-03 at cycle   2 NSaved=   2.
 NSaved= 2 IEnMin= 2 EnMin= -3006.10143903945     IErMin= 2 ErrMin= 8.57D-03
 ErrMax= 8.57D-03  0.00D+00 EMaxC= 1.00D-01 BMatC= 2.63D-01 BMatP= 1.55D+00
 IDIUse=3 WtCom= 9.14D-01 WtEn= 8.57D-02
 Coeff-Com: -0.250D+00 0.125D+01
 Coeff-En:   0.126D+00 0.874D+00
 Coeff:     -0.218D+00 0.122D+01
 Gap=     0.082 Goal=   None    Shift=    0.000
 RMSDP=1.68D-03 MaxDP=1.95D-01 DE=-4.75D-01 OVMax= 5.48D-01

 Cycle   3  Pass 1  IDiag  1:
 RMSU=  1.65D-03    CP:  9.66D-01  1.16D+00
 E= -3004.94057010135     Delta-E=        1.160868938092 Rises=F Damp=F
 DIIS: error= 5.04D-02 at cycle   3 NSaved=   3.
 NSaved= 3 IEnMin= 2 EnMin= -3006.10143903945     IErMin= 2 ErrMin= 8.57D-03
 ErrMax= 5.04D-02  0.00D+00 EMaxC= 1.00D-01 BMatC= 1.80D+00 BMatP= 2.63D-01
 IDIUse=2 WtCom= 0.00D+00 WtEn= 1.00D+00
 Coeff-En:   0.000D+00 0.696D+00 0.304D+00
 Coeff:      0.000D+00 0.696D+00 0.304D+00
 Gap=     0.037 Goal=   None    Shift=    0.000
 RMSDP=2.24D-03 MaxDP=3.71D-01 DE= 1.16D+00 OVMax= 8.80D-01

 Cycle   4  Pass 1  IDiag  1:
 RMSU=  1.13D-03    CP:  9.74D-01  1.92D+00 -6.77D-02
 E= -3004.52731582494     Delta-E=        0.413254276418 Rises=F Damp=F
 DIIS: error= 5.67D-02 at cycle   4 NSaved=   4.
 NSaved= 4 IEnMin= 2 EnMin= -3006.10143903945     IErMin= 2 ErrMin= 8.57D-03
 ErrMax= 5.67D-02  0.00D+00 EMaxC= 1.00D-01 BMatC= 1.83D+00 BMatP= 2.63D-01
 IDIUse=2 WtCom= 0.00D+00 WtEn= 1.00D+00
 EnCoef did     1 forward-backward iterations
 Coeff-En:   0.128D+00 0.000D+00 0.450D+00 0.422D+00
 Coeff:      0.128D+00 0.000D+00 0.450D+00 0.422D+00
 Gap=     0.064 Goal=   None    Shift=    0.000
 RMSDP=1.50D-03 MaxDP=2.66D-01 DE= 4.13D-01 OVMax= 6.75D-01

 Cycle   5  Pass 1  IDiag  1:
 RMSU=  7.33D-04    CP:  9.82D-01  1.20D+00  1.44D-01  9.76D-02
 E= -3007.01178716620     Delta-E=       -2.484471341264 Rises=F Damp=F
 DIIS: error= 1.74D-02 at cycle   5 NSaved=   5.
 NSaved= 5 IEnMin= 5 EnMin= -3007.01178716620     IErMin= 2 ErrMin= 8.57D-03
 ErrMax= 1.74D-02  0.00D+00 EMaxC= 1.00D-01 BMatC= 3.11D-01 BMatP= 2.63D-01
 IDIUse=2 WtCom= 0.00D+00 WtEn= 1.00D+00
 EnCoef did     6 forward-backward iterations
 Coeff-En:   0.000D+00 0.000D+00 0.123D+00 0.153D+00 0.724D+00
 Coeff:      0.000D+00 0.000D+00 0.123D+00 0.153D+00 0.724D+00
 Gap=     0.141 Goal=   None    Shift=    0.000
 RMSDP=1.54D-03 MaxDP=2.61D-01 DE=-2.48D+00 OVMax= 4.51D-01

 Cycle   6  Pass 1  IDiag  1:
 RMSU=  1.22D-03    CP:  9.76D-01  8.64D-01  3.36D-01  2.70D-01 -8.38D-02
 E= -3006.23438066189     Delta-E=        0.777406504310 Rises=F Damp=F
 DIIS: error= 3.78D-02 at cycle   6 NSaved=   6.
 NSaved= 6 IEnMin= 5 EnMin= -3007.01178716620     IErMin= 2 ErrMin= 8.57D-03
 ErrMax= 3.78D-02  0.00D+00 EMaxC= 1.00D-01 BMatC= 1.09D+00 BMatP= 2.63D-01
 IDIUse=2 WtCom= 0.00D+00 WtEn= 1.00D+00
 EnCoef did     2 forward-backward iterations
 Coeff-En:   0.000D+00 0.000D+00 0.000D+00 0.473D-02 0.703D+00 0.293D+00
 Coeff:      0.000D+00 0.000D+00 0.000D+00 0.473D-02 0.703D+00 0.293D+00
 Gap=     0.024 Goal=   None    Shift=    0.000
 RMSDP=9.46D-04 MaxDP=1.63D-01 DE= 7.77D-01 OVMax= 4.44D-01

 Cycle   7  Pass 1  IDiag  1:
 RMSU=  4.79D-04    CP:  9.78D-01  1.22D+00  1.99D-01  1.54D-01  5.64D-01
                    CP:  6.03D-01
 E= -3007.19730872310     Delta-E=       -0.962928061208 Rises=F Damp=F
 DIIS: error= 1.39D-02 at cycle   7 NSaved=   7.
 NSaved= 7 IEnMin= 7 EnMin= -3007.19730872310     IErMin= 2 ErrMin= 8.57D-03
 ErrMax= 1.39D-02  0.00D+00 EMaxC= 1.00D-01 BMatC= 1.31D-01 BMatP= 2.63D-01
 IDIUse=3 WtCom= 8.61D-01 WtEn= 1.39D-01
 Coeff-Com:  0.404D-02-0.105D-01 0.249D-01 0.191D-03 0.457D+00 0.151D+00
 Coeff-Com:  0.374D+00
 Coeff-En:   0.000D+00 0.000D+00 0.000D+00 0.000D+00 0.325D+00 0.000D+00
 Coeff-En:   0.675D+00
 Coeff:      0.348D-02-0.906D-02 0.214D-01 0.164D-03 0.438D+00 0.130D+00
 Coeff:      0.416D+00
 Gap=     0.069 Goal=   None    Shift=    0.000
 RMSDP=5.28D-04 MaxDP=1.02D-01 DE=-9.63D-01 OVMax= 2.08D-01

 Cycle   8  Pass 1  IDiag  1:
 RMSU=  2.84D-04    CP:  9.80D-01  1.13D+00  1.94D-01  1.65D-01  5.17D-01
                    CP:  4.66D-01  1.66D-01
 E= -3007.26627539632     Delta-E=       -0.068966673227 Rises=F Damp=F
 DIIS: error= 6.12D-03 at cycle   8 NSaved=   8.
 NSaved= 8 IEnMin= 8 EnMin= -3007.26627539632     IErMin= 8 ErrMin= 6.12D-03
 ErrMax= 6.12D-03  0.00D+00 EMaxC= 1.00D-01 BMatC= 3.96D-02 BMatP= 1.31D-01
 IDIUse=3 WtCom= 9.39D-01 WtEn= 6.12D-02
 EnCoef did     4 forward-backward iterations
 Coeff-Com:  0.231D-01-0.184D-01 0.148D-01-0.148D-01 0.251D+00 0.269D-01
 Coeff-Com:  0.393D+00 0.325D+00
 Coeff-En:   0.000D+00 0.000D+00 0.000D+00 0.000D+00 0.137D+00 0.000D+00
 Coeff-En:   0.310D+00 0.553D+00
 Coeff:      0.217D-01-0.172D-01 0.139D-01-0.139D-01 0.244D+00 0.252D-01
 Coeff:      0.388D+00 0.339D+00
 Gap=     0.038 Goal=   None    Shift=    0.000
 RMSDP=4.04D-04 MaxDP=2.89D-02 DE=-6.90D-02 OVMax= 3.27D-01

 Cycle   9  Pass 1  IDiag  1:
 RMSU=  1.38D-04    CP:  9.80D-01  1.15D+00  2.01D-01  1.06D-01  7.21D-01
                    CP:  3.86D-01  5.58D-01  5.18D-02
 E= -3007.31184785131     Delta-E=       -0.045572454985 Rises=F Damp=F
 DIIS: error= 3.52D-03 at cycle   9 NSaved=   9.
 NSaved= 9 IEnMin= 9 EnMin= -3007.31184785131     IErMin= 9 ErrMin= 3.52D-03
 ErrMax= 3.52D-03  0.00D+00 EMaxC= 1.00D-01 BMatC= 1.15D-02 BMatP= 3.96D-02
 IDIUse=3 WtCom= 9.65D-01 WtEn= 3.52D-02
 Coeff-Com:  0.292D-01-0.342D-01 0.720D-02-0.594D-02 0.972D-01-0.231D-01
 Coeff-Com:  0.243D+00 0.343D+00 0.344D+00
 Coeff-En:   0.000D+00 0.000D+00 0.000D+00 0.000D+00 0.000D+00 0.000D+00
 Coeff-En:   0.000D+00 0.290D+00 0.710D+00
 Coeff:      0.281D-01-0.330D-01 0.695D-02-0.573D-02 0.938D-01-0.223D-01
 Coeff:      0.234D+00 0.341D+00 0.357D+00
 Gap=     0.043 Goal=   None    Shift=    0.000
 RMSDP=1.58D-04 MaxDP=1.14D-02 DE=-4.56D-02 OVMax= 1.28D-01

 Cycle  10  Pass 1  IDiag  1:
 RMSU=  5.36D-05    CP:  9.80D-01  1.15D+00  1.90D-01  1.22D-01  6.66D-01
                    CP:  4.03D-01  4.75D-01  4.12D-01  3.73D-01
 E= -3007.32687186398     Delta-E=       -0.015024012668 Rises=F Damp=F
 DIIS: error= 1.02D-03 at cycle  10 NSaved=  10.
 NSaved=10 IEnMin=10 EnMin= -3007.32687186398     IErMin=10 ErrMin= 1.02D-03
 ErrMax= 1.02D-03  0.00D+00 EMaxC= 1.00D-01 BMatC= 1.08D-03 BMatP= 1.15D-02
 IDIUse=3 WtCom= 9.90D-01 WtEn= 1.02D-02
 Coeff-Com:  0.236D-01-0.358D-01 0.505D-02-0.103D-02 0.253D-01-0.230D-01
 Coeff-Com:  0.100D+00 0.194D+00 0.256D+00 0.456D+00
 Coeff-En:   0.000D+00 0.000D+00 0.000D+00 0.000D+00 0.000D+00 0.000D+00
 Coeff-En:   0.000D+00 0.000D+00 0.606D-01 0.939D+00
 Coeff:      0.233D-01-0.354D-01 0.499D-02-0.101D-02 0.251D-01-0.227D-01
 Coeff:      0.992D-01 0.192D+00 0.254D+00 0.461D+00
 Gap=     0.044 Goal=   None    Shift=    0.000
 RMSDP=5.53D-05 MaxDP=4.75D-03 DE=-1.50D-02 OVMax= 3.22D-02

 Cycle  11  Pass 1  IDiag  1:
 RMSU=  3.56D-05    CP:  9.80D-01  1.15D+00  1.94D-01  1.18D-01  6.68D-01
                    CP:  3.98D-01  4.71D-01  3.72D-01  5.44D-01  4.17D-01
 E= -3007.32744388208     Delta-E=       -0.000572018107 Rises=F Damp=F
 DIIS: error= 4.21D-04 at cycle  11 NSaved=  11.
 NSaved=11 IEnMin=11 EnMin= -3007.32744388208     IErMin=11 ErrMin= 4.21D-04
 ErrMax= 4.21D-04  0.00D+00 EMaxC= 1.00D-01 BMatC= 4.38D-04 BMatP= 1.08D-03
 IDIUse=3 WtCom= 9.96D-01 WtEn= 4.21D-03
 Coeff-Com:  0.153D-01-0.274D-01 0.300D-02 0.586D-03 0.486D-02-0.123D-01
 Coeff-Com:  0.306D-01 0.876D-01 0.129D+00 0.403D+00 0.365D+00
 Coeff-En:   0.000D+00 0.000D+00 0.000D+00 0.000D+00 0.000D+00 0.000D+00
 Coeff-En:   0.000D+00 0.000D+00 0.000D+00 0.360D+00 0.640D+00
 Coeff:      0.152D-01-0.273D-01 0.299D-02 0.584D-03 0.484D-02-0.122D-01
 Coeff:      0.305D-01 0.872D-01 0.129D+00 0.403D+00 0.367D+00
 Gap=     0.044 Goal=   None    Shift=    0.000
 RMSDP=3.92D-05 MaxDP=2.70D-03 DE=-5.72D-04 OVMax= 2.52D-02

 Cycle  12  Pass 1  IDiag  1:
 RMSU=  1.84D-05    CP:  9.80D-01  1.15D+00  1.94D-01  1.22D-01  6.65D-01
                    CP:  3.96D-01  4.73D-01  3.83D-01  4.78D-01  7.32D-01
                    CP:  2.12D-01
 E= -3007.32780925703     Delta-E=       -0.000365374948 Rises=F Damp=F
 DIIS: error= 5.05D-04 at cycle  12 NSaved=  12.
 NSaved=12 IEnMin=12 EnMin= -3007.32780925703     IErMin=11 ErrMin= 4.21D-04
 ErrMax= 5.05D-04  0.00D+00 EMaxC= 1.00D-01 BMatC= 1.58D-04 BMatP= 4.38D-04
 IDIUse=3 WtCom= 9.96D-01 WtEn= 4.21D-03
 Coeff-Com:  0.497D-02-0.107D-01 0.165D-02-0.163D-03-0.220D-02-0.200D-02
 Coeff-Com: -0.844D-02 0.148D-01 0.268D-01 0.219D+00 0.358D+00 0.398D+00
 Coeff-En:   0.000D+00 0.000D+00 0.000D+00 0.000D+00 0.000D+00 0.000D+00
 Coeff-En:   0.000D+00 0.000D+00 0.000D+00 0.000D+00 0.317D+00 0.683D+00
 Coeff:      0.495D-02-0.107D-01 0.164D-02-0.163D-03-0.219D-02-0.199D-02
 Coeff:     -0.841D-02 0.148D-01 0.267D-01 0.219D+00 0.358D+00 0.399D+00
 Gap=     0.044 Goal=   None    Shift=    0.000
 RMSDP=1.84D-05 MaxDP=1.38D-03 DE=-3.65D-04 OVMax= 1.29D-02

 Cycle  13  Pass 1  IDiag  1:
 RMSU=  6.99D-06    CP:  9.80D-01  1.15D+00  1.95D-01  1.19D-01  6.66D-01
                    CP:  3.97D-01  4.65D-01  3.91D-01  4.97D-01  6.64D-01
                    CP:  5.01D-01  3.92D-01
 E= -3007.32801166069     Delta-E=       -0.000202403655 Rises=F Damp=F
 DIIS: error= 1.76D-04 at cycle  13 NSaved=  13.
 NSaved=13 IEnMin=13 EnMin= -3007.32801166069     IErMin=13 ErrMin= 1.76D-04
 ErrMax= 1.76D-04  0.00D+00 EMaxC= 1.00D-01 BMatC= 2.33D-05 BMatP= 1.58D-04
 IDIUse=3 WtCom= 9.98D-01 WtEn= 1.76D-03
 Coeff-Com:  0.158D-02-0.455D-02 0.105D-02-0.193D-03-0.207D-02 0.571D-03
 Coeff-Com: -0.132D-01-0.450D-02-0.433D-02 0.998D-01 0.226D+00 0.318D+00
 Coeff-Com:  0.382D+00
 Coeff-En:   0.000D+00 0.000D+00 0.000D+00 0.000D+00 0.000D+00 0.000D+00
 Coeff-En:   0.000D+00 0.000D+00 0.000D+00 0.000D+00 0.000D+00 0.684D-01
 Coeff-En:   0.932D+00
 Coeff:      0.157D-02-0.454D-02 0.105D-02-0.193D-03-0.207D-02 0.570D-03
 Coeff:     -0.132D-01-0.449D-02-0.432D-02 0.996D-01 0.226D+00 0.318D+00
 Coeff:      0.383D+00
 Gap=     0.044 Goal=   None    Shift=    0.000
 RMSDP=6.20D-06 MaxDP=7.64D-04 DE=-2.02D-04 OVMax= 2.63D-03

 Cycle  14  Pass 1  IDiag  1:
 RMSU=  3.20D-06    CP:  9.80D-01  1.15D+00  1.95D-01  1.19D-01  6.65D-01
                    CP:  3.96D-01  4.62D-01  3.88D-01  4.99D-01  6.86D-01
                    CP:  4.94D-01  5.28D-01  4.46D-01
 E= -3007.32803223794     Delta-E=       -0.000020577250 Rises=F Damp=F
 DIIS: error= 7.57D-05 at cycle  14 NSaved=  14.
 NSaved=14 IEnMin=14 EnMin= -3007.32803223794     IErMin=14 ErrMin= 7.57D-05
 ErrMax= 7.57D-05  0.00D+00 EMaxC= 1.00D-01 BMatC= 4.55D-06 BMatP= 2.33D-05
 IDIUse=1 WtCom= 1.00D+00 WtEn= 0.00D+00
 Coeff-Com:  0.130D-04-0.101D-02 0.564D-03-0.190D-03-0.647D-03 0.931D-03
 Coeff-Com: -0.855D-02-0.804D-02-0.131D-01 0.143D-01 0.831D-01 0.143D+00
 Coeff-Com:  0.285D+00 0.505D+00
 Coeff:      0.130D-04-0.101D-02 0.564D-03-0.190D-03-0.647D-03 0.931D-03
 Coeff:     -0.855D-02-0.804D-02-0.131D-01 0.143D-01 0.831D-01 0.143D+00
 Coeff:      0.285D+00 0.505D+00
 Gap=     0.044 Goal=   None    Shift=    0.000
 RMSDP=2.96D-06 MaxDP=3.64D-04 DE=-2.06D-05 OVMax= 1.13D-03

 Cycle  15  Pass 1  IDiag  1:
 RMSU=  1.59D-06    CP:  9.80D-01  1.15D+00  1.96D-01  1.19D-01  6.66D-01
                    CP:  3.95D-01  4.61D-01  3.88D-01  4.99D-01  6.94D-01
                    CP:  5.12D-01  5.25D-01  5.83D-01  5.08D-01
 E= -3007.32803655307     Delta-E=       -0.000004315132 Rises=F Damp=F
 DIIS: error= 2.65D-05 at cycle  15 NSaved=  15.
 NSaved=15 IEnMin=15 EnMin= -3007.32803655307     IErMin=15 ErrMin= 2.65D-05
 ErrMax= 2.65D-05  0.00D+00 EMaxC= 1.00D-01 BMatC= 1.18D-06 BMatP= 4.55D-06
 IDIUse=1 WtCom= 1.00D+00 WtEn= 0.00D+00
 Coeff-Com: -0.166D-03-0.561D-04 0.152D-03-0.795D-04 0.215D-03 0.362D-03
 Coeff-Com: -0.236D-02-0.379D-02-0.834D-02-0.186D-01-0.265D-02 0.965D-02
 Coeff-Com:  0.843D-01 0.398D+00 0.544D+00
 Coeff:     -0.166D-03-0.561D-04 0.152D-03-0.795D-04 0.215D-03 0.362D-03
 Coeff:     -0.236D-02-0.379D-02-0.834D-02-0.186D-01-0.265D-02 0.965D-02
 Coeff:      0.843D-01 0.398D+00 0.544D+00
 Gap=     0.044 Goal=   None    Shift=    0.000
 RMSDP=1.32D-06 MaxDP=1.21D-04 DE=-4.32D-06 OVMax= 4.05D-04

 Cycle  16  Pass 1  IDiag  1:
 RMSU=  7.76D-07    CP:  9.80D-01  1.15D+00  1.96D-01  1.19D-01  6.66D-01
                    CP:  3.95D-01  4.60D-01  3.89D-01  5.00D-01  6.94D-01
                    CP:  5.12D-01  5.35D-01  5.60D-01  6.86D-01  5.95D-01
 E= -3007.32803749314     Delta-E=       -0.000000940068 Rises=F Damp=F
 DIIS: error= 1.63D-05 at cycle  16 NSaved=  16.
 NSaved=16 IEnMin=16 EnMin= -3007.32803749314     IErMin=16 ErrMin= 1.63D-05
 ErrMax= 1.63D-05  0.00D+00 EMaxC= 1.00D-01 BMatC= 2.87D-07 BMatP= 1.18D-06
 IDIUse=1 WtCom= 1.00D+00 WtEn= 0.00D+00
 Coeff-Com: -0.515D-04-0.666D-04 0.371D-04-0.181D-04 0.190D-03 0.119D-03
 Coeff-Com: -0.619D-03-0.156D-02-0.434D-02-0.156D-01-0.133D-01-0.143D-01
 Coeff-Com:  0.201D-01 0.225D+00 0.423D+00 0.382D+00
 Coeff:     -0.515D-04-0.666D-04 0.371D-04-0.181D-04 0.190D-03 0.119D-03
 Coeff:     -0.619D-03-0.156D-02-0.434D-02-0.156D-01-0.133D-01-0.143D-01
 Coeff:      0.201D-01 0.225D+00 0.423D+00 0.382D+00
 Gap=     0.044 Goal=   None    Shift=    0.000
 RMSDP=6.07D-07 MaxDP=1.24D-04 DE=-9.40D-07 OVMax= 1.80D-04

 Cycle  17  Pass 1  IDiag  1:
 RMSU=  2.89D-07    CP:  9.80D-01  1.15D+00  1.96D-01  1.19D-01  6.66D-01
                    CP:  3.95D-01  4.60D-01  3.89D-01  5.00D-01  6.93D-01
                    CP:  5.16D-01  5.35D-01  5.71D-01  6.97D-01  6.41D-01
                    CP:  4.02D-01
 E= -3007.32803775249     Delta-E=       -0.000000259348 Rises=F Damp=F
 DIIS: error= 4.62D-06 at cycle  17 NSaved=  17.
 NSaved=17 IEnMin=17 EnMin= -3007.32803775249     IErMin=17 ErrMin= 4.62D-06
 ErrMax= 4.62D-06  0.00D+00 EMaxC= 1.00D-01 BMatC= 3.77D-08 BMatP= 2.87D-07
 IDIUse=1 WtCom= 1.00D+00 WtEn= 0.00D+00
 Coeff-Com:  0.101D-04-0.775D-04 0.802D-05-0.230D-05 0.765D-04 0.307D-04
 Coeff-Com: -0.111D-03-0.436D-03-0.182D-02-0.809D-02-0.892D-02-0.117D-01
 Coeff-Com:  0.140D-02 0.100D+00 0.228D+00 0.280D+00 0.421D+00
 Coeff:      0.101D-04-0.775D-04 0.802D-05-0.230D-05 0.765D-04 0.307D-04
 Coeff:     -0.111D-03-0.436D-03-0.182D-02-0.809D-02-0.892D-02-0.117D-01
 Coeff:      0.140D-02 0.100D+00 0.228D+00 0.280D+00 0.421D+00
 Gap=     0.044 Goal=   None    Shift=    0.000
 RMSDP=2.41D-07 MaxDP=4.82D-05 DE=-2.59D-07 OVMax= 1.06D-04

 Cycle  18  Pass 1  IDiag  1:
 RMSU=  1.18D-07    CP:  9.80D-01  1.15D+00  1.96D-01  1.19D-01  6.66D-01
                    CP:  3.95D-01  4.60D-01  3.89D-01  5.00D-01  6.93D-01
                    CP:  5.16D-01  5.37D-01  5.78D-01  6.95D-01  6.51D-01
                    CP:  4.50D-01  5.02D-01
 E= -3007.32803778836     Delta-E=       -0.000000035876 Rises=F Damp=F
 DIIS: error= 2.92D-06 at cycle  18 NSaved=  18.
 NSaved=18 IEnMin=18 EnMin= -3007.32803778836     IErMin=18 ErrMin= 2.92D-06
 ErrMax= 2.92D-06  0.00D+00 EMaxC= 1.00D-01 BMatC= 5.47D-09 BMatP= 3.77D-08
 IDIUse=1 WtCom= 1.00D+00 WtEn= 0.00D+00
 Coeff-Com:  0.139D-04-0.387D-04 0.910D-06 0.802D-06 0.660D-05 0.711D-05
 Coeff-Com:  0.546D-05-0.695D-04-0.642D-03-0.353D-02-0.473D-02-0.668D-02
 Coeff-Com: -0.290D-02 0.354D-01 0.993D-01 0.141D+00 0.306D+00 0.437D+00
 Coeff:      0.139D-04-0.387D-04 0.910D-06 0.802D-06 0.660D-05 0.711D-05
 Coeff:      0.546D-05-0.695D-04-0.642D-03-0.353D-02-0.473D-02-0.668D-02
 Coeff:     -0.290D-02 0.354D-01 0.993D-01 0.141D+00 0.306D+00 0.437D+00
 Gap=     0.044 Goal=   None    Shift=    0.000
 RMSDP=8.56D-08 MaxDP=1.29D-05 DE=-3.59D-08 OVMax= 2.15D-05

 Cycle  19  Pass 1  IDiag  1:
 RMSU=  4.27D-08    CP:  9.80D-01  1.15D+00  1.96D-01  1.19D-01  6.66D-01
                    CP:  3.95D-01  4.60D-01  3.89D-01  5.00D-01  6.93D-01
                    CP:  5.16D-01  5.36D-01  5.77D-01  7.01D-01  6.55D-01
                    CP:  4.62D-01  5.22D-01  4.88D-01
 E= -3007.32803779297     Delta-E=       -0.000000004609 Rises=F Damp=F
 DIIS: error= 8.05D-07 at cycle  19 NSaved=  19.
 NSaved=19 IEnMin=19 EnMin= -3007.32803779297     IErMin=19 ErrMin= 8.05D-07
 ErrMax= 8.05D-07  0.00D+00 EMaxC= 1.00D-01 BMatC= 7.47D-10 BMatP= 5.47D-09
 IDIUse=1 WtCom= 1.00D+00 WtEn= 0.00D+00
 Coeff-Com:  0.894D-05-0.178D-04 0.233D-06 0.425D-06-0.671D-05 0.201D-05
 Coeff-Com:  0.174D-04-0.794D-05-0.266D-03-0.170D-02-0.254D-02-0.361D-02
 Coeff-Com: -0.256D-02 0.137D-01 0.460D-01 0.700D-01 0.178D+00 0.320D+00
 Coeff-Com:  0.384D+00
 Coeff:      0.894D-05-0.178D-04 0.233D-06 0.425D-06-0.671D-05 0.201D-05
 Coeff:      0.174D-04-0.794D-05-0.266D-03-0.170D-02-0.254D-02-0.361D-02
 Coeff:     -0.256D-02 0.137D-01 0.460D-01 0.700D-01 0.178D+00 0.320D+00
 Coeff:      0.384D+00
 Gap=     0.044 Goal=   None    Shift=    0.000
 RMSDP=3.33D-08 MaxDP=6.21D-06 DE=-4.61D-09 OVMax= 9.72D-06

 Cycle  20  Pass 1  IDiag  1:
 RMSU=  1.45D-08    CP:  9.80D-01  1.15D+00  1.96D-01  1.19D-01  6.66D-01
                    CP:  3.95D-01  4.60D-01  3.89D-01  5.00D-01  6.93D-01
                    CP:  5.16D-01  5.36D-01  5.77D-01  7.00D-01  6.61D-01
                    CP:  4.60D-01  5.39D-01  5.25D-01  4.48D-01
 E= -3007.32803779380     Delta-E=       -0.000000000833 Rises=F Damp=F
 DIIS: error= 2.00D-07 at cycle  20 NSaved=  20.
 NSaved=20 IEnMin=20 EnMin= -3007.32803779380     IErMin=20 ErrMin= 2.00D-07
 ErrMax= 2.00D-07  0.00D+00 EMaxC= 1.00D-01 BMatC= 6.62D-11 BMatP= 7.47D-10
 IDIUse=1 WtCom= 1.00D+00 WtEn= 0.00D+00
 Coeff-Com:  0.452D-05-0.755D-05-0.355D-07 0.207D-06-0.592D-05 0.555D-06
 Coeff-Com:  0.125D-04-0.192D-05-0.985D-04-0.749D-03-0.119D-02-0.171D-02
 Coeff-Com: -0.156D-02 0.464D-02 0.187D-01 0.299D-01 0.835D-01 0.158D+00
 Coeff-Com:  0.252D+00 0.458D+00
 Coeff:      0.452D-05-0.755D-05-0.355D-07 0.207D-06-0.592D-05 0.555D-06
 Coeff:      0.125D-04-0.192D-05-0.985D-04-0.749D-03-0.119D-02-0.171D-02
 Coeff:     -0.156D-02 0.464D-02 0.187D-01 0.299D-01 0.835D-01 0.158D+00
 Coeff:      0.252D+00 0.458D+00
 Gap=     0.044 Goal=   None    Shift=    0.000
 RMSDP=1.12D-08 MaxDP=9.03D-07 DE=-8.33D-10 OVMax= 5.53D-06

 Cycle  21  Pass 1  IDiag  1:
 Restarting incremental Fock formation.
 E= -3007.32803779378     Delta-E=        0.000000000020 Rises=F Damp=F
 DIIS: error= 1.08D-07 at cycle  21 NSaved=  20.
 NSaved=20 IEnMin=19 EnMin= -3007.32803779380     IErMin=20 ErrMin= 1.08D-07
 ErrMax= 1.08D-07  0.00D+00 EMaxC= 1.00D-01 BMatC= 1.41D-11 BMatP= 6.62D-11
 IDIUse=1 WtCom= 1.00D+00 WtEn= 0.00D+00
 Coeff-Com:  0.179D-05-0.258D-05-0.766D-07-0.308D-05 0.293D-06 0.679D-05
 Coeff-Com: -0.159D-05-0.293D-04-0.282D-03-0.476D-03-0.690D-03-0.791D-03
 Coeff-Com:  0.104D-02 0.615D-02 0.104D-01 0.327D-01 0.634D-01 0.126D+00
 Coeff-Com:  0.350D+00 0.413D+00
 Coeff:      0.179D-05-0.258D-05-0.766D-07-0.308D-05 0.293D-06 0.679D-05
 Coeff:     -0.159D-05-0.293D-04-0.282D-03-0.476D-03-0.690D-03-0.791D-03
 Coeff:      0.104D-02 0.615D-02 0.104D-01 0.327D-01 0.634D-01 0.126D+00
 Coeff:      0.350D+00 0.413D+00
 Gap=     0.044 Goal=   None    Shift=    0.000
 RMSDP=4.73D-09 MaxDP=6.03D-07 DE= 2.00D-11 OVMax= 1.91D-06

 SCF Done:  E(RB-LYP) =  -3007.32803779     A.U. after   21 cycles
            NFock= 21  Conv=0.47D-08     -V/T= 2.0099
 KE= 2.977734480686D+03 PE=-2.618524746043D+04 EE= 1.060469710957D+04
 Leave Link  502 at Thu Apr 28 09:02:45 2022, MaxMem= 10066329600 cpu:            5850.4 elap:             244.6
 (Enter /sw/apps/gaussian-16.0/g16/l801.exe)
 DoSCS=F DFT=T ScalE2(SS,OS)=  1.000000  1.000000
 ExpMin= 3.36D-02 ExpMax= 4.95D+03 ExpMxC= 7.45D+02 IAcc=3 IRadAn=         5 AccDes= 0.00D+00
 HarFok:  IExCor=  205 AccDes= 0.00D+00 IRadAn=         5 IDoV=-2 UseB2=F ITyADJ=14
 ICtDFT= 12500011 ScaDFX=  1.000000  1.000000  1.000000  1.000000
 GSVD:  LWork=       -5460 too small for GESVD, short by       25550 words or       25550 for optimal perf.
 Largest valence mixing into a core orbital is  1.31D-04
 Largest core mixing into a valence orbital is  4.60D-05
 Range of M.O.s used for correlation:    71  1298
 NBasis=  1298 NAE=   246 NBE=   246 NFC=    70 NFV=     0
 NROrb=   1228 NOA=   176 NOB=   176 NVA=  1052 NVB=  1052

 **** Warning!!: The smallest alpha delta epsilon is  0.43550464D-01

 Leave Link  801 at Thu Apr 28 09:02:45 2022, MaxMem= 10066329600 cpu:               6.4 elap:               0.3
 (Enter /sw/apps/gaussian-16.0/g16/l914.exe)
 RHF ground state
 Two-electron integrals replicated using symmetry.
 MDV= 10066329600 DFT=T DoStab=F Mixed=F DoRPA=T DoScal=T NonHer=F
 Making orbital integer symmetry assigments:
 Orbital symmetries:
       Occupied  (A) (A) (A) (A) (A) (A) (A) (A) (A) (A) (A) (A)
                 (A) (A) (A) (A) (A) (A) (A) (A) (A) (A) (A) (A)
                 (A) (A) (A) (A) (A) (A) (A) (A) (A) (A) (A) (A)
                 (A) (A) (A) (A) (A) (A) (A) (A) (A) (A) (A) (A)
                 (A) (A) (A) (A) (A) (A) (A) (A) (A) (A) (A) (A)
                 (A) (A) (A) (A) (A) (A) (A) (A) (A) (A) (A) (A)
                 (A) (A) (A) (A) (A) (A) (A) (A) (A) (A) (A) (A)
                 (A) (A) (A) (A) (A) (A) (A) (A) (A) (A) (A) (A)
                 (A) (A) (A) (A) (A) (A) (A) (A) (A) (A) (A) (A)
                 (A) (A) (A) (A) (A) (A) (A) (A) (A) (A) (A) (A)
                 (A) (A) (A) (A) (A) (A) (A) (A) (A) (A) (A) (A)
                 (A) (A) (A) (A) (A) (A) (A) (A) (A) (A) (A) (A)
                 (A) (A) (A) (A) (A) (A) (A) (A) (A) (A) (A) (A)
                 (A) (A) (A) (A) (A) (A) (A) (A) (A) (A) (A) (A)
                 (A) (A) (A) (A) (A) (A) (A) (A) (A) (A) (A) (A)
                 (A) (A) (A) (A) (A) (A) (A) (A) (A) (A) (A) (A)
                 (A) (A) (A) (A) (A) (A) (A) (A) (A) (A) (A) (A)
                 (A) (A) (A) (A) (A) (A) (A) (A) (A) (A) (A) (A)
                 (A) (A) (A) (A) (A) (A) (A) (A) (A) (A) (A) (A)
                 (A) (A) (A) (A) (A) (A) (A) (A) (A) (A) (A) (A)
                 (A) (A) (A) (A) (A) (A)
       Virtual   (A) (A) (A) (A) (A) (A) (A) (A) (A) (A) (A) (A)
                 (A) (A) (A) (A) (A) (A) (A) (A) (A) (A) (A) (A)
                 (A) (A) (A) (A) (A) (A) (A) (A) (A) (A) (A) (A)
                 (A) (A) (A) (A) (A) (A) (A) (A) (A) (A) (A) (A)
                 (A) (A) (A) (A) (A) (A) (A) (A) (A) (A) (A) (A)
                 (A) (A) (A) (A) (A) (A) (A) (A) (A) (A) (A) (A)
                 (A) (A) (A) (A) (A) (A) (A) (A) (A) (A) (A) (A)
                 (A) (A) (A) (A) (A) (A) (A) (A) (A) (A) (A) (A)
                 (A) (A) (A) (A) (A) (A) (A) (A) (A) (A) (A) (A)
                 (A) (A) (A) (A) (A) (A) (A) (A) (A) (A) (A) (A)
                 (A) (A) (A) (A) (A) (A) (A) (A) (A) (A) (A) (A)
                 (A) (A) (A) (A) (A) (A) (A) (A) (A) (A) (A) (A)
                 (A) (A) (A) (A) (A) (A) (A) (A) (A) (A) (A) (A)
                 (A) (A) (A) (A) (A) (A) (A) (A) (A) (A) (A) (A)
                 (A) (A) (A) (A) (A) (A) (A) (A) (A) (A) (A) (A)
                 (A) (A) (A) (A) (A) (A) (A) (A) (A) (A) (A) (A)
                 (A) (A) (A) (A) (A) (A) (A) (A) (A) (A) (A) (A)
                 (A) (A) (A) (A) (A) (A) (A) (A) (A) (A) (A) (A)
                 (A) (A) (A) (A) (A) (A) (A) (A) (A) (A) (A) (A)
                 (A) (A) (A) (A) (A) (A) (A) (A) (A) (A) (A) (A)
                 (A) (A) (A) (A) (A) (A) (A) (A) (A) (A) (A) (A)
                 (A) (A) (A) (A) (A) (A) (A) (A) (A) (A) (A) (A)
                 (A) (A) (A) (A) (A) (A) (A) (A) (A) (A) (A) (A)
                 (A) (A) (A) (A) (A) (A) (A) (A) (A) (A) (A) (A)
                 (A) (A) (A) (A) (A) (A) (A) (A) (A) (A) (A) (A)
                 (A) (A) (A) (A) (A) (A) (A) (A) (A) (A) (A) (A)
                 (A) (A) (A) (A) (A) (A) (A) (A) (A) (A) (A) (A)
                 (A) (A) (A) (A) (A) (A) (A) (A) (A) (A) (A) (A)
                 (A) (A) (A) (A) (A) (A) (A) (A) (A) (A) (A) (A)
                 (A) (A) (A) (A) (A) (A) (A) (A) (A) (A) (A) (A)
                 (A) (A) (A) (A) (A) (A) (A) (A) (A) (A) (A) (A)
                 (A) (A) (A) (A) (A) (A) (A) (A) (A) (A) (A) (A)
                 (A) (A) (A) (A) (A) (A) (A) (A) (A) (A) (A) (A)
                 (A) (A) (A) (A) (A) (A) (A) (A) (A) (A) (A) (A)
                 (A) (A) (A) (A) (A) (A) (A) (A) (A) (A) (A) (A)
                 (A) (A) (A) (A) (A) (A) (A) (A) (A) (A) (A) (A)
                 (A) (A) (A) (A) (A) (A) (A) (A) (A) (A) (A) (A)
                 (A) (A) (A) (A) (A) (A) (A) (A) (A) (A) (A) (A)
                 (A) (A) (A) (A) (A) (A) (A) (A) (A) (A) (A) (A)
                 (A) (A) (A) (A) (A) (A) (A) (A) (A) (A) (A) (A)
                 (A) (A) (A) (A) (A) (A) (A) (A) (A) (A) (A) (A)
                 (A) (A) (A) (A) (A) (A) (A) (A) (A) (A) (A) (A)
                 (A) (A) (A) (A) (A) (A) (A) (A) (A) (A) (A) (A)
                 (A) (A) (A) (A) (A) (A) (A) (A) (A) (A) (A) (A)
                 (A) (A) (A) (A) (A) (A) (A) (A) (A) (A) (A) (A)
                 (A) (A) (A) (A) (A) (A) (A) (A) (A) (A) (A) (A)
                 (A) (A) (A) (A) (A) (A) (A) (A) (A) (A) (A) (A)
                 (A) (A) (A) (A) (A) (A) (A) (A) (A) (A) (A) (A)
                 (A) (A) (A) (A) (A) (A) (A) (A) (A) (A) (A) (A)
                 (A) (A) (A) (A) (A) (A) (A) (A) (A) (A) (A) (A)
                 (A) (A) (A) (A) (A) (A) (A) (A) (A) (A) (A) (A)
                 (A) (A) (A) (A) (A) (A) (A) (A) (A) (A) (A) (A)
                 (A) (A) (A) (A) (A) (A) (A) (A) (A) (A) (A) (A)
                 (A) (A) (A) (A) (A) (A) (A) (A) (A) (A) (A) (A)
                 (A) (A) (A) (A) (A) (A) (A) (A) (A) (A) (A) (A)
                 (A) (A) (A) (A) (A) (A) (A) (A) (A) (A) (A) (A)
                 (A) (A) (A) (A) (A) (A) (A) (A) (A) (A) (A) (A)
                 (A) (A) (A) (A) (A) (A) (A) (A) (A) (A) (A) (A)
                 (A) (A) (A) (A) (A) (A) (A) (A) (A) (A) (A) (A)
                 (A) (A) (A) (A) (A) (A) (A) (A) (A) (A) (A) (A)
                 (A) (A) (A) (A) (A) (A) (A) (A) (A) (A) (A) (A)
                 (A) (A) (A) (A) (A) (A) (A) (A) (A) (A) (A) (A)
                 (A) (A) (A) (A) (A) (A) (A) (A) (A) (A) (A) (A)
                 (A) (A) (A) (A) (A) (A) (A) (A) (A) (A) (A) (A)
                 (A) (A) (A) (A) (A) (A) (A) (A) (A) (A) (A) (A)
                 (A) (A) (A) (A) (A) (A) (A) (A) (A) (A) (A) (A)
                 (A) (A) (A) (A) (A) (A) (A) (A) (A) (A) (A) (A)
                 (A) (A) (A) (A) (A) (A) (A) (A) (A) (A) (A) (A)
                 (A) (A) (A) (A) (A) (A) (A) (A) (A) (A) (A) (A)
                 (A) (A) (A) (A) (A) (A) (A) (A) (A) (A) (A) (A)
                 (A) (A) (A) (A) (A) (A) (A) (A) (A) (A) (A) (A)
                 (A) (A) (A) (A) (A) (A) (A) (A) (A) (A) (A) (A)
                 (A) (A) (A) (A) (A) (A) (A) (A) (A) (A) (A) (A)
                 (A) (A) (A) (A) (A) (A) (A) (A) (A) (A) (A) (A)
                 (A) (A) (A) (A) (A) (A) (A) (A) (A) (A) (A) (A)
                 (A) (A) (A) (A) (A) (A) (A) (A) (A) (A) (A) (A)
                 (A) (A) (A) (A) (A) (A) (A) (A) (A) (A) (A) (A)
                 (A) (A) (A) (A) (A) (A) (A) (A) (A) (A) (A) (A)
                 (A) (A) (A) (A) (A) (A) (A) (A) (A) (A) (A) (A)
                 (A) (A) (A) (A) (A) (A) (A) (A) (A) (A) (A) (A)
                 (A) (A) (A) (A) (A) (A) (A) (A) (A) (A) (A) (A)
                 (A) (A) (A) (A) (A) (A) (A) (A) (A) (A) (A) (A)
                 (A) (A) (A) (A) (A) (A) (A) (A) (A) (A) (A) (A)
                 (A) (A) (A) (A) (A) (A) (A) (A) (A) (A) (A) (A)
                 (A) (A) (A) (A) (A) (A) (A) (A) (A) (A) (A) (A)
                 (A) (A) (A) (A) (A) (A) (A) (A) (A) (A) (A) (A)
                 (A) (A) (A) (A) (A) (A) (A) (A) (A) (A) (A) (A)
                 (A) (A) (A) (A) (A) (A) (A) (A)
    20 initial guesses have been made.
 Convergence on wavefunction:    0.001000000000000
 Davidson Disk Diagonalization:  ConvIn= 1.00D-03 SkipCon=T Conv= 1.00D-03.
 Max sub-space:  2000 roots to seek:    20 dimension of matrix:       370304
 Iteration     1 Dimension    20 NMult     0 NNew     20
 CISAX will form    20 AO SS matrices at one time.
 NMat=    20 NSing=    20 JSym2X= 0.
 FoFJK:  IHMeth= 1 ICntrl=     500 DoSepK=F KAlg= 0 I1Cent=           0 FoldK=F
 IRaf= 530000000 NMat=      20 IRICut=       1 DoRegI=T DoRafI=F ISym2E= 0 IDoP0=0 IntGTp=1.
 FoFCou: FMM=T IPFlag=           0 FMFlag=      100000 FMFlg1=        2001
         NFxFlg=           0 DoJE=F BraDBF=F KetDBF=F FulRan=T
         wScrn=  0.000000 ICntrl=       500 IOpCl=  0 I1Cent=           0 NGrid=           0
         NMat0=   20 NMatS0=     20 NMatT0=    0 NMatD0=   20 NMtDS0=    0 NMtDT0=    0
 Symmetry not used in FoFCou.
 FMM levels:  10  Number of levels for PrismC:   9
 New state      1 was old state      4
 New state      2 was old state      3
 New state      3 was old state      5
 New state      4 was old state      1
 New state      5 was old state      2
 Excitation Energies [eV] at current iteration:
 Root      1 :     1.917118869213592
 Root      2 :     1.925407988801397
 Root      3 :     1.943978328805221
 Root      4 :     2.131685602703135
 Root      5 :     2.325216334797030
 Root      6 :     2.651926105232627
 Root      7 :     2.758990812368880
 Root      8 :     2.879495934641756
 Root      9 :     2.917328802701620
 Root     10 :     3.029799335355463
 Root     11 :     3.042775841824761
 Root     12 :     3.080769096374980
 Root     13 :     3.135933397430331
 Root     14 :     3.232344873522366
 Root     15 :     3.301786651268261
 Root     16 :     3.421595443186833
 Root     17 :     3.518936211563990
 Root     18 :     3.923053672477077
 Root     19 :     4.030599790611006
 Root     20 :     4.342981116986071
 Iteration     2 Dimension    40 NMult    20 NNew     20
 CISAX will form    20 AO SS matrices at one time.
 NMat=    20 NSing=    20 JSym2X= 0.
 New state      1 was old state      4
 Root      1 not converged, maximum delta is    0.280398715651479
 New state      2 was old state      1
 Root      2 not converged, maximum delta is    0.211643563572135
 New state      3 was old state      2
 Root      3 not converged, maximum delta is    0.295582686865945
 New state      4 was old state      3
 Root      4 not converged, maximum delta is    0.229852721487656
 Root      5 not converged, maximum delta is    0.146065853050291
 Excitation Energies [eV] at current iteration:
 Root      1 :     1.883029639276936   Change is   -0.248655963426199
 Root      2 :     1.910862579075904   Change is   -0.006256290137688
 Root      3 :     1.927792648233617   Change is    0.002384659432220
 Root      4 :     1.931249262287092   Change is   -0.012729066518129
 Root      5 :     2.116328814095937   Change is   -0.208887520701094
 Root      6 :     2.513419889413373   Change is   -0.245570922955507
 Root      7 :     2.613300350176179   Change is   -0.266195584465578
 Root      8 :     2.653735780875187   Change is    0.001809675642561
 Root      9 :     2.749838337996650   Change is   -0.167490464704970
 Root     10 :     2.906136965234135   Change is   -0.395649686034125
 Root     11 :     3.004443851657810   Change is   -0.025355483697653
 Root     12 :     3.041637330556986   Change is   -0.001138511267774
 Root     13 :     3.070726844207644   Change is   -0.010042252167336
 Root     14 :     3.081491992194044   Change is   -0.054441405236287
 Root     15 :     3.201220848234334   Change is   -0.031124025288032
 Root     16 :     3.210965559115650   Change is   -0.307970652448340
 Root     17 :     3.282495958044888   Change is   -0.139099485141945
 Root     18 :     3.493870564057889   Change is   -0.536729226553117
 Root     19 :     3.584594423418814   Change is   -0.338459249058262
 Root     20 :     3.773641238686454   Change is   -0.569339878299616
 Iteration     3 Dimension    45 NMult    40 NNew      5
 CISAX will form     5 AO SS matrices at one time.
 NMat=     5 NSing=     5 JSym2X= 0.
 Root      1 not converged, maximum delta is    0.117561478522285
 Root      2 not converged, maximum delta is    0.217410736842094
 Root      3 not converged, maximum delta is    0.322396218603124
 Root      4 not converged, maximum delta is    0.245010008727952
 Root      5 not converged, maximum delta is    0.047461033170171
 Excitation Energies [eV] at current iteration:
 Root      1 :     1.841498628558636   Change is   -0.041531010718300
 Root      2 :     1.903124501866702   Change is   -0.007738077209202
 Root      3 :     1.922243217033527   Change is   -0.005549431200090
 Root      4 :     1.927841563836866   Change is   -0.003407698450226
 Root      5 :     2.086312657286603   Change is   -0.030016156809334
 Iteration     4 Dimension    50 NMult    45 NNew      5
 CISAX will form     5 AO SS matrices at one time.
 NMat=     5 NSing=     5 JSym2X= 0.
 Root      1 not converged, maximum delta is    0.019638926354145
 Root      2 not converged, maximum delta is    0.054254579021713
 Root      3 not converged, maximum delta is    0.044097565751307
 Root      4 not converged, maximum delta is    0.032445229710264
 Root      5 not converged, maximum delta is    0.018328919719021
 Excitation Energies [eV] at current iteration:
 Root      1 :     1.825694507248431   Change is   -0.015804121310205
 Root      2 :     1.899442052949162   Change is   -0.003682448917539
 Root      3 :     1.921383531843635   Change is   -0.000859685189892
 Root      4 :     1.926842636903356   Change is   -0.000998926933510
 Root      5 :     2.075855547819561   Change is   -0.010457109467042
 Iteration     5 Dimension    55 NMult    50 NNew      5
 CISAX will form     5 AO SS matrices at one time.
 NMat=     5 NSing=     5 JSym2X= 0.
 Root      1 not converged, maximum delta is    0.005431908369564
 Root      2 not converged, maximum delta is    0.016645822368473
 Root      3 not converged, maximum delta is    0.014842995856010
 Root      4 not converged, maximum delta is    0.011377260514067
 Root      5 not converged, maximum delta is    0.006037524803320
 Excitation Energies [eV] at current iteration:
 Root      1 :     1.820452338674827   Change is   -0.005242168573604
 Root      2 :     1.898007538702737   Change is   -0.001434514246426
 Root      3 :     1.921148328196460   Change is   -0.000235203647175
 Root      4 :     1.926444618962196   Change is   -0.000398017941159
 Root      5 :     2.072420868874060   Change is   -0.003434678945501
 Iteration     6 Dimension    60 NMult    55 NNew      5
 CISAX will form     5 AO SS matrices at one time.
 NMat=     5 NSing=     5 JSym2X= 0.
 Root      1 not converged, maximum delta is    0.002613759644836
 Root      2 not converged, maximum delta is    0.007024889758995
 Root      3 not converged, maximum delta is    0.007264150941339
 Root      4 not converged, maximum delta is    0.005172872967922
 Root      5 not converged, maximum delta is    0.002319572324813
 Excitation Energies [eV] at current iteration:
 Root      1 :     1.817955671609948   Change is   -0.002496667064880
 Root      2 :     1.897372911682960   Change is   -0.000634627019776
 Root      3 :     1.921048922018954   Change is   -0.000099406177506
 Root      4 :     1.926265703749471   Change is   -0.000178915212725
 Root      5 :     2.071035682209232   Change is   -0.001385186664829
 Iteration     7 Dimension    65 NMult    60 NNew      5
 CISAX will form     5 AO SS matrices at one time.
 NMat=     5 NSing=     5 JSym2X= 0.
 Root      1 not converged, maximum delta is    0.001912124743660
 Root      2 not converged, maximum delta is    0.002675236947660
 Root      3 not converged, maximum delta is    0.002907821477912
 Root      4 not converged, maximum delta is    0.002034308330014
 Root      5 not converged, maximum delta is    0.001443756493036
 Excitation Energies [eV] at current iteration:
 Root      1 :     1.816901608930950   Change is   -0.001054062678998
 Root      2 :     1.897127373691664   Change is   -0.000245537991296
 Root      3 :     1.921010606297038   Change is   -0.000038315721916
 Root      4 :     1.926194716910228   Change is   -0.000070986839243
 Root      5 :     2.070531344059777   Change is   -0.000504338149455
 Iteration     8 Dimension    70 NMult    65 NNew      5
 CISAX will form     5 AO SS matrices at one time.
 NMat=     5 NSing=     5 JSym2X= 0.
 Root      1 not converged, maximum delta is    0.001213301796984
 Root      2 not converged, maximum delta is    0.001066342044746
 Root      3 not converged, maximum delta is    0.001186972689718
 Root      4 has converged.
 Root      5 has converged.
 Excitation Energies [eV] at current iteration:
 Root      1 :     1.816468118773964   Change is   -0.000433490156986
 Root      2 :     1.897028230667293   Change is   -0.000099143024371
 Root      3 :     1.920995222788569   Change is   -0.000015383508469
 Root      4 :     1.926168611849535   Change is   -0.000026105060693
 Root      5 :     2.070336605187496   Change is   -0.000194738872280
 Iteration     9 Dimension    73 NMult    70 NNew      3
 CISAX will form     3 AO SS matrices at one time.
 NMat=     3 NSing=     3 JSym2X= 0.
 Root      1 has converged.
 Root      2 has converged.
 Root      3 has converged.
 Root      4 has converged.
[...]
 Alpha virt. eigenvalues --    1.10444   1.10482   1.11273   1.11634   1.12092
 Alpha virt. eigenvalues --    1.12569   1.12668   1.13285   1.14081   1.14325
 Alpha virt. eigenvalues --    1.14578   1.14751   1.15145   1.15701   1.16379
 Alpha virt. eigenvalues --    1.16739   1.17123   1.18068   1.18471   1.18727
 Alpha virt. eigenvalues --    1.19088   1.19701   1.20135   1.20735   1.21208
 Alpha virt. eigenvalues --    1.21655   1.22200   1.22630   1.22642   1.23358
 Alpha virt. eigenvalues --    1.24171   1.24223   1.24485   1.24674   1.25311
 Alpha virt. eigenvalues --    1.25683   1.25753   1.26362   1.26945   1.27533
 Alpha virt. eigenvalues --    1.28238   1.28502   1.28887   1.29380   1.29658
 Alpha virt. eigenvalues --    1.30313   1.30590   1.30756   1.31328   1.31510
 Alpha virt. eigenvalues --    1.31798   1.32187   1.32524   1.32587   1.33515
 Alpha virt. eigenvalues --    1.33727   1.33983   1.34262   1.34903   1.35462
 Alpha virt. eigenvalues --    1.36063   1.36305   1.36902   1.37476   1.37850
 Alpha virt. eigenvalues --    1.38594   1.38907   1.38934   1.39475   1.39872
 Alpha virt. eigenvalues --    1.40027   1.40276   1.40756   1.41315   1.41604
 Alpha virt. eigenvalues --    1.41807   1.43000   1.43669   1.43938   1.44389
 Alpha virt. eigenvalues --    1.44756   1.45025   1.45189   1.45340   1.45699
 Alpha virt. eigenvalues --    1.45906   1.46005   1.46086   1.46347   1.46486
 Alpha virt. eigenvalues --    1.46802   1.47174   1.47538   1.47950   1.48037
 Alpha virt. eigenvalues --    1.48204   1.48320   1.48601   1.49032   1.49057
 Alpha virt. eigenvalues --    1.49705   1.49805   1.49968   1.50106   1.50414
 Alpha virt. eigenvalues --    1.50704   1.50800   1.50993   1.51329   1.52020
 Alpha virt. eigenvalues --    1.52702   1.52763   1.53269   1.53729   1.55072
 Alpha virt. eigenvalues --    1.55236   1.55719   1.55946   1.56551   1.57533
 Alpha virt. eigenvalues --    1.57833   1.57908   1.58390   1.58637   1.58747
 Alpha virt. eigenvalues --    1.59230   1.59638   1.59778   1.60304   1.60493
 Alpha virt. eigenvalues --    1.61153   1.61557   1.61894   1.62398   1.62741
 Alpha virt. eigenvalues --    1.62958   1.63240   1.63722   1.63942   1.64294
 Alpha virt. eigenvalues --    1.64675   1.64971   1.65070   1.65463   1.65912
 Alpha virt. eigenvalues --    1.66226   1.66422   1.66671   1.66920   1.67055
 Alpha virt. eigenvalues --    1.67417   1.67818   1.67959   1.68255   1.68532
 Alpha virt. eigenvalues --    1.68793   1.68856   1.69023   1.69183   1.69535
 Alpha virt. eigenvalues --    1.69812   1.69979   1.70081   1.70324   1.70522
 Alpha virt. eigenvalues --    1.70628   1.70890   1.71239   1.71339   1.71550
 Alpha virt. eigenvalues --    1.72004   1.72095   1.72208   1.72300   1.72351
 Alpha virt. eigenvalues --    1.72462   1.72654   1.72823   1.73071   1.73136
 Alpha virt. eigenvalues --    1.73180   1.73205   1.73433   1.73851   1.74315
 Alpha virt. eigenvalues --    1.74610   1.74647   1.74881   1.75257   1.75456
 Alpha virt. eigenvalues --    1.75497   1.75619   1.75740   1.75840   1.75979
 Alpha virt. eigenvalues --    1.76295   1.76572   1.77037   1.77183   1.77291
 Alpha virt. eigenvalues --    1.77360   1.77470   1.77645   1.77756   1.78431
 Alpha virt. eigenvalues --    1.78532   1.78863   1.79079   1.79238   1.79350
 Alpha virt. eigenvalues --    1.79483   1.79681   1.79927   1.80125   1.80169
 Alpha virt. eigenvalues --    1.80388   1.80767   1.80904   1.81271   1.81340
 Alpha virt. eigenvalues --    1.81597   1.82103   1.82294   1.82389   1.82507
 Alpha virt. eigenvalues --    1.82900   1.83224   1.83512   1.83564   1.84174
 Alpha virt. eigenvalues --    1.84323   1.84645   1.84925   1.85026   1.85106
 Alpha virt. eigenvalues --    1.85521   1.85584   1.85761   1.86090   1.86536
 Alpha virt. eigenvalues --    1.87257   1.87383   1.87738   1.87996   1.88048
 Alpha virt. eigenvalues --    1.88359   1.88502   1.89023   1.89263   1.89303
 Alpha virt. eigenvalues --    1.89479   1.89646   1.89956   1.90016   1.90440
 Alpha virt. eigenvalues --    1.90814   1.91044   1.91342   1.91636   1.91791
 Alpha virt. eigenvalues --    1.92318   1.92575   1.92660   1.93010   1.93356
 Alpha virt. eigenvalues --    1.93810   1.93929   1.94194   1.94990   1.95290
 Alpha virt. eigenvalues --    1.95622   1.95842   1.96063   1.96269   1.96843
 Alpha virt. eigenvalues --    1.97185   1.97362   1.97425   1.98091   1.98217
 Alpha virt. eigenvalues --    1.98366   1.98613   1.98826   1.99136   1.99301
 Alpha virt. eigenvalues --    1.99357   1.99593   1.99860   2.00315   2.00791
 Alpha virt. eigenvalues --    2.01008   2.01172   2.01332   2.01445   2.01858
 Alpha virt. eigenvalues --    2.01928   2.02766   2.03152   2.03560   2.03851
 Alpha virt. eigenvalues --    2.04104   2.04443   2.04880   2.05376   2.05824
 Alpha virt. eigenvalues --    2.05950   2.06101   2.06419   2.06760   2.07147
 Alpha virt. eigenvalues --    2.07994   2.08209   2.08304   2.08600   2.09318
 Alpha virt. eigenvalues --    2.09439   2.10100   2.10688   2.11225   2.11353
 Alpha virt. eigenvalues --    2.11392   2.12258   2.12334   2.12637   2.12685
 Alpha virt. eigenvalues --    2.13406   2.13898   2.14072   2.14918   2.15056
 Alpha virt. eigenvalues --    2.15591   2.16151   2.16819   2.17528   2.17818
 Alpha virt. eigenvalues --    2.18077   2.18577   2.19142   2.19338   2.19637
 Alpha virt. eigenvalues --    2.19896   2.20154   2.20471   2.21040   2.21160
 Alpha virt. eigenvalues --    2.21342   2.22318   2.22400   2.22632   2.22821
 Alpha virt. eigenvalues --    2.23243   2.23547   2.23727   2.23983   2.24785
 Alpha virt. eigenvalues --    2.25070   2.25532   2.25773   2.26106   2.26566
 Alpha virt. eigenvalues --    2.27374   2.27588   2.28102   2.28424   2.28625
 Alpha virt. eigenvalues --    2.28851   2.29270   2.29474   2.29594   2.29936
 Alpha virt. eigenvalues --    2.30174   2.30662   2.30882   2.31008   2.31726
 Alpha virt. eigenvalues --    2.32122   2.32235   2.32482   2.32520   2.33010
 Alpha virt. eigenvalues --    2.33281   2.33925   2.34227   2.34687   2.34730
 Alpha virt. eigenvalues --    2.35074   2.35155   2.35217   2.35674   2.35842
 Alpha virt. eigenvalues --    2.37094   2.38180   2.38235   2.38325   2.38674
 Alpha virt. eigenvalues --    2.38730   2.39408   2.39642   2.39941   2.40932
 Alpha virt. eigenvalues --    2.41423   2.41691   2.41949   2.42451   2.42600
 Alpha virt. eigenvalues --    2.43314   2.43507   2.43862   2.44170   2.44927
 Alpha virt. eigenvalues --    2.44998   2.45326   2.46211   2.46392   2.46703
 Alpha virt. eigenvalues --    2.46845   2.47156   2.47576   2.48229   2.49059
 Alpha virt. eigenvalues --    2.49389   2.49467   2.50104   2.50581   2.51512
 Alpha virt. eigenvalues --    2.51698   2.51792   2.52375   2.52710   2.52761
 Alpha virt. eigenvalues --    2.52803   2.53234   2.53959   2.54479   2.54719
 Alpha virt. eigenvalues --    2.55087   2.55225   2.55516   2.56409   2.56676
 Alpha virt. eigenvalues --    2.57082   2.57345   2.57784   2.58100   2.58636
 Alpha virt. eigenvalues --    2.58972   2.59455   2.60219   2.61416   2.61555
 Alpha virt. eigenvalues --    2.61837   2.62278   2.62611   2.63215   2.64001
 Alpha virt. eigenvalues --    2.64119   2.64207   2.64922   2.65229   2.65689
 Alpha virt. eigenvalues --    2.65728   2.66392   2.66735   2.67288   2.67405
 Alpha virt. eigenvalues --    2.68282   2.68401   2.68890   2.69026   2.69401
 Alpha virt. eigenvalues --    2.69632   2.70340   2.70442   2.71101   2.71222
 Alpha virt. eigenvalues --    2.71871   2.71994   2.72482   2.73131   2.74049
 Alpha virt. eigenvalues --    2.74232   2.74765   2.74809   2.75991   2.76416
 Alpha virt. eigenvalues --    2.76690   2.77605   2.78247   2.78540   2.79031
 Alpha virt. eigenvalues --    2.79432   2.80885   2.80948   2.81152   2.81516
 Alpha virt. eigenvalues --    2.81686   2.81824   2.82356   2.82747   2.82965
 Alpha virt. eigenvalues --    2.83098   2.83169   2.83269   2.83445   2.84116
 Alpha virt. eigenvalues --    2.84403   2.84607   2.84794   2.85517   2.85690
 Alpha virt. eigenvalues --    2.85998   2.86105   2.86252   2.86278   2.86591
 Alpha virt. eigenvalues --    2.87082   2.87293   2.87532   2.87854   2.88262
 Alpha virt. eigenvalues --    2.88355   2.88637   2.89612   2.89796   2.90464
 Alpha virt. eigenvalues --    2.90607   2.90702   2.91098   2.91475   2.91562
 Alpha virt. eigenvalues --    2.92013   2.92487   2.92756   2.93286   2.93482
 Alpha virt. eigenvalues --    2.93496   2.94005   2.94152   2.94615   2.95006
 Alpha virt. eigenvalues --    2.95152   2.95519   2.95887   2.96671   2.97067
 Alpha virt. eigenvalues --    2.97357   2.97529   2.98579   2.99263   2.99463
 Alpha virt. eigenvalues --    2.99811   3.01294   3.01338   3.01823   3.02039
 Alpha virt. eigenvalues --    3.02232   3.03091   3.03911   3.04362   3.05530
 Alpha virt. eigenvalues --    3.06233   3.06701   3.06738   3.08161   3.08882
 Alpha virt. eigenvalues --    3.10967   3.11277   3.11958   3.12538   3.13701
 Alpha virt. eigenvalues --    3.14093   3.21373   3.23748   3.29629   3.30349
 Alpha virt. eigenvalues --    3.31687   3.34563   3.35258   3.41067   3.43120
 Alpha virt. eigenvalues --    3.47271   3.47357   3.49472   3.49832   3.54717
 Alpha virt. eigenvalues --    3.56163   3.57008
          Condensed to atoms (all electrons):
 Mulliken charges:
               1
     1  Mg   0.671545
     2  C    0.000581
     3  C   -0.073045
     4  C   -0.031038
     5  C   -0.063836
     6  N   -0.235355
     7  C   -0.111096
     8  C    0.050270
     9  C   -0.037621
    10  C    0.086068
    11  C    0.135305
    12  C    0.109041
    13  C    0.164781
    14  C    0.078249
    15  O   -0.232862
    16  O   -0.258337
    17  N   -0.330028
    18  C    0.142972
    19  C   -0.172413
    20  C    0.071027
    21  C    0.149083
    22  C    0.199056
    23  C   -0.135841
    24  O   -0.158354
    25  C    0.148045
    26  N   -0.178811
    27  C   -0.012398
    28  C    0.022827
    29  C    0.052013
    30  C   -0.005611
    31  C    0.093249
    32  C    0.094335
    33  C    0.057560
    34  N   -0.167123
    35  C    0.063213
    36  C   -0.216823
    37  C    0.077218
    38  C    0.044184
    39  C    0.184905
    40  C   -0.043317
    41  O   -0.115704
    42  C    0.100454
    43  C    0.115051
    44  O   -0.191076
    45  O   -0.242726
    46  C    0.221068
    47  C    0.333375
    48  C   -0.091824
    49  C   -0.167054
    50  C    0.152894
    51  C    0.101170
    52  C    0.047662
    53  C    0.124351
    54  C   -0.084219
    55  C    0.119403
    56  C    0.110005
    57  C    0.024414
    58  C    0.106446
    59  C   -0.093860
    60  C    0.086705
    61  C    0.092425
    62  C    0.030654
    63  C    0.147360
    64  C   -0.069683
    65  C    0.073391
    66  C    0.076398
    67  H   -0.055442
    68  H   -0.090180
    69  H   -0.075570
    70  H   -0.011715
    71  H   -0.036223
    72  H    0.000865
    73  H    0.003004
    74  H   -0.014402
    75  H   -0.012555
    76  H   -0.020515
    77  H    0.004295
    78  H    0.006627
    79  H    0.014649
    80  H   -0.017052
    81  H    0.004682
    82  H    0.018725
    83  H    0.016580
    84  H   -0.020074
    85  H   -0.028806
    86  H   -0.033192
    87  H    0.005322
    88  H   -0.003970
    89  H   -0.006349
    90  H   -0.016663
    91  H   -0.027976
    92  H   -0.011349
    93  H    0.011008
    94  H   -0.003386
    95  H    0.001077
    96  H    0.017944
    97  H   -0.007903
    98  H   -0.001475
    99  H    0.007127
   100  H    0.007902
   101  H    0.011599
   102  H   -0.010172
   103  H    0.029806
   104  H   -0.039711
   105  H   -0.016479
   106  H    0.028127
   107  H    0.001163
   108  H   -0.036026
   109  H   -0.043148
   110  H   -0.030781
   111  H   -0.039096
   112  H   -0.040735
   113  H   -0.036780
   114  H   -0.025958
   115  H   -0.014147
   116  H   -0.031594
   117  H   -0.013030
   118  H   -0.034023
   119  H   -0.043902
   120  H   -0.024276
   121  H   -0.032934
   122  H   -0.025386
   123  H   -0.014015
   124  H   -0.022874
   125  H   -0.029834
   126  H   -0.015784
   127  H   -0.003783
   128  H   -0.040308
   129  H   -0.023933
   130  H   -0.027023
   131  H   -0.038555
   132  H   -0.036673
   133  H   -0.028336
   134  H   -0.026015
   135  H   -0.019855
   136  H   -0.003934
   137  H   -0.015145
   138  H   -0.016853
   139  H   -0.023165
   140  H   -0.010142
 Sum of Mulliken charges =  -0.00000
 Mulliken charges with hydrogens summed into heavy atoms:
               1
     1  Mg   0.671545
     2  C    0.000581
     3  C   -0.128487
     4  C   -0.121218
     5  C   -0.139406
     6  N   -0.235355
     7  C   -0.111096
     8  C    0.038555
     9  C   -0.073844
    10  C    0.086068
    11  C    0.124771
    12  C    0.075972
    13  C    0.175702
    14  C    0.078249
    15  O   -0.232862
    16  O   -0.258337
    17  N   -0.330028
    18  C    0.142972
    19  C   -0.172413
    20  C    0.071027
    21  C    0.149083
    22  C    0.201335
    23  C   -0.135841
    24  O   -0.158354
    25  C    0.163277
    26  N   -0.178811
    27  C   -0.012398
    28  C   -0.005980
    29  C    0.018821
    30  C   -0.005611
    31  C    0.088252
    32  C    0.049697
    33  C    0.053833
    34  N   -0.167123
    35  C    0.063213
    36  C   -0.216823
    37  C    0.077218
    38  C    0.044184
    39  C    0.196023
    40  C   -0.043317
    41  O   -0.115704
    42  C    0.098978
    43  C    0.115051
    44  O   -0.191076
    45  O   -0.242726
    46  C    0.247696
    47  C    0.353009
    48  C   -0.131535
    49  C   -0.167054
    50  C    0.165706
    51  C    0.021996
    52  C   -0.022215
    53  C    0.046836
    54  C   -0.110176
    55  C    0.060633
    56  C    0.032081
    57  C   -0.032796
    58  C    0.067046
    59  C   -0.116735
    60  C    0.037303
    61  C    0.028184
    62  C   -0.034924
    63  C    0.082351
    64  C   -0.095698
    65  C    0.034458
    66  C    0.026237
 Electronic spatial extent (au):  <R**2>=         116590.2865
 Charge=             -0.0000 electrons
 Dipole moment (field-independent basis, Debye):
    X=              2.9649    Y=              3.8452    Z=              2.7723  Tot=              5.5912
 Quadrupole moment (field-independent basis, Debye-Ang):
   XX=           -347.5559   YY=           -464.9838   ZZ=           -397.7009
   XY=              9.0760   XZ=              5.1879   YZ=             18.9495
 Traceless Quadrupole moment (field-independent basis, Debye-Ang):
   XX=             55.8576   YY=            -61.5703   ZZ=              5.7127
   XY=              9.0760   XZ=              5.1879   YZ=             18.9495
 Octapole moment (field-independent basis, Debye-Ang**2):
  XXX=            446.7973  YYY=             49.3664  ZZZ=            -17.8847  XYY=           -106.6376
  XXY=            100.1153  XXZ=            149.6609  XZZ=            141.0969  YZZ=            -61.8561
  YYZ=             90.7248  XYZ=            180.8242
 Hexadecapole moment (field-independent basis, Debye-Ang**3):
 XXXX=        -124877.7871 YYYY=         -25187.7978 ZZZZ=          -9570.6297 XXXY=           1100.1081
 XXXZ=            984.4523 YYYX=            235.3235 YYYZ=            995.6613 ZZZX=             15.2995
 ZZZY=            318.2610 XXYY=         -25533.0358 XXZZ=         -22928.8716 YYZZ=          -5566.4528
 XXYZ=            738.0362 YYXZ=            181.8081 ZZXY=           -408.6246
 N-N= 9.595487832381D+03 E-N=-2.618524744718D+04  KE= 2.977734480686D+03
 Leave Link  601 at Thu Apr 28 09:11:40 2022, MaxMem= 10066329600 cpu:               9.7 elap:               0.5
 (Enter /sw/apps/gaussian-16.0/g16/l9999.exe)
 1\1\GINC-BP1-COMPUTE159\SP\RBLYP TD-FC\def2SVP\C55H74Mg1N4O6\OF15641\2
 8-Apr-2022\0\\#p blyp/Def2SVP td=(nstates=5)\\step_1501_chromophore_5 
 TDDFT with blyp functional\\0,1\Mg,0,24.652,-7.431,46.515\C,0,26.866,-
 4.807,45.315\C,0,22.34,-6.287,44.137\C,0,22.847,-10.087,47.177\C,0,27.
 41,-8.822,48.055\N,0,24.6,-5.745,44.978\C,0,25.658,-4.856,44.592\C,0,2
 5.261,-4.077,43.395\C,0,23.712,-4.319,43.396\C,0,23.468,-5.527,44.232\
 C,0,22.754,-3.121,43.744\C,0,26.07,-4.412,42.087\C,0,26.801,-3.281,41.
 323\C,0,26.544,-3.201,39.81\O,0,25.792,-2.312,39.304\O,0,27.254,-4.118
 ,39.073\N,0,22.694,-7.882,46.053\C,0,21.943,-7.329,45.047\C,0,20.671,-
 8.049,45.043\C,0,20.767,-9.169,45.953\C,0,22.171,-9.114,46.457\C,0,19.
 498,-7.699,44.107\C,0,19.721,-10.155,46.176\O,0,18.634,-9.979,45.668\C
 ,0,19.955,-11.318,47.1\N,0,25.098,-9.274,47.496\C,0,24.153,-10.146,47.
 711\C,0,24.701,-11.343,48.684\C,0,26.165,-10.925,48.822\C,0,26.247,-9.
 601,48.103\C,0,23.975,-11.482,50.09\C,0,27.276,-11.898,48.455\C,0,28.4
 84,-12.028,49.452\N,0,26.702,-6.801,46.849\C,0,27.619,-7.505,47.531\C,
 0,28.796,-6.673,47.658\C,0,28.552,-5.637,46.756\C,0,27.229,-5.755,46.2
 81\C,0,30.025,-7.146,48.387\C,0,29.065,-4.386,46.111\O,0,30.145,-3.841
 ,46.199\C,0,28.052,-3.992,45.049\C,0,27.608,-2.572,45.415\O,0,27.745,-
 1.576,44.675\O,0,26.81,-2.618,46.522\C,0,26.29,-1.381,46.98\C,0,26.651
 ,-4.105,37.691\C,0,26.055,-5.45,37.426\C,0,26.314,-6.252,36.345\C,0,26
 .999,-5.973,35.029\C,0,25.876,-7.741,36.529\C,0,24.417,-8.058,36.264\C
 ,0,24.112,-8.546,34.822\C,0,23.3,-7.484,34.032\C,0,21.776,-7.445,34.33
 1\C,0,23.651,-7.402,32.521\C,0,24.057,-6.013,31.974\C,0,25.455,-5.921,
 31.154\C,0,25.309,-4.953,29.954\C,0,25.345,-3.446,30.485\C,0,26.364,-5
 .202,28.766\C,0,25.675,-5.618,27.435\C,0,24.972,-4.451,26.775\C,0,23.4
 88,-4.723,26.505\C,0,23.114,-5.099,24.981\C,0,22.653,-3.427,26.871\H,0
 ,21.663,-6.011,43.325\H,0,22.217,-10.922,47.493\H,0,28.255,-9.18,48.64
 7\H,0,25.502,-3.049,43.665\H,0,23.369,-4.505,42.378\H,0,22.135,-3.311,
 44.621\H,0,22.168,-2.881,42.857\H,0,23.482,-2.338,43.952\H,0,25.473,-4
 .944,41.346\H,0,26.833,-5.117,42.414\H,0,27.855,-3.465,41.531\H,0,26.4
 72,-2.346,41.777\H,0,18.999,-8.61,43.778\H,0,19.853,-7.059,43.299\H,0,
 18.804,-7.173,44.763\H,0,20.297,-10.994,48.083\H,0,20.601,-12.074,46.6
 55\H,0,18.977,-11.789,47.193\H,0,24.77,-12.349,48.271\H,0,26.3,-10.674
 ,49.874\H,0,24.338,-12.27,50.749\H,0,22.896,-11.602,49.987\H,0,24.149,
 -10.493,50.513\H,0,27.659,-11.647,47.466\H,0,26.855,-12.899,48.367\H,0
 ,28.19,-11.571,50.396\H,0,29.33,-11.477,49.039\H,0,28.727,-13.074,49.6
 4\H,0,30.711,-6.316,48.559\H,0,30.486,-7.981,47.859\H,0,29.668,-7.414,
 49.381\H,0,28.372,-4.02,44.007\H,0,27.127,-0.929,47.513\H,0,25.448,-1.
 39,47.671\H,0,25.912,-0.648,46.267\H,0,27.427,-3.871,36.961\H,0,25.773
 ,-3.546,37.366\H,0,25.463,-5.94,38.199\H,0,27.501,-5.007,34.966\H,0,26
 .27,-6.092,34.227\H,0,27.779,-6.734,35.035\H,0,25.96,-8.191,37.518\H,0
 ,26.558,-8.394,35.983\H,0,23.889,-7.126,36.462\H,0,24.026,-8.768,36.99
 4\H,0,23.52,-9.448,34.974\H,0,25.045,-8.874,34.364\H,0,23.639,-6.532,3
 4.441\H,0,21.573,-8.039,35.223\H,0,21.235,-7.925,33.516\H,0,21.324,-6.
 454,34.309\H,0,22.824,-7.721,31.887\H,0,24.492,-8.074,32.355\H,0,24.05
 8,-5.319,32.814\H,0,23.214,-5.772,31.326\H,0,25.704,-6.919,30.795\H,0,
 26.152,-5.603,31.929\H,0,24.303,-5.002,29.539\H,0,25.935,-2.876,29.768
 \H,0,25.904,-3.377,31.418\H,0,24.374,-2.951,30.456\H,0,26.973,-6.,29.1
 91\H,0,26.936,-4.353,28.391\H,0,25.118,-6.511,27.719\H,0,26.473,-5.969
 ,26.781\H,0,25.491,-4.314,25.827\H,0,25.169,-3.573,27.39\H,0,23.174,-5
 .556,27.134\H,0,23.519,-6.1,24.831\H,0,23.499,-4.335,24.306\H,0,22.072
 ,-5.276,24.716\H,0,23.024,-3.09,27.839\H,0,21.589,-3.596,27.036\H,0,22
 .742,-2.709,26.056\\Version=ES64L-G16RevA.03\State=1-A\HF=-3007.328037
 8\RMSD=4.730e-09\PG=C01 [X(C55H74Mg1N4O6)]\\@


 Everywhere is walking distance if you have the time.
                                    -- Steven Wright
 Job cpu time:       0 days  5 hours 14 minutes 40.9 seconds.
 Elapsed time:       0 days  0 hours 13 minutes 10.3 seconds.
 File lengths (MBytes):  RWF=   8031 Int=      0 D2E=      0 Chk=    390 Scr=      1
 Normal termination of Gaussian 16 at Thu Apr 28 09:11:40 2022.
