 Entering Gaussian System, Link 0=g16
 Initial command:
 /sw/apps/gaussian-16.0/g16/l1.exe "/tmp/Gau-250006.inp" -scrdir="/tmp/"
 Entering Link 1 = /sw/apps/gaussian-16.0/g16/l1.exe PID=    250007.
  
 Copyright (c) 1988,1990,1992,1993,1995,1998,2003,2009,2016,
            Gaussian, Inc.  All Rights Reserved.
  
 This is part of the Gaussian(R) 16 program.  It is based on
 the Gaussian(R) 09 system (copyright 2009, Gaussian, Inc.),
 the Gaussian(R) 03 system (copyright 2003, Gaussian, Inc.),
 the Gaussian(R) 98 system (copyright 1998, Gaussian, Inc.),
 the Gaussian(R) 94 system (copyright 1995, Gaussian, Inc.),
 the Gaussian 92(TM) system (copyright 1992, Gaussian, Inc.),
 the Gaussian 90(TM) system (copyright 1990, Gaussian, Inc.),
 the Gaussian 88(TM) system (copyright 1988, Gaussian, Inc.),
 the Gaussian 86(TM) system (copyright 1986, Carnegie Mellon
 University), and the Gaussian 82(TM) system (copyright 1983,
 Carnegie Mellon University). Gaussian is a federally registered
 trademark of Gaussian, Inc.
  
 This software contains proprietary and confidential information,
 including trade secrets, belonging to Gaussian, Inc.
  
 This software is provided under written license and may be
 used, copied, transmitted, or stored only in accord with that
 written license.
  
 The following legend is applicable only to US Government
 contracts under FAR:
  
                    RESTRICTED RIGHTS LEGEND
  
 Use, reproduction and disclosure by the US Government is
 subject to restrictions as set forth in subparagraphs (a)
 and (c) of the Commercial Computer Software - Restricted
 Rights clause in FAR 52.227-19.
  
 Gaussian, Inc.
 340 Quinnipiac St., Bldg. 40, Wallingford CT 06492
  
  
 ---------------------------------------------------------------
 Warning -- This program may not be used in any manner that
 competes with the business of Gaussian, Inc. or will provide
 assistance to any competitor of Gaussian, Inc.  The licensee
 of this program is prohibited from giving any competitor of
 Gaussian, Inc. access to this program.  By using this program,
 the user acknowledges that Gaussian, Inc. is engaged in the
 business of creating and licensing software in the field of
 computational chemistry and represents and warrants to the
 licensee that it is not a competitor of Gaussian, Inc. and that
 it will not use this program in any manner prohibited above.
 ---------------------------------------------------------------
  

 Cite this work as:
 Gaussian 16, Revision A.03,
 M. J. Frisch, G. W. Trucks, H. B. Schlegel, G. E. Scuseria, 
 M. A. Robb, J. R. Cheeseman, G. Scalmani, V. Barone, 
 G. A. Petersson, H. Nakatsuji, X. Li, M. Caricato, A. V. Marenich, 
 J. Bloino, B. G. Janesko, R. Gomperts, B. Mennucci, H. P. Hratchian, 
 J. V. Ortiz, A. F. Izmaylov, J. L. Sonnenberg, D. Williams-Young, 
 F. Ding, F. Lipparini, F. Egidi, J. Goings, B. Peng, A. Petrone, 
 T. Henderson, D. Ranasinghe, V. G. Zakrzewski, J. Gao, N. Rega, 
 G. Zheng, W. Liang, M. Hada, M. Ehara, K. Toyota, R. Fukuda, 
 J. Hasegawa, M. Ishida, T. Nakajima, Y. Honda, O. Kitao, H. Nakai, 
 T. Vreven, K. Throssell, J. A. Montgomery, Jr., J. E. Peralta, 
 F. Ogliaro, M. J. Bearpark, J. J. Heyd, E. N. Brothers, K. N. Kudin, 
 V. N. Staroverov, T. A. Keith, R. Kobayashi, J. Normand, 
 K. Raghavachari, A. P. Rendell, J. C. Burant, S. S. Iyengar, 
 J. Tomasi, M. Cossi, J. M. Millam, M. Klene, C. Adamo, R. Cammi, 
 J. W. Ochterski, R. L. Martin, K. Morokuma, O. Farkas, 
 J. B. Foresman, and D. J. Fox, Gaussian, Inc., Wallingford CT, 2016.
 
 ******************************************
 Gaussian 16:  ES64L-G16RevA.03 25-Dec-2016
                27-Apr-2022 
 ******************************************
 %nproc=24
 Will use up to   24 processors via shared memory.
 %mem=50gb
 --------------------
 #p ZINDO=(nstates=5)
 --------------------
 1/38=1,172=1/1;
 2/12=2,17=6,18=5,40=1/2;
 3/5=2,25=1,41=400000/1,2,3,8;
 4/5=3,35=1/1;
 5/5=2,35=1,38=5/2;
 8/6=1,108=5/1;
 9/41=5,42=1,49=10/14;
 6/7=2,8=2,9=2,10=2/1;
 99/5=1,9=1/99;
 Leave Link    1 at Wed Apr 27 11:47:17 2022, MaxMem=  6710886400 cpu:               0.7 elap:               0.0
 (Enter /sw/apps/gaussian-16.0/g16/l101.exe)
 ------------------------------
 step_1151_chromophore_17 ZINDO
 ------------------------------
 Symbolic Z-matrix:
 Charge =  0 Multiplicity = 1
 Mg                    29.367    59.217    41.181 
 C                     26.46     57.755    39.801 
 C                     31.222    56.73     39.968 
 C                     32.179    61.13     41.646 
 C                     27.344    62.08     41.949 
 N                     28.842    57.447    40.093 
 C                     27.644    57.025    39.668 
 C                     27.791    55.666    38.926 
 C                     29.206    55.192    39.337 
 C                     29.801    56.517    39.853 
 C                     29.205    54.044    40.327 
 C                     27.531    55.75     37.39 
 C                     26.815    54.506    36.76 
 C                     26.073    54.633    35.434 
 O                     24.861    54.443    35.264 
 O                     26.967    55.055    34.435 
 N                     31.47     58.918    40.92 
 C                     31.973    57.79     40.453 
 C                     33.479    57.975    40.395 
 C                     33.739    59.229    41.005 
 C                     32.455    59.849    41.19 
 C                     34.431    57.03     39.968 
 C                     35.109    59.818    41.358 
 O                     36.088    59.1      41.145 
 C                     35.292    61.076    42.144 
 N                     29.737    61.351    41.526 
 C                     30.946    61.831    41.748 
 C                     30.862    63.349    42.092 
 C                     29.388    63.591    42.426 
 C                     28.771    62.285    41.867 
 C                     31.797    63.869    43.323 
 C                     28.79     64.933    41.789 
 C                     28.313    66.007    42.844 
 N                     27.299    59.834    41.031 
 C                     26.67     60.987    41.379 
 C                     25.267    60.715    41.212 
 C                     25.125    59.483    40.533 
 C                     26.443    59.008    40.427 
 C                     24.102    61.616    41.614 
 C                     24.186    58.497    39.965 
 O                     23.004    58.524    39.907 
 C                     25.001    57.349    39.431 
 C                     24.441    56.061    40. 
 O                     24.565    55.604    41.164 
 O                     23.785    55.329    39.045 
 C                     23.406    53.969    39.639 
 C                     26.448    55.364    33.079 
 C                     27.655    55.474    32.051 
 C                     27.771    55.205    30.738 
 C                     26.685    55.074    29.715 
 C                     29.151    55.142    30.134 
 C                     29.774    56.487    29.86 
 C                     30.997    56.732    30.702 
 C                     32.193    57.076    29.816 
 C                     32.075    58.478    29.229 
 C                     33.533    56.973    30.72 
 C                     34.24     55.608    30.845 
 C                     35.786    55.572    30.487 
 C                     36.15     54.762    29.183 
 C                     37.298    53.737    29.391 
 C                     36.54     55.844    28.172 
 C                     36.63     55.132    26.834 
 C                     37.906    55.364    26.001 
 C                     37.678    55.744    24.524 
 C                     39.115    55.742    23.827 
 C                     36.943    57.095    24.293 
 H                     31.772    55.875    39.568 
 H                     32.936    61.917    41.628 
 H                     26.694    62.908    42.239 
 H                     27.085    54.961    39.365 
 H                     29.741    54.932    38.424 
 H                     29.334    53.181    39.673 
 H                     28.3      53.77     40.87 
 H                     29.99     54.08     41.082 
 H                     28.508    55.846    36.916 
 H                     26.994    56.664    37.136 
 H                     26.009    54.25     37.448 
 H                     27.502    53.67     36.634 
 H                     35.233    57.421    39.342 
 H                     33.992    56.219    39.387 
 H                     34.939    56.581    40.821 
 H                     35.301    61.914    41.447 
 H                     36.332    60.949    42.444 
 H                     34.58     61.13     42.967 
 H                     31.189    64.038    41.313 
 H                     29.209    63.562    43.5 
 H                     31.277    64.389    44.128 
 H                     32.501    64.64     43.007 
 H                     32.317    63.051    43.823 
 H                     27.917    64.601    41.226 
 H                     29.494    65.436    41.126 
 H                     28.58     65.796    43.879 
 H                     27.23     65.912    42.918 
 H                     28.612    66.997    42.5 
 H                     24.281    62.614    41.213 
 H                     24.156    61.676    42.701 
 H                     23.128    61.203    41.353 
 H                     24.966    57.452    38.347 
 H                     24.25     53.41     40.042 
 H                     23.037    53.444    38.758 
 H                     22.555    54.106    40.306 
 H                     26.02     56.366    33.111 
 H                     25.71     54.654    32.705 
 H                     28.631    55.527    32.533 
 H                     26.617    53.99     29.616 
 H                     26.957    55.634    28.82 
 H                     25.662    55.345    29.975 
 H                     29.105    54.714    29.133 
 H                     29.82     54.519    30.729 
 H                     29.164    57.376    30.025 
 H                     30.041    56.519    28.804 
 H                     31.172    55.896    31.38 
 H                     30.812    57.541    31.408 
 H                     32.156    56.292    29.059 
 H                     31.064    58.88     29.296 
 H                     32.132    58.521    28.142 
 H                     32.88     59.199    29.364 
 H                     33.379    57.166    31.781 
 H                     34.265    57.667    30.308 
 H                     33.642    54.916    30.252 
 H                     34.196    55.252    31.875 
 H                     36.487    55.22     31.244 
 H                     36.051    56.629    30.471 
 H                     35.236    54.214    28.952 
 H                     37.797    53.496    28.452 
 H                     36.738    52.824    29.595 
 H                     37.981    54.157    30.128 
 H                     37.539    56.181    28.449 
 H                     36.011    56.787    28.034 
 H                     35.78     55.506    26.264 
 H                     36.535    54.047    26.882 
 H                     38.308    54.354    25.913 
 H                     38.778    55.689    26.568 
 H                     36.979    54.965    24.218 
 H                     39.962    55.4      24.421 
 H                     39.403    56.656    23.308 
 H                     39.004    54.973    23.063 
 H                     35.909    56.989    23.964 
 H                     37.535    57.791    23.699 
 H                     37.004    57.59     25.262 
 
 ITRead=  0  0  0  0  0  0  0  0  0  0  0  0  0  0  0  0  0  0  0  0
 ITRead=  0  0  0  0  0  0  0  0  0  0  0  0  0  0  0  0  0  0  0  0
 ITRead=  0  0  0  0  0  0  0  0  0  0  0  0  0  0  0  0  0  0  0  0
 ITRead=  0  0  0  0  0  0  0  0  0  0  0  0  0  0  0  0  0  0  0  0
 ITRead=  0  0  0  0  0  0  0  0  0  0  0  0  0  0  0  0  0  0  0  0
 ITRead=  0  0  0  0  0  0  0  0  0  0  0  0  0  0  0  0  0  0  0  0
 ITRead=  0  0  0  0  0  0  0  0  0  0  0  0  0  0  0  0  0  0  0  0
 MicOpt= -1 -1 -1 -1 -1 -1 -1 -1 -1 -1 -1 -1 -1 -1 -1 -1 -1 -1 -1 -1
 MicOpt= -1 -1 -1 -1 -1 -1 -1 -1 -1 -1 -1 -1 -1 -1 -1 -1 -1 -1 -1 -1
 MicOpt= -1 -1 -1 -1 -1 -1 -1 -1 -1 -1 -1 -1 -1 -1 -1 -1 -1 -1 -1 -1
 MicOpt= -1 -1 -1 -1 -1 -1 -1 -1 -1 -1 -1 -1 -1 -1 -1 -1 -1 -1 -1 -1
 MicOpt= -1 -1 -1 -1 -1 -1 -1 -1 -1 -1 -1 -1 -1 -1 -1 -1 -1 -1 -1 -1
 MicOpt= -1 -1 -1 -1 -1 -1 -1 -1 -1 -1 -1 -1 -1 -1 -1 -1 -1 -1 -1 -1
 MicOpt= -1 -1 -1 -1 -1 -1 -1 -1 -1 -1 -1 -1 -1 -1 -1 -1 -1 -1 -1 -1
 NAtoms=    140 NQM=      140 NQMF=       0 NMMI=      0 NMMIF=      0
                NMic=       0 NMicF=      0.
                    Isotopes and Nuclear Properties:
 (Nuclear quadrupole moments (NQMom) in fm**2, nuclear magnetic moments (NMagM)
  in nuclear magnetons)

  Atom         1           2           3           4           5           6           7           8           9          10
 IAtWgt=          24          12          12          12          12          14          12          12          12          12
 AtmWgt=  23.9850450  12.0000000  12.0000000  12.0000000  12.0000000  14.0030740  12.0000000  12.0000000  12.0000000  12.0000000
 NucSpn=           0           0           0           0           0           2           0           0           0           0
 AtZEff=  -0.0000000  -0.0000000  -0.0000000  -0.0000000  -0.0000000  -0.0000000  -0.0000000  -0.0000000  -0.0000000  -0.0000000
 NQMom=    0.0000000   0.0000000   0.0000000   0.0000000   0.0000000   2.0440000   0.0000000   0.0000000   0.0000000   0.0000000
 NMagM=    0.0000000   0.0000000   0.0000000   0.0000000   0.0000000   0.4037610   0.0000000   0.0000000   0.0000000   0.0000000
 AtZNuc=  12.0000000   6.0000000   6.0000000   6.0000000   6.0000000   7.0000000   6.0000000   6.0000000   6.0000000   6.0000000

  Atom        11          12          13          14          15          16          17          18          19          20
 IAtWgt=          12          12          12          12          16          16          14          12          12          12
 AtmWgt=  12.0000000  12.0000000  12.0000000  12.0000000  15.9949146  15.9949146  14.0030740  12.0000000  12.0000000  12.0000000
 NucSpn=           0           0           0           0           0           0           2           0           0           0
 AtZEff=  -0.0000000  -0.0000000  -0.0000000  -0.0000000  -0.0000000  -0.0000000  -0.0000000  -0.0000000  -0.0000000  -0.0000000
 NQMom=    0.0000000   0.0000000   0.0000000   0.0000000   0.0000000   0.0000000   2.0440000   0.0000000   0.0000000   0.0000000
 NMagM=    0.0000000   0.0000000   0.0000000   0.0000000   0.0000000   0.0000000   0.4037610   0.0000000   0.0000000   0.0000000
 AtZNuc=   6.0000000   6.0000000   6.0000000   6.0000000   8.0000000   8.0000000   7.0000000   6.0000000   6.0000000   6.0000000

  Atom        21          22          23          24          25          26          27          28          29          30
 IAtWgt=          12          12          12          16          12          14          12          12          12          12
 AtmWgt=  12.0000000  12.0000000  12.0000000  15.9949146  12.0000000  14.0030740  12.0000000  12.0000000  12.0000000  12.0000000
 NucSpn=           0           0           0           0           0           2           0           0           0           0
 AtZEff=  -0.0000000  -0.0000000  -0.0000000  -0.0000000  -0.0000000  -0.0000000  -0.0000000  -0.0000000  -0.0000000  -0.0000000
 NQMom=    0.0000000   0.0000000   0.0000000   0.0000000   0.0000000   2.0440000   0.0000000   0.0000000   0.0000000   0.0000000
 NMagM=    0.0000000   0.0000000   0.0000000   0.0000000   0.0000000   0.4037610   0.0000000   0.0000000   0.0000000   0.0000000
 AtZNuc=   6.0000000   6.0000000   6.0000000   8.0000000   6.0000000   7.0000000   6.0000000   6.0000000   6.0000000   6.0000000

  Atom        31          32          33          34          35          36          37          38          39          40
 IAtWgt=          12          12          12          14          12          12          12          12          12          12
 AtmWgt=  12.0000000  12.0000000  12.0000000  14.0030740  12.0000000  12.0000000  12.0000000  12.0000000  12.0000000  12.0000000
 NucSpn=           0           0           0           2           0           0           0           0           0           0
 AtZEff=  -0.0000000  -0.0000000  -0.0000000  -0.0000000  -0.0000000  -0.0000000  -0.0000000  -0.0000000  -0.0000000  -0.0000000
 NQMom=    0.0000000   0.0000000   0.0000000   2.0440000   0.0000000   0.0000000   0.0000000   0.0000000   0.0000000   0.0000000
 NMagM=    0.0000000   0.0000000   0.0000000   0.4037610   0.0000000   0.0000000   0.0000000   0.0000000   0.0000000   0.0000000
 AtZNuc=   6.0000000   6.0000000   6.0000000   7.0000000   6.0000000   6.0000000   6.0000000   6.0000000   6.0000000   6.0000000

  Atom        41          42          43          44          45          46          47          48          49          50
 IAtWgt=          16          12          12          16          16          12          12          12          12          12
 AtmWgt=  15.9949146  12.0000000  12.0000000  15.9949146  15.9949146  12.0000000  12.0000000  12.0000000  12.0000000  12.0000000
 NucSpn=           0           0           0           0           0           0           0           0           0           0
 AtZEff=  -0.0000000  -0.0000000  -0.0000000  -0.0000000  -0.0000000  -0.0000000  -0.0000000  -0.0000000  -0.0000000  -0.0000000
 NQMom=    0.0000000   0.0000000   0.0000000   0.0000000   0.0000000   0.0000000   0.0000000   0.0000000   0.0000000   0.0000000
 NMagM=    0.0000000   0.0000000   0.0000000   0.0000000   0.0000000   0.0000000   0.0000000   0.0000000   0.0000000   0.0000000
 AtZNuc=   8.0000000   6.0000000   6.0000000   8.0000000   8.0000000   6.0000000   6.0000000   6.0000000   6.0000000   6.0000000

  Atom        51          52          53          54          55          56          57          58          59          60
 IAtWgt=          12          12          12          12          12          12          12          12          12          12
 AtmWgt=  12.0000000  12.0000000  12.0000000  12.0000000  12.0000000  12.0000000  12.0000000  12.0000000  12.0000000  12.0000000
 NucSpn=           0           0           0           0           0           0           0           0           0           0
 AtZEff=  -0.0000000  -0.0000000  -0.0000000  -0.0000000  -0.0000000  -0.0000000  -0.0000000  -0.0000000  -0.0000000  -0.0000000
 NQMom=    0.0000000   0.0000000   0.0000000   0.0000000   0.0000000   0.0000000   0.0000000   0.0000000   0.0000000   0.0000000
 NMagM=    0.0000000   0.0000000   0.0000000   0.0000000   0.0000000   0.0000000   0.0000000   0.0000000   0.0000000   0.0000000
 AtZNuc=   6.0000000   6.0000000   6.0000000   6.0000000   6.0000000   6.0000000   6.0000000   6.0000000   6.0000000   6.0000000

  Atom        61          62          63          64          65          66          67          68          69          70
 IAtWgt=          12          12          12          12          12          12           1           1           1           1
 AtmWgt=  12.0000000  12.0000000  12.0000000  12.0000000  12.0000000  12.0000000   1.0078250   1.0078250   1.0078250   1.0078250
 NucSpn=           0           0           0           0           0           0           1           1           1           1
 AtZEff=  -0.0000000  -0.0000000  -0.0000000  -0.0000000  -0.0000000  -0.0000000  -0.0000000  -0.0000000  -0.0000000  -0.0000000
 NQMom=    0.0000000   0.0000000   0.0000000   0.0000000   0.0000000   0.0000000   0.0000000   0.0000000   0.0000000   0.0000000
 NMagM=    0.0000000   0.0000000   0.0000000   0.0000000   0.0000000   0.0000000   2.7928460   2.7928460   2.7928460   2.7928460
 AtZNuc=   6.0000000   6.0000000   6.0000000   6.0000000   6.0000000   6.0000000   1.0000000   1.0000000   1.0000000   1.0000000

  Atom        71          72          73          74          75          76          77          78          79          80
 IAtWgt=           1           1           1           1           1           1           1           1           1           1
 AtmWgt=   1.0078250   1.0078250   1.0078250   1.0078250   1.0078250   1.0078250   1.0078250   1.0078250   1.0078250   1.0078250
 NucSpn=           1           1           1           1           1           1           1           1           1           1
 AtZEff=  -0.0000000  -0.0000000  -0.0000000  -0.0000000  -0.0000000  -0.0000000  -0.0000000  -0.0000000  -0.0000000  -0.0000000
 NQMom=    0.0000000   0.0000000   0.0000000   0.0000000   0.0000000   0.0000000   0.0000000   0.0000000   0.0000000   0.0000000
 NMagM=    2.7928460   2.7928460   2.7928460   2.7928460   2.7928460   2.7928460   2.7928460   2.7928460   2.7928460   2.7928460
 AtZNuc=   1.0000000   1.0000000   1.0000000   1.0000000   1.0000000   1.0000000   1.0000000   1.0000000   1.0000000   1.0000000

  Atom        81          82          83          84          85          86          87          88          89          90
 IAtWgt=           1           1           1           1           1           1           1           1           1           1
 AtmWgt=   1.0078250   1.0078250   1.0078250   1.0078250   1.0078250   1.0078250   1.0078250   1.0078250   1.0078250   1.0078250
 NucSpn=           1           1           1           1           1           1           1           1           1           1
 AtZEff=  -0.0000000  -0.0000000  -0.0000000  -0.0000000  -0.0000000  -0.0000000  -0.0000000  -0.0000000  -0.0000000  -0.0000000
 NQMom=    0.0000000   0.0000000   0.0000000   0.0000000   0.0000000   0.0000000   0.0000000   0.0000000   0.0000000   0.0000000
 NMagM=    2.7928460   2.7928460   2.7928460   2.7928460   2.7928460   2.7928460   2.7928460   2.7928460   2.7928460   2.7928460
 AtZNuc=   1.0000000   1.0000000   1.0000000   1.0000000   1.0000000   1.0000000   1.0000000   1.0000000   1.0000000   1.0000000

  Atom        91          92          93          94          95          96          97          98          99         100
 IAtWgt=           1           1           1           1           1           1           1           1           1           1
 AtmWgt=   1.0078250   1.0078250   1.0078250   1.0078250   1.0078250   1.0078250   1.0078250   1.0078250   1.0078250   1.0078250
 NucSpn=           1           1           1           1           1           1           1           1           1           1
 AtZEff=  -0.0000000  -0.0000000  -0.0000000  -0.0000000  -0.0000000  -0.0000000  -0.0000000  -0.0000000  -0.0000000  -0.0000000
 NQMom=    0.0000000   0.0000000   0.0000000   0.0000000   0.0000000   0.0000000   0.0000000   0.0000000   0.0000000   0.0000000
 NMagM=    2.7928460   2.7928460   2.7928460   2.7928460   2.7928460   2.7928460   2.7928460   2.7928460   2.7928460   2.7928460
 AtZNuc=   1.0000000   1.0000000   1.0000000   1.0000000   1.0000000   1.0000000   1.0000000   1.0000000   1.0000000   1.0000000

  Atom       101         102         103         104         105         106         107         108         109         110
 IAtWgt=           1           1           1           1           1           1           1           1           1           1
 AtmWgt=   1.0078250   1.0078250   1.0078250   1.0078250   1.0078250   1.0078250   1.0078250   1.0078250   1.0078250   1.0078250
 NucSpn=           1           1           1           1           1           1           1           1           1           1
 AtZEff=  -0.0000000  -0.0000000  -0.0000000  -0.0000000  -0.0000000  -0.0000000  -0.0000000  -0.0000000  -0.0000000  -0.0000000
 NQMom=    0.0000000   0.0000000   0.0000000   0.0000000   0.0000000   0.0000000   0.0000000   0.0000000   0.0000000   0.0000000
 NMagM=    2.7928460   2.7928460   2.7928460   2.7928460   2.7928460   2.7928460   2.7928460   2.7928460   2.7928460   2.7928460
 AtZNuc=   1.0000000   1.0000000   1.0000000   1.0000000   1.0000000   1.0000000   1.0000000   1.0000000   1.0000000   1.0000000

  Atom       111         112         113         114         115         116         117         118         119         120
 IAtWgt=           1           1           1           1           1           1           1           1           1           1
 AtmWgt=   1.0078250   1.0078250   1.0078250   1.0078250   1.0078250   1.0078250   1.0078250   1.0078250   1.0078250   1.0078250
 NucSpn=           1           1           1           1           1           1           1           1           1           1
 AtZEff=  -0.0000000  -0.0000000  -0.0000000  -0.0000000  -0.0000000  -0.0000000  -0.0000000  -0.0000000  -0.0000000  -0.0000000
 NQMom=    0.0000000   0.0000000   0.0000000   0.0000000   0.0000000   0.0000000   0.0000000   0.0000000   0.0000000   0.0000000
 NMagM=    2.7928460   2.7928460   2.7928460   2.7928460   2.7928460   2.7928460   2.7928460   2.7928460   2.7928460   2.7928460
 AtZNuc=   1.0000000   1.0000000   1.0000000   1.0000000   1.0000000   1.0000000   1.0000000   1.0000000   1.0000000   1.0000000

  Atom       121         122         123         124         125         126         127         128         129         130
 IAtWgt=           1           1           1           1           1           1           1           1           1           1
 AtmWgt=   1.0078250   1.0078250   1.0078250   1.0078250   1.0078250   1.0078250   1.0078250   1.0078250   1.0078250   1.0078250
 NucSpn=           1           1           1           1           1           1           1           1           1           1
 AtZEff=  -0.0000000  -0.0000000  -0.0000000  -0.0000000  -0.0000000  -0.0000000  -0.0000000  -0.0000000  -0.0000000  -0.0000000
 NQMom=    0.0000000   0.0000000   0.0000000   0.0000000   0.0000000   0.0000000   0.0000000   0.0000000   0.0000000   0.0000000
 NMagM=    2.7928460   2.7928460   2.7928460   2.7928460   2.7928460   2.7928460   2.7928460   2.7928460   2.7928460   2.7928460
 AtZNuc=   1.0000000   1.0000000   1.0000000   1.0000000   1.0000000   1.0000000   1.0000000   1.0000000   1.0000000   1.0000000

  Atom       131         132         133         134         135         136         137         138         139         140
 IAtWgt=           1           1           1           1           1           1           1           1           1           1
 AtmWgt=   1.0078250   1.0078250   1.0078250   1.0078250   1.0078250   1.0078250   1.0078250   1.0078250   1.0078250   1.0078250
 NucSpn=           1           1           1           1           1           1           1           1           1           1
 AtZEff=  -0.0000000  -0.0000000  -0.0000000  -0.0000000  -0.0000000  -0.0000000  -0.0000000  -0.0000000  -0.0000000  -0.0000000
 NQMom=    0.0000000   0.0000000   0.0000000   0.0000000   0.0000000   0.0000000   0.0000000   0.0000000   0.0000000   0.0000000
 NMagM=    2.7928460   2.7928460   2.7928460   2.7928460   2.7928460   2.7928460   2.7928460   2.7928460   2.7928460   2.7928460
 AtZNuc=   1.0000000   1.0000000   1.0000000   1.0000000   1.0000000   1.0000000   1.0000000   1.0000000   1.0000000   1.0000000
 Leave Link  101 at Wed Apr 27 11:47:18 2022, MaxMem=  6710886400 cpu:               3.0 elap:               0.1
 (Enter /sw/apps/gaussian-16.0/g16/l202.exe)
 Stoichiometry    C55H74MgN4O6
 Framework group  C1[X(C55H74MgN4O6)]
 Deg. of freedom   414
 Full point group                 C1      NOp   1
 Largest Abelian subgroup         C1      NOp   1
 Largest concise Abelian subgroup C1      NOp   1
                         Standard orientation:                         
 ---------------------------------------------------------------------
 Center     Atomic      Atomic             Coordinates (Angstroms)
 Number     Number       Type             X           Y           Z
 ---------------------------------------------------------------------
      1         12           0       -4.624711   -1.308892   -0.573278
      2          6           0       -4.346956    2.196752   -0.218588
      3          6           0       -2.083914   -1.315764   -2.727777
      4          6           0       -4.288282   -4.694388   -0.116800
      5          6           0       -6.963950   -1.217533    2.146784
      6          7           0       -3.448514    0.282856   -1.394962
      7          6           0       -3.505807    1.600508   -1.161671
      8          6           0       -2.436762    2.339232   -2.016354
      9          6           0       -2.026004    1.275065   -3.062609
     10          6           0       -2.561990   -0.000336   -2.382919
     11          6           0       -2.556613    1.547979   -4.456157
     12          6           0       -1.266798    2.947387   -1.182517
     13          6           0       -0.709789    4.316570   -1.704217
     14          6           0        0.054341    5.245526   -0.767138
     15          8           0       -0.289862    6.391721   -0.448227
     16          8           0        1.189453    4.581365   -0.271425
     17          7           0       -3.381998   -2.839581   -1.405615
     18          6           0       -2.451489   -2.584937   -2.307164
     19          6           0       -1.780401   -3.908867   -2.627281
     20          6           0       -2.526626   -4.898278   -1.937041
     21          6           0       -3.426684   -4.180797   -1.075416
     22          6           0       -0.733548   -4.126404   -3.542942
     23          6           0       -2.376810   -6.418716   -2.056428
     24          8           0       -1.562262   -6.827840   -2.886164
     25          6           0       -3.308480   -7.395603   -1.414919
     26          7           0       -5.336322   -2.737311    0.931087
     27          6           0       -5.116965   -4.034784    0.832042
     28          6           0       -5.862143   -4.790106    1.973934
     29          6           0       -6.870755   -3.775325    2.517732
     30          6           0       -6.313132   -2.478653    1.880155
     31          6           0       -6.635855   -6.163113    1.554164
     32          6           0       -6.961297   -3.742911    4.116197
     33          6           0       -8.366538   -4.158779    4.704740
     34          7           0       -5.588396    0.155844    0.693873
     35          6           0       -6.480561    0.027413    1.710584
     36          6           0       -6.890178    1.370827    2.023206
     37          6           0       -6.038492    2.271048    1.342571
     38          6           0       -5.230178    1.433507    0.555718
     39          6           0       -7.998780    1.793517    2.983917
     40          6           0       -5.704306    3.684313    1.082681
     41          8           0       -6.189821    4.669939    1.523171
     42          6           0       -4.571982    3.708138    0.090431
     43          6           0       -4.955094    4.631268   -1.048587
     44          8           0       -5.766890    4.419804   -1.984211
     45          8           0       -4.234163    5.796439   -1.019943
     46          6           0       -4.538131    6.596662   -2.290110
     47          6           0        2.028981    5.246133    0.756610
     48          6           0        3.413711    4.479718    0.901054
     49          6           0        4.657857    4.881996    1.217373
     50          6           0        5.080691    6.135302    1.919883
     51          6           0        5.805721    3.935458    0.973122
     52          6           0        5.949994    2.849583    2.008637
     53          6           0        5.711421    1.478687    1.435536
     54          6           0        6.906331    0.569174    1.716113
     55          6           0        6.971036    0.159842    3.183205
     56          6           0        6.762176   -0.749444    0.786656
     57          6           0        7.343967   -0.717272   -0.641344
     58          6           0        8.348913   -1.883962   -1.026693
     59          6           0        9.843817   -1.430754   -1.247769
     60          6           0       10.458864   -1.951544   -2.575281
     61          6           0       10.583971   -1.989354   -0.029129
     62          6           0       11.958792   -1.345895   -0.062533
     63          6           0       13.174828   -2.283075    0.074722
     64          6           0       14.227964   -1.860133    1.118723
     65          6           0       15.463864   -2.857124    0.947432
     66          6           0       13.727830   -1.832480    2.591098
     67          1           0       -1.264074   -1.250015   -3.446849
     68          1           0       -4.149981   -5.695973    0.296047
     69          1           0       -7.727311   -1.156262    2.925058
     70          1           0       -2.933461    3.140580   -2.563450
     71          1           0       -0.938173    1.212229   -3.054311
     72          1           0       -1.706042    2.038923   -4.930106
     73          1           0       -3.348457    2.278641   -4.623685
     74          1           0       -2.859467    0.665827   -5.019748
     75          1           0       -0.453010    2.222867   -1.217744
     76          1           0       -1.539621    3.026633   -0.130107
     77          1           0       -1.585927    4.915508   -1.953557
     78          1           0       -0.067487    4.182223   -2.573780
     79          1           0        0.051104   -4.804241   -3.207055
     80          1           0       -0.212904   -3.208944   -3.817168
     81          1           0       -1.111107   -4.573266   -4.462201
     82          1           0       -2.939333   -7.608918   -0.411743
     83          1           0       -3.065264   -8.283374   -1.998389
     84          1           0       -4.342361   -7.061511   -1.496526
     85          1           0       -5.240494   -5.173113    2.783470
     86          1           0       -7.857972   -3.914998    2.079267
     87          1           0       -7.695956   -6.207080    1.805315
     88          1           0       -6.262890   -7.029089    2.102704
     89          1           0       -6.606472   -6.343540    0.478941
     90          1           0       -6.780508   -2.699668    4.377506
     91          1           0       -6.219440   -4.382626    4.594325
     92          1           0       -9.071753   -4.570786    3.983660
     93          1           0       -8.887038   -3.234049    4.952417
     94          1           0       -8.210282   -4.785383    5.582685
     95          1           0       -7.849695    1.278841    3.933511
     96          1           0       -8.917384    1.413859    2.536576
     97          1           0       -8.098310    2.874538    3.078014
     98          1           0       -3.691967    3.992960    0.666052
     99          1           0       -4.352201    6.050033   -3.214152
    100          1           0       -3.808691    7.403189   -2.216782
    101          1           0       -5.523779    7.050358   -2.187559
    102          1           0        1.537053    5.112069    1.720065
    103          1           0        2.212187    6.305337    0.574558
    104          1           0        3.424110    3.507539    0.408643
    105          1           0        5.430725    6.739749    1.082266
    106          1           0        5.811872    5.892546    2.691280
    107          1           0        4.328519    6.782216    2.370780
    108          1           0        6.755101    4.460812    1.073030
    109          1           0        5.767401    3.510912   -0.030874
    110          1           0        5.294351    2.883537    2.879629
    111          1           0        6.960330    2.909621    2.412451
    112          1           0        5.440046    1.543486    0.381324
    113          1           0        4.806288    1.045548    1.860113
    114          1           0        7.749012    1.189160    1.408574
    115          1           0        6.352916    0.788265    3.824475
    116          1           0        7.911055    0.397841    3.679579
    117          1           0        7.018401   -0.893037    3.457601
    118          1           0        5.736572   -1.012742    0.530732
    119          1           0        7.250475   -1.574722    1.304039
    120          1           0        7.771373    0.278604   -0.758269
    121          1           0        6.543798   -0.799862   -1.377878
    122          1           0        8.112817   -2.510722   -1.886801
    123          1           0        8.192181   -2.606791   -0.226266
    124          1           0        9.782368   -0.343270   -1.299387
    125          1           0       11.547595   -1.986259   -2.527723
    126          1           0       10.284393   -1.105577   -3.240627
    127          1           0       10.020960   -2.928096   -2.776886
    128          1           0       10.701778   -3.059192   -0.201953
    129          1           0       10.207946   -1.963324    0.993643
    130          1           0       11.963018   -0.658512    0.782903
    131          1           0       12.171777   -0.759913   -0.956857
    132          1           0       13.705057   -2.107802   -0.862072
    133          1           0       12.992095   -3.323254   -0.193856
    134          1           0       14.389472   -0.819377    0.836198
    135          1           0       15.429108   -3.564123    0.119088
    136          1           0       15.785095   -3.388861    1.842846
    137          1           0       16.275385   -2.180870    0.680053
    138          1           0       13.575633   -0.829745    2.991088
    139          1           0       14.308193   -2.491141    3.236900
    140          1           0       12.794119   -2.393436    2.556190
 ---------------------------------------------------------------------
 Rotational constants (GHZ):           0.0316720           0.0122615           0.0100672
 Leave Link  202 at Wed Apr 27 11:47:18 2022, MaxMem=  6710886400 cpu:               0.2 elap:               0.0
 (Enter /sw/apps/gaussian-16.0/g16/l301.exe)
 Standard basis: VSTO-6G (5D, 7F)
 Ernie: Thresh=  0.10000D-02 Tol=  0.10000D-05 Strict=F.
 There are   338 symmetry adapted cartesian basis functions of A   symmetry.
 There are   338 symmetry adapted basis functions of A   symmetry.
   338 basis functions,  2028 primitive gaussians,   338 cartesian basis functions
   176 alpha electrons      176 beta electrons
       nuclear repulsion energy      4798.2796535261 Hartrees.
 IExCor=    0 DFT=F Ex=HF Corr=None ExCW=0 ScaHFX=  1.000000
 ScaDFX=  1.000000  1.000000  1.000000  1.000000 ScalE2=  1.000000  1.000000
 IRadAn=      5 IRanWt=     -1 IRanGd=            0 ICorTp=0 IEmpDi=  4
 Integral buffers will be    131072 words long.
 Regular integral format.
 Two-electron integral symmetry is turned off.
 Leave Link  301 at Wed Apr 27 11:47:18 2022, MaxMem=  6710886400 cpu:               1.3 elap:               0.1
 (Enter /sw/apps/gaussian-16.0/g16/l302.exe)
 Do NDO integrals.
 NPDir=0 NMtPBC=     1 NCelOv=     1 NCel=       1 NClECP=     1 NCelD=      1
         NCelK=      1 NCelE2=     1 NClLst=     1 CellRange=     0.0.
 One-electron integrals computed using PRISM.
 Generate ZINDO/S integrals.
 NDO Nuclear repulsion=  4326.575972227356 Hartrees.
 NBasis=   338 RedAO= F EigKep=  0.00D+00  NBF=   338
 NBsUse=   338 1.00D-04 EigRej=  0.00D+00 NBFU=   338
 Leave Link  302 at Wed Apr 27 11:47:18 2022, MaxMem=  6710886400 cpu:               8.8 elap:               0.4
 (Enter /sw/apps/gaussian-16.0/g16/l303.exe)
 DipDrv:  MaxL=1.
 DipDrv:  will hold  3 matrices at once.
 Leave Link  303 at Wed Apr 27 11:47:18 2022, MaxMem=  6710886400 cpu:               0.5 elap:               0.0
 (Enter /sw/apps/gaussian-16.0/g16/l308.exe)
 Leave Link  308 at Wed Apr 27 11:47:18 2022, MaxMem=  6710886400 cpu:               6.4 elap:               0.3
 (Enter /sw/apps/gaussian-16.0/g16/l401.exe)
 Simple Huckel Guess.
 JPrj=0 DoOrth=F DoCkMO=F.
 Leave Link  401 at Wed Apr 27 11:47:19 2022, MaxMem=  6710886400 cpu:               3.3 elap:               0.2
 (Enter /sw/apps/gaussian-16.0/g16/l502.exe)
 Two-electron integral symmetry not used.
 Closed shell SCF:
 Using DIIS extrapolation, IDIIS=  1040.
 Overlap will be assumed to be unity.
 NGot=  6710886400 LenX=  6710643598 LenY=  6710528913
 Requested convergence on RMS density matrix=1.00D-08 within 128 cycles.
 Requested convergence on MAX density matrix=1.00D-06.
 Requested convergence on             energy=1.00D-06.
 No special actions if energy rises.
 Fock matrices will be formed incrementally for  20 cycles.

 Cycle   1  Pass 1  IDiag  1:
 E= -472.223860186662    
 DIIS: error= 5.49D-02 at cycle   1 NSaved=   1.
 NSaved= 1 IEnMin= 1 EnMin= -472.223860186662     IErMin= 1 ErrMin= 5.49D-02
 ErrMax= 5.49D-02  0.00D+00 EMaxC= 1.00D-01 BMatC= 8.36D-01 BMatP= 8.36D-01
 IDIUse=3 WtCom= 4.51D-01 WtEn= 5.49D-01
 Coeff-Com:  0.100D+01
 Coeff-En:   0.100D+01
 Coeff:      0.100D+01
 GapD=    2.000 DampG=2.000 DampE=0.500 DampFc=1.0000 IDamp=-1.
 RMSDP=4.02D-03 MaxDP=1.78D-01              OVMax= 0.00D+00

 Cycle   2  Pass 1  IDiag  1:
 RMSU=  4.02D-03    CP:  9.95D-01
 E= -474.060195432569     Delta-E=       -1.836335245907 Rises=F Damp=F
 DIIS: error= 2.13D-02 at cycle   2 NSaved=   2.
 NSaved= 2 IEnMin= 2 EnMin= -474.060195432569     IErMin= 2 ErrMin= 2.13D-02
 ErrMax= 2.13D-02  0.00D+00 EMaxC= 1.00D-01 BMatC= 5.36D-02 BMatP= 8.36D-01
 IDIUse=3 WtCom= 7.87D-01 WtEn= 2.13D-01
 Coeff-Com: -0.663D-01 0.107D+01
 Coeff-En:   0.000D+00 0.100D+01
 Coeff:     -0.521D-01 0.105D+01
 RMSDP=1.13D-03 MaxDP=5.14D-02 DE=-1.84D+00 OVMax= 0.00D+00

 Cycle   3  Pass 1  IDiag  1:
 RMSU=  1.08D-03    CP:  9.93D-01  1.09D+00
 E= -474.163755968396     Delta-E=       -0.103560535827 Rises=F Damp=F
 DIIS: error= 9.34D-03 at cycle   3 NSaved=   3.
 NSaved= 3 IEnMin= 3 EnMin= -474.163755968396     IErMin= 3 ErrMin= 9.34D-03
 ErrMax= 9.34D-03  0.00D+00 EMaxC= 1.00D-01 BMatC= 7.71D-03 BMatP= 5.36D-02
 IDIUse=3 WtCom= 9.07D-01 WtEn= 9.34D-02
 Coeff-Com: -0.688D-01 0.244D+00 0.825D+00
 Coeff-En:   0.000D+00 0.000D+00 0.100D+01
 Coeff:     -0.624D-01 0.221D+00 0.841D+00
 RMSDP=3.96D-04 MaxDP=1.93D-02 DE=-1.04D-01 OVMax= 0.00D+00

 Cycle   4  Pass 1  IDiag  1:
 RMSU=  2.56D-04    CP:  9.93D-01  1.16D+00  9.09D-01
 E= -474.177591930190     Delta-E=       -0.013835961794 Rises=F Damp=F
 DIIS: error= 1.35D-03 at cycle   4 NSaved=   4.
 NSaved= 4 IEnMin= 4 EnMin= -474.177591930190     IErMin= 4 ErrMin= 1.35D-03
 ErrMax= 1.35D-03  0.00D+00 EMaxC= 1.00D-01 BMatC= 3.37D-04 BMatP= 7.71D-03
 IDIUse=3 WtCom= 9.86D-01 WtEn= 1.35D-02
 Coeff-Com: -0.139D-02-0.304D-01 0.445D-01 0.987D+00
 Coeff-En:   0.000D+00 0.000D+00 0.000D+00 0.100D+01
 Coeff:     -0.137D-02-0.300D-01 0.439D-01 0.987D+00
 RMSDP=1.48D-04 MaxDP=4.95D-03 DE=-1.38D-02 OVMax= 0.00D+00

 Cycle   5  Pass 1  IDiag  1:
 RMSU=  1.02D-04    CP:  9.92D-01  1.16D+00  1.01D+00  1.03D+00
 E= -474.178726844732     Delta-E=       -0.001134914542 Rises=F Damp=F
 DIIS: error= 6.49D-04 at cycle   5 NSaved=   5.
 NSaved= 5 IEnMin= 5 EnMin= -474.178726844732     IErMin= 5 ErrMin= 6.49D-04
 ErrMax= 6.49D-04  0.00D+00 EMaxC= 1.00D-01 BMatC= 7.44D-05 BMatP= 3.37D-04
 IDIUse=3 WtCom= 9.94D-01 WtEn= 6.49D-03
 Coeff-Com:  0.671D-02-0.286D-01-0.986D-01 0.222D+00 0.899D+00
 Coeff-En:   0.000D+00 0.000D+00 0.000D+00 0.000D+00 0.100D+01
 Coeff:      0.666D-02-0.284D-01-0.980D-01 0.220D+00 0.900D+00
 RMSDP=6.31D-05 MaxDP=1.91D-03 DE=-1.13D-03 OVMax= 0.00D+00

 Cycle   6  Pass 1  IDiag  1:
 RMSU=  3.50D-05    CP:  9.92D-01  1.17D+00  1.02D+00  1.21D+00  1.14D+00
 E= -474.178982843590     Delta-E=       -0.000255998858 Rises=F Damp=F
 DIIS: error= 2.21D-04 at cycle   6 NSaved=   6.
 NSaved= 6 IEnMin= 6 EnMin= -474.178982843590     IErMin= 6 ErrMin= 2.21D-04
 ErrMax= 2.21D-04  0.00D+00 EMaxC= 1.00D-01 BMatC= 8.13D-06 BMatP= 7.44D-05
 IDIUse=3 WtCom= 9.98D-01 WtEn= 2.21D-03
 Coeff-Com: -0.344D-03 0.663D-02-0.118D-01-0.999D-01-0.510D-01 0.116D+01
 Coeff-En:   0.000D+00 0.000D+00 0.000D+00 0.000D+00 0.000D+00 0.100D+01
 Coeff:     -0.344D-03 0.662D-02-0.118D-01-0.997D-01-0.509D-01 0.116D+01
 RMSDP=4.97D-05 MaxDP=1.74D-03 DE=-2.56D-04 OVMax= 0.00D+00

 Cycle   7  Pass 1  IDiag  1:
 RMSU=  2.20D-05    CP:  9.92D-01  1.17D+00  1.04D+00  1.24D+00  1.50D+00
                    CP:  1.59D+00
 E= -474.179058934287     Delta-E=       -0.000076090697 Rises=F Damp=F
 DIIS: error= 1.17D-04 at cycle   7 NSaved=   7.
 NSaved= 7 IEnMin= 7 EnMin= -474.179058934287     IErMin= 7 ErrMin= 1.17D-04
 ErrMax= 1.17D-04  0.00D+00 EMaxC= 1.00D-01 BMatC= 3.45D-06 BMatP= 8.13D-06
 IDIUse=3 WtCom= 9.99D-01 WtEn= 1.17D-03
 Coeff-Com: -0.935D-03 0.453D-02 0.101D-01-0.240D-01-0.173D+00 0.204D+00
 Coeff-Com:  0.979D+00
 Coeff-En:   0.000D+00 0.000D+00 0.000D+00 0.000D+00 0.000D+00 0.000D+00
 Coeff-En:   0.100D+01
 Coeff:     -0.934D-03 0.452D-02 0.101D-01-0.240D-01-0.173D+00 0.204D+00
 Coeff:      0.979D+00
 RMSDP=3.12D-05 MaxDP=1.04D-03 DE=-7.61D-05 OVMax= 0.00D+00

 Cycle   8  Pass 1  IDiag  1:
 RMSU=  7.25D-06    CP:  9.92D-01  1.17D+00  1.04D+00  1.26D+00  1.67D+00
                    CP:  2.12D+00  1.70D+00
 E= -474.179095184959     Delta-E=       -0.000036250672 Rises=F Damp=F
 DIIS: error= 6.12D-05 at cycle   8 NSaved=   8.
 NSaved= 8 IEnMin= 8 EnMin= -474.179095184959     IErMin= 8 ErrMin= 6.12D-05
 ErrMax= 6.12D-05  0.00D+00 EMaxC= 1.00D-01 BMatC= 1.63D-06 BMatP= 3.45D-06
 IDIUse=1 WtCom= 1.00D+00 WtEn= 0.00D+00
 Coeff-Com:  0.316D-03-0.325D-02 0.179D-02 0.510D-01-0.514D-02-0.271D+00
 Coeff-Com: -0.687D+00 0.191D+01
 Coeff:      0.316D-03-0.325D-02 0.179D-02 0.510D-01-0.514D-02-0.271D+00
 Coeff:     -0.687D+00 0.191D+01
 RMSDP=5.19D-05 MaxDP=1.46D-03 DE=-3.63D-05 OVMax= 0.00D+00

 Cycle   9  Pass 1  IDiag  1:
 RMSU=  6.24D-06    CP:  9.92D-01  1.17D+00  1.05D+00  1.26D+00  1.94D+00
                    CP:  2.90D+00  3.00D+00  2.39D+00
 E= -474.179136368111     Delta-E=       -0.000041183152 Rises=F Damp=F
 DIIS: error= 4.90D-05 at cycle   9 NSaved=   9.
 NSaved= 9 IEnMin= 9 EnMin= -474.179136368111     IErMin= 9 ErrMin= 4.90D-05
 ErrMax= 4.90D-05  0.00D+00 EMaxC= 1.00D-01 BMatC= 8.56D-07 BMatP= 1.63D-06
 IDIUse=1 WtCom= 1.00D+00 WtEn= 0.00D+00
 Coeff-Com:  0.489D-03-0.183D-02-0.707D-02 0.362D-02 0.760D-01 0.832D-01
 Coeff-Com: -0.998D+00 0.103D+00 0.174D+01
 Coeff:      0.489D-03-0.183D-02-0.707D-02 0.362D-02 0.760D-01 0.832D-01
 Coeff:     -0.998D+00 0.103D+00 0.174D+01
 RMSDP=6.11D-05 MaxDP=1.63D-03 DE=-4.12D-05 OVMax= 0.00D+00

 Cycle  10  Pass 1  IDiag  1:
 RMSU=  4.39D-05    CP:  9.92D-01  1.17D+00  1.06D+00  1.27D+00  2.25D+00
                    CP:  3.00D+00  3.00D+00  3.00D+00  3.00D+00
 E= -474.179162407791     Delta-E=       -0.000026039680 Rises=F Damp=F
 DIIS: error= 2.14D-05 at cycle  10 NSaved=  10.
 NSaved=10 IEnMin=10 EnMin= -474.179162407791     IErMin=10 ErrMin= 2.14D-05
 ErrMax= 2.14D-05  0.00D+00 EMaxC= 1.00D-01 BMatC= 1.04D-07 BMatP= 8.56D-07
 IDIUse=1 WtCom= 1.00D+00 WtEn= 0.00D+00
 Coeff-Com: -0.131D-03 0.117D-02-0.382D-03-0.172D-01-0.182D-02 0.114D+00
 Coeff-Com:  0.185D+00-0.421D+00-0.243D+00 0.138D+01
 Coeff:     -0.131D-03 0.117D-02-0.382D-03-0.172D-01-0.182D-02 0.114D+00
 Coeff:      0.185D+00-0.421D+00-0.243D+00 0.138D+01
 RMSDP=2.15D-05 MaxDP=5.58D-04 DE=-2.60D-05 OVMax= 0.00D+00

 Cycle  11  Pass 1  IDiag  1:
 RMSU=  6.90D-06    CP:  9.92D-01  1.17D+00  1.06D+00  1.27D+00  2.35D+00
                    CP:  3.00D+00  3.00D+00  3.00D+00  3.00D+00  1.40D+00
 E= -474.179165643732     Delta-E=       -0.000003235940 Rises=F Damp=F
 DIIS: error= 1.08D-05 at cycle  11 NSaved=  11.
 NSaved=11 IEnMin=11 EnMin= -474.179165643732     IErMin=11 ErrMin= 1.08D-05
 ErrMax= 1.08D-05  0.00D+00 EMaxC= 1.00D-01 BMatC= 2.21D-08 BMatP= 1.04D-07
 IDIUse=1 WtCom= 1.00D+00 WtEn= 0.00D+00
 Coeff-Com: -0.760D-04 0.314D-03 0.118D-02-0.215D-02-0.962D-02-0.113D-01
 Coeff-Com:  0.163D+00-0.180D-01-0.374D+00 0.109D+00 0.114D+01
 Coeff:     -0.760D-04 0.314D-03 0.118D-02-0.215D-02-0.962D-02-0.113D-01
 Coeff:      0.163D+00-0.180D-01-0.374D+00 0.109D+00 0.114D+01
 RMSDP=9.26D-06 MaxDP=2.47D-04 DE=-3.24D-06 OVMax= 0.00D+00

 Cycle  12  Pass 1  IDiag  1:
 RMSU=  8.26D-07    CP:  9.92D-01  1.17D+00  1.06D+00  1.28D+00  2.40D+00
                    CP:  3.00D+00  3.00D+00  3.00D+00  3.00D+00  1.57D+00
                    CP:  1.45D+00
 E= -474.179166064551     Delta-E=       -0.000000420820 Rises=F Damp=F
 DIIS: error= 4.00D-06 at cycle  12 NSaved=  12.
 NSaved=12 IEnMin=12 EnMin= -474.179166064551     IErMin=12 ErrMin= 4.00D-06
 ErrMax= 4.00D-06  0.00D+00 EMaxC= 1.00D-01 BMatC= 2.77D-09 BMatP= 2.21D-08
 IDIUse=1 WtCom= 1.00D+00 WtEn= 0.00D+00
 Coeff-Com:  0.276D-04-0.227D-03 0.108D-03 0.293D-02 0.145D-02-0.219D-01
 Coeff-Com: -0.400D-01 0.101D+00 0.373D-01-0.246D+00-0.231D-01 0.119D+01
 Coeff:      0.276D-04-0.227D-03 0.108D-03 0.293D-02 0.145D-02-0.219D-01
 Coeff:     -0.400D-01 0.101D+00 0.373D-01-0.246D+00-0.231D-01 0.119D+01
 RMSDP=9.61D-07 MaxDP=4.73D-05 DE=-4.21D-07 OVMax= 0.00D+00

 Cycle  13  Pass 1  IDiag  1:
 RMSU=  4.50D-07    CP:  9.92D-01  1.17D+00  1.06D+00  1.28D+00  2.40D+00
                    CP:  3.00D+00  3.00D+00  3.00D+00  3.00D+00  1.57D+00
                    CP:  1.54D+00  1.54D+00
 E= -474.179166087392     Delta-E=       -0.000000022841 Rises=F Damp=F
 DIIS: error= 1.50D-06 at cycle  13 NSaved=  13.
 NSaved=13 IEnMin=13 EnMin= -474.179166087392     IErMin=13 ErrMin= 1.50D-06
 ErrMax= 1.50D-06  0.00D+00 EMaxC= 1.00D-01 BMatC= 3.86D-10 BMatP= 2.77D-09
 IDIUse=1 WtCom= 1.00D+00 WtEn= 0.00D+00
 Coeff-Com:  0.104D-04-0.516D-04-0.144D-03 0.427D-03 0.169D-02-0.712D-03
 Coeff-Com: -0.240D-01 0.131D-01 0.396D-01-0.280D-01-0.130D+00 0.505D-01
 Coeff-Com:  0.108D+01
 Coeff:      0.104D-04-0.516D-04-0.144D-03 0.427D-03 0.169D-02-0.712D-03
 Coeff:     -0.240D-01 0.131D-01 0.396D-01-0.280D-01-0.130D+00 0.505D-01
 Coeff:      0.108D+01
 RMSDP=5.34D-07 MaxDP=1.85D-05 DE=-2.28D-08 OVMax= 0.00D+00

 Cycle  14  Pass 1  IDiag  1:
 RMSU=  1.67D-07    CP:  9.92D-01  1.17D+00  1.06D+00  1.28D+00  2.40D+00
                    CP:  3.00D+00  3.00D+00  3.00D+00  3.00D+00  1.58D+00
                    CP:  1.57D+00  1.80D+00  1.37D+00
 E= -474.179166091879     Delta-E=       -0.000000004487 Rises=F Damp=F
 DIIS: error= 7.44D-07 at cycle  14 NSaved=  14.
 NSaved=14 IEnMin=14 EnMin= -474.179166091879     IErMin=14 ErrMin= 7.44D-07
 ErrMax= 7.44D-07  0.00D+00 EMaxC= 1.00D-01 BMatC= 1.30D-10 BMatP= 3.86D-10
 IDIUse=1 WtCom= 1.00D+00 WtEn= 0.00D+00
 Coeff-Com: -0.758D-05 0.561D-04-0.131D-04-0.654D-03-0.475D-03 0.452D-02
 Coeff-Com:  0.105D-01-0.205D-01-0.145D-01 0.555D-01 0.257D-01-0.266D+00
 Coeff-Com: -0.507D-01 0.126D+01
 Coeff:     -0.758D-05 0.561D-04-0.131D-04-0.654D-03-0.475D-03 0.452D-02
 Coeff:      0.105D-01-0.205D-01-0.145D-01 0.555D-01 0.257D-01-0.266D+00
 Coeff:     -0.507D-01 0.126D+01
 RMSDP=2.53D-07 MaxDP=7.34D-06 DE=-4.49D-09 OVMax= 0.00D+00

 Cycle  15  Pass 1  IDiag  1:
 RMSU=  7.93D-08    CP:  9.92D-01  1.17D+00  1.06D+00  1.28D+00  2.40D+00
                    CP:  3.00D+00  3.00D+00  3.00D+00  3.00D+00  1.58D+00
                    CP:  1.57D+00  1.94D+00  1.68D+00  1.87D+00
 E= -474.179166093584     Delta-E=       -0.000000001705 Rises=F Damp=F
 DIIS: error= 3.64D-07 at cycle  15 NSaved=  15.
 NSaved=15 IEnMin=15 EnMin= -474.179166093584     IErMin=15 ErrMin= 3.64D-07
 ErrMax= 3.64D-07  0.00D+00 EMaxC= 1.00D-01 BMatC= 4.33D-11 BMatP= 1.30D-10
 IDIUse=1 WtCom= 1.00D+00 WtEn= 0.00D+00
 Coeff-Com: -0.319D-05 0.161D-04 0.447D-04-0.101D-03-0.697D-03 0.534D-03
 Coeff-Com:  0.767D-02-0.412D-02-0.124D-01 0.872D-02 0.380D-01-0.209D-01
 Coeff-Com: -0.280D+00-0.118D+00 0.138D+01
 Coeff:     -0.319D-05 0.161D-04 0.447D-04-0.101D-03-0.697D-03 0.534D-03
 Coeff:      0.767D-02-0.412D-02-0.124D-01 0.872D-02 0.380D-01-0.209D-01
 Coeff:     -0.280D+00-0.118D+00 0.138D+01
 RMSDP=2.12D-07 MaxDP=5.41D-06 DE=-1.71D-09 OVMax= 0.00D+00

 Cycle  16  Pass 1  IDiag  1:
 RMSU=  4.04D-08    CP:  9.92D-01  1.17D+00  1.06D+00  1.28D+00  2.40D+00
                    CP:  3.00D+00  3.00D+00  3.00D+00  3.00D+00  1.58D+00
                    CP:  1.58D+00  2.03D+00  1.91D+00  2.73D+00  1.78D+00
 E= -474.179166094399     Delta-E=       -0.000000000815 Rises=F Damp=F
 DIIS: error= 3.33D-07 at cycle  16 NSaved=  16.
 NSaved=16 IEnMin=16 EnMin= -474.179166094399     IErMin=16 ErrMin= 3.33D-07
 ErrMax= 3.33D-07  0.00D+00 EMaxC= 1.00D-01 BMatC= 1.63D-11 BMatP= 4.33D-11
 IDIUse=1 WtCom= 1.00D+00 WtEn= 0.00D+00
 Coeff-Com:  0.406D-05-0.277D-04-0.455D-05 0.334D-03 0.164D-03-0.166D-02
 Coeff-Com: -0.615D-02 0.862D-02 0.931D-02-0.243D-01-0.212D-01 0.112D+00
 Coeff-Com:  0.101D+00-0.580D+00-0.152D+00 0.155D+01
 Coeff:      0.406D-05-0.277D-04-0.455D-05 0.334D-03 0.164D-03-0.166D-02
 Coeff:     -0.615D-02 0.862D-02 0.931D-02-0.243D-01-0.212D-01 0.112D+00
 Coeff:      0.101D+00-0.580D+00-0.152D+00 0.155D+01
 RMSDP=1.77D-07 MaxDP=5.02D-06 DE=-8.15D-10 OVMax= 0.00D+00

 Cycle  17  Pass 1  IDiag  1:
 RMSU=  6.96D-08    CP:  9.92D-01  1.17D+00  1.06D+00  1.28D+00  2.40D+00
                    CP:  3.00D+00  3.00D+00  3.00D+00  3.00D+00  1.58D+00
                    CP:  1.58D+00  2.10D+00  2.09D+00  3.00D+00  2.68D+00
                    CP:  2.08D+00
 E= -474.179166094726     Delta-E=       -0.000000000327 Rises=F Damp=F
 DIIS: error= 1.21D-07 at cycle  17 NSaved=  17.
 NSaved=17 IEnMin=17 EnMin= -474.179166094726     IErMin=17 ErrMin= 1.21D-07
 ErrMax= 1.21D-07  0.00D+00 EMaxC= 1.00D-01 BMatC= 2.85D-12 BMatP= 1.63D-11
 IDIUse=1 WtCom= 1.00D+00 WtEn= 0.00D+00
 Coeff-Com:  0.394D-06-0.157D-05-0.121D-04 0.118D-04 0.968D-04 0.685D-04
 Coeff-Com: -0.127D-02 0.227D-03 0.231D-02-0.367D-03-0.590D-02-0.325D-02
 Coeff-Com:  0.533D-01 0.574D-01-0.224D+00-0.182D+00 0.130D+01
 Coeff:      0.394D-06-0.157D-05-0.121D-04 0.118D-04 0.968D-04 0.685D-04
 Coeff:     -0.127D-02 0.227D-03 0.231D-02-0.367D-03-0.590D-02-0.325D-02
 Coeff:      0.533D-01 0.574D-01-0.224D+00-0.182D+00 0.130D+01
 RMSDP=5.76D-08 MaxDP=1.71D-06 DE=-3.27D-10 OVMax= 0.00D+00

 Cycle  18  Pass 1  IDiag  1:
 RMSU=  9.15D-09    CP:  9.92D-01  1.17D+00  1.06D+00  1.28D+00  2.40D+00
                    CP:  3.00D+00  3.00D+00  3.00D+00  3.00D+00  1.58D+00
                    CP:  1.58D+00  2.12D+00  2.13D+00  3.00D+00  2.98D+00
                    CP:  2.72D+00  1.52D+00
 E= -474.179166094776     Delta-E=       -0.000000000050 Rises=F Damp=F
 DIIS: error= 8.38D-08 at cycle  18 NSaved=  18.
 NSaved=18 IEnMin=18 EnMin= -474.179166094776     IErMin=18 ErrMin= 8.38D-08
 ErrMax= 8.38D-08  0.00D+00 EMaxC= 1.00D-01 BMatC= 7.34D-13 BMatP= 2.85D-12
 IDIUse=1 WtCom= 1.00D+00 WtEn= 0.00D+00
 Coeff-Com: -0.149D-05 0.101D-04 0.169D-05-0.114D-03-0.770D-04 0.583D-03
 Coeff-Com:  0.226D-02-0.307D-02-0.330D-02 0.794D-02 0.797D-02-0.389D-01
 Coeff-Com: -0.374D-01 0.181D+00 0.972D-01-0.526D+00-0.126D+00 0.144D+01
 Coeff:     -0.149D-05 0.101D-04 0.169D-05-0.114D-03-0.770D-04 0.583D-03
 Coeff:      0.226D-02-0.307D-02-0.330D-02 0.794D-02 0.797D-02-0.389D-01
 Coeff:     -0.374D-01 0.181D+00 0.972D-01-0.526D+00-0.126D+00 0.144D+01
 RMSDP=3.39D-08 MaxDP=9.91D-07 DE=-5.00D-11 OVMax= 0.00D+00

 Cycle  19  Pass 1  IDiag  1:
 RMSU=  1.44D-08    CP:  9.92D-01  1.17D+00  1.06D+00  1.28D+00  2.40D+00
                    CP:  3.00D+00  3.00D+00  3.00D+00  3.00D+00  1.58D+00
                    CP:  1.58D+00  2.13D+00  2.15D+00  3.00D+00  3.00D+00
                    CP:  3.00D+00  1.79D+00  2.08D+00
 E= -474.179166094772     Delta-E=        0.000000000004 Rises=F Damp=F
 DIIS: error= 3.85D-08 at cycle  19 NSaved=  19.
 NSaved=19 IEnMin=18 EnMin= -474.179166094776     IErMin=19 ErrMin= 3.85D-08
 ErrMax= 3.85D-08  0.00D+00 EMaxC= 1.00D-01 BMatC= 9.49D-14 BMatP= 7.34D-13
 IDIUse=1 WtCom= 1.00D+00 WtEn= 0.00D+00
 Coeff-Com:  0.904D-07-0.724D-06 0.221D-05 0.844D-05-0.465D-05-0.776D-04
 Coeff-Com: -0.242D-04 0.260D-03-0.584D-04-0.679D-03 0.380D-03 0.423D-02
 Coeff-Com: -0.297D-02-0.356D-01 0.358D-01 0.782D-01-0.203D+00-0.139D+00
 Coeff-Com:  0.126D+01
 Coeff:      0.904D-07-0.724D-06 0.221D-05 0.844D-05-0.465D-05-0.776D-04
 Coeff:     -0.242D-04 0.260D-03-0.584D-04-0.679D-03 0.380D-03 0.423D-02
 Coeff:     -0.297D-02-0.356D-01 0.358D-01 0.782D-01-0.203D+00-0.139D+00
 Coeff:      0.126D+01
 RMSDP=9.69D-09 MaxDP=3.77D-07 DE= 3.64D-12 OVMax= 0.00D+00

 SCF Done:  E(RZINDO/S) =  -474.179166095     A.U. after   19 cycles
            NFock= 19  Conv=0.97D-08     -V/T= 0.9492
 KE=-9.327010754973D+03 PE=-6.473619578173D-07 EE= 4.526255617298D+03
 Leave Link  502 at Wed Apr 27 11:47:19 2022, MaxMem=  6710886400 cpu:              17.1 elap:               0.7
 (Enter /sw/apps/gaussian-16.0/g16/l801.exe)
 Range of M.O.s used for correlation:     1   338
 NBasis=   338 NAE=   176 NBE=   176 NFC=     0 NFV=     0
 NROrb=    338 NOA=   176 NOB=   176 NVA=   162 NVB=   162
 Leave Link  801 at Wed Apr 27 11:47:19 2022, MaxMem=  6710886400 cpu:               0.6 elap:               0.0
 (Enter /sw/apps/gaussian-16.0/g16/l914.exe)
 RHF ground state
 Two-electron integral symmetry not used.
 MDV=  6710886400 DFT=F DoStab=F Mixed=F DoRPA=F DoScal=F NonHer=F
 Making orbital integer symmetry assigments:
 Orbital symmetries:
       Occupied  (A) (A) (A) (A) (A) (A) (A) (A) (A) (A) (A) (A)
                 (A) (A) (A) (A) (A) (A) (A) (A) (A) (A) (A) (A)
                 (A) (A) (A) (A) (A) (A) (A) (A) (A) (A) (A) (A)
                 (A) (A) (A) (A) (A) (A) (A) (A) (A) (A) (A) (A)
                 (A) (A) (A) (A) (A) (A) (A) (A) (A) (A) (A) (A)
                 (A) (A) (A) (A) (A) (A) (A) (A) (A) (A) (A) (A)
                 (A) (A) (A) (A) (A) (A) (A) (A) (A) (A) (A) (A)
                 (A) (A) (A) (A) (A) (A) (A) (A) (A) (A) (A) (A)
                 (A) (A) (A) (A) (A) (A) (A) (A) (A) (A) (A) (A)
                 (A) (A) (A) (A) (A) (A) (A) (A) (A) (A) (A) (A)
                 (A) (A) (A) (A) (A) (A) (A) (A) (A) (A) (A) (A)
                 (A) (A) (A) (A) (A) (A) (A) (A) (A) (A) (A) (A)
                 (A) (A) (A) (A) (A) (A) (A) (A) (A) (A) (A) (A)
                 (A) (A) (A) (A) (A) (A) (A) (A) (A) (A) (A) (A)
                 (A) (A) (A) (A) (A) (A) (A) (A)
       Virtual   (A) (A) (A) (A) (A) (A) (A) (A) (A) (A) (A) (A)
                 (A) (A) (A) (A) (A) (A) (A) (A) (A) (A) (A) (A)
                 (A) (A) (A) (A) (A) (A) (A) (A) (A) (A) (A) (A)
                 (A) (A) (A) (A) (A) (A) (A) (A) (A) (A) (A) (A)
                 (A) (A) (A) (A) (A) (A) (A) (A) (A) (A) (A) (A)
                 (A) (A) (A) (A) (A) (A) (A) (A) (A) (A) (A) (A)
                 (A) (A) (A) (A) (A) (A) (A) (A) (A) (A) (A) (A)
                 (A) (A) (A) (A) (A) (A) (A) (A) (A) (A) (A) (A)
                 (A) (A) (A) (A) (A) (A) (A) (A) (A) (A) (A) (A)
                 (A) (A) (A) (A) (A) (A) (A) (A) (A) (A) (A) (A)
                 (A) (A) (A) (A) (A) (A) (A) (A) (A) (A) (A) (A)
                 (A) (A) (A) (A) (A) (A) (A) (A) (A) (A) (A) (A)
                 (A) (A) (A) (A) (A) (A) (A) (A) (A) (A) (A) (A)
                 (A) (A) (A) (A) (A) (A)
    20 initial guesses have been made.
 Convergence on wavefunction:    0.001000000000000
 Davidson Disk Diagonalization:  ConvIn= 1.00D-03 SkipCon=T Conv= 1.00D-03.
 Max sub-space:  2000 roots to seek:    20 dimension of matrix:        57024
 Iteration     1 Dimension    20 NMult     0 NNew     20
 CISAX will form    20 AO SS matrices at one time.
 NMat=    20 NSing=    20 JSym2X= 0.
 New state      3 was old state      5
 New state      5 was old state      3
 Excitation Energies [eV] at current iteration:
 Root      1 :     1.674928355070485
 Root      2 :     2.157395944492406
 Root      3 :     2.901251654826666
 Root      4 :     3.351385631593066
 Root      5 :     3.463957751873411
 Root      6 :     3.604046251350234
 Root      7 :     3.692536322938667
 Root      8 :     3.775559600410040
 Root      9 :     3.842283092696290
 Root     10 :     4.061549829684394
 Root     11 :     4.088586293962011
 Root     12 :     4.173665424558187
 Root     13 :     4.284005687135658
 Root     14 :     4.438614558348973
 Root     15 :     4.487487578798932
 Root     16 :     4.634113022307180
 Root     17 :     4.675531188906697
 Root     18 :     4.830049408281231
 Root     19 :     5.170731831721164
 Root     20 :     5.736792713296882
 Iteration     2 Dimension    40 NMult    20 NNew     20
 CISAX will form    20 AO SS matrices at one time.
 NMat=    20 NSing=    20 JSym2X= 0.
 Root      1 not converged, maximum delta is    0.039663225594932
 Root      2 not converged, maximum delta is    0.021704506502457
 Root      3 not converged, maximum delta is    0.030559600821705
 New state      4 was old state      5
 Root      4 not converged, maximum delta is    0.106397972680856
 New state      5 was old state      4
 Root      5 not converged, maximum delta is    0.080190458741038
 Excitation Energies [eV] at current iteration:
 Root      1 :     1.362172231949471   Change is   -0.312756123121014
 Root      2 :     1.962366867806137   Change is   -0.195029076686270
 Root      3 :     2.879506699938332   Change is   -0.021744954888334
 Root      4 :     3.082881360175036   Change is   -0.381076391698375
 Root      5 :     3.130446538512005   Change is   -0.220939093081061
 Root      6 :     3.388832446614046   Change is   -0.215213804736188
 Root      7 :     3.494943309254200   Change is   -0.347339783442090
 Root      8 :     3.523821092049056   Change is   -0.168715230889610
 Root      9 :     3.533824678476394   Change is   -0.241734921933646
 Root     10 :     3.744111757847246   Change is   -0.344474536114766
 Root     11 :     3.842489034195041   Change is   -0.331176390363147
 Root     12 :     3.915120227659149   Change is   -0.146429602025246
 Root     13 :     3.981450931700256   Change is   -0.694080257206441
 Root     14 :     4.200843642751503   Change is   -0.083162044384155
 Root     15 :     4.283971441464723   Change is   -0.203516137334209
 Root     16 :     4.299717143473194   Change is   -0.334395878833986
 Root     17 :     4.399660147138499   Change is   -0.038954411210474
 Root     18 :     4.490003879541861   Change is   -0.340045528739369
 Root     19 :     5.165458153451751   Change is   -0.005273678269413
 Root     20 :     5.723556429615671   Change is   -0.013236283681211
 Iteration     3 Dimension    45 NMult    40 NNew      5
 CISAX will form     5 AO SS matrices at one time.
 NMat=     5 NSing=     5 JSym2X= 0.
 Root      1 not converged, maximum delta is    0.010986108412142
 Root      2 not converged, maximum delta is    0.019989905464938
 Root      3 not converged, maximum delta is    0.005107142103380
 Root      4 not converged, maximum delta is    0.032360496709260
 Root      5 not converged, maximum delta is    0.025512534872097
 Excitation Energies [eV] at current iteration:
 Root      1 :     1.346675855946927   Change is   -0.015496376002544
 Root      2 :     1.935218715959693   Change is   -0.027148151846444
 Root      3 :     2.876949319097144   Change is   -0.002557380841188
 Root      4 :     3.067993496514051   Change is   -0.014887863660985
 Root      5 :     3.094891273537764   Change is   -0.035555264974241
 Iteration     4 Dimension    50 NMult    45 NNew      5
 CISAX will form     5 AO SS matrices at one time.
 NMat=     5 NSing=     5 JSym2X= 0.
 Root      1 not converged, maximum delta is    0.001786978165765
 Root      2 not converged, maximum delta is    0.002281119682171
 Root      3 not converged, maximum delta is    0.002630937585978
 Root      4 not converged, maximum delta is    0.005326935986911
 Root      5 not converged, maximum delta is    0.007986347093313
 Excitation Energies [eV] at current iteration:
 Root      1 :     1.346018100777149   Change is   -0.000657755169778
 Root      2 :     1.934543172583422   Change is   -0.000675543376271
 Root      3 :     2.876714393620189   Change is   -0.000234925476955
 Root      4 :     3.065838944012607   Change is   -0.002154552501443
 Root      5 :     3.091629570694784   Change is   -0.003261702842980
 Iteration     5 Dimension    55 NMult    50 NNew      5
 CISAX will form     5 AO SS matrices at one time.
 NMat=     5 NSing=     5 JSym2X= 0.
 Root      1 has converged.
 Root      2 has converged.
 Root      3 has converged.
 Root      4 not converged, maximum delta is    0.002450356780586
 Root      5 not converged, maximum delta is    0.004582482874161
 Excitation Energies [eV] at current iteration:
 Root      1 :     1.345977116551504   Change is   -0.000040984225646
 Root      2 :     1.934505505434466   Change is   -0.000037667148956
 Root      3 :     2.876689110377695   Change is   -0.000025283242494
 Root      4 :     3.065416396284885   Change is   -0.000422547727722
 Root      5 :     3.090971183669566   Change is   -0.000658387025218
 Iteration     6 Dimension    57 NMult    55 NNew      2
 CISAX will form     2 AO SS matrices at one time.
 NMat=     2 NSing=     2 JSym2X= 0.
 Root      1 has converged.
 Root      2 has converged.
 Root      3 has converged.
 Root      4 not converged, maximum delta is    0.004496530384365
 Root      5 not converged, maximum delta is    0.003478122055031
 Excitation Energies [eV] at current iteration:
 Root      1 :     1.345977013600130   Change is   -0.000000102951374
 Root      2 :     1.934504973303305   Change is   -0.000000532131161
 Root      3 :     2.876686195704446   Change is   -0.000002914673249
 Root      4 :     3.065150293570860   Change is   -0.000266102714026
 Root      5 :     3.090712234389136   Change is   -0.000258949280431
 Iteration     7 Dimension    59 NMult    57 NNew      2
 CISAX will form     2 AO SS matrices at one time.
 NMat=     2 NSing=     2 JSym2X= 0.
 Root      1 has converged.
 Root      2 has converged.
 Root      3 not converged, maximum delta is    0.002061963649960
 Root      4 not converged, maximum delta is    0.057049689290946
 Root      5 not converged, maximum delta is    0.056055615930960
 Excitation Energies [eV] at current iteration:
 Root      1 :     1.345976870823257   Change is   -0.000000142776873
 Root      2 :     1.934504737234587   Change is   -0.000000236068718
 Root      3 :     2.876676319120470   Change is   -0.000009876583976
 Root      4 :     3.063160530437875   Change is   -0.001989763132984
 Root      5 :     3.089168680846424   Change is   -0.001543553542711
 Iteration     8 Dimension    62 NMult    59 NNew      3
 CISAX will form     3 AO SS matrices at one time.
 NMat=     3 NSing=     3 JSym2X= 0.
 Root      1 has converged.
 Root      2 has converged.
 Root      3 not converged, maximum delta is    0.005103496159937
 Root      4 not converged, maximum delta is    0.417448971474531
 Root      5 not converged, maximum delta is    0.507658590842014
 Excitation Energies [eV] at current iteration:
 Root      1 :     1.345976813375774   Change is   -0.000000057447483
 Root      2 :     1.934504618376225   Change is   -0.000000118858362
 Root      3 :     2.876654459022225   Change is   -0.000021860098245
 Root      4 :     2.965771189878012   Change is   -0.097389340559863
 Root      5 :     3.066178614744852   Change is   -0.022990066101572
 Iteration     9 Dimension    65 NMult    62 NNew      3
 CISAX will form     3 AO SS matrices at one time.
 NMat=     3 NSing=     3 JSym2X= 0.
 Root      1 has converged.
 Root      2 has converged.
 Root      3 not converged, maximum delta is    0.003864291003596
 Root      4 not converged, maximum delta is    0.016186243125650
 Root      5 not converged, maximum delta is    0.014762886080316
 Excitation Energies [eV] at current iteration:
 Root      1 :     1.345976806637657   Change is   -0.000000006738117
 Root      2 :     1.934504591176281   Change is   -0.000000027199943
 Root      3 :     2.876640324808743   Change is   -0.000014134213482
 Root      4 :     2.935400796904301   Change is   -0.030370392973711
 Root      5 :     3.065536941185269   Change is   -0.000641673559583
 Iteration    10 Dimension    68 NMult    65 NNew      3
 CISAX will form     3 AO SS matrices at one time.
 NMat=     3 NSing=     3 JSym2X= 0.
 Root      1 has converged.
 Root      2 has converged.
 Root      3 has converged.
 Root      4 not converged, maximum delta is    0.004792704207738
 Root      5 not converged, maximum delta is    0.005408051456868
 Excitation Energies [eV] at current iteration:
 Root      1 :     1.345976801937493   Change is   -0.000000004700164
 Root      2 :     1.934504585510396   Change is   -0.000000005665885
 Root      3 :     2.876636773066750   Change is   -0.000003551741994
 Root      4 :     2.931051650501233   Change is   -0.004349146403068
 Root      5 :     3.065422568923977   Change is   -0.000114372261292
 Iteration    11 Dimension    70 NMult    68 NNew      2
 CISAX will form     2 AO SS matrices at one time.
 NMat=     2 NSing=     2 JSym2X= 0.
 Root      1 has converged.
 Root      2 has converged.
 Root      3 has converged.
 Root      4 not converged, maximum delta is    0.006448365908232
 Root      5 not converged, maximum delta is    0.004115116535026
 Excitation Energies [eV] at current iteration:
 Root      1 :     1.345976744985798   Change is   -0.000000056951695
 Root      2 :     1.934504541246727   Change is   -0.000000044263669
 Root      3 :     2.876635414799163   Change is   -0.000001358267586
 Root      4 :     2.929780823775708   Change is   -0.001270826725526
 Root      5 :     3.065372612300339   Change is   -0.000049956623638
 Iteration    12 Dimension    72 NMult    70 NNew      2
 CISAX will form     2 AO SS matrices at one time.
 NMat=     2 NSing=     2 JSym2X= 0.
 Root      1 has converged.
 Root      2 has converged.
 Root      3 has converged.
 Root      4 not converged, maximum delta is    0.004400727943684
 Root      5 not converged, maximum delta is    0.002782057249303
 Excitation Energies [eV] at current iteration:
 Root      1 :     1.345976705307039   Change is   -0.000000039678760
 Root      2 :     1.934504539414357   Change is   -0.000000001832370
 Root      3 :     2.876634794756587   Change is   -0.000000620042576
 Root      4 :     2.929318796694526   Change is   -0.000462027081182
 Root      5 :     3.065344832579486   Change is   -0.000027779720853
 Iteration    13 Dimension    74 NMult    72 NNew      2
 CISAX will form     2 AO SS matrices at one time.
 NMat=     2 NSing=     2 JSym2X= 0.
 Root      1 has converged.
 Root      2 has converged.
 Root      3 has converged.
 Root      4 has converged.
 Root      5 has converged.
 Excitation Energies [eV] at current iteration:
 Root      1 :     1.345976695260982   Change is   -0.000000010046057
 Root      2 :     1.934504527319018   Change is   -0.000000012095340
 Root      3 :     2.876634676364986   Change is   -0.000000118391601
 Root      4 :     2.929246815269251   Change is   -0.000071981425275
 Root      5 :     3.065339480098924   Change is   -0.000005352480561
 Convergence achieved on expansion vectors.
 ***********************************************************************
 Excited states from <AA,BB:AA,BB> singles matrix:
 ***********************************************************************
 
 1PDM for each excited state written to RWF  633
 Ground to excited state transition densities written to RWF  633
 Ground to excited state transition electric dipole moments (Au):
       state          X           Y           Z        Dip. S.      Osc.
         1         2.1880     -2.6319     -2.1664     16.4078      0.5411
         2         0.1192      0.0051      0.1406      0.0340      0.0016
         3        -0.0745     -0.4202      0.2305      0.2352      0.0166
         4         0.0759      0.1788     -0.0952      0.0468      0.0034
         5         1.6147      3.3075     -1.8524     16.9782      1.2751
 Ground to excited state transition velocity dipole moments (Au):
       state          X           Y           Z        Dip. S.      Osc.
         1         0.0361     -0.0072     -0.0352      0.0026      0.0349
         2        -0.0054     -0.0059      0.0002      0.0001      0.0006
         3         0.0049      0.0212     -0.0132      0.0006      0.0041
         4        -0.0055      0.0020     -0.0021      0.0000      0.0002
         5        -0.0634     -0.1349      0.0580      0.0256      0.1515
 Ground to excited state transition magnetic dipole moments (Au):
       state          X           Y           Z
         1        -0.0495     -0.2509     -0.0379
         2        -0.7134     -0.0405     -0.6859
         3        -0.2294     -0.1234     -0.4389
         4        -0.4080      0.3290      0.4989
         5        -0.5061      0.4646      0.7792
 Ground to excited state transition velocity quadrupole moments (Au):
       state          XX          YY          ZZ          XY          XZ          YZ
         1        -0.5781      0.0217     -0.0110      0.0522      0.2684     -0.0504
         2         0.1028      0.0870     -0.0604      0.0741      0.0262      0.0569
         3        -0.0954     -0.0859     -0.0155     -0.2277      0.1593      0.0601
         4         0.0926     -0.1993      0.0455      0.0896     -0.0060      0.0272
         5         0.7116      0.2683      0.0308      1.0091     -0.7191     -0.0560
 <0|del|b> * <b|rxdel|0> + <0|del|b> * <b|delr+rdel|0>
 Rotatory Strengths (R) in cgs (10**-40 erg-esu-cm/Gauss)
       state          XX          YY          ZZ    R(velocity)    E-M Angle
         1        22.9702     -3.1328     -0.6732      6.3881       84.15
         2         1.3276     16.8198     21.0950     13.0808       60.25
         3         9.4847      6.5916     -2.1621      4.6381       80.78
         4        -1.9647      3.9855      9.9330      3.9846       66.11
         5      -175.9099     70.0370    197.3657     30.4976       84.97
 1/2[<0|r|b>*<b|rxdel|0> + (<0|rxdel|b>*<b|r|0>)*]
 Rotatory Strengths (R) in cgs (10**-40 erg-esu-cm/Gauss)
       state          XX          YY          ZZ     R(length)
         1        76.6460   -466.9349    -58.0421   -149.4436
         2        60.1406      0.1467     68.2130     42.8334
         3       -12.0783    -36.6534     71.5270      7.5984
         4        21.8850    -41.6003     33.5869      4.6239
         5       577.9418  -1086.5933   1020.7581    170.7022
  1/2[<0|del|b>*<b|r|0> + (<0|r|b>*<b|del|0>)*] (Au)
       state          X           Y           Z        Dip. S.   Osc.(frdel)
         1         0.0789      0.0188      0.0762     -0.1740     -0.1160
         2        -0.0006     -0.0000      0.0000      0.0006      0.0004
         3        -0.0004     -0.0089     -0.0030      0.0123      0.0082
         4        -0.0004      0.0004      0.0002     -0.0001     -0.0001
         5        -0.1024     -0.4463     -0.1074      0.6561      0.4374

 Excitation energies and oscillator strengths:
 
 Excited State   1:      Singlet-A      1.3460 eV  921.15 nm  f=0.5411  <S**2>=0.000
     175 ->178        -0.18315
     176 ->177         0.66654
 This state for optimization and/or second-order correction.
 Total Energy, E(CIS/TDA) =  -474.129702361    
 Copying the excited state density for this state as the 1-particle RhoCI density.
 
 Excited State   2:      Singlet-A      1.9345 eV  640.91 nm  f=0.0016  <S**2>=0.000
     175 ->177         0.47239
     176 ->178         0.50249
 
 Excited State   3:      Singlet-A      2.8766 eV  431.00 nm  f=0.0166  <S**2>=0.000
     176 ->179         0.11403
     176 ->180         0.68610
 
 Excited State   4:      Singlet-A      2.9292 eV  423.26 nm  f=0.0034  <S**2>=0.000
     167 ->177        -0.10310
     167 ->179         0.20071
     168 ->177        -0.24896
     168 ->179         0.42847
     168 ->181        -0.20587
     168 ->183         0.12694
     168 ->185        -0.18723
     169 ->179        -0.11379
 
 Excited State   5:      Singlet-A      3.0653 eV  404.47 nm  f=1.2751  <S**2>=0.000
     171 ->177        -0.13017
     175 ->177         0.45916
     176 ->178        -0.45550
 SavETr:  write IOETrn=   770 NScale= 10 NData=  16 NLR=1 NState=    5 LETran=     100.
 Leave Link  914 at Wed Apr 27 11:47:24 2022, MaxMem=  6710886400 cpu:              99.5 elap:               4.2
 (Enter /sw/apps/gaussian-16.0/g16/l601.exe)
 Copying SCF densities to generalized density rwf, IOpCl= 0 IROHF=0.

 **********************************************************************

            Population analysis using the SCF density.

 **********************************************************************

 Orbital symmetries:
       Occupied  (A) (A) (A) (A) (A) (A) (A) (A) (A) (A) (A) (A)
                 (A) (A) (A) (A) (A) (A) (A) (A) (A) (A) (A) (A)
                 (A) (A) (A) (A) (A) (A) (A) (A) (A) (A) (A) (A)
                 (A) (A) (A) (A) (A) (A) (A) (A) (A) (A) (A) (A)
                 (A) (A) (A) (A) (A) (A) (A) (A) (A) (A) (A) (A)
                 (A) (A) (A) (A) (A) (A) (A) (A) (A) (A) (A) (A)
                 (A) (A) (A) (A) (A) (A) (A) (A) (A) (A) (A) (A)
                 (A) (A) (A) (A) (A) (A) (A) (A) (A) (A) (A) (A)
                 (A) (A) (A) (A) (A) (A) (A) (A) (A) (A) (A) (A)
                 (A) (A) (A) (A) (A) (A) (A) (A) (A) (A) (A) (A)
                 (A) (A) (A) (A) (A) (A) (A) (A) (A) (A) (A) (A)
                 (A) (A) (A) (A) (A) (A) (A) (A) (A) (A) (A) (A)
                 (A) (A) (A) (A) (A) (A) (A) (A) (A) (A) (A) (A)
                 (A) (A) (A) (A) (A) (A) (A) (A) (A) (A) (A) (A)
                 (A) (A) (A) (A) (A) (A) (A) (A)
       Virtual   (A) (A) (A) (A) (A) (A) (A) (A) (A) (A) (A) (A)
                 (A) (A) (A) (A) (A) (A) (A) (A) (A) (A) (A) (A)
                 (A) (A) (A) (A) (A) (A) (A) (A) (A) (A) (A) (A)
                 (A) (A) (A) (A) (A) (A) (A) (A) (A) (A) (A) (A)
                 (A) (A) (A) (A) (A) (A) (A) (A) (A) (A) (A) (A)
                 (A) (A) (A) (A) (A) (A) (A) (A) (A) (A) (A) (A)
                 (A) (A) (A) (A) (A) (A) (A) (A) (A) (A) (A) (A)
                 (A) (A) (A) (A) (A) (A) (A) (A) (A) (A) (A) (A)
                 (A) (A) (A) (A) (A) (A) (A) (A) (A) (A) (A) (A)
                 (A) (A) (A) (A) (A) (A) (A) (A) (A) (A) (A) (A)
                 (A) (A) (A) (A) (A) (A) (A) (A) (A) (A) (A) (A)
                 (A) (A) (A) (A) (A) (A) (A) (A) (A) (A) (A) (A)
                 (A) (A) (A) (A) (A) (A) (A) (A) (A) (A) (A) (A)
                 (A) (A) (A) (A) (A) (A)
 The electronic state is 1-A.
 Alpha  occ. eigenvalues --   -1.84813  -1.82236  -1.80199  -1.72451  -1.71061
 Alpha  occ. eigenvalues --   -1.68308  -1.66072  -1.63646  -1.60941  -1.60648
 Alpha  occ. eigenvalues --   -1.54798  -1.51081  -1.47937  -1.47508  -1.46278
 Alpha  occ. eigenvalues --   -1.44867  -1.40856  -1.40059  -1.39693  -1.37833
 Alpha  occ. eigenvalues --   -1.35611  -1.33949  -1.31790  -1.31008  -1.28423
 Alpha  occ. eigenvalues --   -1.26939  -1.26714  -1.23086  -1.21285  -1.18423
 Alpha  occ. eigenvalues --   -1.17213  -1.17041  -1.14919  -1.14545  -1.12945
 Alpha  occ. eigenvalues --   -1.12508  -1.11336  -1.10983  -1.04901  -1.03689
 Alpha  occ. eigenvalues --   -1.03089  -1.00994  -0.99682  -0.97768  -0.97630
 Alpha  occ. eigenvalues --   -0.95911  -0.94669  -0.94488  -0.93190  -0.91198
 Alpha  occ. eigenvalues --   -0.90555  -0.90378  -0.89479  -0.89121  -0.86879
 Alpha  occ. eigenvalues --   -0.86502  -0.84585  -0.83266  -0.82188  -0.81416
 Alpha  occ. eigenvalues --   -0.80063  -0.78299  -0.77928  -0.76675  -0.76187
 Alpha  occ. eigenvalues --   -0.75622  -0.75331  -0.74626  -0.73963  -0.73580
 Alpha  occ. eigenvalues --   -0.72860  -0.72273  -0.71922  -0.71272  -0.70707
 Alpha  occ. eigenvalues --   -0.70239  -0.69456  -0.69181  -0.68355  -0.67876
 Alpha  occ. eigenvalues --   -0.67601  -0.67257  -0.66849  -0.66095  -0.65697
 Alpha  occ. eigenvalues --   -0.65415  -0.65074  -0.64793  -0.64226  -0.63716
 Alpha  occ. eigenvalues --   -0.63467  -0.63068  -0.62617  -0.62274  -0.62070
 Alpha  occ. eigenvalues --   -0.61832  -0.61688  -0.61280  -0.61122  -0.60325
 Alpha  occ. eigenvalues --   -0.60046  -0.59708  -0.58752  -0.58337  -0.58041
 Alpha  occ. eigenvalues --   -0.57695  -0.57661  -0.56543  -0.56420  -0.56277
 Alpha  occ. eigenvalues --   -0.56107  -0.55792  -0.54852  -0.54763  -0.54649
 Alpha  occ. eigenvalues --   -0.54075  -0.53927  -0.53195  -0.53077  -0.53005
 Alpha  occ. eigenvalues --   -0.52535  -0.52333  -0.52102  -0.51859  -0.51447
 Alpha  occ. eigenvalues --   -0.51181  -0.51035  -0.50879  -0.50519  -0.50422
 Alpha  occ. eigenvalues --   -0.50288  -0.49891  -0.49700  -0.49499  -0.49208
 Alpha  occ. eigenvalues --   -0.48910  -0.48775  -0.48675  -0.48476  -0.48112
 Alpha  occ. eigenvalues --   -0.47968  -0.47293  -0.47157  -0.47023  -0.46607
 Alpha  occ. eigenvalues --   -0.46124  -0.45995  -0.45907  -0.45733  -0.45620
 Alpha  occ. eigenvalues --   -0.45127  -0.44949  -0.44919  -0.44259  -0.43884
 Alpha  occ. eigenvalues --   -0.43786  -0.42792  -0.42508  -0.42440  -0.41910
 Alpha  occ. eigenvalues --   -0.41361  -0.40781  -0.39624  -0.39485  -0.39301
 Alpha  occ. eigenvalues --   -0.38088  -0.36948  -0.36047  -0.35512  -0.34120
 Alpha  occ. eigenvalues --   -0.33513  -0.32774  -0.32051  -0.31292  -0.27142
 Alpha  occ. eigenvalues --   -0.21703
 Alpha virt. eigenvalues --   -0.07875  -0.02682  -0.00645   0.00489   0.01180
 Alpha virt. eigenvalues --    0.01318   0.02440   0.02654   0.04315   0.04556
 Alpha virt. eigenvalues --    0.06101   0.06754   0.06993   0.07571   0.07861
 Alpha virt. eigenvalues --    0.08155   0.08545   0.08789   0.09101   0.09560
 Alpha virt. eigenvalues --    0.09700   0.09954   0.10134   0.10306   0.10666
 Alpha virt. eigenvalues --    0.10991   0.11283   0.11423   0.11458   0.12089
 Alpha virt. eigenvalues --    0.12260   0.12439   0.13058   0.13197   0.13397
 Alpha virt. eigenvalues --    0.13629   0.13795   0.13864   0.13998   0.14394
 Alpha virt. eigenvalues --    0.14965   0.15252   0.15274   0.15461   0.15550
 Alpha virt. eigenvalues --    0.15612   0.15852   0.16114   0.16856   0.16988
 Alpha virt. eigenvalues --    0.17131   0.17206   0.17657   0.17855   0.18017
 Alpha virt. eigenvalues --    0.18154   0.18320   0.19085   0.19433   0.19520
 Alpha virt. eigenvalues --    0.19854   0.20081   0.20142   0.20488   0.20893
 Alpha virt. eigenvalues --    0.21621   0.21729   0.22682   0.23236   0.23384
 Alpha virt. eigenvalues --    0.23679   0.23766   0.23803   0.23861   0.23965
 Alpha virt. eigenvalues --    0.24085   0.24290   0.24319   0.24367   0.24375
 Alpha virt. eigenvalues --    0.24483   0.24622   0.24675   0.24748   0.24788
 Alpha virt. eigenvalues --    0.24810   0.25013   0.25052   0.25063   0.25159
 Alpha virt. eigenvalues --    0.25210   0.25345   0.25407   0.25430   0.25479
 Alpha virt. eigenvalues --    0.25605   0.25630   0.25720   0.25940   0.26157
 Alpha virt. eigenvalues --    0.26173   0.26305   0.26382   0.26572   0.26600
 Alpha virt. eigenvalues --    0.26652   0.26768   0.26896   0.27275   0.27366
 Alpha virt. eigenvalues --    0.27522   0.27593   0.27648   0.27710   0.28016
 Alpha virt. eigenvalues --    0.28048   0.28151   0.28362   0.28408   0.29327
 Alpha virt. eigenvalues --    0.29523   0.30280   0.30432   0.30488   0.30755
 Alpha virt. eigenvalues --    0.31226   0.32599   0.32873   0.33537   0.33701
 Alpha virt. eigenvalues --    0.35191   0.35415   0.35727   0.35754   0.35982
 Alpha virt. eigenvalues --    0.36260   0.36536   0.36956   0.37619   0.38158
 Alpha virt. eigenvalues --    0.39315   0.39475   0.39712   0.40421   0.40752
 Alpha virt. eigenvalues --    0.41019   0.41267   0.41541   0.41849   0.42775
 Alpha virt. eigenvalues --    0.43786   0.44397   0.45071   0.45646   0.45846
 Alpha virt. eigenvalues --    0.47213   0.47437   0.48061   0.50906   0.53414
 Alpha virt. eigenvalues --    0.54414   0.57530
          Condensed to atoms (all electrons):
 Mulliken charges:
               1
     1  Mg   0.432195
     2  C   -0.039370
     3  C   -0.092723
     4  C   -0.107390
     5  C   -0.060670
     6  N   -0.259978
     7  C    0.093424
     8  C   -0.003053
     9  C    0.015183
    10  C    0.153744
    11  C   -0.045414
    12  C   -0.017397
    13  C    0.004038
    14  C    0.465668
    15  O   -0.505038
    16  O   -0.282130
    17  N   -0.328439
    18  C    0.143754
    19  C    0.072565
    20  C   -0.052853
    21  C    0.145123
    22  C   -0.023136
    23  C    0.323052
    24  O   -0.526191
    25  C   -0.030504
    26  N   -0.252712
    27  C    0.162577
    28  C   -0.000075
    29  C   -0.003258
    30  C    0.071487
    31  C   -0.068859
    32  C   -0.038238
    33  C   -0.065186
    34  N   -0.316991
    35  C    0.073694
    36  C    0.013475
    37  C   -0.079256
    38  C    0.099720
    39  C   -0.046927
    40  C    0.349764
    41  O   -0.507893
    42  C    0.061908
    43  C    0.492864
    44  O   -0.536735
    45  O   -0.261721
    46  C    0.077827
    47  C    0.107096
    48  C   -0.114838
    49  C    0.014811
    50  C   -0.042656
    51  C   -0.015056
    52  C   -0.026138
    53  C   -0.030557
    54  C   -0.001847
    55  C   -0.065808
    56  C   -0.048144
    57  C   -0.040214
    58  C   -0.052889
    59  C   -0.009561
    60  C   -0.060956
    61  C   -0.029856
    62  C   -0.041846
    63  C   -0.052517
    64  C   -0.003564
    65  C   -0.063327
    66  C   -0.063467
    67  H    0.019439
    68  H    0.022401
    69  H    0.032494
    70  H    0.030188
    71  H    0.028967
    72  H    0.011389
    73  H    0.032778
    74  H    0.024662
    75  H    0.020318
    76  H    0.030470
    77  H    0.036362
    78  H    0.044925
    79  H    0.042292
    80  H    0.012055
    81  H    0.046825
    82  H    0.045618
    83  H    0.040123
    84  H    0.046791
    85  H    0.040136
    86  H    0.038199
    87  H    0.019557
    88  H    0.016616
    89  H    0.020579
    90  H    0.026319
    91  H    0.024319
    92  H    0.023976
    93  H    0.016025
    94  H    0.026158
    95  H    0.025616
    96  H    0.023588
    97  H    0.037041
    98  H    0.060700
    99  H    0.051823
   100  H    0.021057
   101  H    0.055892
   102  H    0.045558
   103  H    0.058017
   104  H    0.020340
   105  H    0.032601
   106  H    0.031130
   107  H    0.020301
   108  H    0.011552
   109  H    0.027690
   110  H    0.020864
   111  H    0.013834
   112  H    0.015201
   113  H    0.010463
   114  H    0.029967
   115  H    0.022838
   116  H    0.003458
   117  H    0.031868
   118  H    0.024009
   119  H    0.018171
   120  H    0.017686
   121  H    0.012385
   122  H    0.015981
   123  H    0.015467
   124  H    0.024764
   125  H    0.020892
   126  H    0.021022
   127  H    0.034936
   128  H    0.011116
   129  H    0.027193
   130  H    0.008553
   131  H    0.021973
   132  H   -0.007421
   133  H    0.035121
   134  H    0.028342
   135  H    0.024652
   136  H    0.024719
   137  H    0.008651
   138  H    0.027989
   139  H    0.020780
   140  H    0.013040
 Sum of Mulliken charges =  -0.00000
 Mulliken charges with hydrogens summed into heavy atoms:
               1
     1  Mg   0.432195
     2  C   -0.039370
     3  C   -0.073284
     4  C   -0.084989
     5  C   -0.028177
     6  N   -0.259978
     7  C    0.093424
     8  C    0.027135
     9  C    0.044150
    10  C    0.153744
    11  C    0.023415
    12  C    0.033391
    13  C    0.085325
    14  C    0.465668
    15  O   -0.505038
    16  O   -0.282130
    17  N   -0.328439
    18  C    0.143754
    19  C    0.072565
    20  C   -0.052853
    21  C    0.145123
    22  C    0.078036
    23  C    0.323052
    24  O   -0.526191
    25  C    0.102028
    26  N   -0.252712
    27  C    0.162577
    28  C    0.040062
    29  C    0.034941
    30  C    0.071487
    31  C   -0.012106
    32  C    0.012401
    33  C    0.000973
    34  N   -0.316991
    35  C    0.073694
    36  C    0.013475
    37  C   -0.079256
    38  C    0.099720
    39  C    0.039318
    40  C    0.349764
    41  O   -0.507893
    42  C    0.122609
    43  C    0.492864
    44  O   -0.536735
    45  O   -0.261721
    46  C    0.206600
    47  C    0.210671
    48  C   -0.094498
    49  C    0.014811
    50  C    0.041376
    51  C    0.024186
    52  C    0.008561
    53  C   -0.004893
    54  C    0.028120
    55  C   -0.007645
    56  C   -0.005964
    57  C   -0.010143
    58  C   -0.021441
    59  C    0.015204
    60  C    0.015894
    61  C    0.008453
    62  C   -0.011320
    63  C   -0.024817
    64  C    0.024778
    65  C   -0.005305
    66  C   -0.001657
 Charge=             -0.0000 electrons
 Dipole moment (field-independent basis, Debye):
    X=              4.9140    Y=             -6.4260    Z=             -0.4679  Tot=              8.1031
 N-N= 4.326575972227D+03 E-N= 0.000000000000D+00  KE=-9.327010754973D+03
 Leave Link  601 at Wed Apr 27 11:47:24 2022, MaxMem=  6710886400 cpu:               1.0 elap:               0.1
 (Enter /sw/apps/gaussian-16.0/g16/l9999.exe)
 1\1\GINC-BP1-COMPUTE198\SP\RZINDO CIS\STO-3G\C55H74Mg1N4O6\OF15641\27-
 Apr-2022\0\\#p ZINDO=(nstates=5)\\step_1151_chromophore_17 ZINDO\\0,1\
 Mg,0,29.367,59.217,41.181\C,0,26.46,57.755,39.801\C,0,31.222,56.73,39.
 968\C,0,32.179,61.13,41.646\C,0,27.344,62.08,41.949\N,0,28.842,57.447,
 40.093\C,0,27.644,57.025,39.668\C,0,27.791,55.666,38.926\C,0,29.206,55
 .192,39.337\C,0,29.801,56.517,39.853\C,0,29.205,54.044,40.327\C,0,27.5
 31,55.75,37.39\C,0,26.815,54.506,36.76\C,0,26.073,54.633,35.434\O,0,24
 .861,54.443,35.264\O,0,26.967,55.055,34.435\N,0,31.47,58.918,40.92\C,0
 ,31.973,57.79,40.453\C,0,33.479,57.975,40.395\C,0,33.739,59.229,41.005
 \C,0,32.455,59.849,41.19\C,0,34.431,57.03,39.968\C,0,35.109,59.818,41.
 358\O,0,36.088,59.1,41.145\C,0,35.292,61.076,42.144\N,0,29.737,61.351,
 41.526\C,0,30.946,61.831,41.748\C,0,30.862,63.349,42.092\C,0,29.388,63
 .591,42.426\C,0,28.771,62.285,41.867\C,0,31.797,63.869,43.323\C,0,28.7
 9,64.933,41.789\C,0,28.313,66.007,42.844\N,0,27.299,59.834,41.031\C,0,
 26.67,60.987,41.379\C,0,25.267,60.715,41.212\C,0,25.125,59.483,40.533\
 C,0,26.443,59.008,40.427\C,0,24.102,61.616,41.614\C,0,24.186,58.497,39
 .965\O,0,23.004,58.524,39.907\C,0,25.001,57.349,39.431\C,0,24.441,56.0
 61,40.\O,0,24.565,55.604,41.164\O,0,23.785,55.329,39.045\C,0,23.406,53
 .969,39.639\C,0,26.448,55.364,33.079\C,0,27.655,55.474,32.051\C,0,27.7
 71,55.205,30.738\C,0,26.685,55.074,29.715\C,0,29.151,55.142,30.134\C,0
 ,29.774,56.487,29.86\C,0,30.997,56.732,30.702\C,0,32.193,57.076,29.816
 \C,0,32.075,58.478,29.229\C,0,33.533,56.973,30.72\C,0,34.24,55.608,30.
 845\C,0,35.786,55.572,30.487\C,0,36.15,54.762,29.183\C,0,37.298,53.737
 ,29.391\C,0,36.54,55.844,28.172\C,0,36.63,55.132,26.834\C,0,37.906,55.
 364,26.001\C,0,37.678,55.744,24.524\C,0,39.115,55.742,23.827\C,0,36.94
 3,57.095,24.293\H,0,31.772,55.875,39.568\H,0,32.936,61.917,41.628\H,0,
 26.694,62.908,42.239\H,0,27.085,54.961,39.365\H,0,29.741,54.932,38.424
 \H,0,29.334,53.181,39.673\H,0,28.3,53.77,40.87\H,0,29.99,54.08,41.082\
 H,0,28.508,55.846,36.916\H,0,26.994,56.664,37.136\H,0,26.009,54.25,37.
 448\H,0,27.502,53.67,36.634\H,0,35.233,57.421,39.342\H,0,33.992,56.219
 ,39.387\H,0,34.939,56.581,40.821\H,0,35.301,61.914,41.447\H,0,36.332,6
 0.949,42.444\H,0,34.58,61.13,42.967\H,0,31.189,64.038,41.313\H,0,29.20
 9,63.562,43.5\H,0,31.277,64.389,44.128\H,0,32.501,64.64,43.007\H,0,32.
 317,63.051,43.823\H,0,27.917,64.601,41.226\H,0,29.494,65.436,41.126\H,
 0,28.58,65.796,43.879\H,0,27.23,65.912,42.918\H,0,28.612,66.997,42.5\H
 ,0,24.281,62.614,41.213\H,0,24.156,61.676,42.701\H,0,23.128,61.203,41.
 353\H,0,24.966,57.452,38.347\H,0,24.25,53.41,40.042\H,0,23.037,53.444,
 38.758\H,0,22.555,54.106,40.306\H,0,26.02,56.366,33.111\H,0,25.71,54.6
 54,32.705\H,0,28.631,55.527,32.533\H,0,26.617,53.99,29.616\H,0,26.957,
 55.634,28.82\H,0,25.662,55.345,29.975\H,0,29.105,54.714,29.133\H,0,29.
 82,54.519,30.729\H,0,29.164,57.376,30.025\H,0,30.041,56.519,28.804\H,0
 ,31.172,55.896,31.38\H,0,30.812,57.541,31.408\H,0,32.156,56.292,29.059
 \H,0,31.064,58.88,29.296\H,0,32.132,58.521,28.142\H,0,32.88,59.199,29.
 364\H,0,33.379,57.166,31.781\H,0,34.265,57.667,30.308\H,0,33.642,54.91
 6,30.252\H,0,34.196,55.252,31.875\H,0,36.487,55.22,31.244\H,0,36.051,5
 6.629,30.471\H,0,35.236,54.214,28.952\H,0,37.797,53.496,28.452\H,0,36.
 738,52.824,29.595\H,0,37.981,54.157,30.128\H,0,37.539,56.181,28.449\H,
 0,36.011,56.787,28.034\H,0,35.78,55.506,26.264\H,0,36.535,54.047,26.88
 2\H,0,38.308,54.354,25.913\H,0,38.778,55.689,26.568\H,0,36.979,54.965,
 24.218\H,0,39.962,55.4,24.421\H,0,39.403,56.656,23.308\H,0,39.004,54.9
 73,23.063\H,0,35.909,56.989,23.964\H,0,37.535,57.791,23.699\H,0,37.004
 ,57.59,25.262\\Version=ES64L-G16RevA.03\State=1-A\HF=-474.1791661\RMSD
 =9.695e-09\PG=C01 [X(C55H74Mg1N4O6)]\\@


 IT IS WELL TO REMEMBER THAT MAN IS A PART OF NATURE AND THAT HIS WORKS,
 WHATEVER THEY MAY BE, ARE NO MORE "UNNATURAL" THAN 
 THE FLIGHT OF AN EAGLE OR THE PASSAGE OF A TORNADO.

                                    -- CHARLES MCCARRY IN "THE GREAT SOUTHWEST"
 Job cpu time:       0 days  0 hours  2 minutes 24.3 seconds.
 Elapsed time:       0 days  0 hours  0 minutes  6.3 seconds.
 File lengths (MBytes):  RWF=   1270 Int=      0 D2E=      0 Chk=     38 Scr=      1
 Normal termination of Gaussian 16 at Wed Apr 27 11:47:24 2022.
