 Entering Gaussian System, Link 0=g16
 Initial command:
 /sw/apps/gaussian-16.0/g16/l1.exe "/tmp/Gau-258250.inp" -scrdir="/tmp/"
 Entering Link 1 = /sw/apps/gaussian-16.0/g16/l1.exe PID=    258252.
  
 Copyright (c) 1988,1990,1992,1993,1995,1998,2003,2009,2016,
            Gaussian, Inc.  All Rights Reserved.
  
 This is part of the Gaussian(R) 16 program.  It is based on
 the Gaussian(R) 09 system (copyright 2009, Gaussian, Inc.),
 the Gaussian(R) 03 system (copyright 2003, Gaussian, Inc.),
 the Gaussian(R) 98 system (copyright 1998, Gaussian, Inc.),
 the Gaussian(R) 94 system (copyright 1995, Gaussian, Inc.),
 the Gaussian 92(TM) system (copyright 1992, Gaussian, Inc.),
 the Gaussian 90(TM) system (copyright 1990, Gaussian, Inc.),
 the Gaussian 88(TM) system (copyright 1988, Gaussian, Inc.),
 the Gaussian 86(TM) system (copyright 1986, Carnegie Mellon
 University), and the Gaussian 82(TM) system (copyright 1983,
 Carnegie Mellon University). Gaussian is a federally registered
 trademark of Gaussian, Inc.
  
 This software contains proprietary and confidential information,
 including trade secrets, belonging to Gaussian, Inc.
  
 This software is provided under written license and may be
 used, copied, transmitted, or stored only in accord with that
 written license.
  
 The following legend is applicable only to US Government
 contracts under FAR:
  
                    RESTRICTED RIGHTS LEGEND
  
 Use, reproduction and disclosure by the US Government is
 subject to restrictions as set forth in subparagraphs (a)
 and (c) of the Commercial Computer Software - Restricted
 Rights clause in FAR 52.227-19.
  
 Gaussian, Inc.
 340 Quinnipiac St., Bldg. 40, Wallingford CT 06492
  
  
 ---------------------------------------------------------------
 Warning -- This program may not be used in any manner that
 competes with the business of Gaussian, Inc. or will provide
 assistance to any competitor of Gaussian, Inc.  The licensee
 of this program is prohibited from giving any competitor of
 Gaussian, Inc. access to this program.  By using this program,
 the user acknowledges that Gaussian, Inc. is engaged in the
 business of creating and licensing software in the field of
 computational chemistry and represents and warrants to the
 licensee that it is not a competitor of Gaussian, Inc. and that
 it will not use this program in any manner prohibited above.
 ---------------------------------------------------------------
  

 Cite this work as:
 Gaussian 16, Revision A.03,
 M. J. Frisch, G. W. Trucks, H. B. Schlegel, G. E. Scuseria, 
 M. A. Robb, J. R. Cheeseman, G. Scalmani, V. Barone, 
 G. A. Petersson, H. Nakatsuji, X. Li, M. Caricato, A. V. Marenich, 
 J. Bloino, B. G. Janesko, R. Gomperts, B. Mennucci, H. P. Hratchian, 
 J. V. Ortiz, A. F. Izmaylov, J. L. Sonnenberg, D. Williams-Young, 
 F. Ding, F. Lipparini, F. Egidi, J. Goings, B. Peng, A. Petrone, 
 T. Henderson, D. Ranasinghe, V. G. Zakrzewski, J. Gao, N. Rega, 
 G. Zheng, W. Liang, M. Hada, M. Ehara, K. Toyota, R. Fukuda, 
 J. Hasegawa, M. Ishida, T. Nakajima, Y. Honda, O. Kitao, H. Nakai, 
 T. Vreven, K. Throssell, J. A. Montgomery, Jr., J. E. Peralta, 
 F. Ogliaro, M. J. Bearpark, J. J. Heyd, E. N. Brothers, K. N. Kudin, 
 V. N. Staroverov, T. A. Keith, R. Kobayashi, J. Normand, 
 K. Raghavachari, A. P. Rendell, J. C. Burant, S. S. Iyengar, 
 J. Tomasi, M. Cossi, J. M. Millam, M. Klene, C. Adamo, R. Cammi, 
 J. W. Ochterski, R. L. Martin, K. Morokuma, O. Farkas, 
 J. B. Foresman, and D. J. Fox, Gaussian, Inc., Wallingford CT, 2016.
 
 ******************************************
 Gaussian 16:  ES64L-G16RevA.03 25-Dec-2016
                27-Apr-2022 
 ******************************************
 %nproc=24
 Will use up to   24 processors via shared memory.
 %mem=75GB
 -----------------------------------
 #p cam-b3lyp/Def2SVP td=(nstates=5)
 -----------------------------------
 1/38=1,172=1/1;
 2/12=2,17=6,18=5,40=1/2;
 3/5=43,7=101,11=9,25=1,30=1,74=-40/1,2,3,8;
 4//1;
 5/5=2,38=5/2;
 8/6=1,10=1,108=5/1;
 9/41=5,42=1,70=2/14;
 6/7=2,8=2,9=2,10=2/1;
 99/5=1,9=1/99;
 Leave Link    1 at Wed Apr 27 02:02:07 2022, MaxMem= 10066329600 cpu:               0.8 elap:               0.0
 (Enter /sw/apps/gaussian-16.0/g16/l101.exe)
 --------------------------------------------------------
 step_1051_chromophore_18 TDDFT with cam-b3lyp functional
 --------------------------------------------------------
 Symbolic Z-matrix:
 Charge =  0 Multiplicity = 1
 Mg                    35.196    49.133    25.463 
 C                     35.074    47.246    28.524 
 C                     33.761    51.615    27.274 
 C                     34.443    50.53     22.595 
 C                     36.092    46.205    23.843 
 N                     34.191    49.303    27.669 
 C                     34.484    48.46     28.681 
 C                     33.996    49.089    30.048 
 C                     33.424    50.491    29.569 
 C                     33.885    50.55     28.088 
 C                     31.912    50.744    29.844 
 C                     35.258    49.233    30.927 
 C                     34.948    50.061    32.171 
 C                     33.642    49.872    32.904 
 O                     33.1      48.799    33.02 
 O                     33.132    51.067    33.381 
 N                     34.285    50.811    24.958 
 C                     33.813    51.791    25.827 
 C                     33.467    52.979    25.098 
 C                     33.659    52.682    23.737 
 C                     34.156    51.299    23.714 
 C                     33.104    54.384    25.829 
 C                     33.497    53.585    22.473 
 O                     33.757    53.282    21.296 
 C                     33.092    55.048    22.606 
 N                     35.377    48.44     23.487 
 C                     35.014    49.269    22.49 
 C                     35.27     48.662    21.11 
 C                     36.032    47.302    21.484 
 C                     35.828    47.292    23.006 
 C                     34.057    48.467    20.017 
 C                     37.582    47.266    21.096 
 C                     38.674    47.359    22.143 
 N                     35.674    47.127    26.026 
 C                     36.009    46.057    25.233 
 C                     36.236    44.876    25.993 
 C                     36.012    45.313    27.354 
 C                     35.6      46.649    27.287 
 C                     36.451    43.503    25.399 
 C                     36.058    44.925    28.725 
 O                     36.449    43.869    29.217 
 C                     35.463    46.099    29.551 
 C                     34.354    45.546    30.301 
 O                     33.276    45.222    29.832 
 O                     34.675    45.453    31.645 
 C                     33.675    44.785    32.478 
 C                     31.904    50.898    34.121 
 C                     31.454    52.289    34.542 
 C                     31.295    52.84     35.722 
 C                     31.587    52.359    37.184 
 C                     30.808    54.273    35.794 
 C                     31.872    55.322    35.53 
 C                     31.302    56.574    34.866 
 C                     30.778    57.673    35.819 
 C                     31.941    58.41     36.541 
 C                     29.845    58.689    35.225 
 C                     28.512    58.836    35.971 
 C                     28.753    59.722    37.188 
 C                     28.078    61.042    37.076 
 C                     29.113    62.161    37.405 
 C                     26.723    61.136    37.873 
 C                     25.953    62.407    37.52 
 C                     25.832    63.373    38.74 
 C                     25.397    64.817    38.396 
 C                     26.512    65.892    38.45 
 C                     24.085    65.144    39.102 
 H                     33.41     52.47     27.856 
 H                     34.308    51.001    21.62 
 H                     36.575    45.343    23.377 
 H                     33.345    48.347    30.51 
 H                     33.968    51.301    30.053 
 H                     31.486    49.782    30.13 
 H                     31.444    51.043    28.906 
 H                     31.892    51.505    30.623 
 H                     36.13     49.685    30.455 
 H                     35.42     48.217    31.286 
 H                     35.093    51.096    31.863 
 H                     35.721    49.823    32.902 
 H                     33.222    54.377    26.913 
 H                     32.071    54.702    25.687 
 H                     33.775    55.196    25.549 
 H                     33.622    55.599    23.383 
 H                     32.043    54.974    22.889 
 H                     33.088    55.621    21.678 
 H                     36.022    49.296    20.639 
 H                     35.495    46.448    21.071 
 H                     33.08     48.706    20.438 
 H                     33.993    47.423    19.71 
 H                     34.249    49.007    19.09 
 H                     37.816    48.018    20.342 
 H                     37.811    46.372    20.517 
 H                     38.196    47.678    23.069 
 H                     39.479    48.036    21.857 
 H                     39.123    46.366    22.147 
 H                     37.02     43.585    24.473 
 H                     35.454    43.07     25.316 
 H                     37.049    42.97     26.138 
 H                     36.269    46.539    30.139 
 H                     33.305    43.844    32.071 
 H                     32.785    45.387    32.663 
 H                     34.102    44.67     33.475 
 H                     31.918    50.226    34.979 
 H                     31.101    50.593    33.45 
 H                     31.277    52.981    33.719 
 H                     30.665    52.166    37.732 
 H                     32.341    52.903    37.753 
 H                     32.067    51.385    37.08 
 H                     30.461    54.559    36.787 
 H                     29.878    54.351    35.232 
 H                     32.694    55.012    34.886 
 H                     32.168    55.657    36.524 
 H                     30.421    56.214    34.335 
 H                     32.07     56.881    34.156 
 H                     30.333    57.187    36.687 
 H                     32.886    58.062    36.125 
 H                     31.895    58.262    37.62 
 H                     32.007    59.485    36.373 
 H                     29.49     58.29     34.274 
 H                     30.284    59.653    34.969 
 H                     28.246    57.873    36.407 
 H                     27.702    59.248    35.369 
 H                     29.81     59.794    37.446 
 H                     28.394    59.327    38.138 
 H                     27.822    61.214    36.031 
 H                     29.563    62.322    36.426 
 H                     29.849    61.937    38.178 
 H                     28.58     63.082    37.64 
 H                     26.803    61.117    38.96 
 H                     26.177    60.21     37.69 
 H                     25.03     62.181    36.985 
 H                     26.575    62.869    36.753 
 H                     26.874    63.349    39.057 
 H                     25.125    62.856    39.388 
 H                     25.078    64.782    37.354 
 H                     26.728    66.045    37.393 
 H                     27.369    65.472    38.977 
 H                     26.252    66.834    38.932 
 H                     24.208    65.964    39.81 
 H                     23.768    64.395    39.828 
 H                     23.302    65.364    38.376 
 
 ITRead=  0  0  0  0  0  0  0  0  0  0  0  0  0  0  0  0  0  0  0  0
 ITRead=  0  0  0  0  0  0  0  0  0  0  0  0  0  0  0  0  0  0  0  0
 ITRead=  0  0  0  0  0  0  0  0  0  0  0  0  0  0  0  0  0  0  0  0
 ITRead=  0  0  0  0  0  0  0  0  0  0  0  0  0  0  0  0  0  0  0  0
 ITRead=  0  0  0  0  0  0  0  0  0  0  0  0  0  0  0  0  0  0  0  0
 ITRead=  0  0  0  0  0  0  0  0  0  0  0  0  0  0  0  0  0  0  0  0
 ITRead=  0  0  0  0  0  0  0  0  0  0  0  0  0  0  0  0  0  0  0  0
 MicOpt= -1 -1 -1 -1 -1 -1 -1 -1 -1 -1 -1 -1 -1 -1 -1 -1 -1 -1 -1 -1
 MicOpt= -1 -1 -1 -1 -1 -1 -1 -1 -1 -1 -1 -1 -1 -1 -1 -1 -1 -1 -1 -1
 MicOpt= -1 -1 -1 -1 -1 -1 -1 -1 -1 -1 -1 -1 -1 -1 -1 -1 -1 -1 -1 -1
 MicOpt= -1 -1 -1 -1 -1 -1 -1 -1 -1 -1 -1 -1 -1 -1 -1 -1 -1 -1 -1 -1
 MicOpt= -1 -1 -1 -1 -1 -1 -1 -1 -1 -1 -1 -1 -1 -1 -1 -1 -1 -1 -1 -1
 MicOpt= -1 -1 -1 -1 -1 -1 -1 -1 -1 -1 -1 -1 -1 -1 -1 -1 -1 -1 -1 -1
 MicOpt= -1 -1 -1 -1 -1 -1 -1 -1 -1 -1 -1 -1 -1 -1 -1 -1 -1 -1 -1 -1
 NAtoms=    140 NQM=      140 NQMF=       0 NMMI=      0 NMMIF=      0
                NMic=       0 NMicF=      0.
                    Isotopes and Nuclear Properties:
 (Nuclear quadrupole moments (NQMom) in fm**2, nuclear magnetic moments (NMagM)
  in nuclear magnetons)

  Atom         1           2           3           4           5           6           7           8           9          10
 IAtWgt=          24          12          12          12          12          14          12          12          12          12
 AtmWgt=  23.9850450  12.0000000  12.0000000  12.0000000  12.0000000  14.0030740  12.0000000  12.0000000  12.0000000  12.0000000
 NucSpn=           0           0           0           0           0           2           0           0           0           0
 AtZEff=  -0.0000000  -0.0000000  -0.0000000  -0.0000000  -0.0000000  -0.0000000  -0.0000000  -0.0000000  -0.0000000  -0.0000000
 NQMom=    0.0000000   0.0000000   0.0000000   0.0000000   0.0000000   2.0440000   0.0000000   0.0000000   0.0000000   0.0000000
 NMagM=    0.0000000   0.0000000   0.0000000   0.0000000   0.0000000   0.4037610   0.0000000   0.0000000   0.0000000   0.0000000
 AtZNuc=  12.0000000   6.0000000   6.0000000   6.0000000   6.0000000   7.0000000   6.0000000   6.0000000   6.0000000   6.0000000

  Atom        11          12          13          14          15          16          17          18          19          20
 IAtWgt=          12          12          12          12          16          16          14          12          12          12
 AtmWgt=  12.0000000  12.0000000  12.0000000  12.0000000  15.9949146  15.9949146  14.0030740  12.0000000  12.0000000  12.0000000
 NucSpn=           0           0           0           0           0           0           2           0           0           0
 AtZEff=  -0.0000000  -0.0000000  -0.0000000  -0.0000000  -0.0000000  -0.0000000  -0.0000000  -0.0000000  -0.0000000  -0.0000000
 NQMom=    0.0000000   0.0000000   0.0000000   0.0000000   0.0000000   0.0000000   2.0440000   0.0000000   0.0000000   0.0000000
 NMagM=    0.0000000   0.0000000   0.0000000   0.0000000   0.0000000   0.0000000   0.4037610   0.0000000   0.0000000   0.0000000
 AtZNuc=   6.0000000   6.0000000   6.0000000   6.0000000   8.0000000   8.0000000   7.0000000   6.0000000   6.0000000   6.0000000

  Atom        21          22          23          24          25          26          27          28          29          30
 IAtWgt=          12          12          12          16          12          14          12          12          12          12
 AtmWgt=  12.0000000  12.0000000  12.0000000  15.9949146  12.0000000  14.0030740  12.0000000  12.0000000  12.0000000  12.0000000
 NucSpn=           0           0           0           0           0           2           0           0           0           0
 AtZEff=  -0.0000000  -0.0000000  -0.0000000  -0.0000000  -0.0000000  -0.0000000  -0.0000000  -0.0000000  -0.0000000  -0.0000000
 NQMom=    0.0000000   0.0000000   0.0000000   0.0000000   0.0000000   2.0440000   0.0000000   0.0000000   0.0000000   0.0000000
 NMagM=    0.0000000   0.0000000   0.0000000   0.0000000   0.0000000   0.4037610   0.0000000   0.0000000   0.0000000   0.0000000
 AtZNuc=   6.0000000   6.0000000   6.0000000   8.0000000   6.0000000   7.0000000   6.0000000   6.0000000   6.0000000   6.0000000

  Atom        31          32          33          34          35          36          37          38          39          40
 IAtWgt=          12          12          12          14          12          12          12          12          12          12
 AtmWgt=  12.0000000  12.0000000  12.0000000  14.0030740  12.0000000  12.0000000  12.0000000  12.0000000  12.0000000  12.0000000
 NucSpn=           0           0           0           2           0           0           0           0           0           0
 AtZEff=  -0.0000000  -0.0000000  -0.0000000  -0.0000000  -0.0000000  -0.0000000  -0.0000000  -0.0000000  -0.0000000  -0.0000000
 NQMom=    0.0000000   0.0000000   0.0000000   2.0440000   0.0000000   0.0000000   0.0000000   0.0000000   0.0000000   0.0000000
 NMagM=    0.0000000   0.0000000   0.0000000   0.4037610   0.0000000   0.0000000   0.0000000   0.0000000   0.0000000   0.0000000
 AtZNuc=   6.0000000   6.0000000   6.0000000   7.0000000   6.0000000   6.0000000   6.0000000   6.0000000   6.0000000   6.0000000

  Atom        41          42          43          44          45          46          47          48          49          50
 IAtWgt=          16          12          12          16          16          12          12          12          12          12
 AtmWgt=  15.9949146  12.0000000  12.0000000  15.9949146  15.9949146  12.0000000  12.0000000  12.0000000  12.0000000  12.0000000
 NucSpn=           0           0           0           0           0           0           0           0           0           0
 AtZEff=  -0.0000000  -0.0000000  -0.0000000  -0.0000000  -0.0000000  -0.0000000  -0.0000000  -0.0000000  -0.0000000  -0.0000000
 NQMom=    0.0000000   0.0000000   0.0000000   0.0000000   0.0000000   0.0000000   0.0000000   0.0000000   0.0000000   0.0000000
 NMagM=    0.0000000   0.0000000   0.0000000   0.0000000   0.0000000   0.0000000   0.0000000   0.0000000   0.0000000   0.0000000
 AtZNuc=   8.0000000   6.0000000   6.0000000   8.0000000   8.0000000   6.0000000   6.0000000   6.0000000   6.0000000   6.0000000

  Atom        51          52          53          54          55          56          57          58          59          60
 IAtWgt=          12          12          12          12          12          12          12          12          12          12
 AtmWgt=  12.0000000  12.0000000  12.0000000  12.0000000  12.0000000  12.0000000  12.0000000  12.0000000  12.0000000  12.0000000
 NucSpn=           0           0           0           0           0           0           0           0           0           0
 AtZEff=  -0.0000000  -0.0000000  -0.0000000  -0.0000000  -0.0000000  -0.0000000  -0.0000000  -0.0000000  -0.0000000  -0.0000000
 NQMom=    0.0000000   0.0000000   0.0000000   0.0000000   0.0000000   0.0000000   0.0000000   0.0000000   0.0000000   0.0000000
 NMagM=    0.0000000   0.0000000   0.0000000   0.0000000   0.0000000   0.0000000   0.0000000   0.0000000   0.0000000   0.0000000
 AtZNuc=   6.0000000   6.0000000   6.0000000   6.0000000   6.0000000   6.0000000   6.0000000   6.0000000   6.0000000   6.0000000

  Atom        61          62          63          64          65          66          67          68          69          70
 IAtWgt=          12          12          12          12          12          12           1           1           1           1
 AtmWgt=  12.0000000  12.0000000  12.0000000  12.0000000  12.0000000  12.0000000   1.0078250   1.0078250   1.0078250   1.0078250
 NucSpn=           0           0           0           0           0           0           1           1           1           1
 AtZEff=  -0.0000000  -0.0000000  -0.0000000  -0.0000000  -0.0000000  -0.0000000  -0.0000000  -0.0000000  -0.0000000  -0.0000000
 NQMom=    0.0000000   0.0000000   0.0000000   0.0000000   0.0000000   0.0000000   0.0000000   0.0000000   0.0000000   0.0000000
 NMagM=    0.0000000   0.0000000   0.0000000   0.0000000   0.0000000   0.0000000   2.7928460   2.7928460   2.7928460   2.7928460
 AtZNuc=   6.0000000   6.0000000   6.0000000   6.0000000   6.0000000   6.0000000   1.0000000   1.0000000   1.0000000   1.0000000

  Atom        71          72          73          74          75          76          77          78          79          80
 IAtWgt=           1           1           1           1           1           1           1           1           1           1
 AtmWgt=   1.0078250   1.0078250   1.0078250   1.0078250   1.0078250   1.0078250   1.0078250   1.0078250   1.0078250   1.0078250
 NucSpn=           1           1           1           1           1           1           1           1           1           1
 AtZEff=  -0.0000000  -0.0000000  -0.0000000  -0.0000000  -0.0000000  -0.0000000  -0.0000000  -0.0000000  -0.0000000  -0.0000000
 NQMom=    0.0000000   0.0000000   0.0000000   0.0000000   0.0000000   0.0000000   0.0000000   0.0000000   0.0000000   0.0000000
 NMagM=    2.7928460   2.7928460   2.7928460   2.7928460   2.7928460   2.7928460   2.7928460   2.7928460   2.7928460   2.7928460
 AtZNuc=   1.0000000   1.0000000   1.0000000   1.0000000   1.0000000   1.0000000   1.0000000   1.0000000   1.0000000   1.0000000

  Atom        81          82          83          84          85          86          87          88          89          90
 IAtWgt=           1           1           1           1           1           1           1           1           1           1
 AtmWgt=   1.0078250   1.0078250   1.0078250   1.0078250   1.0078250   1.0078250   1.0078250   1.0078250   1.0078250   1.0078250
 NucSpn=           1           1           1           1           1           1           1           1           1           1
 AtZEff=  -0.0000000  -0.0000000  -0.0000000  -0.0000000  -0.0000000  -0.0000000  -0.0000000  -0.0000000  -0.0000000  -0.0000000
 NQMom=    0.0000000   0.0000000   0.0000000   0.0000000   0.0000000   0.0000000   0.0000000   0.0000000   0.0000000   0.0000000
 NMagM=    2.7928460   2.7928460   2.7928460   2.7928460   2.7928460   2.7928460   2.7928460   2.7928460   2.7928460   2.7928460
 AtZNuc=   1.0000000   1.0000000   1.0000000   1.0000000   1.0000000   1.0000000   1.0000000   1.0000000   1.0000000   1.0000000

  Atom        91          92          93          94          95          96          97          98          99         100
 IAtWgt=           1           1           1           1           1           1           1           1           1           1
 AtmWgt=   1.0078250   1.0078250   1.0078250   1.0078250   1.0078250   1.0078250   1.0078250   1.0078250   1.0078250   1.0078250
 NucSpn=           1           1           1           1           1           1           1           1           1           1
 AtZEff=  -0.0000000  -0.0000000  -0.0000000  -0.0000000  -0.0000000  -0.0000000  -0.0000000  -0.0000000  -0.0000000  -0.0000000
 NQMom=    0.0000000   0.0000000   0.0000000   0.0000000   0.0000000   0.0000000   0.0000000   0.0000000   0.0000000   0.0000000
 NMagM=    2.7928460   2.7928460   2.7928460   2.7928460   2.7928460   2.7928460   2.7928460   2.7928460   2.7928460   2.7928460
 AtZNuc=   1.0000000   1.0000000   1.0000000   1.0000000   1.0000000   1.0000000   1.0000000   1.0000000   1.0000000   1.0000000

  Atom       101         102         103         104         105         106         107         108         109         110
 IAtWgt=           1           1           1           1           1           1           1           1           1           1
 AtmWgt=   1.0078250   1.0078250   1.0078250   1.0078250   1.0078250   1.0078250   1.0078250   1.0078250   1.0078250   1.0078250
 NucSpn=           1           1           1           1           1           1           1           1           1           1
 AtZEff=  -0.0000000  -0.0000000  -0.0000000  -0.0000000  -0.0000000  -0.0000000  -0.0000000  -0.0000000  -0.0000000  -0.0000000
 NQMom=    0.0000000   0.0000000   0.0000000   0.0000000   0.0000000   0.0000000   0.0000000   0.0000000   0.0000000   0.0000000
 NMagM=    2.7928460   2.7928460   2.7928460   2.7928460   2.7928460   2.7928460   2.7928460   2.7928460   2.7928460   2.7928460
 AtZNuc=   1.0000000   1.0000000   1.0000000   1.0000000   1.0000000   1.0000000   1.0000000   1.0000000   1.0000000   1.0000000

  Atom       111         112         113         114         115         116         117         118         119         120
 IAtWgt=           1           1           1           1           1           1           1           1           1           1
 AtmWgt=   1.0078250   1.0078250   1.0078250   1.0078250   1.0078250   1.0078250   1.0078250   1.0078250   1.0078250   1.0078250
 NucSpn=           1           1           1           1           1           1           1           1           1           1
 AtZEff=  -0.0000000  -0.0000000  -0.0000000  -0.0000000  -0.0000000  -0.0000000  -0.0000000  -0.0000000  -0.0000000  -0.0000000
 NQMom=    0.0000000   0.0000000   0.0000000   0.0000000   0.0000000   0.0000000   0.0000000   0.0000000   0.0000000   0.0000000
 NMagM=    2.7928460   2.7928460   2.7928460   2.7928460   2.7928460   2.7928460   2.7928460   2.7928460   2.7928460   2.7928460
 AtZNuc=   1.0000000   1.0000000   1.0000000   1.0000000   1.0000000   1.0000000   1.0000000   1.0000000   1.0000000   1.0000000

  Atom       121         122         123         124         125         126         127         128         129         130
 IAtWgt=           1           1           1           1           1           1           1           1           1           1
 AtmWgt=   1.0078250   1.0078250   1.0078250   1.0078250   1.0078250   1.0078250   1.0078250   1.0078250   1.0078250   1.0078250
 NucSpn=           1           1           1           1           1           1           1           1           1           1
 AtZEff=  -0.0000000  -0.0000000  -0.0000000  -0.0000000  -0.0000000  -0.0000000  -0.0000000  -0.0000000  -0.0000000  -0.0000000
 NQMom=    0.0000000   0.0000000   0.0000000   0.0000000   0.0000000   0.0000000   0.0000000   0.0000000   0.0000000   0.0000000
 NMagM=    2.7928460   2.7928460   2.7928460   2.7928460   2.7928460   2.7928460   2.7928460   2.7928460   2.7928460   2.7928460
 AtZNuc=   1.0000000   1.0000000   1.0000000   1.0000000   1.0000000   1.0000000   1.0000000   1.0000000   1.0000000   1.0000000

  Atom       131         132         133         134         135         136         137         138         139         140
 IAtWgt=           1           1           1           1           1           1           1           1           1           1
 AtmWgt=   1.0078250   1.0078250   1.0078250   1.0078250   1.0078250   1.0078250   1.0078250   1.0078250   1.0078250   1.0078250
 NucSpn=           1           1           1           1           1           1           1           1           1           1
 AtZEff=  -0.0000000  -0.0000000  -0.0000000  -0.0000000  -0.0000000  -0.0000000  -0.0000000  -0.0000000  -0.0000000  -0.0000000
 NQMom=    0.0000000   0.0000000   0.0000000   0.0000000   0.0000000   0.0000000   0.0000000   0.0000000   0.0000000   0.0000000
 NMagM=    2.7928460   2.7928460   2.7928460   2.7928460   2.7928460   2.7928460   2.7928460   2.7928460   2.7928460   2.7928460
 AtZNuc=   1.0000000   1.0000000   1.0000000   1.0000000   1.0000000   1.0000000   1.0000000   1.0000000   1.0000000   1.0000000
 Leave Link  101 at Wed Apr 27 02:02:07 2022, MaxMem= 10066329600 cpu:               3.0 elap:               0.1
 (Enter /sw/apps/gaussian-16.0/g16/l202.exe)
 Stoichiometry    C55H74MgN4O6
 Framework group  C1[X(C55H74MgN4O6)]
 Deg. of freedom   414
 Full point group                 C1      NOp   1
 Largest Abelian subgroup         C1      NOp   1
 Largest concise Abelian subgroup C1      NOp   1
                         Standard orientation:                         
 ---------------------------------------------------------------------
 Center     Atomic      Atomic             Coordinates (Angstroms)
 Number     Number       Type             X           Y           Z
 ---------------------------------------------------------------------
      1         12           0        5.608126    1.220604    0.335911
      2          6           0        4.899323   -2.296801    0.069763
      3          6           0        2.241841    1.613371    0.221329
      4          6           0        6.191072    4.373754   -0.343697
      5          6           0        8.948511    0.455945   -0.171556
      6          7           0        3.715381   -0.224827   -0.147419
      7          6           0        3.756143   -1.566335   -0.008365
      8          6           0        2.281662   -2.139246    0.003941
      9          6           0        1.420545   -0.808788   -0.098964
     10          6           0        2.492863    0.297173    0.091685
     11          6           0        0.498533   -0.684509   -1.348054
     12          6           0        2.111160   -2.851706    1.363849
     13          6           0        0.648235   -3.223147    1.589908
     14          6           0       -0.186507   -3.753215    0.449347
     15          8           0        0.256612   -4.472598   -0.413602
     16          8           0       -1.488553   -3.285812    0.492547
     17          7           0        4.447836    2.786648    0.016747
     18          6           0        3.057533    2.814808    0.084634
     19          6           0        2.585046    4.170914    0.069369
     20          6           0        3.718799    4.986549   -0.094148
     21          6           0        4.855715    4.056159   -0.139133
     22          6           0        1.037035    4.565395    0.366357
     23          6           0        3.846890    6.542604   -0.134593
     24          8           0        4.894379    7.207697   -0.206395
     25          6           0        2.621659    7.431187    0.042364
     26          7           0        7.393364    2.246826   -0.085254
     27          6           0        7.325820    3.575784   -0.290988
     28          6           0        8.705054    4.198632   -0.510444
     29          6           0        9.676796    2.953408   -0.236116
     30          6           0        8.643707    1.819360   -0.166374
     31          6           0        9.063910    5.034464   -1.880353
     32          6           0       10.538424    3.050294    1.106475
     33          6           0       10.231190    2.196941    2.320854
     34          7           0        6.787502   -0.552518    0.149910
     35          6           0        8.138121   -0.680881   -0.062993
     36          6           0        8.540834   -2.042609   -0.149074
     37          6           0        7.300459   -2.764347    0.035396
     38          6           0        6.284586   -1.805749    0.126065
     39          6           0        9.924145   -2.503461   -0.546888
     40          6           0        6.713182   -4.056061    0.172804
     41          8           0        7.263639   -5.152900    0.236225
     42          6           0        5.172257   -3.856499    0.190209
     43          6           0        4.647464   -4.656261   -0.897523
     44          8           0        4.750508   -4.390378   -2.083149
     45          8           0        3.983399   -5.767967   -0.406449
     46          6           0        3.525331   -6.716833   -1.421309
     47          6           0       -2.311407   -3.816981   -0.568074
     48          6           0       -3.687296   -3.187504   -0.408983
     49          6           0       -4.865314   -3.706148   -0.154894
     50          6           0       -5.353418   -5.154125    0.190343
     51          6           0       -6.063091   -2.781653   -0.074382
     52          6           0       -6.197075   -2.024203    1.233483
     53          6           0       -6.839369   -0.650912    1.046849
     54          6           0       -8.382863   -0.603660    1.124172
     55          6           0       -8.891803   -0.803815    2.579486
     56          6           0       -9.048944    0.605016    0.531704
     57          6           0      -10.128771    0.284912   -0.510659
     58          6           0      -11.403243   -0.090256    0.237095
     59          6           0      -12.480361    0.921413    0.073043
     60          6           0      -13.047396    1.279051    1.480947
     61          6           0      -13.565088    0.531025   -0.999819
     62          6           0      -14.493149    1.703850   -1.309875
     63          6           0      -15.961752    1.418467   -0.864949
     64          6           0      -16.884169    2.658679   -0.803976
     65          6           0      -17.217176    3.186849    0.614441
     66          6           0      -18.052062    2.482591   -1.769237
     67          1           0        1.163429    1.764295    0.306182
     68          1           0        6.438114    5.429646   -0.465152
     69          1           0       10.008759    0.198082   -0.117978
     70          1           0        2.241287   -2.894425   -0.780841
     71          1           0        0.776324   -0.712807    0.773996
     72          1           0        0.803685   -1.473732   -2.035605
     73          1           0        0.710950    0.269651   -1.830472
     74          1           0       -0.514551   -0.780108   -0.959614
     75          1           0        2.437819   -2.300752    2.245447
     76          1           0        2.631218   -3.796630    1.208803
     77          1           0        0.200416   -2.338808    2.042145
     78          1           0        0.642028   -4.015566    2.338619
     79          1           0        0.401751    3.728368    0.657611
     80          1           0        0.517728    4.993283   -0.491319
     81          1           0        0.922828    5.225939    1.225789
     82          1           0        1.961551    7.140175    0.859554
     83          1           0        2.091955    7.286730   -0.898120
     84          1           0        2.820268    8.502727    0.085782
     85          1           0        8.862521    4.879654    0.326642
     86          1           0       10.308487    2.774594   -1.106315
     87          1           0        8.263450    4.979592   -2.618692
     88          1           0        9.937418    4.600111   -2.366769
     89          1           0        9.359014    6.062063   -1.668817
     90          1           0       10.597294    4.079214    1.462331
     91          1           0       11.594629    2.885570    0.896201
     92          1           0        9.248262    1.756239    2.155461
     93          1           0       10.262993    2.759954    3.253675
     94          1           0       11.069740    1.503116    2.376604
     95          1           0       10.671456   -1.814216   -0.153913
     96          1           0        9.887679   -2.608703   -1.631315
     97          1           0       10.044937   -3.472699   -0.063358
     98          1           0        4.811879   -4.107103    1.188360
     99          1           0        4.275690   -6.974967   -2.168543
    100          1           0        2.662499   -6.368854   -1.989781
    101          1           0        3.135897   -7.592298   -0.900286
    102          1           0       -2.395203   -4.900601   -0.649874
    103          1           0       -1.988453   -3.416882   -1.529165
    104          1           0       -3.701375   -2.099226   -0.463537
    105          1           0       -5.921846   -5.589841   -0.631045
    106          1           0       -5.791777   -5.317462    1.174911
    107          1           0       -4.447581   -5.757524    0.262875
    108          1           0       -7.016066   -3.308921   -0.119991
    109          1           0       -6.115787   -2.202657   -0.995693
    110          1           0       -5.267021   -1.829270    1.765950
    111          1           0       -6.938079   -2.592445    1.795525
    112          1           0       -6.597607   -0.383401    0.018398
    113          1           0       -6.304256   -0.001999    1.740202
    114          1           0       -8.773743   -1.523562    0.689847
    115          1           0       -8.033233   -0.819470    3.250155
    116          1           0       -9.491508   -1.709709    2.668766
    117          1           0       -9.485252    0.009337    2.997584
    118          1           0       -8.314502    1.106058   -0.100103
    119          1           0       -9.369438    1.371401    1.237033
    120          1           0       -9.856620   -0.636205   -1.026118
    121          1           0      -10.335549    1.096219   -1.208708
    122          1           0      -11.211044   -0.356891    1.276788
    123          1           0      -11.874451   -1.023035   -0.071601
    124          1           0      -12.033698    1.850829   -0.278841
    125          1           0      -12.365318    2.072617    1.784072
    126          1           0      -13.103722    0.468053    2.207933
    127          1           0      -14.020536    1.755163    1.363168
    128          1           0      -14.208695   -0.311766   -0.747225
    129          1           0      -13.033647    0.132922   -1.864785
    130          1           0      -14.355256    2.065528   -2.329387
    131          1           0      -14.082299    2.512156   -0.704515
    132          1           0      -15.747840    1.046979    0.136583
    133          1           0      -16.292781    0.674118   -1.588417
    134          1           0      -16.323897    3.459318   -1.287527
    135          1           0      -16.569802    4.060350    0.686677
    136          1           0      -16.939649    2.421819    1.339896
    137          1           0      -18.256285    3.459319    0.796924
    138          1           0      -19.005426    2.462746   -1.240562
    139          1           0      -18.126967    1.486042   -2.204949
    140          1           0      -18.040699    3.260735   -2.532734
 ---------------------------------------------------------------------
 Rotational constants (GHZ):           0.0447792           0.0086851           0.0074374
 Leave Link  202 at Wed Apr 27 02:02:07 2022, MaxMem= 10066329600 cpu:               0.2 elap:               0.0
 (Enter /sw/apps/gaussian-16.0/g16/l301.exe)
 Standard basis: def2SVP (5D, 7F)
 Ernie: Thresh=  0.10000D-02 Tol=  0.10000D-05 Strict=F.
 There are  1364 symmetry adapted cartesian basis functions of A   symmetry.
 There are  1298 symmetry adapted basis functions of A   symmetry.
  1298 basis functions,  2180 primitive gaussians,  1364 cartesian basis functions
   246 alpha electrons      246 beta electrons
       nuclear repulsion energy      9415.0110857060 Hartrees.
 IExCor=20419 DFT=T Ex+Corr=CAM-B3LYP ExCW=0 ScaHFX=  1.000000
 ScaDFX=  1.000000  1.000000  1.000000  0.810000 ScalE2=  1.000000  1.000000
 IRadAn=      5 IRanWt=     -1 IRanGd=            0 ICorTp=0 IEmpDi=  4
 HFx  wShort=  0.000000 wLong=  0.330000 cFull=  0.190000 cShort=  0.000000 cLong=  0.460000
 DFx  wShort=  0.000000 wLong=  0.330000 cFull=  0.190000 cShort=  0.000000 cLong=  0.460000
 NAtoms=  140 NActive=  140 NUniq=  140 SFac= 1.00D+00 NAtFMM=   60 NAOKFM=T Big=T
 Integral buffers will be    131072 words long.
 Raffenetti 1 integral format.
 Two-electron integral symmetry is turned on.
 Leave Link  301 at Wed Apr 27 02:02:07 2022, MaxMem= 10066329600 cpu:               1.3 elap:               0.1
 (Enter /sw/apps/gaussian-16.0/g16/l302.exe)
 NPDir=0 NMtPBC=     1 NCelOv=     1 NCel=       1 NClECP=     1 NCelD=      1
         NCelK=      1 NCelE2=     1 NClLst=     1 CellRange=     0.0.
 One-electron integrals computed using PRISM.
 One-electron integral symmetry used in STVInt
   1 Symmetry operations used in ECPInt.
 ECPInt:  NShTT=  192510 NPrTT=  683786 LenC2=   90945 LenP2D=  201243.
 LDataN:  DoStor=T MaxTD1= 4 Len=   56
 NBasis=  1298 RedAO= T EigKep=  3.30D-04  NBF=  1298
 NBsUse=  1298 1.00D-06 EigRej= -1.00D+00 NBFU=  1298
 Precomputing XC quadrature grid using
 IXCGrd= 4 IRadAn=           5 IRanWt=          -1 IRanGd=           0 AccXCQ= 0.00D+00.
 Generated NRdTot=       0 NPtTot=           0 NUsed=           0 NTot=          32
 NSgBfM=  1066  1061  1062  1066  1066 MxSgAt=   140 MxSgA2=   137.
 Leave Link  302 at Wed Apr 27 02:02:11 2022, MaxMem= 10066329600 cpu:              93.6 elap:               3.9
 (Enter /sw/apps/gaussian-16.0/g16/l303.exe)
 DipDrv:  MaxL=1.
 Leave Link  303 at Wed Apr 27 02:02:12 2022, MaxMem= 10066329600 cpu:               6.9 elap:               0.4
 (Enter /sw/apps/gaussian-16.0/g16/l308.exe)
 Leave Link  308 at Wed Apr 27 02:02:12 2022, MaxMem= 10066329600 cpu:               8.3 elap:               0.4
 (Enter /sw/apps/gaussian-16.0/g16/l401.exe)
 ExpMin= 3.36D-02 ExpMax= 4.95D+03 ExpMxC= 7.45D+02 IAcc=3 IRadAn=         5 AccDes= 0.00D+00
 Harris functional with IExCor=20419 and IRadAn=       5 diagonalized for initial guess.
 HarFok:  IExCor=20419 AccDes= 0.00D+00 IRadAn=         5 IDoV= 1 UseB2=F ITyADJ=14
 ICtDFT=  3500011 ScaDFX=  1.000000  1.000000  1.000000  1.000000
 FoFCou: FMM=F IPFlag=           0 FMFlag=      100000 FMFlg1=        2001
         NFxFlg=           0 DoJE=T BraDBF=F KetDBF=T FulRan=T
         wScrn=  0.000000 ICntrl=       500 IOpCl=  0 I1Cent=   200000004 NGrid=           0
         NMat0=    1 NMatS0=      1 NMatT0=    0 NMatD0=    1 NMtDS0=    0 NMtDT0=    0
 Petite list used in FoFCou.
 Harris En= -2890.82755032364    
 JPrj=0 DoOrth=F DoCkMO=F.
 Leave Link  401 at Wed Apr 27 02:02:18 2022, MaxMem= 10066329600 cpu:             131.8 elap:               5.5
 (Enter /sw/apps/gaussian-16.0/g16/l502.exe)
 Integral symmetry usage will be decided dynamically.
 Closed shell SCF:
 Using DIIS extrapolation, IDIIS=  1040.
 NGot= 10066329600 LenX= 10062561258 LenY= 10060699398
 Requested convergence on RMS density matrix=1.00D-08 within 128 cycles.
 Requested convergence on MAX density matrix=1.00D-06.
 Requested convergence on             energy=1.00D-06.
 No special actions if energy rises.
 Fock matrices will be formed incrementally for  20 cycles.

 Cycle   1  Pass 1  IDiag  1:
 FoFJK:  IHMeth= 1 ICntrl=       0 DoSepK=T KAlg= 0 I1Cent=           0 FoldK=F
 IRaf=         1 NMat=       1 IRICut=       1 DoRegI=T DoRafI=F ISym2E= 0 IDoP0=0 IntGTp=1.
 FoFCou: FMM=T IPFlag=           0 FMFlag=      100000 FMFlg1=        2001
         NFxFlg=           0 DoJE=T BraDBF=F KetDBF=F FulRan=T
         wScrn=  0.000000 ICntrl=       500 IOpCl=  0 I1Cent=           0 NGrid=           0
         NMat0=    1 NMatS0=      1 NMatT0=    0 NMatD0=    1 NMtDS0=    0 NMtDT0=    0
 Symmetry not used in FoFCou.
 FMM levels:  10  Number of levels for PrismC:   9
 E= -3006.49070803006    
 DIIS: error= 1.81D-02 at cycle   1 NSaved=   1.
 NSaved= 1 IEnMin= 1 EnMin= -3006.49070803006     IErMin= 1 ErrMin= 1.81D-02
 ErrMax= 1.81D-02  0.00D+00 EMaxC= 1.00D-01 BMatC= 1.25D+00 BMatP= 1.25D+00
 IDIUse=3 WtCom= 8.19D-01 WtEn= 1.81D-01
 Coeff-Com:  0.100D+01
 Coeff-En:   0.100D+01
 Coeff:      0.100D+01
 Gap=     0.119 Goal=   None    Shift=    0.000
 GapD=    0.119 DampG=1.000 DampE=0.500 DampFc=0.5000 IDamp=-1.
 Damping current iteration by 5.00D-01
 RMSDP=1.54D-03 MaxDP=1.58D-01              OVMax= 2.07D-01

 Cycle   2  Pass 1  IDiag  1:
 RMSU=  7.58D-04    CP:  9.84D-01
 E= -3006.79889392743     Delta-E=       -0.308185897369 Rises=F Damp=T
 DIIS: error= 1.05D-02 at cycle   2 NSaved=   2.
 NSaved= 2 IEnMin= 2 EnMin= -3006.79889392743     IErMin= 2 ErrMin= 1.05D-02
 ErrMax= 1.05D-02  0.00D+00 EMaxC= 1.00D-01 BMatC= 2.28D-01 BMatP= 1.25D+00
 IDIUse=3 WtCom= 8.95D-01 WtEn= 1.05D-01
 Coeff-Com: -0.249D+00 0.125D+01
 Coeff-En:   0.000D+00 0.100D+01
 Coeff:     -0.223D+00 0.122D+01
 Gap=     0.134 Goal=   None    Shift=    0.000
 RMSDP=7.02D-04 MaxDP=6.00D-02 DE=-3.08D-01 OVMax= 1.81D-01

 Cycle   3  Pass 1  IDiag  1:
 RMSU=  6.72D-04    CP:  9.73D-01  1.23D+00
 E= -3007.02773166898     Delta-E=       -0.228837741548 Rises=F Damp=F
 DIIS: error= 1.52D-02 at cycle   3 NSaved=   3.
 NSaved= 3 IEnMin= 3 EnMin= -3007.02773166898     IErMin= 2 ErrMin= 1.05D-02
 ErrMax= 1.52D-02  0.00D+00 EMaxC= 1.00D-01 BMatC= 1.34D-01 BMatP= 2.28D-01
 IDIUse=3 WtCom= 8.48D-01 WtEn= 1.52D-01
 Coeff-Com: -0.270D+00 0.650D+00 0.619D+00
 Coeff-En:   0.000D+00 0.000D+00 0.100D+01
 Coeff:     -0.229D+00 0.552D+00 0.677D+00
 Gap=     0.125 Goal=   None    Shift=    0.000
 RMSDP=4.86D-04 MaxDP=5.34D-02 DE=-2.29D-01 OVMax= 1.80D-01

 Cycle   4  Pass 1  IDiag  1:
 RMSU=  2.83D-04    CP:  9.70D-01  1.54D+00  5.25D-01
 E= -3007.11031761078     Delta-E=       -0.082585941798 Rises=F Damp=F
 DIIS: error= 7.01D-03 at cycle   4 NSaved=   4.
 NSaved= 4 IEnMin= 4 EnMin= -3007.11031761078     IErMin= 4 ErrMin= 7.01D-03
 ErrMax= 7.01D-03  0.00D+00 EMaxC= 1.00D-01 BMatC= 3.81D-02 BMatP= 1.34D-01
 IDIUse=3 WtCom= 9.30D-01 WtEn= 7.01D-02
 Coeff-Com: -0.114D+00 0.235D+00 0.418D+00 0.461D+00
 Coeff-En:   0.000D+00 0.000D+00 0.251D+00 0.749D+00
 Coeff:     -0.106D+00 0.218D+00 0.407D+00 0.481D+00
 Gap=     0.125 Goal=   None    Shift=    0.000
 RMSDP=2.08D-04 MaxDP=2.07D-02 DE=-8.26D-02 OVMax= 8.95D-02

 Cycle   5  Pass 1  IDiag  1:
 RMSU=  7.56D-05    CP:  9.70D-01  1.48D+00  7.13D-01  5.02D-01
 E= -3007.14499593717     Delta-E=       -0.034678326394 Rises=F Damp=F
 DIIS: error= 7.21D-04 at cycle   5 NSaved=   5.
 NSaved= 5 IEnMin= 5 EnMin= -3007.14499593717     IErMin= 5 ErrMin= 7.21D-04
 ErrMax= 7.21D-04  0.00D+00 EMaxC= 1.00D-01 BMatC= 9.45D-04 BMatP= 3.81D-02
 IDIUse=3 WtCom= 9.93D-01 WtEn= 7.21D-03
 Coeff-Com: -0.444D-01 0.875D-01 0.189D+00 0.254D+00 0.513D+00
 Coeff-En:   0.000D+00 0.000D+00 0.000D+00 0.000D+00 0.100D+01
 Coeff:     -0.440D-01 0.869D-01 0.188D+00 0.252D+00 0.517D+00
 Gap=     0.124 Goal=   None    Shift=    0.000
 RMSDP=4.72D-05 MaxDP=5.06D-03 DE=-3.47D-02 OVMax= 2.62D-02

 Cycle   6  Pass 1  IDiag  1:
 RMSU=  3.12D-05    CP:  9.70D-01  1.49D+00  7.00D-01  5.84D-01  6.72D-01
 E= -3007.14593538215     Delta-E=       -0.000939444981 Rises=F Damp=F
 DIIS: error= 2.93D-04 at cycle   6 NSaved=   6.
 NSaved= 6 IEnMin= 6 EnMin= -3007.14593538215     IErMin= 6 ErrMin= 2.93D-04
 ErrMax= 2.93D-04  0.00D+00 EMaxC= 1.00D-01 BMatC= 1.33D-04 BMatP= 9.45D-04
 IDIUse=3 WtCom= 9.97D-01 WtEn= 2.93D-03
 Coeff-Com:  0.147D-02-0.481D-02 0.122D-01 0.325D-01 0.286D+00 0.673D+00
 Coeff-En:   0.000D+00 0.000D+00 0.000D+00 0.000D+00 0.113D+00 0.887D+00
 Coeff:      0.146D-02-0.479D-02 0.122D-01 0.324D-01 0.286D+00 0.673D+00
 Gap=     0.125 Goal=   None    Shift=    0.000
 RMSDP=1.76D-05 MaxDP=1.49D-03 DE=-9.39D-04 OVMax= 9.40D-03

 Cycle   7  Pass 1  IDiag  1:
 RMSU=  1.10D-05    CP:  9.69D-01  1.49D+00  7.09D-01  5.76D-01  8.03D-01
                    CP:  7.60D-01
 E= -3007.14609606835     Delta-E=       -0.000160686202 Rises=F Damp=F
 DIIS: error= 1.07D-04 at cycle   7 NSaved=   7.
 NSaved= 7 IEnMin= 7 EnMin= -3007.14609606835     IErMin= 7 ErrMin= 1.07D-04
 ErrMax= 1.07D-04  0.00D+00 EMaxC= 1.00D-01 BMatC= 1.89D-05 BMatP= 1.33D-04
 IDIUse=3 WtCom= 9.99D-01 WtEn= 1.07D-03
 Coeff-Com:  0.497D-02-0.107D-01-0.109D-01-0.864D-02 0.101D+00 0.360D+00
 Coeff-Com:  0.565D+00
 Coeff-En:   0.000D+00 0.000D+00 0.000D+00 0.000D+00 0.000D+00 0.000D+00
 Coeff-En:   0.100D+01
 Coeff:      0.497D-02-0.107D-01-0.109D-01-0.863D-02 0.101D+00 0.360D+00
 Coeff:      0.565D+00
 Gap=     0.125 Goal=   None    Shift=    0.000
 RMSDP=6.27D-06 MaxDP=1.19D-03 DE=-1.61D-04 OVMax= 3.00D-03

 Cycle   8  Pass 1  IDiag  1:
 RMSU=  4.42D-06    CP:  9.69D-01  1.49D+00  7.10D-01  5.83D-01  8.04D-01
                    CP:  8.79D-01  8.60D-01
 E= -3007.14611886959     Delta-E=       -0.000022801234 Rises=F Damp=F
 DIIS: error= 3.95D-05 at cycle   8 NSaved=   8.
 NSaved= 8 IEnMin= 8 EnMin= -3007.14611886959     IErMin= 8 ErrMin= 3.95D-05
 ErrMax= 3.95D-05  0.00D+00 EMaxC= 1.00D-01 BMatC= 2.44D-06 BMatP= 1.89D-05
 IDIUse=1 WtCom= 1.00D+00 WtEn= 0.00D+00
 Coeff-Com:  0.216D-02-0.423D-02-0.782D-02-0.124D-01-0.128D-01 0.176D-01
 Coeff-Com:  0.259D+00 0.758D+00
 Coeff:      0.216D-02-0.423D-02-0.782D-02-0.124D-01-0.128D-01 0.176D-01
 Coeff:      0.259D+00 0.758D+00
 Gap=     0.125 Goal=   None    Shift=    0.000
 RMSDP=3.27D-06 MaxDP=4.35D-04 DE=-2.28D-05 OVMax= 1.44D-03

 Cycle   9  Pass 1  IDiag  1:
 RMSU=  1.96D-06    CP:  9.69D-01  1.49D+00  7.10D-01  5.84D-01  8.19D-01
                    CP:  9.12D-01  1.04D+00  1.13D+00
 E= -3007.14612400863     Delta-E=       -0.000005139040 Rises=F Damp=F
 DIIS: error= 1.75D-05 at cycle   9 NSaved=   9.
 NSaved= 9 IEnMin= 9 EnMin= -3007.14612400863     IErMin= 9 ErrMin= 1.75D-05
 ErrMax= 1.75D-05  0.00D+00 EMaxC= 1.00D-01 BMatC= 4.38D-07 BMatP= 2.44D-06
 IDIUse=1 WtCom= 1.00D+00 WtEn= 0.00D+00
 Coeff-Com:  0.302D-03-0.458D-03-0.191D-02-0.470D-02-0.180D-01-0.468D-01
 Coeff-Com:  0.460D-01 0.327D+00 0.698D+00
 Coeff:      0.302D-03-0.458D-03-0.191D-02-0.470D-02-0.180D-01-0.468D-01
 Coeff:      0.460D-01 0.327D+00 0.698D+00
 Gap=     0.125 Goal=   None    Shift=    0.000
 RMSDP=1.60D-06 MaxDP=1.38D-04 DE=-5.14D-06 OVMax= 8.46D-04

 Cycle  10  Pass 1  IDiag  1:
 RMSU=  9.58D-07    CP:  9.69D-01  1.49D+00  7.10D-01  5.84D-01  8.22D-01
                    CP:  9.24D-01  1.10D+00  1.33D+00  1.17D+00
 E= -3007.14612530282     Delta-E=       -0.000001294196 Rises=F Damp=F
 DIIS: error= 1.32D-05 at cycle  10 NSaved=  10.
 NSaved=10 IEnMin=10 EnMin= -3007.14612530282     IErMin=10 ErrMin= 1.32D-05
 ErrMax= 1.32D-05  0.00D+00 EMaxC= 1.00D-01 BMatC= 1.33D-07 BMatP= 4.38D-07
 IDIUse=1 WtCom= 1.00D+00 WtEn= 0.00D+00
 Coeff-Com: -0.626D-03 0.128D-02 0.195D-02 0.190D-02-0.272D-02-0.344D-01
 Coeff-Com: -0.633D-01-0.112D+00 0.299D+00 0.910D+00
 Coeff:     -0.626D-03 0.128D-02 0.195D-02 0.190D-02-0.272D-02-0.344D-01
 Coeff:     -0.633D-01-0.112D+00 0.299D+00 0.910D+00
 Gap=     0.125 Goal=   None    Shift=    0.000
 RMSDP=1.47D-06 MaxDP=1.61D-04 DE=-1.29D-06 OVMax= 9.46D-04

 Cycle  11  Pass 1  IDiag  1:
 RMSU=  5.10D-07    CP:  9.69D-01  1.49D+00  7.10D-01  5.84D-01  8.25D-01
                    CP:  9.35D-01  1.17D+00  1.50D+00  1.56D+00  1.37D+00
 E= -3007.14612597749     Delta-E=       -0.000000674661 Rises=F Damp=F
 DIIS: error= 6.56D-06 at cycle  11 NSaved=  11.
 NSaved=11 IEnMin=11 EnMin= -3007.14612597749     IErMin=11 ErrMin= 6.56D-06
 ErrMax= 6.56D-06  0.00D+00 EMaxC= 1.00D-01 BMatC= 4.92D-08 BMatP= 1.33D-07
 IDIUse=1 WtCom= 1.00D+00 WtEn= 0.00D+00
 Coeff-Com: -0.374D-03 0.728D-03 0.147D-02 0.207D-02 0.451D-02-0.656D-02
 Coeff-Com: -0.386D-01-0.145D+00-0.441D-01 0.492D+00 0.734D+00
 Coeff:     -0.374D-03 0.728D-03 0.147D-02 0.207D-02 0.451D-02-0.656D-02
 Coeff:     -0.386D-01-0.145D+00-0.441D-01 0.492D+00 0.734D+00
 Gap=     0.125 Goal=   None    Shift=    0.000
 RMSDP=7.49D-07 MaxDP=5.41D-05 DE=-6.75D-07 OVMax= 4.17D-04

 Cycle  12  Pass 1  IDiag  1:
 RMSU=  2.44D-07    CP:  9.69D-01  1.49D+00  7.10D-01  5.84D-01  8.26D-01
                    CP:  9.37D-01  1.19D+00  1.58D+00  1.75D+00  1.75D+00
                    CP:  1.17D+00
 E= -3007.14612615637     Delta-E=       -0.000000178887 Rises=F Damp=F
 DIIS: error= 2.83D-06 at cycle  12 NSaved=  12.
 NSaved=12 IEnMin=12 EnMin= -3007.14612615637     IErMin=12 ErrMin= 2.83D-06
 ErrMax= 2.83D-06  0.00D+00 EMaxC= 1.00D-01 BMatC= 8.34D-09 BMatP= 4.92D-08
 IDIUse=1 WtCom= 1.00D+00 WtEn= 0.00D+00
 Coeff-Com:  0.338D-05-0.213D-04 0.134D-03 0.346D-03 0.313D-02 0.491D-02
 Coeff-Com:  0.438D-02-0.303D-01-0.950D-01-0.258D-01 0.239D+00 0.899D+00
 Coeff:      0.338D-05-0.213D-04 0.134D-03 0.346D-03 0.313D-02 0.491D-02
 Coeff:      0.438D-02-0.303D-01-0.950D-01-0.258D-01 0.239D+00 0.899D+00
 Gap=     0.125 Goal=   None    Shift=    0.000
 RMSDP=3.94D-07 MaxDP=3.71D-05 DE=-1.79D-07 OVMax= 2.81D-04

 Cycle  13  Pass 1  IDiag  1:
 RMSU=  1.42D-07    CP:  9.69D-01  1.49D+00  7.10D-01  5.84D-01  8.27D-01
                    CP:  9.38D-01  1.20D+00  1.62D+00  1.85D+00  1.95D+00
                    CP:  1.49D+00  1.20D+00
 E= -3007.14612619908     Delta-E=       -0.000000042706 Rises=F Damp=F
 DIIS: error= 1.70D-06 at cycle  13 NSaved=  13.
 NSaved=13 IEnMin=13 EnMin= -3007.14612619908     IErMin=13 ErrMin= 1.70D-06
 ErrMax= 1.70D-06  0.00D+00 EMaxC= 1.00D-01 BMatC= 4.26D-09 BMatP= 8.34D-09
 IDIUse=1 WtCom= 1.00D+00 WtEn= 0.00D+00
 Coeff-Com:  0.106D-03-0.216D-03-0.324D-03-0.369D-03 0.821D-03 0.423D-02
 Coeff-Com:  0.141D-01 0.200D-01-0.466D-01-0.154D+00-0.938D-01 0.554D+00
 Coeff-Com:  0.702D+00
 Coeff:      0.106D-03-0.216D-03-0.324D-03-0.369D-03 0.821D-03 0.423D-02
 Coeff:      0.141D-01 0.200D-01-0.466D-01-0.154D+00-0.938D-01 0.554D+00
 Coeff:      0.702D+00
 Gap=     0.125 Goal=   None    Shift=    0.000
 RMSDP=2.24D-07 MaxDP=1.43D-05 DE=-4.27D-08 OVMax= 1.28D-04

 Cycle  14  Pass 1  IDiag  1:
 RMSU=  6.69D-08    CP:  9.69D-01  1.49D+00  7.10D-01  5.84D-01  8.27D-01
                    CP:  9.38D-01  1.20D+00  1.63D+00  1.89D+00  2.07D+00
                    CP:  1.63D+00  1.55D+00  9.21D-01
 E= -3007.14612621036     Delta-E=       -0.000000011278 Rises=F Damp=F
 DIIS: error= 6.14D-07 at cycle  14 NSaved=  14.
 NSaved=14 IEnMin=14 EnMin= -3007.14612621036     IErMin=14 ErrMin= 6.14D-07
 ErrMax= 6.14D-07  0.00D+00 EMaxC= 1.00D-01 BMatC= 6.39D-10 BMatP= 4.26D-09
 IDIUse=1 WtCom= 1.00D+00 WtEn= 0.00D+00
 Coeff-Com:  0.580D-04-0.115D-03-0.205D-03-0.286D-03-0.129D-03 0.878D-03
 Coeff-Com:  0.731D-02 0.172D-01-0.208D-02-0.709D-01-0.102D+00 0.126D+00
 Coeff-Com:  0.372D+00 0.651D+00
 Coeff:      0.580D-04-0.115D-03-0.205D-03-0.286D-03-0.129D-03 0.878D-03
 Coeff:      0.731D-02 0.172D-01-0.208D-02-0.709D-01-0.102D+00 0.126D+00
 Coeff:      0.372D+00 0.651D+00
 Gap=     0.125 Goal=   None    Shift=    0.000
 RMSDP=5.74D-08 MaxDP=8.62D-06 DE=-1.13D-08 OVMax= 3.25D-05

 Cycle  15  Pass 1  IDiag  1:
 RMSU=  3.14D-08    CP:  9.69D-01  1.49D+00  7.10D-01  5.84D-01  8.27D-01
                    CP:  9.38D-01  1.20D+00  1.64D+00  1.90D+00  2.09D+00
                    CP:  1.68D+00  1.62D+00  1.12D+00  9.15D-01
 E= -3007.14612621183     Delta-E=       -0.000000001477 Rises=F Damp=F
 DIIS: error= 2.10D-07 at cycle  15 NSaved=  15.
 NSaved=15 IEnMin=15 EnMin= -3007.14612621183     IErMin=15 ErrMin= 2.10D-07
 ErrMax= 2.10D-07  0.00D+00 EMaxC= 1.00D-01 BMatC= 1.19D-10 BMatP= 6.39D-10
 IDIUse=1 WtCom= 1.00D+00 WtEn= 0.00D+00
 Coeff-Com:  0.459D-05-0.801D-05-0.236D-04-0.511D-04-0.145D-03-0.510D-03
 Coeff-Com:  0.613D-03 0.251D-02 0.653D-02-0.493D-02-0.250D-01-0.436D-01
 Coeff-Com:  0.259D-01 0.278D+00 0.761D+00
 Coeff:      0.459D-05-0.801D-05-0.236D-04-0.511D-04-0.145D-03-0.510D-03
 Coeff:      0.613D-03 0.251D-02 0.653D-02-0.493D-02-0.250D-01-0.436D-01
 Coeff:      0.259D-01 0.278D+00 0.761D+00
 Gap=     0.125 Goal=   None    Shift=    0.000
 RMSDP=3.25D-08 MaxDP=2.48D-06 DE=-1.48D-09 OVMax= 1.99D-05

 Cycle  16  Pass 1  IDiag  1:
 RMSU=  1.55D-08    CP:  9.69D-01  1.49D+00  7.10D-01  5.84D-01  8.27D-01
                    CP:  9.38D-01  1.21D+00  1.64D+00  1.90D+00  2.10D+00
                    CP:  1.69D+00  1.66D+00  1.16D+00  1.10D+00  1.11D+00
 E= -3007.14612621200     Delta-E=       -0.000000000166 Rises=F Damp=F
 DIIS: error= 1.88D-07 at cycle  16 NSaved=  16.
 NSaved=16 IEnMin=16 EnMin= -3007.14612621200     IErMin=16 ErrMin= 1.88D-07
 ErrMax= 1.88D-07  0.00D+00 EMaxC= 1.00D-01 BMatC= 3.68D-11 BMatP= 1.19D-10
 IDIUse=1 WtCom= 1.00D+00 WtEn= 0.00D+00
 Coeff-Com: -0.105D-04 0.213D-04 0.343D-04 0.338D-04-0.250D-04-0.544D-03
 Coeff-Com: -0.117D-02-0.276D-02 0.471D-02 0.135D-01 0.118D-01-0.530D-01
 Coeff-Com: -0.699D-01-0.105D-01 0.395D+00 0.713D+00
 Coeff:     -0.105D-04 0.213D-04 0.343D-04 0.338D-04-0.250D-04-0.544D-03
 Coeff:     -0.117D-02-0.276D-02 0.471D-02 0.135D-01 0.118D-01-0.530D-01
 Coeff:     -0.699D-01-0.105D-01 0.395D+00 0.713D+00
 Gap=     0.125 Goal=   None    Shift=    0.000
 RMSDP=1.46D-08 MaxDP=1.15D-06 DE=-1.66D-10 OVMax= 8.13D-06

 Cycle  17  Pass 1  IDiag  1:
 RMSU=  6.99D-09    CP:  9.69D-01  1.49D+00  7.10D-01  5.84D-01  8.27D-01
                    CP:  9.38D-01  1.21D+00  1.64D+00  1.90D+00  2.10D+00
                    CP:  1.70D+00  1.67D+00  1.19D+00  1.18D+00  1.37D+00
                    CP:  1.27D+00
 E= -3007.14612621198     Delta-E=        0.000000000022 Rises=F Damp=F
 DIIS: error= 9.44D-08 at cycle  17 NSaved=  17.
 NSaved=17 IEnMin=16 EnMin= -3007.14612621200     IErMin=17 ErrMin= 9.44D-08
 ErrMax= 9.44D-08  0.00D+00 EMaxC= 1.00D-01 BMatC= 9.48D-12 BMatP= 3.68D-11
 IDIUse=1 WtCom= 1.00D+00 WtEn= 0.00D+00
 Coeff-Com: -0.600D-05 0.117D-04 0.232D-04 0.292D-04 0.573D-04-0.121D-03
 Coeff-Com: -0.569D-03-0.218D-02 0.296D-03 0.657D-02 0.135D-01-0.113D-01
 Coeff-Com: -0.336D-01-0.875D-01-0.306D-01 0.270D+00 0.876D+00
 Coeff:     -0.600D-05 0.117D-04 0.232D-04 0.292D-04 0.573D-04-0.121D-03
 Coeff:     -0.569D-03-0.218D-02 0.296D-03 0.657D-02 0.135D-01-0.113D-01
 Coeff:     -0.336D-01-0.875D-01-0.306D-01 0.270D+00 0.876D+00
 Gap=     0.125 Goal=   None    Shift=    0.000
 RMSDP=1.11D-08 MaxDP=8.14D-07 DE= 2.18D-11 OVMax= 7.37D-06

 Cycle  18  Pass 1  IDiag  1:
 RMSU=  3.78D-09    CP:  9.69D-01  1.49D+00  7.10D-01  5.84D-01  8.27D-01
                    CP:  9.38D-01  1.21D+00  1.64D+00  1.90D+00  2.10D+00
                    CP:  1.70D+00  1.68D+00  1.21D+00  1.24D+00  1.54D+00
                    CP:  1.71D+00  1.46D+00
 E= -3007.14612621205     Delta-E=       -0.000000000076 Rises=F Damp=F
 DIIS: error= 6.74D-08 at cycle  18 NSaved=  18.
 NSaved=18 IEnMin=18 EnMin= -3007.14612621205     IErMin=18 ErrMin= 6.74D-08
 ErrMax= 6.74D-08  0.00D+00 EMaxC= 1.00D-01 BMatC= 3.69D-12 BMatP= 9.48D-12
 IDIUse=1 WtCom= 1.00D+00 WtEn= 0.00D+00
 Coeff-Com:  0.135D-05-0.296D-05-0.243D-05-0.520D-06 0.496D-04 0.137D-03
 Coeff-Com:  0.274D-03 0.270D-04-0.157D-02-0.274D-02 0.184D-02 0.143D-01
 Coeff-Com:  0.150D-01-0.399D-01-0.167D+00-0.190D+00 0.409D+00 0.960D+00
 Coeff:      0.135D-05-0.296D-05-0.243D-05-0.520D-06 0.496D-04 0.137D-03
 Coeff:      0.274D-03 0.270D-04-0.157D-02-0.274D-02 0.184D-02 0.143D-01
 Coeff:      0.150D-01-0.399D-01-0.167D+00-0.190D+00 0.409D+00 0.960D+00
 Gap=     0.125 Goal=   None    Shift=    0.000
 RMSDP=9.49D-09 MaxDP=7.29D-07 DE=-7.64D-11 OVMax= 6.04D-06

 SCF Done:  E(RCAM-B3LYP) =  -3007.14612621     A.U. after   18 cycles
            NFock= 18  Conv=0.95D-08     -V/T= 2.0105
 KE= 2.975901672164D+03 PE=-2.582219400171D+04 EE= 1.042413511763D+04
 Leave Link  502 at Wed Apr 27 02:08:56 2022, MaxMem= 10066329600 cpu:            9155.8 elap:             398.2
 (Enter /sw/apps/gaussian-16.0/g16/l801.exe)
 DoSCS=F DFT=T ScalE2(SS,OS)=  1.000000  1.000000
 ExpMin= 3.36D-02 ExpMax= 4.95D+03 ExpMxC= 7.45D+02 IAcc=3 IRadAn=         5 AccDes= 0.00D+00
 HarFok:  IExCor=  205 AccDes= 0.00D+00 IRadAn=         5 IDoV=-2 UseB2=F ITyADJ=14
 ICtDFT= 12500011 ScaDFX=  1.000000  1.000000  1.000000  1.000000
 GSVD:  LWork=       -5460 too small for GESVD, short by       25550 words or       25550 for optimal perf.
 Largest valence mixing into a core orbital is  1.95D-04
 Largest core mixing into a valence orbital is  5.18D-05
 Range of M.O.s used for correlation:    71  1298
 NBasis=  1298 NAE=   246 NBE=   246 NFC=    70 NFV=     0
 NROrb=   1228 NOA=   176 NOB=   176 NVA=  1052 NVB=  1052
 Leave Link  801 at Wed Apr 27 02:08:56 2022, MaxMem= 10066329600 cpu:               7.8 elap:               0.4
 (Enter /sw/apps/gaussian-16.0/g16/l914.exe)
 RHF ground state
 Two-electron integrals replicated using symmetry.
 MDV= 10066329600 DFT=T DoStab=F Mixed=T DoRPA=T DoScal=F NonHer=T
 Making orbital integer symmetry assigments:
 Orbital symmetries:
       Occupied  (A) (A) (A) (A) (A) (A) (A) (A) (A) (A) (A) (A)
                 (A) (A) (A) (A) (A) (A) (A) (A) (A) (A) (A) (A)
                 (A) (A) (A) (A) (A) (A) (A) (A) (A) (A) (A) (A)
                 (A) (A) (A) (A) (A) (A) (A) (A) (A) (A) (A) (A)
                 (A) (A) (A) (A) (A) (A) (A) (A) (A) (A) (A) (A)
                 (A) (A) (A) (A) (A) (A) (A) (A) (A) (A) (A) (A)
                 (A) (A) (A) (A) (A) (A) (A) (A) (A) (A) (A) (A)
                 (A) (A) (A) (A) (A) (A) (A) (A) (A) (A) (A) (A)
                 (A) (A) (A) (A) (A) (A) (A) (A) (A) (A) (A) (A)
                 (A) (A) (A) (A) (A) (A) (A) (A) (A) (A) (A) (A)
                 (A) (A) (A) (A) (A) (A) (A) (A) (A) (A) (A) (A)
                 (A) (A) (A) (A) (A) (A) (A) (A) (A) (A) (A) (A)
                 (A) (A) (A) (A) (A) (A) (A) (A) (A) (A) (A) (A)
                 (A) (A) (A) (A) (A) (A) (A) (A) (A) (A) (A) (A)
                 (A) (A) (A) (A) (A) (A) (A) (A) (A) (A) (A) (A)
                 (A) (A) (A) (A) (A) (A) (A) (A) (A) (A) (A) (A)
                 (A) (A) (A) (A) (A) (A) (A) (A) (A) (A) (A) (A)
                 (A) (A) (A) (A) (A) (A) (A) (A) (A) (A) (A) (A)
                 (A) (A) (A) (A) (A) (A) (A) (A) (A) (A) (A) (A)
                 (A) (A) (A) (A) (A) (A) (A) (A) (A) (A) (A) (A)
                 (A) (A) (A) (A) (A) (A)
       Virtual   (A) (A) (A) (A) (A) (A) (A) (A) (A) (A) (A) (A)
                 (A) (A) (A) (A) (A) (A) (A) (A) (A) (A) (A) (A)
                 (A) (A) (A) (A) (A) (A) (A) (A) (A) (A) (A) (A)
                 (A) (A) (A) (A) (A) (A) (A) (A) (A) (A) (A) (A)
                 (A) (A) (A) (A) (A) (A) (A) (A) (A) (A) (A) (A)
                 (A) (A) (A) (A) (A) (A) (A) (A) (A) (A) (A) (A)
                 (A) (A) (A) (A) (A) (A) (A) (A) (A) (A) (A) (A)
                 (A) (A) (A) (A) (A) (A) (A) (A) (A) (A) (A) (A)
                 (A) (A) (A) (A) (A) (A) (A) (A) (A) (A) (A) (A)
                 (A) (A) (A) (A) (A) (A) (A) (A) (A) (A) (A) (A)
                 (A) (A) (A) (A) (A) (A) (A) (A) (A) (A) (A) (A)
                 (A) (A) (A) (A) (A) (A) (A) (A) (A) (A) (A) (A)
                 (A) (A) (A) (A) (A) (A) (A) (A) (A) (A) (A) (A)
                 (A) (A) (A) (A) (A) (A) (A) (A) (A) (A) (A) (A)
                 (A) (A) (A) (A) (A) (A) (A) (A) (A) (A) (A) (A)
                 (A) (A) (A) (A) (A) (A) (A) (A) (A) (A) (A) (A)
                 (A) (A) (A) (A) (A) (A) (A) (A) (A) (A) (A) (A)
                 (A) (A) (A) (A) (A) (A) (A) (A) (A) (A) (A) (A)
                 (A) (A) (A) (A) (A) (A) (A) (A) (A) (A) (A) (A)
                 (A) (A) (A) (A) (A) (A) (A) (A) (A) (A) (A) (A)
                 (A) (A) (A) (A) (A) (A) (A) (A) (A) (A) (A) (A)
                 (A) (A) (A) (A) (A) (A) (A) (A) (A) (A) (A) (A)
                 (A) (A) (A) (A) (A) (A) (A) (A) (A) (A) (A) (A)
                 (A) (A) (A) (A) (A) (A) (A) (A) (A) (A) (A) (A)
                 (A) (A) (A) (A) (A) (A) (A) (A) (A) (A) (A) (A)
                 (A) (A) (A) (A) (A) (A) (A) (A) (A) (A) (A) (A)
                 (A) (A) (A) (A) (A) (A) (A) (A) (A) (A) (A) (A)
                 (A) (A) (A) (A) (A) (A) (A) (A) (A) (A) (A) (A)
                 (A) (A) (A) (A) (A) (A) (A) (A) (A) (A) (A) (A)
                 (A) (A) (A) (A) (A) (A) (A) (A) (A) (A) (A) (A)
                 (A) (A) (A) (A) (A) (A) (A) (A) (A) (A) (A) (A)
                 (A) (A) (A) (A) (A) (A) (A) (A) (A) (A) (A) (A)
                 (A) (A) (A) (A) (A) (A) (A) (A) (A) (A) (A) (A)
                 (A) (A) (A) (A) (A) (A) (A) (A) (A) (A) (A) (A)
                 (A) (A) (A) (A) (A) (A) (A) (A) (A) (A) (A) (A)
                 (A) (A) (A) (A) (A) (A) (A) (A) (A) (A) (A) (A)
                 (A) (A) (A) (A) (A) (A) (A) (A) (A) (A) (A) (A)
                 (A) (A) (A) (A) (A) (A) (A) (A) (A) (A) (A) (A)
                 (A) (A) (A) (A) (A) (A) (A) (A) (A) (A) (A) (A)
                 (A) (A) (A) (A) (A) (A) (A) (A) (A) (A) (A) (A)
                 (A) (A) (A) (A) (A) (A) (A) (A) (A) (A) (A) (A)
                 (A) (A) (A) (A) (A) (A) (A) (A) (A) (A) (A) (A)
                 (A) (A) (A) (A) (A) (A) (A) (A) (A) (A) (A) (A)
                 (A) (A) (A) (A) (A) (A) (A) (A) (A) (A) (A) (A)
                 (A) (A) (A) (A) (A) (A) (A) (A) (A) (A) (A) (A)
                 (A) (A) (A) (A) (A) (A) (A) (A) (A) (A) (A) (A)
                 (A) (A) (A) (A) (A) (A) (A) (A) (A) (A) (A) (A)
                 (A) (A) (A) (A) (A) (A) (A) (A) (A) (A) (A) (A)
                 (A) (A) (A) (A) (A) (A) (A) (A) (A) (A) (A) (A)
                 (A) (A) (A) (A) (A) (A) (A) (A) (A) (A) (A) (A)
                 (A) (A) (A) (A) (A) (A) (A) (A) (A) (A) (A) (A)
                 (A) (A) (A) (A) (A) (A) (A) (A) (A) (A) (A) (A)
                 (A) (A) (A) (A) (A) (A) (A) (A) (A) (A) (A) (A)
                 (A) (A) (A) (A) (A) (A) (A) (A) (A) (A) (A) (A)
                 (A) (A) (A) (A) (A) (A) (A) (A) (A) (A) (A) (A)
                 (A) (A) (A) (A) (A) (A) (A) (A) (A) (A) (A) (A)
                 (A) (A) (A) (A) (A) (A) (A) (A) (A) (A) (A) (A)
                 (A) (A) (A) (A) (A) (A) (A) (A) (A) (A) (A) (A)
                 (A) (A) (A) (A) (A) (A) (A) (A) (A) (A) (A) (A)
                 (A) (A) (A) (A) (A) (A) (A) (A) (A) (A) (A) (A)
                 (A) (A) (A) (A) (A) (A) (A) (A) (A) (A) (A) (A)
                 (A) (A) (A) (A) (A) (A) (A) (A) (A) (A) (A) (A)
                 (A) (A) (A) (A) (A) (A) (A) (A) (A) (A) (A) (A)
                 (A) (A) (A) (A) (A) (A) (A) (A) (A) (A) (A) (A)
                 (A) (A) (A) (A) (A) (A) (A) (A) (A) (A) (A) (A)
                 (A) (A) (A) (A) (A) (A) (A) (A) (A) (A) (A) (A)
                 (A) (A) (A) (A) (A) (A) (A) (A) (A) (A) (A) (A)
                 (A) (A) (A) (A) (A) (A) (A) (A) (A) (A) (A) (A)
                 (A) (A) (A) (A) (A) (A) (A) (A) (A) (A) (A) (A)
                 (A) (A) (A) (A) (A) (A) (A) (A) (A) (A) (A) (A)
                 (A) (A) (A) (A) (A) (A) (A) (A) (A) (A) (A) (A)
                 (A) (A) (A) (A) (A) (A) (A) (A) (A) (A) (A) (A)
                 (A) (A) (A) (A) (A) (A) (A) (A) (A) (A) (A) (A)
                 (A) (A) (A) (A) (A) (A) (A) (A) (A) (A) (A) (A)
                 (A) (A) (A) (A) (A) (A) (A) (A) (A) (A) (A) (A)
                 (A) (A) (A) (A) (A) (A) (A) (A) (A) (A) (A) (A)
                 (A) (A) (A) (A) (A) (A) (A) (A) (A) (A) (A) (A)
                 (A) (A) (A) (A) (A) (A) (A) (A) (A) (A) (A) (A)
                 (A) (A) (A) (A) (A) (A) (A) (A) (A) (A) (A) (A)
                 (A) (A) (A) (A) (A) (A) (A) (A) (A) (A) (A) (A)
                 (A) (A) (A) (A) (A) (A) (A) (A) (A) (A) (A) (A)
                 (A) (A) (A) (A) (A) (A) (A) (A) (A) (A) (A) (A)
                 (A) (A) (A) (A) (A) (A) (A) (A) (A) (A) (A) (A)
                 (A) (A) (A) (A) (A) (A) (A) (A) (A) (A) (A) (A)
                 (A) (A) (A) (A) (A) (A) (A) (A) (A) (A) (A) (A)
                 (A) (A) (A) (A) (A) (A) (A) (A) (A) (A) (A) (A)
                 (A) (A) (A) (A) (A) (A) (A) (A) (A) (A) (A) (A)
                 (A) (A) (A) (A) (A) (A) (A) (A)
    20 initial guesses have been made.
 Convergence on wavefunction:    0.001000000000000
 Davidson Disk Diagonalization:  ConvIn= 1.00D-03 SkipCon=T Conv= 1.00D-03.
 Max sub-space:  2000 roots to seek:    20 dimension of matrix:       370304
 Iteration     1 Dimension    20 NMult     0 NNew     20
 CISAX will form    20 AO SS matrices at one time.
 NMat=    20 NSing=    20 JSym2X= 0.
 FoFJK:  IHMeth= 1 ICntrl=       0 DoSepK=T KAlg= 0 I1Cent=           0 FoldK=F
 IRaf=         1 NMat=      40 IRICut=       1 DoRegI=T DoRafI=F ISym2E= 0 IDoP0=3 IntGTp=3.
 FoFCou: FMM=T IPFlag=           0 FMFlag=      100000 FMFlg1=        2001
         NFxFlg=           0 DoJE=F BraDBF=F KetDBF=F FulRan=T
         wScrn=  0.000000 ICntrl=       500 IOpCl=  0 I1Cent=           0 NGrid=           0
         NMat0=   20 NMatS0=     20 NMatT0=    0 NMatD0=   20 NMtDS0=    0 NMtDT0=    0
 Symmetry not used in FoFCou.
 FMM levels:  10  Number of levels for PrismC:   9
 New state      4 was old state     12
 Excitation Energies [eV] at current iteration:
 Root      1 :     2.251092832240278
 Root      2 :     2.617623602583801
 Root      3 :     3.529151860540672
 Root      4 :     3.910836375457474
 Root      5 :     3.915880325748955
 Root      6 :     4.069220656605205
 Root      7 :     4.099993582796515
 Root      8 :     4.261823991740783
 Root      9 :     4.329262601466158
 Root     10 :     4.389573000813419
 Root     11 :     4.602112164312597
 Root     12 :     4.716454412363849
 Root     13 :     4.751659305359811
 Root     14 :     4.945510201693378
 Root     15 :     5.085461660755917
 Root     16 :     5.137140214643592
 Root     17 :     5.179803058546422
 Root     18 :     5.276950618383748
 Root     19 :     6.298673949219708
 Root     20 :     6.481191451128010
 Iteration     2 Dimension    30 NMult    20 NNew     10
 CISAX will form    10 AO SS matrices at one time.
 NMat=    10 NSing=    10 JSym2X= 0.
 Root      1 not converged, maximum delta is    0.072467813146976
 Root      2 not converged, maximum delta is    0.070541012760707
 Root      3 not converged, maximum delta is    0.041003285009471
 New state      4 was old state      5
 Root      4 not converged, maximum delta is    0.144717875197997
 New state      5 was old state      4
 Root      5 not converged, maximum delta is    0.173044759443996
 Excitation Energies [eV] at current iteration:
 Root      1 :     1.779843196098127   Change is   -0.471249636142151
 Root      2 :     2.182569457937159   Change is   -0.435054144646642
 Root      3 :     3.202843973529693   Change is   -0.326307887010980
 Root      4 :     3.583497295159261   Change is   -0.332383030589694
 Root      5 :     3.803331689822897   Change is   -0.107504685634576
 Iteration     3 Dimension    40 NMult    30 NNew     10
 CISAX will form    10 AO SS matrices at one time.
 NMat=    10 NSing=    10 JSym2X= 0.
 Root      1 not converged, maximum delta is    0.020177975701937
 Root      2 not converged, maximum delta is    0.013412291280029
 Root      3 not converged, maximum delta is    0.020716169105246
 Root      4 not converged, maximum delta is    0.094764502370008
 Root      5 not converged, maximum delta is    0.229022674177693
 Excitation Energies [eV] at current iteration:
 Root      1 :     1.741002841467767   Change is   -0.038840354630360
 Root      2 :     2.157583147155754   Change is   -0.024986310781405
 Root      3 :     3.186074021057666   Change is   -0.016769952472026
 Root      4 :     3.476355016732331   Change is   -0.107142278426930
 Root      5 :     3.701877126686017   Change is   -0.101454563136880
 Iteration     4 Dimension    50 NMult    40 NNew     10
 CISAX will form    10 AO SS matrices at one time.
 NMat=    10 NSing=    10 JSym2X= 0.
 Root      1 not converged, maximum delta is    0.003644844033862
 Root      2 not converged, maximum delta is    0.002624990949081
 Root      3 not converged, maximum delta is    0.006747557726684
 Root      4 not converged, maximum delta is    0.019050930610842
 Root      5 not converged, maximum delta is    0.062524699309609
 Excitation Energies [eV] at current iteration:
 Root      1 :     1.736342635011108   Change is   -0.004660206456660
 Root      2 :     2.154508241447247   Change is   -0.003074905708507
 Root      3 :     3.182956963151557   Change is   -0.003117057906109
 Root      4 :     3.464355790079306   Change is   -0.011999226653025
 Root      5 :     3.678514959191983   Change is   -0.023362167494034
 Iteration     5 Dimension    60 NMult    50 NNew     10
 CISAX will form    10 AO SS matrices at one time.
 NMat=    10 NSing=    10 JSym2X= 0.
 Root      1 not converged, maximum delta is    0.001116379733518
 Root      2 not converged, maximum delta is    0.001028048787528
 Root      3 not converged, maximum delta is    0.001906151044776
 Root      4 not converged, maximum delta is    0.003693420719030
 Root      5 not converged, maximum delta is    0.047926004060891
 Excitation Energies [eV] at current iteration:
 Root      1 :     1.735919154697580   Change is   -0.000423480313528
 Root      2 :     2.154262465019008   Change is   -0.000245776428239
 Root      3 :     3.182658721787352   Change is   -0.000298241364205
 Root      4 :     3.463108422212030   Change is   -0.001247367867276
 Root      5 :     3.669632047118381   Change is   -0.008882912073602
 Iteration     6 Dimension    70 NMult    60 NNew     10
 CISAX will form    10 AO SS matrices at one time.
 NMat=    10 NSing=    10 JSym2X= 0.
 Root      1 has converged.
 Root      2 has converged.
 Root      3 has converged.
 Root      4 not converged, maximum delta is    0.001922930297773
 Root      5 not converged, maximum delta is    0.259629969695301
 Excitation Energies [eV] at current iteration:
 Root      1 :     1.735883023935258   Change is   -0.000036130762322
 Root      2 :     2.154241270387198   Change is   -0.000021194631810
 Root      3 :     3.182622167243031   Change is   -0.000036554544321
 Root      4 :     3.462948158668434   Change is   -0.000160263543596
 Root      5 :     3.624304792437770   Change is   -0.045327254680611
 Iteration     7 Dimension    74 NMult    70 NNew      4
 CISAX will form     4 AO SS matrices at one time.
 NMat=     4 NSing=     4 JSym2X= 0.
 Root      1 has converged.
 Root      2 has converged.
 Root      3 has converged.
 Root      4 not converged, maximum delta is    0.003419115521986
 Root      5 not converged, maximum delta is    0.180109451967358
 Excitation Energies [eV] at current iteration:
 Root      1 :     1.735882989487514   Change is   -0.000000034447744
 Root      2 :     2.154241140947983   Change is   -0.000000129439215
 Root      3 :     3.182621172278107   Change is   -0.000000994964924
 Root      4 :     3.462925845130706   Change is   -0.000022313537728
 Root      5 :     3.532961142613994   Change is   -0.091343649823776
 Iteration     8 Dimension    78 NMult    74 NNew      4
 CISAX will form     4 AO SS matrices at one time.
 NMat=     4 NSing=     4 JSym2X= 0.
 Root      1 has converged.
 Root      2 has converged.
 Root      3 has converged.
 Root      4 not converged, maximum delta is    0.001464241657151
 Root      5 not converged, maximum delta is    0.032214794565753
 Excitation Energies [eV] at current iteration:
 Root      1 :     1.735882963562933   Change is   -0.000000025924581
 Root      2 :     2.154241118779396   Change is   -0.000000022168588
 Root      3 :     3.182620823029274   Change is   -0.000000349248834
 Root      4 :     3.462920169736052   Change is   -0.000005675394654
 Root      5 :     3.516815762944915   Change is   -0.016145379669078
 Iteration     9 Dimension    82 NMult    78 NNew      4
 CISAX will form     4 AO SS matrices at one time.
 NMat=     4 NSing=     4 JSym2X= 0.
 Root      1 has converged.
 Root      2 has converged.
 Root      3 has converged.
 Root      4 has converged.
 Root      5 not converged, maximum delta is    0.009859112375598
 Excitation Energies [eV] at current iteration:
 Root      1 :     1.735882952446885   Change is   -0.000000011116049
 Root      2 :     2.154240925365990   Change is   -0.000000193413406
 Root      3 :     3.182620718747528   Change is   -0.000000104281746
 Root      4 :     3.462919339693026   Change is   -0.000000830043026
 Root      5 :     3.514503134858607   Change is   -0.002312628086309
 Iteration    10 Dimension    84 NMult    82 NNew      2
 CISAX will form     2 AO SS matrices at one time.
 NMat=     2 NSing=     2 JSym2X= 0.
 Root      1 has converged.
 Root      2 has converged.
 Root      3 has converged.
 Root      4 has converged.
 Root      5 not converged, maximum delta is    0.003187657037316
 Excitation Energies [eV] at current iteration:
 Root      1 :     1.735882927315546   Change is   -0.000000025131339
 Root      2 :     2.154240843854026   Change is   -0.000000081511964
 Root      3 :     3.182620683237397   Change is   -0.000000035510130
 Root      4 :     3.462919237209011   Change is   -0.000000102484016
 Root      5 :     3.514163088467611   Change is   -0.000340046390996
 Iteration    11 Dimension    86 NMult    84 NNew      2
 CISAX will form     2 AO SS matrices at one time.
 NMat=     2 NSing=     2 JSym2X= 0.
 Root      1 has converged.
 Root      2 has converged.
 Root      3 has converged.
 Root      4 has converged.
 Root      5 has converged.
 Excitation Energies [eV] at current iteration:
 Root      1 :     1.735882799205004   Change is   -0.000000128110542
 Root      2 :     2.154240837728457   Change is   -0.000000006125569
 Root      3 :     3.182620660752137   Change is   -0.000000022485260
 Root      4 :     3.462919223765573   Change is   -0.000000013443438
 Root      5 :     3.514114940226560   Change is   -0.000048148241050
 Convergence achieved on expansion vectors.
 ***********************************************************************
 Excited states from <AA,BB:AA,BB> singles matrix:
 ***********************************************************************
 
 1PDM for each excited state written to RWF  633
 Ground to excited state transition densities written to RWF  633
 Ground to excited state transition electric dipole moments (Au):
       state          X           Y           Z        Dip. S.      Osc.
         1         1.8918     -2.4455      0.0257      9.5601      0.4066
         2         1.3168      1.4107     -0.0653      3.7285      0.1968
         3        -0.2994     -0.2650      0.0787      0.1660      0.0129
         4         0.0913      0.1286      0.0108      0.0250      0.0021
         5         0.0665      0.0570      0.0252      0.0083      0.0007
 Ground to excited state transition velocity dipole moments (Au):
       state          X           Y           Z        Dip. S.      Osc.
         1        -0.1168      0.1520     -0.0025      0.0368      0.3841
         2        -0.0984     -0.1065      0.0062      0.0211      0.1773
         3         0.0365      0.0312     -0.0073      0.0024      0.0135
         4        -0.0103     -0.0170      0.0016      0.0004      0.0021
         5        -0.0095     -0.0073     -0.0019      0.0001      0.0008
 Ground to excited state transition magnetic dipole moments (Au):
       state          X           Y           Z
         1         0.0271      0.0720      2.1227
         2         0.0929     -0.0907     -0.7111
         3         0.1371     -0.0377      1.0999
         4         0.2367     -0.6525     -0.3231
         5        -0.5901     -0.4231     -0.1540
 Ground to excited state transition velocity quadrupole moments (Au):
       state          XX          YY          ZZ          XY          XZ          YZ
         1        -2.4496      0.6575     -0.0151      1.3356     -0.0451     -0.0440
         2        -1.8909     -0.3164     -0.0031     -1.1046      0.0592      0.0440
         3         0.9828     -0.2888      0.0098      0.2004     -0.1529      0.0206
         4        -0.2869      0.1589     -0.0032     -0.1017      0.0691      0.0217
         5        -0.1655      0.0564     -0.0065     -0.1974     -0.0057     -0.0359
 <0|del|b> * <b|rxdel|0> + <0|del|b> * <b|delr+rdel|0>
 Rotatory Strengths (R) in cgs (10**-40 erg-esu-cm/Gauss)
       state          XX          YY          ZZ    R(velocity)    E-M Angle
         1        51.1526      0.0911    -23.3647      9.2930       89.65
         2        21.3845    -49.3814     -6.5428    -11.5132       92.11
         3       -17.9305     -2.5127     -5.1336     -8.5256       94.50
         4        32.2215     -8.3905     21.3948     15.0753       57.82
         5        10.1718     16.0200     22.9848     16.3922        3.73
 1/2[<0|r|b>*<b|rxdel|0> + (<0|rxdel|b>*<b|r|0>)*]
 Rotatory Strengths (R) in cgs (10**-40 erg-esu-cm/Gauss)
       state          XX          YY          ZZ     R(length)
         1       -36.3156    124.4944    -38.5527     16.5421
         2       -86.5390     90.4405    -32.8345     -9.6443
         3        29.0236     -7.0572    -61.2326    -13.0887
         4       -15.2868     59.3326      2.4651     15.5036
         5        27.7499     17.0453      2.7451     15.8468
  1/2[<0|del|b>*<b|r|0> + (<0|r|b>*<b|del|0>)*] (Au)
       state          X           Y           Z        Dip. S.   Osc.(frdel)
         1        -0.2210     -0.3716     -0.0001      0.5927      0.3952
         2        -0.1296     -0.1502     -0.0004      0.2802      0.1868
         3        -0.0109     -0.0083     -0.0006      0.0198      0.0132
[...]
 Alpha virt. eigenvalues --    1.20669   1.20898   1.21222   1.21637   1.22365
 Alpha virt. eigenvalues --    1.22942   1.23278   1.23440   1.23803   1.24705
 Alpha virt. eigenvalues --    1.24897   1.25041   1.25072   1.25853   1.26215
 Alpha virt. eigenvalues --    1.26845   1.27265   1.27563   1.28387   1.28895
 Alpha virt. eigenvalues --    1.29060   1.29154   1.29440   1.30227   1.30816
 Alpha virt. eigenvalues --    1.32293   1.32462   1.32955   1.33595   1.33754
 Alpha virt. eigenvalues --    1.34109   1.34876   1.35256   1.35385   1.35524
 Alpha virt. eigenvalues --    1.35792   1.36495   1.37377   1.37508   1.37637
 Alpha virt. eigenvalues --    1.38094   1.38255   1.38699   1.38958   1.39990
 Alpha virt. eigenvalues --    1.40808   1.40985   1.41063   1.41166   1.41458
 Alpha virt. eigenvalues --    1.41589   1.42197   1.42692   1.42972   1.43180
 Alpha virt. eigenvalues --    1.43718   1.44216   1.44753   1.45592   1.46109
 Alpha virt. eigenvalues --    1.46393   1.46593   1.47141   1.47195   1.48063
 Alpha virt. eigenvalues --    1.48461   1.48885   1.48953   1.49383   1.49648
 Alpha virt. eigenvalues --    1.50436   1.51126   1.51696   1.51949   1.52075
 Alpha virt. eigenvalues --    1.52397   1.52813   1.53614   1.53732   1.55069
 Alpha virt. eigenvalues --    1.55248   1.55708   1.56085   1.56379   1.57403
 Alpha virt. eigenvalues --    1.57670   1.57964   1.58453   1.58625   1.58916
 Alpha virt. eigenvalues --    1.59144   1.59405   1.59546   1.60081   1.60435
 Alpha virt. eigenvalues --    1.60460   1.60593   1.60870   1.61349   1.61540
 Alpha virt. eigenvalues --    1.61567   1.61660   1.61880   1.62031   1.62746
 Alpha virt. eigenvalues --    1.62832   1.62859   1.63126   1.63316   1.63528
 Alpha virt. eigenvalues --    1.63775   1.64356   1.64711   1.64927   1.65406
 Alpha virt. eigenvalues --    1.65430   1.65879   1.65974   1.66453   1.66924
 Alpha virt. eigenvalues --    1.67123   1.67672   1.67851   1.67981   1.68762
 Alpha virt. eigenvalues --    1.69821   1.70133   1.70808   1.71521   1.71712
 Alpha virt. eigenvalues --    1.72271   1.72771   1.73269   1.73566   1.74465
 Alpha virt. eigenvalues --    1.74907   1.75247   1.75337   1.75602   1.75869
 Alpha virt. eigenvalues --    1.76328   1.76468   1.76601   1.76728   1.77054
 Alpha virt. eigenvalues --    1.77247   1.77539   1.77768   1.78261   1.78426
 Alpha virt. eigenvalues --    1.78790   1.78998   1.79270   1.79509   1.79799
 Alpha virt. eigenvalues --    1.79984   1.80729   1.80771   1.81132   1.81269
 Alpha virt. eigenvalues --    1.81308   1.82004   1.82120   1.82249   1.82534
 Alpha virt. eigenvalues --    1.82772   1.83062   1.83184   1.83289   1.83685
 Alpha virt. eigenvalues --    1.84116   1.84131   1.84475   1.84671   1.84822
 Alpha virt. eigenvalues --    1.85306   1.85362   1.85625   1.85649   1.85787
 Alpha virt. eigenvalues --    1.85842   1.86115   1.86248   1.86562   1.86844
 Alpha virt. eigenvalues --    1.87070   1.87306   1.87352   1.87694   1.87743
 Alpha virt. eigenvalues --    1.88024   1.88194   1.88362   1.88560   1.88988
 Alpha virt. eigenvalues --    1.89000   1.89226   1.89440   1.89723   1.89821
 Alpha virt. eigenvalues --    1.89866   1.90289   1.90386   1.90512   1.90905
 Alpha virt. eigenvalues --    1.91031   1.91242   1.91541   1.91643   1.91734
 Alpha virt. eigenvalues --    1.92184   1.92375   1.92529   1.92910   1.93090
 Alpha virt. eigenvalues --    1.93379   1.93485   1.93781   1.93945   1.93987
 Alpha virt. eigenvalues --    1.94424   1.94753   1.94830   1.95042   1.95276
 Alpha virt. eigenvalues --    1.95800   1.95995   1.96365   1.96717   1.96786
 Alpha virt. eigenvalues --    1.96908   1.97370   1.97433   1.97605   1.98076
 Alpha virt. eigenvalues --    1.98257   1.98418   1.98688   1.99076   1.99509
 Alpha virt. eigenvalues --    1.99885   2.00011   2.00168   2.00325   2.00550
 Alpha virt. eigenvalues --    2.00736   2.00903   2.01338   2.01413   2.01685
 Alpha virt. eigenvalues --    2.01771   2.01790   2.02289   2.02860   2.03050
 Alpha virt. eigenvalues --    2.03107   2.03183   2.03460   2.03748   2.04261
 Alpha virt. eigenvalues --    2.04673   2.04903   2.05133   2.05468   2.05842
 Alpha virt. eigenvalues --    2.06519   2.06760   2.06818   2.07028   2.07257
 Alpha virt. eigenvalues --    2.07967   2.08017   2.08086   2.08688   2.08791
 Alpha virt. eigenvalues --    2.09041   2.09489   2.09631   2.10133   2.10262
 Alpha virt. eigenvalues --    2.10828   2.11465   2.11619   2.11918   2.12372
 Alpha virt. eigenvalues --    2.12667   2.12705   2.12867   2.12937   2.13150
 Alpha virt. eigenvalues --    2.13282   2.14053   2.14516   2.14655   2.15031
 Alpha virt. eigenvalues --    2.15126   2.15196   2.16293   2.16539   2.16676
 Alpha virt. eigenvalues --    2.16763   2.17040   2.17416   2.17533   2.17738
 Alpha virt. eigenvalues --    2.18158   2.18671   2.19218   2.19323   2.19668
 Alpha virt. eigenvalues --    2.19941   2.20464   2.20623   2.20782   2.21361
 Alpha virt. eigenvalues --    2.21463   2.21826   2.22092   2.22585   2.22842
 Alpha virt. eigenvalues --    2.23429   2.23447   2.24019   2.24590   2.24769
 Alpha virt. eigenvalues --    2.25103   2.25158   2.25612   2.25815   2.26291
 Alpha virt. eigenvalues --    2.27194   2.27317   2.27974   2.29599   2.30149
 Alpha virt. eigenvalues --    2.30607   2.30841   2.30991   2.31382   2.31405
 Alpha virt. eigenvalues --    2.32050   2.32669   2.33250   2.33783   2.33824
 Alpha virt. eigenvalues --    2.34970   2.35149   2.35464   2.36123   2.36356
 Alpha virt. eigenvalues --    2.36400   2.37006   2.37137   2.37395   2.37690
 Alpha virt. eigenvalues --    2.37820   2.38020   2.38499   2.38607   2.38744
 Alpha virt. eigenvalues --    2.39011   2.39465   2.39913   2.40303   2.40468
 Alpha virt. eigenvalues --    2.40627   2.40872   2.41111   2.41358   2.42117
 Alpha virt. eigenvalues --    2.42367   2.42683   2.43217   2.43397   2.44338
 Alpha virt. eigenvalues --    2.44444   2.44839   2.45219   2.45645   2.45882
 Alpha virt. eigenvalues --    2.46073   2.46684   2.46994   2.47279   2.47637
 Alpha virt. eigenvalues --    2.47762   2.48300   2.48557   2.49158   2.49554
 Alpha virt. eigenvalues --    2.49585   2.50570   2.50816   2.50922   2.50995
 Alpha virt. eigenvalues --    2.51589   2.52170   2.52951   2.52992   2.53166
 Alpha virt. eigenvalues --    2.53649   2.54152   2.54700   2.54947   2.55048
 Alpha virt. eigenvalues --    2.55592   2.56194   2.56624   2.57104   2.57382
 Alpha virt. eigenvalues --    2.58018   2.58154   2.58327   2.58651   2.58974
 Alpha virt. eigenvalues --    2.59267   2.60477   2.60706   2.60875   2.61696
 Alpha virt. eigenvalues --    2.61898   2.62371   2.63177   2.64259   2.64606
 Alpha virt. eigenvalues --    2.64750   2.65198   2.65708   2.66408   2.66595
 Alpha virt. eigenvalues --    2.67395   2.67683   2.67976   2.68156   2.68922
 Alpha virt. eigenvalues --    2.69131   2.69395   2.70408   2.71202   2.71438
 Alpha virt. eigenvalues --    2.71601   2.71864   2.72236   2.72332   2.72781
 Alpha virt. eigenvalues --    2.73333   2.73745   2.73825   2.74088   2.74369
 Alpha virt. eigenvalues --    2.74858   2.74951   2.75791   2.76028   2.76330
 Alpha virt. eigenvalues --    2.76786   2.76978   2.77171   2.77603   2.77931
 Alpha virt. eigenvalues --    2.78496   2.78663   2.79601   2.80015   2.80144
 Alpha virt. eigenvalues --    2.80775   2.81051   2.81531   2.81901   2.82129
 Alpha virt. eigenvalues --    2.82482   2.82658   2.83120   2.83628   2.84283
 Alpha virt. eigenvalues --    2.85093   2.85541   2.85988   2.86210   2.87101
 Alpha virt. eigenvalues --    2.87370   2.87556   2.88387   2.88786   2.89660
 Alpha virt. eigenvalues --    2.90276   2.91012   2.91169   2.91546   2.92338
 Alpha virt. eigenvalues --    2.92372   2.93185   2.94128   2.94410   2.94794
 Alpha virt. eigenvalues --    2.95672   2.96081   2.96561   2.96835   2.97497
 Alpha virt. eigenvalues --    2.97722   2.97832   2.98122   2.98301   2.98917
 Alpha virt. eigenvalues --    2.98995   2.99236   2.99509   2.99661   2.99750
 Alpha virt. eigenvalues --    3.00393   3.00968   3.01272   3.01324   3.01772
 Alpha virt. eigenvalues --    3.02065   3.02087   3.02331   3.02603   3.03142
 Alpha virt. eigenvalues --    3.03573   3.03758   3.03777   3.03973   3.04062
 Alpha virt. eigenvalues --    3.04475   3.04680   3.05009   3.05055   3.05250
 Alpha virt. eigenvalues --    3.05739   3.06033   3.06252   3.06497   3.06752
 Alpha virt. eigenvalues --    3.07371   3.07763   3.07938   3.08101   3.08897
 Alpha virt. eigenvalues --    3.09055   3.09506   3.09981   3.10475   3.10609
 Alpha virt. eigenvalues --    3.11014   3.11534   3.11708   3.11955   3.12154
 Alpha virt. eigenvalues --    3.12582   3.13227   3.14461   3.14485   3.14644
 Alpha virt. eigenvalues --    3.15024   3.15305   3.16021   3.16361   3.17236
 Alpha virt. eigenvalues --    3.18589   3.19128   3.19767   3.19857   3.20972
 Alpha virt. eigenvalues --    3.21038   3.23191   3.23303   3.23693   3.24794
 Alpha virt. eigenvalues --    3.26217   3.28294   3.28628   3.29086   3.31889
 Alpha virt. eigenvalues --    3.32130   3.33814   3.44291   3.45796   3.46707
 Alpha virt. eigenvalues --    3.48872   3.51083   3.55614   3.57105   3.59046
 Alpha virt. eigenvalues --    3.61551   3.67717   3.68045   3.70097   3.71487
 Alpha virt. eigenvalues --    3.72544   3.75241
          Condensed to atoms (all electrons):
 Mulliken charges:
               1
     1  Mg   0.840945
     2  C    0.043565
     3  C   -0.051252
     4  C   -0.067373
     5  C   -0.060484
     6  N   -0.228224
     7  C   -0.063322
     8  C   -0.076187
     9  C   -0.034893
    10  C   -0.027226
    11  C    0.095828
    12  C    0.055047
    13  C    0.057667
    14  C    0.149514
    15  O   -0.217957
    16  O   -0.328002
    17  N   -0.412748
    18  C    0.147240
    19  C   -0.113235
    20  C   -0.037445
    21  C    0.135538
    22  C    0.078376
    23  C    0.035817
    24  O   -0.214889
    25  C    0.053236
    26  N   -0.269363
    27  C    0.044450
    28  C   -0.031058
    29  C    0.035084
    30  C   -0.053073
    31  C    0.054200
    32  C   -0.003161
    33  C    0.016676
    34  N   -0.323187
    35  C    0.111667
    36  C   -0.175366
    37  C    0.024730
    38  C    0.056344
    39  C    0.136626
    40  C   -0.001313
    41  O   -0.178624
    42  C    0.001390
    43  C    0.219064
    44  O   -0.218656
    45  O   -0.338064
    46  C    0.188222
    47  C    0.308899
    48  C   -0.120799
    49  C   -0.152171
    50  C    0.077489
    51  C    0.034994
    52  C    0.043732
    53  C    0.056682
    54  C   -0.128535
    55  C    0.037268
    56  C    0.084546
    57  C    0.033080
    58  C    0.059811
    59  C   -0.154943
    60  C    0.044213
    61  C    0.063156
    62  C   -0.014327
    63  C    0.044903
    64  C   -0.142910
    65  C    0.061206
    66  C    0.036674
    67  H   -0.044506
    68  H   -0.007561
    69  H   -0.041255
    70  H    0.044550
    71  H   -0.002544
    72  H    0.026841
    73  H    0.020308
    74  H    0.023425
    75  H    0.012662
    76  H    0.027896
    77  H    0.020363
    78  H    0.034187
    79  H    0.010328
    80  H    0.032386
    81  H    0.033233
    82  H    0.027688
    83  H    0.022801
    84  H    0.029405
    85  H    0.017799
    86  H    0.011320
    87  H    0.029767
    88  H    0.009796
    89  H    0.026315
    90  H   -0.002358
    91  H   -0.003672
    92  H    0.042813
    93  H    0.011868
    94  H    0.014066
    95  H    0.019576
    96  H    0.051995
    97  H    0.035824
    98  H    0.046578
    99  H    0.039551
   100  H    0.029117
   101  H    0.027994
   102  H    0.025504
   103  H    0.021130
   104  H   -0.008517
   105  H    0.032795
   106  H    0.034176
   107  H   -0.012869
   108  H   -0.016706
   109  H    0.007280
   110  H    0.008329
   111  H   -0.006549
   112  H   -0.013779
   113  H   -0.004564
   114  H   -0.010303
   115  H   -0.002711
   116  H    0.012030
   117  H    0.006464
   118  H   -0.024164
   119  H   -0.002735
   120  H   -0.008330
   121  H    0.005189
   122  H   -0.026182
   123  H   -0.027046
   124  H   -0.010793
   125  H    0.002344
   126  H    0.020912
   127  H   -0.006120
   128  H   -0.012301
   129  H   -0.017806
   130  H   -0.006796
   131  H   -0.011988
   132  H   -0.003952
   133  H    0.009230
   134  H   -0.001669
   135  H    0.014550
   136  H    0.008995
   137  H    0.011765
   138  H   -0.007983
   139  H   -0.002355
   140  H    0.017877
 Sum of Mulliken charges =  -0.00000
 Mulliken charges with hydrogens summed into heavy atoms:
               1
     1  Mg   0.840945
     2  C    0.043565
     3  C   -0.095758
     4  C   -0.074934
     5  C   -0.101739
     6  N   -0.228224
     7  C   -0.063322
     8  C   -0.031637
     9  C   -0.037437
    10  C   -0.027226
    11  C    0.166402
    12  C    0.095605
    13  C    0.112217
    14  C    0.149514
    15  O   -0.217957
    16  O   -0.328002
    17  N   -0.412748
    18  C    0.147240
    19  C   -0.113235
    20  C   -0.037445
    21  C    0.135538
    22  C    0.154323
    23  C    0.035817
    24  O   -0.214889
    25  C    0.133131
    26  N   -0.269363
    27  C    0.044450
    28  C   -0.013260
    29  C    0.046405
    30  C   -0.053073
    31  C    0.120077
    32  C   -0.009191
    33  C    0.085423
    34  N   -0.323187
    35  C    0.111667
    36  C   -0.175366
    37  C    0.024730
    38  C    0.056344
    39  C    0.244021
    40  C   -0.001313
    41  O   -0.178624
    42  C    0.047968
    43  C    0.219064
    44  O   -0.218656
    45  O   -0.338064
    46  C    0.284883
    47  C    0.355532
    48  C   -0.129316
    49  C   -0.152171
    50  C    0.131591
    51  C    0.025568
    52  C    0.045512
    53  C    0.038339
    54  C   -0.138838
    55  C    0.053052
    56  C    0.057647
    57  C    0.029940
    58  C    0.006583
    59  C   -0.165736
    60  C    0.061350
    61  C    0.033048
    62  C   -0.033111
    63  C    0.050181
    64  C   -0.144579
    65  C    0.096517
    66  C    0.044213
 Electronic spatial extent (au):  <R**2>=         138044.0466
 Charge=             -0.0000 electrons
 Dipole moment (field-independent basis, Debye):
    X=             -4.3368    Y=              2.9999    Z=              2.9077  Tot=              6.0218
 Quadrupole moment (field-independent basis, Debye-Ang):
   XX=           -392.2228   YY=           -429.4333   ZZ=           -405.6658
   XY=             34.5837   XZ=             12.0866   YZ=             -1.6221
 Traceless Quadrupole moment (field-independent basis, Debye-Ang):
   XX=             16.8845   YY=            -20.3260   ZZ=              3.4415
   XY=             34.5837   XZ=             12.0866   YZ=             -1.6221
 Octapole moment (field-independent basis, Debye-Ang**2):
  XXX=            501.0534  YYY=           -158.9039  ZZZ=              4.6031  XYY=           -322.6126
  XXY=            221.1149  XXZ=             18.8916  XZZ=             41.5666  YZZ=            -12.7030
  YYZ=            -11.2498  XYZ=              8.1068
 Hexadecapole moment (field-independent basis, Debye-Ang**3):
 XXXX=        -157571.5936 YYYY=         -28810.8044 ZZZZ=          -2718.9124 XXXY=           3239.8371
 XXXZ=            -10.8530 YYYX=           -211.3486 YYYZ=            303.1649 ZZZX=             68.5438
 ZZZY=             -4.1693 XXYY=         -33088.9815 XXZZ=         -27580.5477 YYZZ=          -5012.2436
 XXYZ=            -23.6768 YYXZ=            -56.5497 ZZXY=            106.2603
 N-N= 9.415011085706D+03 E-N=-2.582219399317D+04  KE= 2.975901672164D+03
 Leave Link  601 at Wed Apr 27 02:30:44 2022, MaxMem= 10066329600 cpu:              11.1 elap:               0.6
 (Enter /sw/apps/gaussian-16.0/g16/l9999.exe)
 1\1\GINC-BP1-COMPUTE134\SP\RCAM-B3LYP TD-FC\def2SVP\C55H74Mg1N4O6\OF15
 641\27-Apr-2022\0\\#p cam-b3lyp/Def2SVP td=(nstates=5)\\step_1051_chro
 mophore_18 TDDFT with cam-b3lyp functional\\0,1\Mg,0,35.196,49.133,25.
 463\C,0,35.074,47.246,28.524\C,0,33.761,51.615,27.274\C,0,34.443,50.53
 ,22.595\C,0,36.092,46.205,23.843\N,0,34.191,49.303,27.669\C,0,34.484,4
 8.46,28.681\C,0,33.996,49.089,30.048\C,0,33.424,50.491,29.569\C,0,33.8
 85,50.55,28.088\C,0,31.912,50.744,29.844\C,0,35.258,49.233,30.927\C,0,
 34.948,50.061,32.171\C,0,33.642,49.872,32.904\O,0,33.1,48.799,33.02\O,
 0,33.132,51.067,33.381\N,0,34.285,50.811,24.958\C,0,33.813,51.791,25.8
 27\C,0,33.467,52.979,25.098\C,0,33.659,52.682,23.737\C,0,34.156,51.299
 ,23.714\C,0,33.104,54.384,25.829\C,0,33.497,53.585,22.473\O,0,33.757,5
 3.282,21.296\C,0,33.092,55.048,22.606\N,0,35.377,48.44,23.487\C,0,35.0
 14,49.269,22.49\C,0,35.27,48.662,21.11\C,0,36.032,47.302,21.484\C,0,35
 .828,47.292,23.006\C,0,34.057,48.467,20.017\C,0,37.582,47.266,21.096\C
 ,0,38.674,47.359,22.143\N,0,35.674,47.127,26.026\C,0,36.009,46.057,25.
 233\C,0,36.236,44.876,25.993\C,0,36.012,45.313,27.354\C,0,35.6,46.649,
 27.287\C,0,36.451,43.503,25.399\C,0,36.058,44.925,28.725\O,0,36.449,43
 .869,29.217\C,0,35.463,46.099,29.551\C,0,34.354,45.546,30.301\O,0,33.2
 76,45.222,29.832\O,0,34.675,45.453,31.645\C,0,33.675,44.785,32.478\C,0
 ,31.904,50.898,34.121\C,0,31.454,52.289,34.542\C,0,31.295,52.84,35.722
 \C,0,31.587,52.359,37.184\C,0,30.808,54.273,35.794\C,0,31.872,55.322,3
 5.53\C,0,31.302,56.574,34.866\C,0,30.778,57.673,35.819\C,0,31.941,58.4
 1,36.541\C,0,29.845,58.689,35.225\C,0,28.512,58.836,35.971\C,0,28.753,
 59.722,37.188\C,0,28.078,61.042,37.076\C,0,29.113,62.161,37.405\C,0,26
 .723,61.136,37.873\C,0,25.953,62.407,37.52\C,0,25.832,63.373,38.74\C,0
 ,25.397,64.817,38.396\C,0,26.512,65.892,38.45\C,0,24.085,65.144,39.102
 \H,0,33.41,52.47,27.856\H,0,34.308,51.001,21.62\H,0,36.575,45.343,23.3
 77\H,0,33.345,48.347,30.51\H,0,33.968,51.301,30.053\H,0,31.486,49.782,
 30.13\H,0,31.444,51.043,28.906\H,0,31.892,51.505,30.623\H,0,36.13,49.6
 85,30.455\H,0,35.42,48.217,31.286\H,0,35.093,51.096,31.863\H,0,35.721,
 49.823,32.902\H,0,33.222,54.377,26.913\H,0,32.071,54.702,25.687\H,0,33
 .775,55.196,25.549\H,0,33.622,55.599,23.383\H,0,32.043,54.974,22.889\H
 ,0,33.088,55.621,21.678\H,0,36.022,49.296,20.639\H,0,35.495,46.448,21.
 071\H,0,33.08,48.706,20.438\H,0,33.993,47.423,19.71\H,0,34.249,49.007,
 19.09\H,0,37.816,48.018,20.342\H,0,37.811,46.372,20.517\H,0,38.196,47.
 678,23.069\H,0,39.479,48.036,21.857\H,0,39.123,46.366,22.147\H,0,37.02
 ,43.585,24.473\H,0,35.454,43.07,25.316\H,0,37.049,42.97,26.138\H,0,36.
 269,46.539,30.139\H,0,33.305,43.844,32.071\H,0,32.785,45.387,32.663\H,
 0,34.102,44.67,33.475\H,0,31.918,50.226,34.979\H,0,31.101,50.593,33.45
 \H,0,31.277,52.981,33.719\H,0,30.665,52.166,37.732\H,0,32.341,52.903,3
 7.753\H,0,32.067,51.385,37.08\H,0,30.461,54.559,36.787\H,0,29.878,54.3
 51,35.232\H,0,32.694,55.012,34.886\H,0,32.168,55.657,36.524\H,0,30.421
 ,56.214,34.335\H,0,32.07,56.881,34.156\H,0,30.333,57.187,36.687\H,0,32
 .886,58.062,36.125\H,0,31.895,58.262,37.62\H,0,32.007,59.485,36.373\H,
 0,29.49,58.29,34.274\H,0,30.284,59.653,34.969\H,0,28.246,57.873,36.407
 \H,0,27.702,59.248,35.369\H,0,29.81,59.794,37.446\H,0,28.394,59.327,38
 .138\H,0,27.822,61.214,36.031\H,0,29.563,62.322,36.426\H,0,29.849,61.9
 37,38.178\H,0,28.58,63.082,37.64\H,0,26.803,61.117,38.96\H,0,26.177,60
 .21,37.69\H,0,25.03,62.181,36.985\H,0,26.575,62.869,36.753\H,0,26.874,
 63.349,39.057\H,0,25.125,62.856,39.388\H,0,25.078,64.782,37.354\H,0,26
 .728,66.045,37.393\H,0,27.369,65.472,38.977\H,0,26.252,66.834,38.932\H
 ,0,24.208,65.964,39.81\H,0,23.768,64.395,39.828\H,0,23.302,65.364,38.3
 76\\Version=ES64L-G16RevA.03\State=1-A\HF=-3007.1461262\RMSD=9.488e-09
 \PG=C01 [X(C55H74Mg1N4O6)]\\@


 MAN IS THE MEASURE OF ALL THINGS.
  -- PROTAGORAS (5TH CENTURY B.C.)
 Job cpu time:       0 days 11 hours 15 minutes 16.7 seconds.
 Elapsed time:       0 days  0 hours 28 minutes 37.6 seconds.
 File lengths (MBytes):  RWF=   8929 Int=      0 D2E=      0 Chk=    390 Scr=      1
 Normal termination of Gaussian 16 at Wed Apr 27 02:30:45 2022.
