 Entering Gaussian System, Link 0=g16
 Initial command:
 /sw/apps/gaussian-16.0/g16/l1.exe "/tmp/Gau-6553.inp" -scrdir="/tmp/"
 Entering Link 1 = /sw/apps/gaussian-16.0/g16/l1.exe PID=      6554.
  
 Copyright (c) 1988,1990,1992,1993,1995,1998,2003,2009,2016,
            Gaussian, Inc.  All Rights Reserved.
  
 This is part of the Gaussian(R) 16 program.  It is based on
 the Gaussian(R) 09 system (copyright 2009, Gaussian, Inc.),
 the Gaussian(R) 03 system (copyright 2003, Gaussian, Inc.),
 the Gaussian(R) 98 system (copyright 1998, Gaussian, Inc.),
 the Gaussian(R) 94 system (copyright 1995, Gaussian, Inc.),
 the Gaussian 92(TM) system (copyright 1992, Gaussian, Inc.),
 the Gaussian 90(TM) system (copyright 1990, Gaussian, Inc.),
 the Gaussian 88(TM) system (copyright 1988, Gaussian, Inc.),
 the Gaussian 86(TM) system (copyright 1986, Carnegie Mellon
 University), and the Gaussian 82(TM) system (copyright 1983,
 Carnegie Mellon University). Gaussian is a federally registered
 trademark of Gaussian, Inc.
  
 This software contains proprietary and confidential information,
 including trade secrets, belonging to Gaussian, Inc.
  
 This software is provided under written license and may be
 used, copied, transmitted, or stored only in accord with that
 written license.
  
 The following legend is applicable only to US Government
 contracts under FAR:
  
                    RESTRICTED RIGHTS LEGEND
  
 Use, reproduction and disclosure by the US Government is
 subject to restrictions as set forth in subparagraphs (a)
 and (c) of the Commercial Computer Software - Restricted
 Rights clause in FAR 52.227-19.
  
 Gaussian, Inc.
 340 Quinnipiac St., Bldg. 40, Wallingford CT 06492
  
  
 ---------------------------------------------------------------
 Warning -- This program may not be used in any manner that
 competes with the business of Gaussian, Inc. or will provide
 assistance to any competitor of Gaussian, Inc.  The licensee
 of this program is prohibited from giving any competitor of
 Gaussian, Inc. access to this program.  By using this program,
 the user acknowledges that Gaussian, Inc. is engaged in the
 business of creating and licensing software in the field of
 computational chemistry and represents and warrants to the
 licensee that it is not a competitor of Gaussian, Inc. and that
 it will not use this program in any manner prohibited above.
 ---------------------------------------------------------------
  

 Cite this work as:
 Gaussian 16, Revision A.03,
 M. J. Frisch, G. W. Trucks, H. B. Schlegel, G. E. Scuseria, 
 M. A. Robb, J. R. Cheeseman, G. Scalmani, V. Barone, 
 G. A. Petersson, H. Nakatsuji, X. Li, M. Caricato, A. V. Marenich, 
 J. Bloino, B. G. Janesko, R. Gomperts, B. Mennucci, H. P. Hratchian, 
 J. V. Ortiz, A. F. Izmaylov, J. L. Sonnenberg, D. Williams-Young, 
 F. Ding, F. Lipparini, F. Egidi, J. Goings, B. Peng, A. Petrone, 
 T. Henderson, D. Ranasinghe, V. G. Zakrzewski, J. Gao, N. Rega, 
 G. Zheng, W. Liang, M. Hada, M. Ehara, K. Toyota, R. Fukuda, 
 J. Hasegawa, M. Ishida, T. Nakajima, Y. Honda, O. Kitao, H. Nakai, 
 T. Vreven, K. Throssell, J. A. Montgomery, Jr., J. E. Peralta, 
 F. Ogliaro, M. J. Bearpark, J. J. Heyd, E. N. Brothers, K. N. Kudin, 
 V. N. Staroverov, T. A. Keith, R. Kobayashi, J. Normand, 
 K. Raghavachari, A. P. Rendell, J. C. Burant, S. S. Iyengar, 
 J. Tomasi, M. Cossi, J. M. Millam, M. Klene, C. Adamo, R. Cammi, 
 J. W. Ochterski, R. L. Martin, K. Morokuma, O. Farkas, 
 J. B. Foresman, and D. J. Fox, Gaussian, Inc., Wallingford CT, 2016.
 
 ******************************************
 Gaussian 16:  ES64L-G16RevA.03 25-Dec-2016
                 4-May-2022 
 ******************************************
 %nproc=24
 Will use up to   24 processors via shared memory.
 %mem=75GB
 ------------------------------
 #p blyp/Def2SVP td=(nstates=5)
 ------------------------------
 1/38=1,172=1/1;
 2/12=2,17=6,18=5,40=1/2;
 3/5=43,7=101,11=9,25=1,30=1,74=402/1,2,3,8;
 4//1;
 5/5=2,38=5/2;
 8/6=1,10=1,108=5/1;
 9/41=5,42=1,70=2/14;
 6/7=2,8=2,9=2,10=2/1;
 99/5=1,9=1/99;
 Leave Link    1 at Wed May  4 17:51:18 2022, MaxMem= 10066329600 cpu:               1.0 elap:               0.0
 (Enter /sw/apps/gaussian-16.0/g16/l101.exe)
 --------------------------------------------------
 step_201_chromophore_22 TDDFT with blyp functional
 --------------------------------------------------
 Symbolic Z-matrix:
 Charge =  0 Multiplicity = 1
 Mg                    8.658     48.462    24.727 
 C                     6.661     48.706    27.389 
 C                     11.286    49.832    26.476 
 C                     10.514    48.358    21.949 
 C                     5.82      47.902    22.689 
 N                     8.978     49.057    26.69 
 C                     7.974     49.088    27.653 
 C                     8.533     49.599    28.945 
 C                     9.778     50.289    28.46 
 C                     10.066    49.627    27.124 
 C                     9.546     51.819    28.28 
 C                     8.943     48.421    29.874 
 C                     9.009     48.659    31.322 
 C                     8.409     47.605    32.238 
 O                     7.72      46.655    31.874 
 O                     8.745     47.711    33.608 
 N                     10.692    48.773    24.341 
 C                     11.608    49.314    25.226 
 C                     12.919    49.257    24.684 
 C                     12.778    48.829    23.267 
 C                     11.302    48.577    23.134 
 C                     14.167    49.664    25.526 
 C                     13.82     48.614    22.137 
 O                     13.466    48.339    20.95 
 C                     15.332    48.788    22.448 
 N                     8.146     48.29     22.547 
 C                     9.122     48.347    21.657 
 C                     8.604     48.077    20.238 
 C                     7.141     47.626    20.599 
 C                     7.002     48.002    21.976 
 C                     8.702     49.279    19.256 
 C                     6.811     46.118    20.296 
 C                     5.44      45.976    19.681 
 N                     6.606     48.247    24.943 
 C                     5.631     48.021    24.063 
 C                     4.344     47.992    24.761 
 C                     4.717     48.198    26.124 
 C                     6.085     48.336    26.157 
 C                     3.024     47.893    24.142 
 C                     4.282     48.221    27.446 
 O                     3.212     47.872    27.967 
 C                     5.453     48.805    28.339 
 C                     5.45      48.072    29.699 
 O                     5.54      46.851    29.855 
 O                     5.195     49.03     30.613 
 C                     4.915     48.514    32.007 
 C                     8.12      46.65     34.453 
 C                     8.529     46.875    35.932 
 C                     7.733     46.832    37.068 
 C                     6.393     46.225    37.188 
 C                     8.372     47.248    38.405 
 C                     9.277     46.175    39.104 
 C                     10.822    46.478    39.138 
 C                     11.379    46.771    40.531 
 C                     11.167    48.173    40.984 
 C                     12.917    46.432    40.706 
 C                     12.962    45.034    41.375 
 C                     14.348    44.673    41.821 
 C                     14.227    44.085    43.22 
 C                     15.288    42.967    43.399 
 C                     14.537    45.22     44.263 
 C                     13.473    45.167    45.324 
 C                     13.567    46.475    46.185 
 C                     12.159    47.052    46.595 
 C                     11.967    48.219    45.604 
 C                     12.091    47.604    48.135 
 H                     12.115    50.305    27.006 
 H                     11.022    48.445    20.986 
 H                     4.958     47.787    22.027 
 H                     7.856     50.302    29.429 
 H                     10.659    50.193    29.095 
 H                     8.532     52.101    27.996 
 H                     10.246    52.101    27.493 
 H                     9.676     52.184    29.299 
 H                     9.916     47.994    29.634 
 H                     8.253     47.61     29.641 
 H                     8.562     49.618    31.583 
 H                     10.049    48.762    31.632 
 H                     13.893    49.774    26.575 
 H                     14.504    50.669    25.27 
 H                     14.977    48.934    25.5 
 H                     15.89     48.271    21.667 
 H                     15.505    48.368    23.439 
 H                     15.489    49.865    22.502 
 H                     9.193     47.256    19.829 
 H                     6.37      48.041    19.95 
 H                     9.146     50.11     19.804 
 H                     7.674     49.419    18.922 
 H                     9.278     49.006    18.372 
 H                     6.86      45.523    21.208 
 H                     7.586     45.733    19.633 
 H                     5.277     44.9      19.616 
 H                     5.411     46.431    18.691 
 H                     4.616     46.323    20.305 
 H                     2.288     47.619    24.897 
 H                     3.124     47.047    23.463 
 H                     2.707     48.798    23.624 
 H                     5.337     49.874    28.512 
 H                     4.871     49.327    32.731 
 H                     5.678     47.821    32.363 
 H                     3.994     47.933    31.951 
 H                     8.283     45.6      34.213 
 H                     7.047     46.828    34.381 
 H                     9.501     47.304    36.174 
 H                     5.713     46.993    37.555 
 H                     6.349     45.542    38.036 
 H                     6.161     45.727    36.246 
 H                     7.616     47.43     39.168 
 H                     8.885     48.175    38.148 
 H                     9.165     45.238    38.558 
 H                     8.842     45.947    40.077 
 H                     11.157    47.247    38.442 
 H                     11.286    45.557    38.785 
 H                     10.754    46.288    41.282 
 H                     11.866    48.474    41.763 
 H                     10.194    48.344    41.445 
 H                     11.394    48.821    40.137 
 H                     13.455    47.158    41.316 
 H                     13.343    46.486    39.704 
 H                     12.588    44.322    40.639 
 H                     12.167    45.07     42.119 
 H                     14.948    45.573    41.688 
 H                     14.649    43.854    41.168 
 H                     13.254    43.619    43.377 
 H                     15.751    42.948    44.385 
 H                     16.076    42.973    42.645 
 H                     14.79     42.009    43.248 
 H                     14.669    46.194    43.792 
 H                     15.517    45.062    44.711 
 H                     13.523    44.397    46.094 
 H                     12.445    45.129    44.965 
 H                     14.098    47.31     45.728 
 H                     14.115    46.277    47.105 
 H                     11.379    46.316    46.401 
 H                     12.314    47.9      44.621 
 H                     12.533    49.06     46.003 
 H                     10.921    48.508    45.497 
 H                     12.996    47.344    48.684 
 H                     11.257    47.003    48.498 
 H                     11.913    48.679    48.157 
 
 ITRead=  0  0  0  0  0  0  0  0  0  0  0  0  0  0  0  0  0  0  0  0
 ITRead=  0  0  0  0  0  0  0  0  0  0  0  0  0  0  0  0  0  0  0  0
 ITRead=  0  0  0  0  0  0  0  0  0  0  0  0  0  0  0  0  0  0  0  0
 ITRead=  0  0  0  0  0  0  0  0  0  0  0  0  0  0  0  0  0  0  0  0
 ITRead=  0  0  0  0  0  0  0  0  0  0  0  0  0  0  0  0  0  0  0  0
 ITRead=  0  0  0  0  0  0  0  0  0  0  0  0  0  0  0  0  0  0  0  0
 ITRead=  0  0  0  0  0  0  0  0  0  0  0  0  0  0  0  0  0  0  0  0
 MicOpt= -1 -1 -1 -1 -1 -1 -1 -1 -1 -1 -1 -1 -1 -1 -1 -1 -1 -1 -1 -1
 MicOpt= -1 -1 -1 -1 -1 -1 -1 -1 -1 -1 -1 -1 -1 -1 -1 -1 -1 -1 -1 -1
 MicOpt= -1 -1 -1 -1 -1 -1 -1 -1 -1 -1 -1 -1 -1 -1 -1 -1 -1 -1 -1 -1
 MicOpt= -1 -1 -1 -1 -1 -1 -1 -1 -1 -1 -1 -1 -1 -1 -1 -1 -1 -1 -1 -1
 MicOpt= -1 -1 -1 -1 -1 -1 -1 -1 -1 -1 -1 -1 -1 -1 -1 -1 -1 -1 -1 -1
 MicOpt= -1 -1 -1 -1 -1 -1 -1 -1 -1 -1 -1 -1 -1 -1 -1 -1 -1 -1 -1 -1
 MicOpt= -1 -1 -1 -1 -1 -1 -1 -1 -1 -1 -1 -1 -1 -1 -1 -1 -1 -1 -1 -1
 NAtoms=    140 NQM=      140 NQMF=       0 NMMI=      0 NMMIF=      0
                NMic=       0 NMicF=      0.
                    Isotopes and Nuclear Properties:
 (Nuclear quadrupole moments (NQMom) in fm**2, nuclear magnetic moments (NMagM)
  in nuclear magnetons)

  Atom         1           2           3           4           5           6           7           8           9          10
 IAtWgt=          24          12          12          12          12          14          12          12          12          12
 AtmWgt=  23.9850450  12.0000000  12.0000000  12.0000000  12.0000000  14.0030740  12.0000000  12.0000000  12.0000000  12.0000000
 NucSpn=           0           0           0           0           0           2           0           0           0           0
 AtZEff=  -0.0000000  -0.0000000  -0.0000000  -0.0000000  -0.0000000  -0.0000000  -0.0000000  -0.0000000  -0.0000000  -0.0000000
 NQMom=    0.0000000   0.0000000   0.0000000   0.0000000   0.0000000   2.0440000   0.0000000   0.0000000   0.0000000   0.0000000
 NMagM=    0.0000000   0.0000000   0.0000000   0.0000000   0.0000000   0.4037610   0.0000000   0.0000000   0.0000000   0.0000000
 AtZNuc=  12.0000000   6.0000000   6.0000000   6.0000000   6.0000000   7.0000000   6.0000000   6.0000000   6.0000000   6.0000000

  Atom        11          12          13          14          15          16          17          18          19          20
 IAtWgt=          12          12          12          12          16          16          14          12          12          12
 AtmWgt=  12.0000000  12.0000000  12.0000000  12.0000000  15.9949146  15.9949146  14.0030740  12.0000000  12.0000000  12.0000000
 NucSpn=           0           0           0           0           0           0           2           0           0           0
 AtZEff=  -0.0000000  -0.0000000  -0.0000000  -0.0000000  -0.0000000  -0.0000000  -0.0000000  -0.0000000  -0.0000000  -0.0000000
 NQMom=    0.0000000   0.0000000   0.0000000   0.0000000   0.0000000   0.0000000   2.0440000   0.0000000   0.0000000   0.0000000
 NMagM=    0.0000000   0.0000000   0.0000000   0.0000000   0.0000000   0.0000000   0.4037610   0.0000000   0.0000000   0.0000000
 AtZNuc=   6.0000000   6.0000000   6.0000000   6.0000000   8.0000000   8.0000000   7.0000000   6.0000000   6.0000000   6.0000000

  Atom        21          22          23          24          25          26          27          28          29          30
 IAtWgt=          12          12          12          16          12          14          12          12          12          12
 AtmWgt=  12.0000000  12.0000000  12.0000000  15.9949146  12.0000000  14.0030740  12.0000000  12.0000000  12.0000000  12.0000000
 NucSpn=           0           0           0           0           0           2           0           0           0           0
 AtZEff=  -0.0000000  -0.0000000  -0.0000000  -0.0000000  -0.0000000  -0.0000000  -0.0000000  -0.0000000  -0.0000000  -0.0000000
 NQMom=    0.0000000   0.0000000   0.0000000   0.0000000   0.0000000   2.0440000   0.0000000   0.0000000   0.0000000   0.0000000
 NMagM=    0.0000000   0.0000000   0.0000000   0.0000000   0.0000000   0.4037610   0.0000000   0.0000000   0.0000000   0.0000000
 AtZNuc=   6.0000000   6.0000000   6.0000000   8.0000000   6.0000000   7.0000000   6.0000000   6.0000000   6.0000000   6.0000000

  Atom        31          32          33          34          35          36          37          38          39          40
 IAtWgt=          12          12          12          14          12          12          12          12          12          12
 AtmWgt=  12.0000000  12.0000000  12.0000000  14.0030740  12.0000000  12.0000000  12.0000000  12.0000000  12.0000000  12.0000000
 NucSpn=           0           0           0           2           0           0           0           0           0           0
 AtZEff=  -0.0000000  -0.0000000  -0.0000000  -0.0000000  -0.0000000  -0.0000000  -0.0000000  -0.0000000  -0.0000000  -0.0000000
 NQMom=    0.0000000   0.0000000   0.0000000   2.0440000   0.0000000   0.0000000   0.0000000   0.0000000   0.0000000   0.0000000
 NMagM=    0.0000000   0.0000000   0.0000000   0.4037610   0.0000000   0.0000000   0.0000000   0.0000000   0.0000000   0.0000000
 AtZNuc=   6.0000000   6.0000000   6.0000000   7.0000000   6.0000000   6.0000000   6.0000000   6.0000000   6.0000000   6.0000000

  Atom        41          42          43          44          45          46          47          48          49          50
 IAtWgt=          16          12          12          16          16          12          12          12          12          12
 AtmWgt=  15.9949146  12.0000000  12.0000000  15.9949146  15.9949146  12.0000000  12.0000000  12.0000000  12.0000000  12.0000000
 NucSpn=           0           0           0           0           0           0           0           0           0           0
 AtZEff=  -0.0000000  -0.0000000  -0.0000000  -0.0000000  -0.0000000  -0.0000000  -0.0000000  -0.0000000  -0.0000000  -0.0000000
 NQMom=    0.0000000   0.0000000   0.0000000   0.0000000   0.0000000   0.0000000   0.0000000   0.0000000   0.0000000   0.0000000
 NMagM=    0.0000000   0.0000000   0.0000000   0.0000000   0.0000000   0.0000000   0.0000000   0.0000000   0.0000000   0.0000000
 AtZNuc=   8.0000000   6.0000000   6.0000000   8.0000000   8.0000000   6.0000000   6.0000000   6.0000000   6.0000000   6.0000000

  Atom        51          52          53          54          55          56          57          58          59          60
 IAtWgt=          12          12          12          12          12          12          12          12          12          12
 AtmWgt=  12.0000000  12.0000000  12.0000000  12.0000000  12.0000000  12.0000000  12.0000000  12.0000000  12.0000000  12.0000000
 NucSpn=           0           0           0           0           0           0           0           0           0           0
 AtZEff=  -0.0000000  -0.0000000  -0.0000000  -0.0000000  -0.0000000  -0.0000000  -0.0000000  -0.0000000  -0.0000000  -0.0000000
 NQMom=    0.0000000   0.0000000   0.0000000   0.0000000   0.0000000   0.0000000   0.0000000   0.0000000   0.0000000   0.0000000
 NMagM=    0.0000000   0.0000000   0.0000000   0.0000000   0.0000000   0.0000000   0.0000000   0.0000000   0.0000000   0.0000000
 AtZNuc=   6.0000000   6.0000000   6.0000000   6.0000000   6.0000000   6.0000000   6.0000000   6.0000000   6.0000000   6.0000000

  Atom        61          62          63          64          65          66          67          68          69          70
 IAtWgt=          12          12          12          12          12          12           1           1           1           1
 AtmWgt=  12.0000000  12.0000000  12.0000000  12.0000000  12.0000000  12.0000000   1.0078250   1.0078250   1.0078250   1.0078250
 NucSpn=           0           0           0           0           0           0           1           1           1           1
 AtZEff=  -0.0000000  -0.0000000  -0.0000000  -0.0000000  -0.0000000  -0.0000000  -0.0000000  -0.0000000  -0.0000000  -0.0000000
 NQMom=    0.0000000   0.0000000   0.0000000   0.0000000   0.0000000   0.0000000   0.0000000   0.0000000   0.0000000   0.0000000
 NMagM=    0.0000000   0.0000000   0.0000000   0.0000000   0.0000000   0.0000000   2.7928460   2.7928460   2.7928460   2.7928460
 AtZNuc=   6.0000000   6.0000000   6.0000000   6.0000000   6.0000000   6.0000000   1.0000000   1.0000000   1.0000000   1.0000000

  Atom        71          72          73          74          75          76          77          78          79          80
 IAtWgt=           1           1           1           1           1           1           1           1           1           1
 AtmWgt=   1.0078250   1.0078250   1.0078250   1.0078250   1.0078250   1.0078250   1.0078250   1.0078250   1.0078250   1.0078250
 NucSpn=           1           1           1           1           1           1           1           1           1           1
 AtZEff=  -0.0000000  -0.0000000  -0.0000000  -0.0000000  -0.0000000  -0.0000000  -0.0000000  -0.0000000  -0.0000000  -0.0000000
 NQMom=    0.0000000   0.0000000   0.0000000   0.0000000   0.0000000   0.0000000   0.0000000   0.0000000   0.0000000   0.0000000
 NMagM=    2.7928460   2.7928460   2.7928460   2.7928460   2.7928460   2.7928460   2.7928460   2.7928460   2.7928460   2.7928460
 AtZNuc=   1.0000000   1.0000000   1.0000000   1.0000000   1.0000000   1.0000000   1.0000000   1.0000000   1.0000000   1.0000000

  Atom        81          82          83          84          85          86          87          88          89          90
 IAtWgt=           1           1           1           1           1           1           1           1           1           1
 AtmWgt=   1.0078250   1.0078250   1.0078250   1.0078250   1.0078250   1.0078250   1.0078250   1.0078250   1.0078250   1.0078250
 NucSpn=           1           1           1           1           1           1           1           1           1           1
 AtZEff=  -0.0000000  -0.0000000  -0.0000000  -0.0000000  -0.0000000  -0.0000000  -0.0000000  -0.0000000  -0.0000000  -0.0000000
 NQMom=    0.0000000   0.0000000   0.0000000   0.0000000   0.0000000   0.0000000   0.0000000   0.0000000   0.0000000   0.0000000
 NMagM=    2.7928460   2.7928460   2.7928460   2.7928460   2.7928460   2.7928460   2.7928460   2.7928460   2.7928460   2.7928460
 AtZNuc=   1.0000000   1.0000000   1.0000000   1.0000000   1.0000000   1.0000000   1.0000000   1.0000000   1.0000000   1.0000000

  Atom        91          92          93          94          95          96          97          98          99         100
 IAtWgt=           1           1           1           1           1           1           1           1           1           1
 AtmWgt=   1.0078250   1.0078250   1.0078250   1.0078250   1.0078250   1.0078250   1.0078250   1.0078250   1.0078250   1.0078250
 NucSpn=           1           1           1           1           1           1           1           1           1           1
 AtZEff=  -0.0000000  -0.0000000  -0.0000000  -0.0000000  -0.0000000  -0.0000000  -0.0000000  -0.0000000  -0.0000000  -0.0000000
 NQMom=    0.0000000   0.0000000   0.0000000   0.0000000   0.0000000   0.0000000   0.0000000   0.0000000   0.0000000   0.0000000
 NMagM=    2.7928460   2.7928460   2.7928460   2.7928460   2.7928460   2.7928460   2.7928460   2.7928460   2.7928460   2.7928460
 AtZNuc=   1.0000000   1.0000000   1.0000000   1.0000000   1.0000000   1.0000000   1.0000000   1.0000000   1.0000000   1.0000000

  Atom       101         102         103         104         105         106         107         108         109         110
 IAtWgt=           1           1           1           1           1           1           1           1           1           1
 AtmWgt=   1.0078250   1.0078250   1.0078250   1.0078250   1.0078250   1.0078250   1.0078250   1.0078250   1.0078250   1.0078250
 NucSpn=           1           1           1           1           1           1           1           1           1           1
 AtZEff=  -0.0000000  -0.0000000  -0.0000000  -0.0000000  -0.0000000  -0.0000000  -0.0000000  -0.0000000  -0.0000000  -0.0000000
 NQMom=    0.0000000   0.0000000   0.0000000   0.0000000   0.0000000   0.0000000   0.0000000   0.0000000   0.0000000   0.0000000
 NMagM=    2.7928460   2.7928460   2.7928460   2.7928460   2.7928460   2.7928460   2.7928460   2.7928460   2.7928460   2.7928460
 AtZNuc=   1.0000000   1.0000000   1.0000000   1.0000000   1.0000000   1.0000000   1.0000000   1.0000000   1.0000000   1.0000000

  Atom       111         112         113         114         115         116         117         118         119         120
 IAtWgt=           1           1           1           1           1           1           1           1           1           1
 AtmWgt=   1.0078250   1.0078250   1.0078250   1.0078250   1.0078250   1.0078250   1.0078250   1.0078250   1.0078250   1.0078250
 NucSpn=           1           1           1           1           1           1           1           1           1           1
 AtZEff=  -0.0000000  -0.0000000  -0.0000000  -0.0000000  -0.0000000  -0.0000000  -0.0000000  -0.0000000  -0.0000000  -0.0000000
 NQMom=    0.0000000   0.0000000   0.0000000   0.0000000   0.0000000   0.0000000   0.0000000   0.0000000   0.0000000   0.0000000
 NMagM=    2.7928460   2.7928460   2.7928460   2.7928460   2.7928460   2.7928460   2.7928460   2.7928460   2.7928460   2.7928460
 AtZNuc=   1.0000000   1.0000000   1.0000000   1.0000000   1.0000000   1.0000000   1.0000000   1.0000000   1.0000000   1.0000000

  Atom       121         122         123         124         125         126         127         128         129         130
 IAtWgt=           1           1           1           1           1           1           1           1           1           1
 AtmWgt=   1.0078250   1.0078250   1.0078250   1.0078250   1.0078250   1.0078250   1.0078250   1.0078250   1.0078250   1.0078250
 NucSpn=           1           1           1           1           1           1           1           1           1           1
 AtZEff=  -0.0000000  -0.0000000  -0.0000000  -0.0000000  -0.0000000  -0.0000000  -0.0000000  -0.0000000  -0.0000000  -0.0000000
 NQMom=    0.0000000   0.0000000   0.0000000   0.0000000   0.0000000   0.0000000   0.0000000   0.0000000   0.0000000   0.0000000
 NMagM=    2.7928460   2.7928460   2.7928460   2.7928460   2.7928460   2.7928460   2.7928460   2.7928460   2.7928460   2.7928460
 AtZNuc=   1.0000000   1.0000000   1.0000000   1.0000000   1.0000000   1.0000000   1.0000000   1.0000000   1.0000000   1.0000000

  Atom       131         132         133         134         135         136         137         138         139         140
 IAtWgt=           1           1           1           1           1           1           1           1           1           1
 AtmWgt=   1.0078250   1.0078250   1.0078250   1.0078250   1.0078250   1.0078250   1.0078250   1.0078250   1.0078250   1.0078250
 NucSpn=           1           1           1           1           1           1           1           1           1           1
 AtZEff=  -0.0000000  -0.0000000  -0.0000000  -0.0000000  -0.0000000  -0.0000000  -0.0000000  -0.0000000  -0.0000000  -0.0000000
 NQMom=    0.0000000   0.0000000   0.0000000   0.0000000   0.0000000   0.0000000   0.0000000   0.0000000   0.0000000   0.0000000
 NMagM=    2.7928460   2.7928460   2.7928460   2.7928460   2.7928460   2.7928460   2.7928460   2.7928460   2.7928460   2.7928460
 AtZNuc=   1.0000000   1.0000000   1.0000000   1.0000000   1.0000000   1.0000000   1.0000000   1.0000000   1.0000000   1.0000000
 Leave Link  101 at Wed May  4 17:51:18 2022, MaxMem= 10066329600 cpu:               3.3 elap:               0.2
 (Enter /sw/apps/gaussian-16.0/g16/l202.exe)
 Stoichiometry    C55H74MgN4O6
 Framework group  C1[X(C55H74MgN4O6)]
 Deg. of freedom   414
 Full point group                 C1      NOp   1
 Largest Abelian subgroup         C1      NOp   1
 Largest concise Abelian subgroup C1      NOp   1
                         Standard orientation:                         
 ---------------------------------------------------------------------
 Center     Atomic      Atomic             Coordinates (Angstroms)
 Number     Number       Type             X           Y           Z
 ---------------------------------------------------------------------
      1         12           0        6.195108    0.467839   -0.041937
      2          6           0        3.989946   -1.973164   -0.601003
      3          6           0        4.147071    2.773446   -1.569029
      4          6           0        8.554641    2.795807    0.389343
      5          6           0        8.650954   -1.966240    0.709974
      6          7           0        4.281900    0.442274   -0.847404
      7          6           0        3.530106   -0.719252   -0.995767
      8          6           0        2.219227   -0.390021   -1.640801
      9          6           0        2.536618    0.943400   -2.259348
     10          6           0        3.717702    1.449865   -1.450264
     11          6           0        2.919033    0.795730   -3.762370
     12          6           0        1.109842   -0.193297   -0.568705
     13          6           0       -0.291475   -0.385489   -0.965035
     14          6           0       -1.188128   -1.175067   -0.025592
     15          8           0       -0.806747   -1.815130    0.951437
     16          8           0       -2.577294   -1.091781   -0.279191
     17          7           0        6.229340    2.546775   -0.286329
     18          6           0        5.253258    3.302083   -0.912217
     19          6           0        5.534219    4.687607   -0.781383
     20          6           0        6.898796    4.794544   -0.200479
     21          6           0        7.274708    3.360560    0.048818
     22          6           0        4.524417    5.772867   -1.265766
     23          6           0        7.787024    6.018203    0.149661
     24          8           0        8.982665    5.878568    0.550729
     25          6           0        7.222220    7.452639   -0.041466
     26          7           0        8.401060    0.357472    0.365153
     27          6           0        9.096130    1.480879    0.417670
     28          6           0       10.549277    1.222605    0.837723
     29          6           0       10.418902   -0.294988    1.230158
     30          6           0        9.139617   -0.671387    0.702353
     31          6           0       11.619067    1.535513   -0.246883
     32          6           0       10.614614   -0.610706    2.758815
     33          6           0       11.453750   -1.850074    2.953359
     34          7           0        6.340548   -1.594763    0.125705
     35          6           0        7.356353   -2.399196    0.437364
     36          6           0        6.909355   -3.792290    0.374960
     37          6           0        5.530883   -3.668265    0.023156
     38          6           0        5.260438   -2.325685   -0.102926
     39          6           0        7.747568   -4.979477    0.527763
     40          6           0        4.322302   -4.336444   -0.150933
     41          8           0        3.973859   -5.493894    0.126628
     42          6           0        3.295850   -3.330677   -0.817697
     43          6           0        1.889390   -3.604714   -0.240055
     44          8           0        1.589733   -3.582622    0.957023
     45          8           0        1.146125   -3.992507   -1.296160
     46          6           0       -0.219115   -4.538231   -0.940917
     47          6           0       -3.400711   -1.893178    0.674810
     48          6           0       -4.897130   -1.754370    0.291653
     49          6           0       -5.864309   -2.745382    0.199888
     50          6           0       -5.798681   -4.102930    0.775393
     51          6           0       -7.244106   -2.348700   -0.354864
     52          6           0       -8.209104   -1.620284    0.643707
     53          6           0       -8.495605   -0.098833    0.355444
     54          6           0       -9.928104    0.203227   -0.084164
     55          6           0      -10.181466   -0.044355   -1.529940
     56          6           0      -10.419733    1.672142    0.249873
     57          6           0      -11.231159    1.550841    1.565496
     58          6           0      -11.961778    2.820214    1.889719
     59          6           0      -13.369007    2.427593    2.317670
     60          6           0      -13.859670    3.402875    3.420285
     61          6           0      -14.323838    2.576954    1.077443
     62          6           0      -15.169260    1.335966    1.001048
     63          6           0      -15.887844    1.311665   -0.393250
     64          6           0      -15.966289   -0.128950   -1.027259
     65          6           0      -14.837824   -0.100465   -2.079205
     66          6           0      -17.399113   -0.459887   -1.747275
     67          1           0        3.526608    3.505980   -2.088921
     68          1           0        9.410777    3.473575    0.415105
     69          1           0        9.444769   -2.695996    0.888372
     70          1           0        1.946793   -1.121893   -2.400365
     71          1           0        1.743094    1.690215   -2.224862
     72          1           0        3.414151   -0.140115   -4.022041
     73          1           0        3.588588    1.636081   -3.947841
     74          1           0        1.938564    0.748711   -4.236664
     75          1           0        1.118697    0.793452   -0.107288
     76          1           0        1.378301   -0.853955    0.255656
     77          1           0       -0.361203   -0.842679   -1.951810
     78          1           0       -0.775616    0.583096   -1.090571
     79          1           0        3.562069    5.315454   -1.494318
     80          1           0        4.819698    6.181949   -2.232508
     81          1           0        4.321942    6.550961   -0.528711
     82          1           0        7.826700    8.127575    0.564899
     83          1           0        6.177178    7.428647    0.267923
     84          1           0        7.255645    7.630458   -1.116062
     85          1           0       10.752092    1.850644    1.705292
     86          1           0       11.239886   -0.921258    0.881392
     87          1           0       11.090509    1.897523   -1.128686
     88          1           0       12.150429    0.590638   -0.360045
     89          1           0       12.346942    2.254513    0.128612
     90          1           0        9.650958   -0.747552    3.249539
     91          1           0       11.077811    0.260019    3.223255
     92          1           0       11.432287   -2.031749    4.028117
     93          1           0       12.474931   -1.683672    2.610626
     94          1           0       11.033648   -2.763008    2.530479
     95          1           0        7.116787   -5.849113    0.708444
     96          1           0        8.301901   -4.783444    1.444847
     97          1           0        8.409040   -5.168332   -0.317593
     98          1           0        3.262649   -3.443113   -1.900472
     99          1           0       -0.831295   -4.688474   -1.829593
    100          1           0       -0.782122   -3.874936   -0.283486
    101          1           0       -0.056249   -5.451083   -0.367232
    102          1           0       -3.308716   -1.721730    1.746636
    103          1           0       -3.112914   -2.928941    0.494355
    104          1           0       -5.267393   -0.830081   -0.151049
    105          1           0       -5.949308   -4.814368   -0.035829
    106          1           0       -6.692031   -4.322208    1.359664
    107          1           0       -4.888799   -4.174332    1.372226
    108          1           0       -7.830224   -3.225311   -0.628449
    109          1           0       -6.988738   -1.768899   -1.242088
    110          1           0       -7.755232   -1.659692    1.634200
    111          1           0       -9.103591   -2.232513    0.757745
    112          1           0       -7.795358    0.381318   -0.328011
    113          1           0       -8.335080    0.393042    1.314838
    114          1           0      -10.597860   -0.563080    0.305854
    115          1           0      -11.039541    0.509624   -1.907904
    116          1           0      -10.433605   -1.079401   -1.761448
    117          1           0       -9.326677    0.353488   -2.077570
    118          1           0      -11.037474    2.111948   -0.533444
    119          1           0       -9.513864    2.275427    0.311871
    120          1           0      -10.519156    1.295641    2.350633
    121          1           0      -11.807122    0.634848    1.438690
    122          1           0      -11.846524    3.462028    1.016517
    123          1           0      -11.467125    3.209858    2.779251
    124          1           0      -13.392306    1.428310    2.752898
    125          1           0      -14.910557    3.677213    3.334843
    126          1           0      -13.268151    4.315119    3.506386
    127          1           0      -13.722547    2.911362    4.383706
    128          1           0      -13.783928    2.822885    0.163137
    129          1           0      -14.959618    3.453283    1.195339
    130          1           0      -16.013100    1.220608    1.681435
    131          1           0      -14.632516    0.390137    1.067550
    132          1           0      -15.450263    1.942825   -1.166681
    133          1           0      -16.909122    1.676034   -0.292575
    134          1           0      -15.711264   -0.882847   -0.282723
    135          1           0      -13.975809    0.410151   -1.649484
    136          1           0      -15.242313    0.408954   -2.953115
    137          1           0      -14.508954   -1.099863   -2.365798
    138          1           0      -18.130604    0.321132   -1.540017
    139          1           0      -17.663802   -1.364381   -1.199228
    140          1           0      -17.272693   -0.605489   -2.819941
 ---------------------------------------------------------------------
 Rotational constants (GHZ):           0.0551312           0.0077621           0.0070828
 Leave Link  202 at Wed May  4 17:51:18 2022, MaxMem= 10066329600 cpu:               0.2 elap:               0.0
 (Enter /sw/apps/gaussian-16.0/g16/l301.exe)
 Standard basis: def2SVP (5D, 7F)
 Ernie: Thresh=  0.10000D-02 Tol=  0.10000D-05 Strict=F.
 There are  1364 symmetry adapted cartesian basis functions of A   symmetry.
 There are  1298 symmetry adapted basis functions of A   symmetry.
  1298 basis functions,  2180 primitive gaussians,  1364 cartesian basis functions
   246 alpha electrons      246 beta electrons
       nuclear repulsion energy      9364.5936776957 Hartrees.
 IExCor=  402 DFT=T Ex=B Corr=LYP ExCW=0 ScaHFX=  0.000000
 ScaDFX=  1.000000  1.000000  1.000000  1.000000 ScalE2=  1.000000  1.000000
 IRadAn=      5 IRanWt=     -1 IRanGd=            0 ICorTp=0 IEmpDi=  4
 NAtoms=  140 NActive=  140 NUniq=  140 SFac= 1.00D+00 NAtFMM=   60 NAOKFM=T Big=T
 Integral buffers will be    131072 words long.
 Regular integral format.
 Two-electron integral symmetry is turned on.
 Leave Link  301 at Wed May  4 17:51:18 2022, MaxMem= 10066329600 cpu:               1.3 elap:               0.1
 (Enter /sw/apps/gaussian-16.0/g16/l302.exe)
 NPDir=0 NMtPBC=     1 NCelOv=     1 NCel=       1 NClECP=     1 NCelD=      1
         NCelK=      1 NCelE2=     1 NClLst=     1 CellRange=     0.0.
 One-electron integrals computed using PRISM.
 One-electron integral symmetry used in STVInt
   1 Symmetry operations used in ECPInt.
 ECPInt:  NShTT=  192510 NPrTT=  683786 LenC2=   89135 LenP2D=  198751.
 LDataN:  DoStor=T MaxTD1= 4 Len=   56
 NBasis=  1298 RedAO= T EigKep=  2.82D-04  NBF=  1298
 NBsUse=  1298 1.00D-06 EigRej= -1.00D+00 NBFU=  1298
 Precomputing XC quadrature grid using
 IXCGrd= 4 IRadAn=           5 IRanWt=          -1 IRanGd=           0 AccXCQ= 0.00D+00.
 Generated NRdTot=       0 NPtTot=           0 NUsed=           0 NTot=          32
 NSgBfM=   977   977   977   977   977 MxSgAt=   140 MxSgA2=   140.
 Leave Link  302 at Wed May  4 17:51:22 2022, MaxMem= 10066329600 cpu:              88.8 elap:               3.7
 (Enter /sw/apps/gaussian-16.0/g16/l303.exe)
 DipDrv:  MaxL=1.
 Leave Link  303 at Wed May  4 17:51:22 2022, MaxMem= 10066329600 cpu:               6.0 elap:               0.3
 (Enter /sw/apps/gaussian-16.0/g16/l308.exe)
 Leave Link  308 at Wed May  4 17:51:23 2022, MaxMem= 10066329600 cpu:               9.1 elap:               0.4
 (Enter /sw/apps/gaussian-16.0/g16/l401.exe)
 ExpMin= 3.36D-02 ExpMax= 4.95D+03 ExpMxC= 7.45D+02 IAcc=3 IRadAn=         5 AccDes= 0.00D+00
 Harris functional with IExCor=  402 and IRadAn=       5 diagonalized for initial guess.
 HarFok:  IExCor=  402 AccDes= 0.00D+00 IRadAn=         5 IDoV= 1 UseB2=F ITyADJ=14
 ICtDFT=  3500011 ScaDFX=  1.000000  1.000000  1.000000  1.000000
 FoFCou: FMM=F IPFlag=           0 FMFlag=      100000 FMFlg1=        2001
         NFxFlg=           0 DoJE=T BraDBF=F KetDBF=T FulRan=T
         wScrn=  0.000000 ICntrl=       500 IOpCl=  0 I1Cent=   200000004 NGrid=           0
         NMat0=    1 NMatS0=      1 NMatT0=    0 NMatD0=    1 NMtDS0=    0 NMtDT0=    0
 Petite list used in FoFCou.
 Harris En= -3008.76099929324    
 JPrj=0 DoOrth=F DoCkMO=F.
 Leave Link  401 at Wed May  4 17:51:30 2022, MaxMem= 10066329600 cpu:             160.8 elap:               6.7
 (Enter /sw/apps/gaussian-16.0/g16/l502.exe)
 Integral symmetry usage will be decided dynamically.
 Closed shell SCF:
 Using DIIS extrapolation, IDIIS=  1040.
 NGot= 10066329600 LenX= 10062561258 LenY= 10060699398
 Requested convergence on RMS density matrix=1.00D-08 within 128 cycles.
 Requested convergence on MAX density matrix=1.00D-06.
 Requested convergence on             energy=1.00D-06.
 No special actions if energy rises.
 Fock matrices will be formed incrementally for  20 cycles.

 Cycle   1  Pass 1  IDiag  1:
 FoFJK:  IHMeth= 1 ICntrl=     500 DoSepK=F KAlg= 0 I1Cent=           0 FoldK=F
 IRaf= 500000000 NMat=       1 IRICut=       1 DoRegI=T DoRafI=F ISym2E= 0 IDoP0=0 IntGTp=1.
 FoFCou: FMM=T IPFlag=           0 FMFlag=      100000 FMFlg1=        2001
         NFxFlg=           0 DoJE=T BraDBF=F KetDBF=F FulRan=T
         wScrn=  0.000000 ICntrl=       500 IOpCl=  0 I1Cent=           0 NGrid=           0
         NMat0=    1 NMatS0=      1 NMatT0=    0 NMatD0=    1 NMtDS0=    0 NMtDT0=    0
 Symmetry not used in FoFCou.
 FMM levels:  10  Number of levels for PrismC:   9
 E= -3005.62048296293    
 DIIS: error= 2.25D-02 at cycle   1 NSaved=   1.
 NSaved= 1 IEnMin= 1 EnMin= -3005.62048296293     IErMin= 1 ErrMin= 2.25D-02
 ErrMax= 2.25D-02  0.00D+00 EMaxC= 1.00D-01 BMatC= 1.57D+00 BMatP= 1.57D+00
 IDIUse=3 WtCom= 7.75D-01 WtEn= 2.25D-01
 Coeff-Com:  0.100D+01
 Coeff-En:   0.100D+01
 Coeff:      0.100D+01
 Gap=     0.040 Goal=   None    Shift=    0.000
 GapD=    0.040 DampG=0.250 DampE=0.500 DampFc=0.2500 IDamp=-1.
 Damping current iteration by 2.50D-01
 RMSDP=3.95D-03 MaxDP=4.52D-01              OVMax= 8.37D-01

 Cycle   2  Pass 1  IDiag  1:
 RMSU=  9.82D-04    CP:  9.89D-01
 E= -3006.11336777725     Delta-E=       -0.492884814315 Rises=F Damp=T
 DIIS: error= 7.55D-03 at cycle   2 NSaved=   2.
 NSaved= 2 IEnMin= 2 EnMin= -3006.11336777725     IErMin= 2 ErrMin= 7.55D-03
 ErrMax= 7.55D-03  0.00D+00 EMaxC= 1.00D-01 BMatC= 2.65D-01 BMatP= 1.57D+00
 IDIUse=3 WtCom= 9.24D-01 WtEn= 7.55D-02
 Coeff-Com: -0.254D+00 0.125D+01
 Coeff-En:   0.122D+00 0.878D+00
 Coeff:     -0.225D+00 0.123D+01
 Gap=     0.061 Goal=   None    Shift=    0.000
 RMSDP=1.69D-03 MaxDP=2.31D-01 DE=-4.93D-01 OVMax= 4.70D-01

 Cycle   3  Pass 1  IDiag  1:
 RMSU=  1.66D-03    CP:  9.66D-01  1.19D+00
 E= -3005.08980231027     Delta-E=        1.023565466980 Rises=F Damp=F
 DIIS: error= 4.11D-02 at cycle   3 NSaved=   3.
 NSaved= 3 IEnMin= 2 EnMin= -3006.11336777725     IErMin= 2 ErrMin= 7.55D-03
 ErrMax= 4.11D-02  0.00D+00 EMaxC= 1.00D-01 BMatC= 1.72D+00 BMatP= 2.65D-01
 IDIUse=2 WtCom= 0.00D+00 WtEn= 1.00D+00
 Coeff-En:   0.000D+00 0.682D+00 0.318D+00
 Coeff:      0.000D+00 0.682D+00 0.318D+00
 Gap=     0.056 Goal=   None    Shift=    0.000
 RMSDP=2.22D-03 MaxDP=4.49D-01 DE= 1.02D+00 OVMax= 7.70D-01

 Cycle   4  Pass 1  IDiag  1:
 RMSU=  1.09D-03    CP:  9.66D-01  1.89D+00 -8.68D-02
 E= -3004.34625197796     Delta-E=        0.743550332305 Rises=F Damp=F
 DIIS: error= 4.59D-02 at cycle   4 NSaved=   4.
 NSaved= 4 IEnMin= 2 EnMin= -3006.11336777725     IErMin= 2 ErrMin= 7.55D-03
 ErrMax= 4.59D-02  0.00D+00 EMaxC= 1.00D-01 BMatC= 1.90D+00 BMatP= 2.65D-01
 IDIUse=2 WtCom= 0.00D+00 WtEn= 1.00D+00
 EnCoef did     2 forward-backward iterations
 Coeff-En:   0.117D+00 0.000D+00 0.473D+00 0.410D+00
 Coeff:      0.117D+00 0.000D+00 0.473D+00 0.410D+00
 Gap=     0.153 Goal=   None    Shift=    0.000
 RMSDP=1.54D-03 MaxDP=3.40D-01 DE= 7.44D-01 OVMax= 6.77D-01

 Cycle   5  Pass 1  IDiag  1:
 RMSU=  7.83D-04    CP:  9.80D-01  1.17D+00  1.30D-01  3.60D-02
 E= -3006.96206878048     Delta-E=       -2.615816802516 Rises=F Damp=F
 DIIS: error= 2.53D-02 at cycle   5 NSaved=   5.
 NSaved= 5 IEnMin= 5 EnMin= -3006.96206878048     IErMin= 2 ErrMin= 7.55D-03
 ErrMax= 2.53D-02  0.00D+00 EMaxC= 1.00D-01 BMatC= 4.10D-01 BMatP= 2.65D-01
 IDIUse=2 WtCom= 0.00D+00 WtEn= 1.00D+00
 EnCoef did     5 forward-backward iterations
 Coeff-En:   0.000D+00 0.000D+00 0.187D+00 0.185D+00 0.629D+00
 Coeff:      0.000D+00 0.000D+00 0.187D+00 0.185D+00 0.629D+00
 Gap=     0.164 Goal=   None    Shift=    0.000
 RMSDP=1.46D-03 MaxDP=2.17D-01 DE=-2.62D+00 OVMax= 6.46D-01

 Cycle   6  Pass 1  IDiag  1:
 RMSU=  1.15D-03    CP:  9.74D-01  8.55D-01  2.95D-01  2.58D-01  2.74D-02
 E= -3006.38971912112     Delta-E=        0.572349659355 Rises=F Damp=F
 DIIS: error= 4.15D-02 at cycle   6 NSaved=   6.
 NSaved= 6 IEnMin= 5 EnMin= -3006.96206878048     IErMin= 2 ErrMin= 7.55D-03
 ErrMax= 4.15D-02  0.00D+00 EMaxC= 1.00D-01 BMatC= 1.01D+00 BMatP= 2.65D-01
 IDIUse=2 WtCom= 0.00D+00 WtEn= 1.00D+00
 Coeff-En:   0.000D+00 0.000D+00 0.000D+00 0.000D+00 0.650D+00 0.350D+00
 Coeff:      0.000D+00 0.000D+00 0.000D+00 0.000D+00 0.650D+00 0.350D+00
 Gap=     0.021 Goal=   None    Shift=    0.000
 RMSDP=9.24D-04 MaxDP=1.19D-01 DE= 5.72D-01 OVMax= 4.20D-01

 Cycle   7  Pass 1  IDiag  1:
 RMSU=  5.31D-04    CP:  9.76D-01  1.21D+00  2.01D-01  9.66D-02  6.66D-01
                    CP:  6.74D-01
 E= -3007.22326918868     Delta-E=       -0.833550067562 Rises=F Damp=F
 DIIS: error= 1.05D-02 at cycle   7 NSaved=   7.
 NSaved= 7 IEnMin= 7 EnMin= -3007.22326918868     IErMin= 2 ErrMin= 7.55D-03
 ErrMax= 1.05D-02  0.00D+00 EMaxC= 1.00D-01 BMatC= 1.30D-01 BMatP= 2.65D-01
 IDIUse=3 WtCom= 8.95D-01 WtEn= 1.05D-01
 EnCoef did     5 forward-backward iterations
 Coeff-Com: -0.985D-02 0.156D-01 0.299D-01 0.751D-02 0.428D+00 0.211D+00
 Coeff-Com:  0.317D+00
 Coeff-En:   0.000D+00 0.000D+00 0.000D+00 0.000D+00 0.301D+00 0.636D-01
 Coeff-En:   0.636D+00
 Coeff:     -0.881D-02 0.140D-01 0.268D-01 0.672D-02 0.415D+00 0.196D+00
 Coeff:      0.351D+00
 Gap=     0.064 Goal=   None    Shift=    0.000
 RMSDP=5.93D-04 MaxDP=1.71D-01 DE=-8.34D-01 OVMax= 2.68D-01

 Cycle   8  Pass 1  IDiag  1:
 RMSU=  2.63D-04    CP:  9.76D-01  1.10D+00  1.98D-01  1.45D-01  5.69D-01
                    CP:  5.18D-01  9.89D-02
 E= -3007.30163408143     Delta-E=       -0.078364892746 Rises=F Damp=F
 DIIS: error= 4.75D-03 at cycle   8 NSaved=   8.
 NSaved= 8 IEnMin= 8 EnMin= -3007.30163408143     IErMin= 8 ErrMin= 4.75D-03
 ErrMax= 4.75D-03  0.00D+00 EMaxC= 1.00D-01 BMatC= 3.86D-02 BMatP= 1.30D-01
 IDIUse=3 WtCom= 9.52D-01 WtEn= 4.75D-02
 EnCoef did     3 forward-backward iterations
 Coeff-Com:  0.243D-01-0.118D-01 0.927D-02-0.106D-01 0.203D+00 0.508D-01
 Coeff-Com:  0.352D+00 0.384D+00
 Coeff-En:   0.000D+00 0.000D+00 0.000D+00 0.000D+00 0.549D-01 0.000D+00
 Coeff-En:   0.306D+00 0.639D+00
 Coeff:      0.231D-01-0.113D-01 0.883D-02-0.101D-01 0.196D+00 0.483D-01
 Coeff:      0.350D+00 0.396D+00
 Gap=     0.041 Goal=   None    Shift=    0.000
 RMSDP=3.45D-04 MaxDP=5.73D-02 DE=-7.84D-02 OVMax= 1.93D-01

 Cycle   9  Pass 1  IDiag  1:
 RMSU=  1.19D-04    CP:  9.78D-01  1.11D+00  1.96D-01  7.52D-02  7.37D-01
                    CP:  4.80D-01  4.90D-01  2.75D-01
 E= -3007.34660332699     Delta-E=       -0.044969245559 Rises=F Damp=F
 DIIS: error= 1.96D-03 at cycle   9 NSaved=   9.
 NSaved= 9 IEnMin= 9 EnMin= -3007.34660332699     IErMin= 9 ErrMin= 1.96D-03
 ErrMax= 1.96D-03  0.00D+00 EMaxC= 1.00D-01 BMatC= 7.92D-03 BMatP= 3.86D-02
 IDIUse=3 WtCom= 9.80D-01 WtEn= 1.96D-02
 Coeff-Com:  0.359D-01-0.434D-01 0.128D-02-0.191D-02 0.635D-01-0.129D-01
 Coeff-Com:  0.210D+00 0.351D+00 0.397D+00
 Coeff-En:   0.000D+00 0.000D+00 0.000D+00 0.000D+00 0.000D+00 0.000D+00
 Coeff-En:   0.000D+00 0.214D+00 0.786D+00
 Coeff:      0.352D-01-0.426D-01 0.125D-02-0.188D-02 0.623D-01-0.126D-01
 Coeff:      0.206D+00 0.348D+00 0.405D+00
 Gap=     0.042 Goal=   None    Shift=    0.000
 RMSDP=1.14D-04 MaxDP=1.81D-02 DE=-4.50D-02 OVMax= 7.00D-02

 Cycle  10  Pass 1  IDiag  1:
 RMSU=  4.70D-05    CP:  9.77D-01  1.11D+00  1.91D-01  9.41D-02  6.89D-01
                    CP:  4.88D-01  4.20D-01  4.89D-01  4.54D-01
 E= -3007.35446244196     Delta-E=       -0.007859114974 Rises=F Damp=F
 DIIS: error= 7.04D-04 at cycle  10 NSaved=  10.
 NSaved=10 IEnMin=10 EnMin= -3007.35446244196     IErMin=10 ErrMin= 7.04D-04
 ErrMax= 7.04D-04  0.00D+00 EMaxC= 1.00D-01 BMatC= 8.17D-04 BMatP= 7.92D-03
 IDIUse=3 WtCom= 9.93D-01 WtEn= 7.04D-03
 Coeff-Com:  0.293D-01-0.417D-01 0.967D-03 0.115D-03 0.236D-01-0.162D-01
 Coeff-Com:  0.115D+00 0.216D+00 0.286D+00 0.387D+00
 Coeff-En:   0.000D+00 0.000D+00 0.000D+00 0.000D+00 0.000D+00 0.000D+00
 Coeff-En:   0.000D+00 0.000D+00 0.722D-01 0.928D+00
 Coeff:      0.291D-01-0.414D-01 0.960D-03 0.114D-03 0.234D-01-0.161D-01
 Coeff:      0.114D+00 0.215D+00 0.284D+00 0.391D+00
 Gap=     0.043 Goal=   None    Shift=    0.000
 RMSDP=5.69D-05 MaxDP=7.91D-03 DE=-7.86D-03 OVMax= 4.59D-02

 Cycle  11  Pass 1  IDiag  1:
 RMSU=  3.42D-05    CP:  9.77D-01  1.11D+00  1.94D-01  9.06D-02  6.98D-01
                    CP:  4.80D-01  4.20D-01  4.79D-01  5.79D-01  1.33D-01
 E= -3007.35473721417     Delta-E=       -0.000274772208 Rises=F Damp=F
 DIIS: error= 5.98D-04 at cycle  11 NSaved=  11.
 NSaved=11 IEnMin=11 EnMin= -3007.35473721417     IErMin=11 ErrMin= 5.98D-04
 ErrMax= 5.98D-04  0.00D+00 EMaxC= 1.00D-01 BMatC= 5.09D-04 BMatP= 8.17D-04
 IDIUse=3 WtCom= 9.94D-01 WtEn= 5.98D-03
 Coeff-Com:  0.192D-01-0.316D-01 0.788D-03 0.102D-02 0.687D-02-0.964D-02
 Coeff-Com:  0.476D-01 0.107D+00 0.152D+00 0.393D+00 0.314D+00
 Coeff-En:   0.000D+00 0.000D+00 0.000D+00 0.000D+00 0.000D+00 0.000D+00
 Coeff-En:   0.000D+00 0.000D+00 0.000D+00 0.440D+00 0.560D+00
 Coeff:      0.191D-01-0.314D-01 0.784D-03 0.102D-02 0.683D-02-0.958D-02
 Coeff:      0.473D-01 0.106D+00 0.151D+00 0.393D+00 0.315D+00
 Gap=     0.043 Goal=   None    Shift=    0.000
 RMSDP=3.91D-05 MaxDP=4.56D-03 DE=-2.75D-04 OVMax= 3.17D-02

 Cycle  12  Pass 1  IDiag  1:
 RMSU=  1.69D-05    CP:  9.77D-01  1.11D+00  1.93D-01  9.54D-02  6.90D-01
                    CP:  4.82D-01  4.22D-01  4.79D-01  5.17D-01  5.56D-01
                    CP:  2.19D-01
 E= -3007.35527789664     Delta-E=       -0.000540682464 Rises=F Damp=F
 DIIS: error= 3.53D-04 at cycle  12 NSaved=  12.
 NSaved=12 IEnMin=12 EnMin= -3007.35527789664     IErMin=12 ErrMin= 3.53D-04
 ErrMax= 3.53D-04  0.00D+00 EMaxC= 1.00D-01 BMatC= 1.23D-04 BMatP= 5.09D-04
 IDIUse=3 WtCom= 9.96D-01 WtEn= 3.53D-03
 EnCoef did     5 forward-backward iterations
 Coeff-Com:  0.909D-02-0.164D-01 0.110D-02 0.232D-03-0.571D-03-0.396D-02
 Coeff-Com:  0.870D-02 0.364D-01 0.535D-01 0.268D+00 0.295D+00 0.349D+00
 Coeff-En:   0.000D+00 0.000D+00 0.000D+00 0.000D+00 0.000D+00 0.000D+00
 Coeff-En:   0.000D+00 0.000D+00 0.000D+00 0.213D-01 0.244D+00 0.735D+00
 Coeff:      0.905D-02-0.163D-01 0.110D-02 0.231D-03-0.569D-03-0.395D-02
 Coeff:      0.867D-02 0.363D-01 0.533D-01 0.267D+00 0.294D+00 0.351D+00
 Gap=     0.043 Goal=   None    Shift=    0.000
 RMSDP=1.71D-05 MaxDP=1.92D-03 DE=-5.41D-04 OVMax= 1.11D-02

 Cycle  13  Pass 1  IDiag  1:
 RMSU=  7.99D-06    CP:  9.77D-01  1.11D+00  1.94D-01  9.35D-02  6.89D-01
                    CP:  4.82D-01  4.15D-01  4.84D-01  5.31D-01  4.78D-01
                    CP:  4.51D-01  3.65D-01
 E= -3007.35542697760     Delta-E=       -0.000149080965 Rises=F Damp=F
 DIIS: error= 1.30D-04 at cycle  13 NSaved=  13.
 NSaved=13 IEnMin=13 EnMin= -3007.35542697760     IErMin=13 ErrMin= 1.30D-04
 ErrMax= 1.30D-04  0.00D+00 EMaxC= 1.00D-01 BMatC= 2.91D-05 BMatP= 1.23D-04
 IDIUse=3 WtCom= 9.99D-01 WtEn= 1.30D-03
 Coeff-Com:  0.300D-02-0.634D-02 0.107D-02-0.123D-03-0.199D-02-0.878D-03
 Coeff-Com: -0.655D-02 0.344D-02 0.335D-02 0.135D+00 0.174D+00 0.319D+00
 Coeff-Com:  0.377D+00
 Coeff-En:   0.000D+00 0.000D+00 0.000D+00 0.000D+00 0.000D+00 0.000D+00
 Coeff-En:   0.000D+00 0.000D+00 0.000D+00 0.000D+00 0.000D+00 0.167D+00
 Coeff-En:   0.833D+00
 Coeff:      0.300D-02-0.633D-02 0.107D-02-0.123D-03-0.198D-02-0.877D-03
 Coeff:     -0.655D-02 0.344D-02 0.335D-02 0.135D+00 0.174D+00 0.318D+00
 Coeff:      0.378D+00
 Gap=     0.043 Goal=   None    Shift=    0.000
 RMSDP=6.52D-06 MaxDP=9.97D-04 DE=-1.49D-04 OVMax= 2.53D-03

 Cycle  14  Pass 1  IDiag  1:
 RMSU=  3.29D-06    CP:  9.77D-01  1.11D+00  1.95D-01  9.34D-02  6.89D-01
                    CP:  4.80D-01  4.13D-01  4.84D-01  5.33D-01  5.24D-01
                    CP:  4.36D-01  5.25D-01  5.26D-01
 E= -3007.35545615342     Delta-E=       -0.000029175817 Rises=F Damp=F
 DIIS: error= 6.76D-05 at cycle  14 NSaved=  14.
 NSaved=14 IEnMin=14 EnMin= -3007.35545615342     IErMin=14 ErrMin= 6.76D-05
 ErrMax= 6.76D-05  0.00D+00 EMaxC= 1.00D-01 BMatC= 4.04D-06 BMatP= 2.91D-05
 IDIUse=1 WtCom= 1.00D+00 WtEn= 0.00D+00
 Coeff-Com:  0.294D-03-0.137D-02 0.675D-03-0.147D-03-0.756D-03 0.926D-04
 Coeff-Com: -0.679D-02-0.553D-02-0.121D-01 0.286D-01 0.446D-01 0.127D+00
 Coeff-Com:  0.244D+00 0.582D+00
 Coeff:      0.294D-03-0.137D-02 0.675D-03-0.147D-03-0.756D-03 0.926D-04
 Coeff:     -0.679D-02-0.553D-02-0.121D-01 0.286D-01 0.446D-01 0.127D+00
 Coeff:      0.244D+00 0.582D+00
 Gap=     0.043 Goal=   None    Shift=    0.000
 RMSDP=2.65D-06 MaxDP=5.42D-04 DE=-2.92D-05 OVMax= 6.77D-04

 Cycle  15  Pass 1  IDiag  1:
 RMSU=  1.82D-06    CP:  9.77D-01  1.11D+00  1.95D-01  9.34D-02  6.89D-01
                    CP:  4.79D-01  4.11D-01  4.84D-01  5.32D-01  5.32D-01
                    CP:  4.44D-01  5.26D-01  6.37D-01  7.42D-01
 E= -3007.35545899928     Delta-E=       -0.000002845860 Rises=F Damp=F
 DIIS: error= 3.18D-05 at cycle  15 NSaved=  15.
 NSaved=15 IEnMin=15 EnMin= -3007.35545899928     IErMin=15 ErrMin= 3.18D-05
 ErrMax= 3.18D-05  0.00D+00 EMaxC= 1.00D-01 BMatC= 1.27D-06 BMatP= 4.04D-06
 IDIUse=1 WtCom= 1.00D+00 WtEn= 0.00D+00
 Coeff-Com: -0.261D-03 0.133D-05 0.265D-03-0.696D-04 0.564D-04 0.122D-03
 Coeff-Com: -0.325D-02-0.413D-02-0.960D-02-0.106D-01-0.103D-01 0.103D-01
 Coeff-Com:  0.794D-01 0.461D+00 0.487D+00
 Coeff:     -0.261D-03 0.133D-05 0.265D-03-0.696D-04 0.564D-04 0.122D-03
 Coeff:     -0.325D-02-0.413D-02-0.960D-02-0.106D-01-0.103D-01 0.103D-01
 Coeff:      0.794D-01 0.461D+00 0.487D+00
 Gap=     0.043 Goal=   None    Shift=    0.000
 RMSDP=1.50D-06 MaxDP=2.98D-04 DE=-2.85D-06 OVMax= 3.99D-04

 Cycle  16  Pass 1  IDiag  1:
 RMSU=  8.51D-07    CP:  9.77D-01  1.11D+00  1.95D-01  9.33D-02  6.89D-01
                    CP:  4.79D-01  4.10D-01  4.85D-01  5.33D-01  5.33D-01
                    CP:  4.52D-01  5.38D-01  6.27D-01  8.79D-01  5.50D-01
 E= -3007.35545990493     Delta-E=       -0.000000905658 Rises=F Damp=F
 DIIS: error= 2.10D-05 at cycle  16 NSaved=  16.
 NSaved=16 IEnMin=16 EnMin= -3007.35545990493     IErMin=16 ErrMin= 2.10D-05
 ErrMax= 2.10D-05  0.00D+00 EMaxC= 1.00D-01 BMatC= 3.87D-07 BMatP= 1.27D-06
 IDIUse=1 WtCom= 1.00D+00 WtEn= 0.00D+00
 Coeff-Com: -0.128D-03 0.222D-04 0.661D-04-0.227D-04 0.241D-03 0.413D-04
 Coeff-Com: -0.962D-03-0.152D-02-0.445D-02-0.120D-01-0.160D-01-0.176D-01
 Coeff-Com:  0.103D-01 0.239D+00 0.403D+00 0.400D+00
 Coeff:     -0.128D-03 0.222D-04 0.661D-04-0.227D-04 0.241D-03 0.413D-04
 Coeff:     -0.962D-03-0.152D-02-0.445D-02-0.120D-01-0.160D-01-0.176D-01
 Coeff:      0.103D-01 0.239D+00 0.403D+00 0.400D+00
 Gap=     0.043 Goal=   None    Shift=    0.000
 RMSDP=6.15D-07 MaxDP=8.37D-05 DE=-9.06D-07 OVMax= 1.55D-04

 Cycle  17  Pass 1  IDiag  1:
 RMSU=  2.96D-07    CP:  9.77D-01  1.11D+00  1.95D-01  9.33D-02  6.89D-01
                    CP:  4.79D-01  4.10D-01  4.85D-01  5.32D-01  5.33D-01
                    CP:  4.49D-01  5.34D-01  6.40D-01  8.78D-01  6.02D-01
                    CP:  4.27D-01
 E= -3007.35546025072     Delta-E=       -0.000000345784 Rises=F Damp=F
 DIIS: error= 7.19D-06 at cycle  17 NSaved=  17.
 NSaved=17 IEnMin=17 EnMin= -3007.35546025072     IErMin=17 ErrMin= 7.19D-06
 ErrMax= 7.19D-06  0.00D+00 EMaxC= 1.00D-01 BMatC= 2.68D-08 BMatP= 3.87D-07
 IDIUse=1 WtCom= 1.00D+00 WtEn= 0.00D+00
 Coeff-Com: -0.188D-04-0.527D-04 0.151D-04-0.937D-06 0.114D-03 0.349D-05
 Coeff-Com: -0.266D-03-0.522D-03-0.175D-02-0.635D-02-0.959D-02-0.126D-01
 Coeff-Com: -0.238D-02 0.999D-01 0.208D+00 0.262D+00 0.464D+00
 Coeff:     -0.188D-04-0.527D-04 0.151D-04-0.937D-06 0.114D-03 0.349D-05
 Coeff:     -0.266D-03-0.522D-03-0.175D-02-0.635D-02-0.959D-02-0.126D-01
 Coeff:     -0.238D-02 0.999D-01 0.208D+00 0.262D+00 0.464D+00
 Gap=     0.043 Goal=   None    Shift=    0.000
 RMSDP=1.96D-07 MaxDP=2.33D-05 DE=-3.46D-07 OVMax= 4.35D-05

 Cycle  18  Pass 1  IDiag  1:
 RMSU=  1.23D-07    CP:  9.77D-01  1.11D+00  1.95D-01  9.33D-02  6.89D-01
                    CP:  4.79D-01  4.10D-01  4.85D-01  5.32D-01  5.33D-01
                    CP:  4.49D-01  5.36D-01  6.42D-01  8.86D-01  6.29D-01
                    CP:  4.46D-01  5.78D-01
 E= -3007.35546027027     Delta-E=       -0.000000019547 Rises=F Damp=F
 DIIS: error= 1.79D-06 at cycle  18 NSaved=  18.
 NSaved=18 IEnMin=18 EnMin= -3007.35546027027     IErMin=18 ErrMin= 1.79D-06
 ErrMax= 1.79D-06  0.00D+00 EMaxC= 1.00D-01 BMatC= 5.73D-09 BMatP= 2.68D-08
 IDIUse=1 WtCom= 1.00D+00 WtEn= 0.00D+00
 Coeff-Com:  0.456D-05-0.321D-04 0.239D-05-0.208D-06 0.299D-04-0.637D-06
 Coeff-Com: -0.477D-04-0.151D-03-0.564D-03-0.265D-02-0.458D-02-0.632D-02
 Coeff-Com: -0.376D-02 0.315D-01 0.848D-01 0.128D+00 0.343D+00 0.430D+00
 Coeff:      0.456D-05-0.321D-04 0.239D-05-0.208D-06 0.299D-04-0.637D-06
 Coeff:     -0.477D-04-0.151D-03-0.564D-03-0.265D-02-0.458D-02-0.632D-02
 Coeff:     -0.376D-02 0.315D-01 0.848D-01 0.128D+00 0.343D+00 0.430D+00
 Gap=     0.043 Goal=   None    Shift=    0.000
 RMSDP=8.92D-08 MaxDP=9.77D-06 DE=-1.95D-08 OVMax= 2.68D-05

 Cycle  19  Pass 1  IDiag  1:
 RMSU=  4.42D-08    CP:  9.77D-01  1.11D+00  1.95D-01  9.33D-02  6.89D-01
                    CP:  4.79D-01  4.10D-01  4.85D-01  5.32D-01  5.33D-01
                    CP:  4.49D-01  5.36D-01  6.43D-01  8.90D-01  6.32D-01
                    CP:  4.58D-01  5.72D-01  4.61D-01
 E= -3007.35546027569     Delta-E=       -0.000000005428 Rises=F Damp=F
 DIIS: error= 5.33D-07 at cycle  19 NSaved=  19.
 NSaved=19 IEnMin=19 EnMin= -3007.35546027569     IErMin=19 ErrMin= 5.33D-07
 ErrMax= 5.33D-07  0.00D+00 EMaxC= 1.00D-01 BMatC= 5.85D-10 BMatP= 5.73D-09
 IDIUse=1 WtCom= 1.00D+00 WtEn= 0.00D+00
 Coeff-Com:  0.514D-05-0.163D-04 0.248D-06 0.164D-06 0.885D-05-0.104D-05
 Coeff-Com: -0.216D-05-0.559D-04-0.219D-03-0.129D-02-0.235D-02-0.336D-02
 Coeff-Com: -0.268D-02 0.114D-01 0.379D-01 0.634D-01 0.189D+00 0.299D+00
 Coeff-Com:  0.410D+00
 Coeff:      0.514D-05-0.163D-04 0.248D-06 0.164D-06 0.885D-05-0.104D-05
 Coeff:     -0.216D-05-0.559D-04-0.219D-03-0.129D-02-0.235D-02-0.336D-02
 Coeff:     -0.268D-02 0.114D-01 0.379D-01 0.634D-01 0.189D+00 0.299D+00
 Coeff:      0.410D+00
 Gap=     0.043 Goal=   None    Shift=    0.000
 RMSDP=2.87D-08 MaxDP=3.56D-06 DE=-5.43D-09 OVMax= 6.73D-06

 Cycle  20  Pass 1  IDiag  1:
 RMSU=  1.58D-08    CP:  9.77D-01  1.11D+00  1.95D-01  9.33D-02  6.89D-01
                    CP:  4.79D-01  4.10D-01  4.85D-01  5.32D-01  5.34D-01
                    CP:  4.49D-01  5.36D-01  6.43D-01  8.90D-01  6.33D-01
                    CP:  4.61D-01  5.97D-01  4.98D-01  5.71D-01
 E= -3007.35546027624     Delta-E=       -0.000000000544 Rises=F Damp=F
 DIIS: error= 1.39D-07 at cycle  20 NSaved=  20.
 NSaved=20 IEnMin=20 EnMin= -3007.35546027624     IErMin=20 ErrMin= 1.39D-07
 ErrMax= 1.39D-07  0.00D+00 EMaxC= 1.00D-01 BMatC= 5.96D-11 BMatP= 5.85D-10
 IDIUse=1 WtCom= 1.00D+00 WtEn= 0.00D+00
 Coeff-Com:  0.305D-05-0.731D-05-0.195D-06 0.227D-06 0.174D-05-0.394D-06
 Coeff-Com:  0.558D-05-0.215D-04-0.767D-04-0.544D-03-0.102D-02-0.151D-02
 Coeff-Com: -0.146D-02 0.315D-02 0.142D-01 0.262D-01 0.826D-01 0.148D+00
 Coeff-Com:  0.272D+00 0.459D+00
 Coeff:      0.305D-05-0.731D-05-0.195D-06 0.227D-06 0.174D-05-0.394D-06
 Coeff:      0.558D-05-0.215D-04-0.767D-04-0.544D-03-0.102D-02-0.151D-02
 Coeff:     -0.146D-02 0.315D-02 0.142D-01 0.262D-01 0.826D-01 0.148D+00
 Coeff:      0.272D+00 0.459D+00
 Gap=     0.043 Goal=   None    Shift=    0.000
 RMSDP=9.56D-09 MaxDP=2.14D-06 DE=-5.44D-10 OVMax= 2.60D-06

 Cycle  21  Pass 1  IDiag  1:
 Restarting incremental Fock formation.
 E= -3007.35546027612     Delta-E=        0.000000000115 Rises=F Damp=F
 DIIS: error= 4.71D-08 at cycle  21 NSaved=  20.
 NSaved=20 IEnMin=19 EnMin= -3007.35546027624     IErMin=20 ErrMin= 4.71D-08
 ErrMax= 4.71D-08  0.00D+00 EMaxC= 1.00D-01 BMatC= 7.82D-12 BMatP= 5.96D-11
 IDIUse=1 WtCom= 1.00D+00 WtEn= 0.00D+00
 Coeff-Com:  0.123D-05-0.261D-05-0.678D-07 0.203D-06-0.196D-07 0.373D-05
 Coeff-Com: -0.887D-05-0.294D-04-0.228D-03-0.431D-03-0.662D-03-0.721D-03
 Coeff-Com:  0.841D-03 0.534D-02 0.107D-01 0.345D-01 0.662D-01 0.136D+00
 Coeff-Com:  0.313D+00 0.435D+00
 Coeff:      0.123D-05-0.261D-05-0.678D-07 0.203D-06-0.196D-07 0.373D-05
 Coeff:     -0.887D-05-0.294D-04-0.228D-03-0.431D-03-0.662D-03-0.721D-03
 Coeff:      0.841D-03 0.534D-02 0.107D-01 0.345D-01 0.662D-01 0.136D+00
 Coeff:      0.313D+00 0.435D+00
 Gap=     0.043 Goal=   None    Shift=    0.000
 RMSDP=3.47D-09 MaxDP=4.23D-07 DE= 1.15D-10 OVMax= 1.00D-06

 SCF Done:  E(RB-LYP) =  -3007.35546028     A.U. after   21 cycles
            NFock= 21  Conv=0.35D-08     -V/T= 2.0097
 KE= 2.978401872787D+03 PE=-2.572566830041D+04 EE= 1.037531728965D+04
 Leave Link  502 at Wed May  4 17:56:43 2022, MaxMem= 10066329600 cpu:            7506.4 elap:             313.6
 (Enter /sw/apps/gaussian-16.0/g16/l801.exe)
 DoSCS=F DFT=T ScalE2(SS,OS)=  1.000000  1.000000
 ExpMin= 3.36D-02 ExpMax= 4.95D+03 ExpMxC= 7.45D+02 IAcc=3 IRadAn=         5 AccDes= 0.00D+00
 HarFok:  IExCor=  205 AccDes= 0.00D+00 IRadAn=         5 IDoV=-2 UseB2=F ITyADJ=14
 ICtDFT= 12500011 ScaDFX=  1.000000  1.000000  1.000000  1.000000
 GSVD:  LWork=       -5460 too small for GESVD, short by       25550 words or       25550 for optimal perf.
 Largest valence mixing into a core orbital is  1.53D-04
 Largest core mixing into a valence orbital is  4.64D-05
 Range of M.O.s used for correlation:    71  1298
 NBasis=  1298 NAE=   246 NBE=   246 NFC=    70 NFV=     0
 NROrb=   1228 NOA=   176 NOB=   176 NVA=  1052 NVB=  1052

 **** Warning!!: The smallest alpha delta epsilon is  0.42876814D-01

 Leave Link  801 at Wed May  4 17:56:43 2022, MaxMem= 10066329600 cpu:               6.9 elap:               0.3
 (Enter /sw/apps/gaussian-16.0/g16/l914.exe)
 RHF ground state
 Two-electron integrals replicated using symmetry.
 MDV= 10066329600 DFT=T DoStab=F Mixed=F DoRPA=T DoScal=T NonHer=F
 Making orbital integer symmetry assigments:
 Orbital symmetries:
       Occupied  (A) (A) (A) (A) (A) (A) (A) (A) (A) (A) (A) (A)
                 (A) (A) (A) (A) (A) (A) (A) (A) (A) (A) (A) (A)
                 (A) (A) (A) (A) (A) (A) (A) (A) (A) (A) (A) (A)
                 (A) (A) (A) (A) (A) (A) (A) (A) (A) (A) (A) (A)
                 (A) (A) (A) (A) (A) (A) (A) (A) (A) (A) (A) (A)
                 (A) (A) (A) (A) (A) (A) (A) (A) (A) (A) (A) (A)
                 (A) (A) (A) (A) (A) (A) (A) (A) (A) (A) (A) (A)
                 (A) (A) (A) (A) (A) (A) (A) (A) (A) (A) (A) (A)
                 (A) (A) (A) (A) (A) (A) (A) (A) (A) (A) (A) (A)
                 (A) (A) (A) (A) (A) (A) (A) (A) (A) (A) (A) (A)
                 (A) (A) (A) (A) (A) (A) (A) (A) (A) (A) (A) (A)
                 (A) (A) (A) (A) (A) (A) (A) (A) (A) (A) (A) (A)
                 (A) (A) (A) (A) (A) (A) (A) (A) (A) (A) (A) (A)
                 (A) (A) (A) (A) (A) (A) (A) (A) (A) (A) (A) (A)
                 (A) (A) (A) (A) (A) (A) (A) (A) (A) (A) (A) (A)
                 (A) (A) (A) (A) (A) (A) (A) (A) (A) (A) (A) (A)
                 (A) (A) (A) (A) (A) (A) (A) (A) (A) (A) (A) (A)
                 (A) (A) (A) (A) (A) (A) (A) (A) (A) (A) (A) (A)
                 (A) (A) (A) (A) (A) (A) (A) (A) (A) (A) (A) (A)
                 (A) (A) (A) (A) (A) (A) (A) (A) (A) (A) (A) (A)
                 (A) (A) (A) (A) (A) (A)
       Virtual   (A) (A) (A) (A) (A) (A) (A) (A) (A) (A) (A) (A)
                 (A) (A) (A) (A) (A) (A) (A) (A) (A) (A) (A) (A)
                 (A) (A) (A) (A) (A) (A) (A) (A) (A) (A) (A) (A)
                 (A) (A) (A) (A) (A) (A) (A) (A) (A) (A) (A) (A)
                 (A) (A) (A) (A) (A) (A) (A) (A) (A) (A) (A) (A)
                 (A) (A) (A) (A) (A) (A) (A) (A) (A) (A) (A) (A)
                 (A) (A) (A) (A) (A) (A) (A) (A) (A) (A) (A) (A)
                 (A) (A) (A) (A) (A) (A) (A) (A) (A) (A) (A) (A)
                 (A) (A) (A) (A) (A) (A) (A) (A) (A) (A) (A) (A)
                 (A) (A) (A) (A) (A) (A) (A) (A) (A) (A) (A) (A)
                 (A) (A) (A) (A) (A) (A) (A) (A) (A) (A) (A) (A)
                 (A) (A) (A) (A) (A) (A) (A) (A) (A) (A) (A) (A)
                 (A) (A) (A) (A) (A) (A) (A) (A) (A) (A) (A) (A)
                 (A) (A) (A) (A) (A) (A) (A) (A) (A) (A) (A) (A)
                 (A) (A) (A) (A) (A) (A) (A) (A) (A) (A) (A) (A)
                 (A) (A) (A) (A) (A) (A) (A) (A) (A) (A) (A) (A)
                 (A) (A) (A) (A) (A) (A) (A) (A) (A) (A) (A) (A)
                 (A) (A) (A) (A) (A) (A) (A) (A) (A) (A) (A) (A)
                 (A) (A) (A) (A) (A) (A) (A) (A) (A) (A) (A) (A)
                 (A) (A) (A) (A) (A) (A) (A) (A) (A) (A) (A) (A)
                 (A) (A) (A) (A) (A) (A) (A) (A) (A) (A) (A) (A)
                 (A) (A) (A) (A) (A) (A) (A) (A) (A) (A) (A) (A)
                 (A) (A) (A) (A) (A) (A) (A) (A) (A) (A) (A) (A)
                 (A) (A) (A) (A) (A) (A) (A) (A) (A) (A) (A) (A)
                 (A) (A) (A) (A) (A) (A) (A) (A) (A) (A) (A) (A)
                 (A) (A) (A) (A) (A) (A) (A) (A) (A) (A) (A) (A)
                 (A) (A) (A) (A) (A) (A) (A) (A) (A) (A) (A) (A)
                 (A) (A) (A) (A) (A) (A) (A) (A) (A) (A) (A) (A)
                 (A) (A) (A) (A) (A) (A) (A) (A) (A) (A) (A) (A)
                 (A) (A) (A) (A) (A) (A) (A) (A) (A) (A) (A) (A)
                 (A) (A) (A) (A) (A) (A) (A) (A) (A) (A) (A) (A)
                 (A) (A) (A) (A) (A) (A) (A) (A) (A) (A) (A) (A)
                 (A) (A) (A) (A) (A) (A) (A) (A) (A) (A) (A) (A)
                 (A) (A) (A) (A) (A) (A) (A) (A) (A) (A) (A) (A)
                 (A) (A) (A) (A) (A) (A) (A) (A) (A) (A) (A) (A)
                 (A) (A) (A) (A) (A) (A) (A) (A) (A) (A) (A) (A)
                 (A) (A) (A) (A) (A) (A) (A) (A) (A) (A) (A) (A)
                 (A) (A) (A) (A) (A) (A) (A) (A) (A) (A) (A) (A)
                 (A) (A) (A) (A) (A) (A) (A) (A) (A) (A) (A) (A)
                 (A) (A) (A) (A) (A) (A) (A) (A) (A) (A) (A) (A)
                 (A) (A) (A) (A) (A) (A) (A) (A) (A) (A) (A) (A)
                 (A) (A) (A) (A) (A) (A) (A) (A) (A) (A) (A) (A)
                 (A) (A) (A) (A) (A) (A) (A) (A) (A) (A) (A) (A)
                 (A) (A) (A) (A) (A) (A) (A) (A) (A) (A) (A) (A)
                 (A) (A) (A) (A) (A) (A) (A) (A) (A) (A) (A) (A)
                 (A) (A) (A) (A) (A) (A) (A) (A) (A) (A) (A) (A)
                 (A) (A) (A) (A) (A) (A) (A) (A) (A) (A) (A) (A)
                 (A) (A) (A) (A) (A) (A) (A) (A) (A) (A) (A) (A)
                 (A) (A) (A) (A) (A) (A) (A) (A) (A) (A) (A) (A)
                 (A) (A) (A) (A) (A) (A) (A) (A) (A) (A) (A) (A)
                 (A) (A) (A) (A) (A) (A) (A) (A) (A) (A) (A) (A)
                 (A) (A) (A) (A) (A) (A) (A) (A) (A) (A) (A) (A)
                 (A) (A) (A) (A) (A) (A) (A) (A) (A) (A) (A) (A)
                 (A) (A) (A) (A) (A) (A) (A) (A) (A) (A) (A) (A)
                 (A) (A) (A) (A) (A) (A) (A) (A) (A) (A) (A) (A)
                 (A) (A) (A) (A) (A) (A) (A) (A) (A) (A) (A) (A)
                 (A) (A) (A) (A) (A) (A) (A) (A) (A) (A) (A) (A)
                 (A) (A) (A) (A) (A) (A) (A) (A) (A) (A) (A) (A)
                 (A) (A) (A) (A) (A) (A) (A) (A) (A) (A) (A) (A)
                 (A) (A) (A) (A) (A) (A) (A) (A) (A) (A) (A) (A)
                 (A) (A) (A) (A) (A) (A) (A) (A) (A) (A) (A) (A)
                 (A) (A) (A) (A) (A) (A) (A) (A) (A) (A) (A) (A)
                 (A) (A) (A) (A) (A) (A) (A) (A) (A) (A) (A) (A)
                 (A) (A) (A) (A) (A) (A) (A) (A) (A) (A) (A) (A)
                 (A) (A) (A) (A) (A) (A) (A) (A) (A) (A) (A) (A)
                 (A) (A) (A) (A) (A) (A) (A) (A) (A) (A) (A) (A)
                 (A) (A) (A) (A) (A) (A) (A) (A) (A) (A) (A) (A)
                 (A) (A) (A) (A) (A) (A) (A) (A) (A) (A) (A) (A)
                 (A) (A) (A) (A) (A) (A) (A) (A) (A) (A) (A) (A)
                 (A) (A) (A) (A) (A) (A) (A) (A) (A) (A) (A) (A)
                 (A) (A) (A) (A) (A) (A) (A) (A) (A) (A) (A) (A)
                 (A) (A) (A) (A) (A) (A) (A) (A) (A) (A) (A) (A)
                 (A) (A) (A) (A) (A) (A) (A) (A) (A) (A) (A) (A)
                 (A) (A) (A) (A) (A) (A) (A) (A) (A) (A) (A) (A)
                 (A) (A) (A) (A) (A) (A) (A) (A) (A) (A) (A) (A)
                 (A) (A) (A) (A) (A) (A) (A) (A) (A) (A) (A) (A)
                 (A) (A) (A) (A) (A) (A) (A) (A) (A) (A) (A) (A)
                 (A) (A) (A) (A) (A) (A) (A) (A) (A) (A) (A) (A)
                 (A) (A) (A) (A) (A) (A) (A) (A) (A) (A) (A) (A)
                 (A) (A) (A) (A) (A) (A) (A) (A) (A) (A) (A) (A)
                 (A) (A) (A) (A) (A) (A) (A) (A) (A) (A) (A) (A)
                 (A) (A) (A) (A) (A) (A) (A) (A) (A) (A) (A) (A)
                 (A) (A) (A) (A) (A) (A) (A) (A) (A) (A) (A) (A)
                 (A) (A) (A) (A) (A) (A) (A) (A) (A) (A) (A) (A)
                 (A) (A) (A) (A) (A) (A) (A) (A) (A) (A) (A) (A)
                 (A) (A) (A) (A) (A) (A) (A) (A) (A) (A) (A) (A)
                 (A) (A) (A) (A) (A) (A) (A) (A) (A) (A) (A) (A)
                 (A) (A) (A) (A) (A) (A) (A) (A)
    20 initial guesses have been made.
 Convergence on wavefunction:    0.001000000000000
 Davidson Disk Diagonalization:  ConvIn= 1.00D-03 SkipCon=T Conv= 1.00D-03.
 Max sub-space:  2000 roots to seek:    20 dimension of matrix:       370304
 Iteration     1 Dimension    20 NMult     0 NNew     20
 CISAX will form    20 AO SS matrices at one time.
 NMat=    20 NSing=    20 JSym2X= 0.
 FoFJK:  IHMeth= 1 ICntrl=     500 DoSepK=F KAlg= 0 I1Cent=           0 FoldK=F
 IRaf= 500000000 NMat=      20 IRICut=       1 DoRegI=T DoRafI=F ISym2E= 0 IDoP0=0 IntGTp=1.
 FoFCou: FMM=T IPFlag=           0 FMFlag=      100000 FMFlg1=        2001
         NFxFlg=           0 DoJE=F BraDBF=F KetDBF=F FulRan=T
         wScrn=  0.000000 ICntrl=       500 IOpCl=  0 I1Cent=           0 NGrid=           0
         NMat0=   20 NMatS0=     20 NMatT0=    0 NMatD0=   20 NMtDS0=    0 NMtDT0=    0
 Symmetry not used in FoFCou.
 FMM levels:  10  Number of levels for PrismC:   9
 New state      1 was old state      3
 New state      2 was old state      4
 New state      3 was old state      1
 New state      4 was old state      5
 New state      5 was old state      2
 Excitation Energies [eV] at current iteration:
 Root      1 :     1.730255572270582
 Root      2 :     1.916536572476210
 Root      3 :     2.141694120925159
 Root      4 :     2.155501916570508
 Root      5 :     2.218680888545264
 Root      6 :     2.466516995780220
 Root      7 :     2.799364532855969
 Root      8 :     2.906770266334222
 Root      9 :     2.929135787602246
 Root     10 :     2.957279164275724
 Root     11 :     3.072402599594158
 Root     12 :     3.110978833360430
 Root     13 :     3.149004285169047
 Root     14 :     3.201203498525483
 Root     15 :     3.243039426527175
 Root     16 :     3.285584400935644
 Root     17 :     3.670196696765324
 Root     18 :     3.929463072510382
 Root     19 :     4.000187827940928
 Root     20 :     4.435671273795823
 Iteration     2 Dimension    40 NMult    20 NNew     20
 CISAX will form    20 AO SS matrices at one time.
 NMat=    20 NSing=    20 JSym2X= 0.
 Root      1 not converged, maximum delta is    0.030486647774946
 New state      2 was old state      3
 Root      2 not converged, maximum delta is    0.217206037541356
 New state      3 was old state      2
 Root      3 not converged, maximum delta is    0.203847610600739
 New state      4 was old state      5
 Root      4 not converged, maximum delta is    0.122204263447143
 New state      5 was old state      4
 Root      5 not converged, maximum delta is    0.114136526421718
 Excitation Energies [eV] at current iteration:
 Root      1 :     1.724942380753545   Change is   -0.005313191517037
 Root      2 :     1.890892773980069   Change is   -0.250801346945090
 Root      3 :     1.912707999819724   Change is   -0.003828572656486
 Root      4 :     2.032805081616972   Change is   -0.185875806928292
 Root      5 :     2.156182682607035   Change is    0.000680766036527
 Root      6 :     2.377094486542167   Change is   -0.089422509238053
 Root      7 :     2.606783782311068   Change is   -0.299986484023153
 Root      8 :     2.650109354020167   Change is   -0.460869479340263
 Root      9 :     2.798235254773258   Change is   -0.001129278082712
 Root     10 :     2.829339293634481   Change is   -0.099796493967765
 Root     11 :     2.947734480010537   Change is   -0.009544684265187
 Root     12 :     2.998476241031721   Change is   -0.287108159903924
 Root     13 :     3.072402455832210   Change is   -0.000000143761947
 Root     14 :     3.149003605009061   Change is   -0.000000680159986
 Root     15 :     3.189000486614942   Change is   -0.012203011910541
 Root     16 :     3.192929834957356   Change is   -0.050109591569819
 Root     17 :     3.387995442465263   Change is   -0.282201254300061
 Root     18 :     3.524398325861911   Change is   -0.475789502079016
 Root     19 :     3.695752823197984   Change is   -0.233710249312398
 Root     20 :     4.027261758272920   Change is   -0.408409515522903
 Iteration     3 Dimension    45 NMult    40 NNew      5
 CISAX will form     5 AO SS matrices at one time.
 NMat=     5 NSing=     5 JSym2X= 0.
 Root      1 not converged, maximum delta is    0.022240377989242
 Root      2 not converged, maximum delta is    0.129488831981819
 Root      3 not converged, maximum delta is    0.118522620077197
 Root      4 not converged, maximum delta is    0.019404385537152
 Root      5 not converged, maximum delta is    0.007557539396318
 Excitation Energies [eV] at current iteration:
 Root      1 :     1.722990779471225   Change is   -0.001951601282320
 Root      2 :     1.845398597110308   Change is   -0.045494176869761
 Root      3 :     1.909982385207208   Change is   -0.002725614612516
 Root      4 :     1.993839621011522   Change is   -0.038965460605450
 Root      5 :     2.156075326486074   Change is   -0.000107356120961
 Iteration     4 Dimension    50 NMult    45 NNew      5
 CISAX will form     5 AO SS matrices at one time.
 NMat=     5 NSing=     5 JSym2X= 0.
 Root      1 not converged, maximum delta is    0.010665377134554
 Root      2 not converged, maximum delta is    0.013343433162882
 Root      3 not converged, maximum delta is    0.011836988893856
 Root      4 not converged, maximum delta is    0.013750823384805
 Root      5 not converged, maximum delta is    0.002194829265387
 Excitation Energies [eV] at current iteration:
 Root      1 :     1.721944852594020   Change is   -0.001045926877206
 Root      2 :     1.828531209347503   Change is   -0.016867387762804
 Root      3 :     1.909272421713173   Change is   -0.000709963494035
 Root      4 :     1.976441927987661   Change is   -0.017397693023861
 Root      5 :     2.156042960116709   Change is   -0.000032366369364
 Iteration     5 Dimension    55 NMult    50 NNew      5
 CISAX will form     5 AO SS matrices at one time.
 NMat=     5 NSing=     5 JSym2X= 0.
 Root      1 not converged, maximum delta is    0.003230512900680
 Root      2 not converged, maximum delta is    0.003059869534127
 Root      3 not converged, maximum delta is    0.002598672858316
 Root      4 not converged, maximum delta is    0.006657918694590
 Root      5 has converged.
 Excitation Energies [eV] at current iteration:
 Root      1 :     1.721553631319685   Change is   -0.000391221274335
 Root      2 :     1.823245948071198   Change is   -0.005285261276305
 Root      3 :     1.909096755001687   Change is   -0.000175666711486
 Root      4 :     1.970893791568225   Change is   -0.005548136419436
 Root      5 :     2.156033305270778   Change is   -0.000009654845931
 Iteration     6 Dimension    59 NMult    55 NNew      4
 CISAX will form     4 AO SS matrices at one time.
 NMat=     4 NSing=     4 JSym2X= 0.
 Root      1 not converged, maximum delta is    0.001313476244127
 Root      2 not converged, maximum delta is    0.002760644609144
 Root      3 not converged, maximum delta is    0.001175270446491
 Root      4 not converged, maximum delta is    0.005283129825004
 Root      5 has converged.
 Excitation Energies [eV] at current iteration:
 Root      1 :     1.721377584329581   Change is   -0.000176046990104
 Root      2 :     1.820727339483764   Change is   -0.002518608587435
 Root      3 :     1.909026468329054   Change is   -0.000070286672634
 Root      4 :     1.968237875321565   Change is   -0.002655916246660
 Root      5 :     2.156029523870324   Change is   -0.000003781400454
 Iteration     7 Dimension    63 NMult    59 NNew      4
 CISAX will form     4 AO SS matrices at one time.
 NMat=     4 NSing=     4 JSym2X= 0.
 Root      1 has converged.
 Root      2 not converged, maximum delta is    0.002051721792472
 Root      3 has converged.
 Root      4 not converged, maximum delta is    0.003831942851448
 Root      5 has converged.
 Excitation Energies [eV] at current iteration:
 Root      1 :     1.721303531195772   Change is   -0.000074053133809
 Root      2 :     1.819653521746069   Change is   -0.001073817737695
 Root      3 :     1.908993110806181   Change is   -0.000033357522872
 Root      4 :     1.967043921533660   Change is   -0.001193953787904
 Root      5 :     2.156028328256556   Change is   -0.000001195613768
 Iteration     8 Dimension    65 NMult    63 NNew      2
 CISAX will form     2 AO SS matrices at one time.
 NMat=     2 NSing=     2 JSym2X= 0.
 Root      1 has converged.
 Root      2 not converged, maximum delta is    0.001408124692646
 Root      3 has converged.
 Root      4 not converged, maximum delta is    0.002593701497994
 Root      5 has converged.
 Excitation Energies [eV] at current iteration:
 Root      1 :     1.721289897127032   Change is   -0.000013634068740
 Root      2 :     1.819202197054560   Change is   -0.000451324691509
 Root      3 :     1.908990496741551   Change is   -0.000002614064630
 Root      4 :     1.966510277304108   Change is   -0.000533644229552
 Root      5 :     2.156027954747999   Change is   -0.000000373508557
 Iteration     9 Dimension    67 NMult    65 NNew      2
 CISAX will form     2 AO SS matrices at one time.
 NMat=     2 NSing=     2 JSym2X= 0.
 Root      1 has converged.
 Root      2 has converged.
 Root      3 has converged.
 Root      4 not converged, maximum delta is    0.001729979692285
 Root      5 has converged.
 Excitation Energies [eV] at current iteration:
 Root      1 :     1.721284908006743   Change is   -0.000004989120289
[...]
 Alpha virt. eigenvalues --    1.08514   1.08945   1.09886   1.10116   1.10588
 Alpha virt. eigenvalues --    1.11036   1.11337   1.11848   1.12112   1.12547
 Alpha virt. eigenvalues --    1.13026   1.13396   1.14066   1.14232   1.14766
 Alpha virt. eigenvalues --    1.15278   1.16479   1.16866   1.17327   1.17517
 Alpha virt. eigenvalues --    1.18332   1.18670   1.19709   1.20222   1.20631
 Alpha virt. eigenvalues --    1.20914   1.21148   1.21256   1.21498   1.22173
 Alpha virt. eigenvalues --    1.22379   1.22891   1.23802   1.24222   1.24573
 Alpha virt. eigenvalues --    1.25413   1.25754   1.26268   1.26535   1.26718
 Alpha virt. eigenvalues --    1.27420   1.27485   1.27842   1.28159   1.28701
 Alpha virt. eigenvalues --    1.29193   1.29566   1.29922   1.30749   1.31059
 Alpha virt. eigenvalues --    1.31569   1.31878   1.31919   1.32151   1.32680
 Alpha virt. eigenvalues --    1.32959   1.33308   1.33833   1.34207   1.34246
 Alpha virt. eigenvalues --    1.34468   1.34820   1.35134   1.35719   1.36394
 Alpha virt. eigenvalues --    1.36676   1.37308   1.37843   1.38091   1.38331
 Alpha virt. eigenvalues --    1.38372   1.39073   1.39402   1.39670   1.39747
 Alpha virt. eigenvalues --    1.40077   1.40263   1.41127   1.42034   1.42736
 Alpha virt. eigenvalues --    1.42972   1.43736   1.44348   1.44600   1.44766
 Alpha virt. eigenvalues --    1.44823   1.45344   1.45490   1.45862   1.45891
 Alpha virt. eigenvalues --    1.46461   1.46580   1.46595   1.46907   1.47047
 Alpha virt. eigenvalues --    1.47252   1.47471   1.47520   1.47997   1.48521
 Alpha virt. eigenvalues --    1.48869   1.49260   1.49305   1.50002   1.50403
 Alpha virt. eigenvalues --    1.50529   1.50973   1.51109   1.51236   1.51312
 Alpha virt. eigenvalues --    1.51518   1.51736   1.51968   1.52397   1.52513
 Alpha virt. eigenvalues --    1.52925   1.53235   1.53728   1.54095   1.54683
 Alpha virt. eigenvalues --    1.54813   1.55005   1.55387   1.55822   1.56255
 Alpha virt. eigenvalues --    1.56390   1.56528   1.57144   1.58077   1.59240
 Alpha virt. eigenvalues --    1.59392   1.59698   1.60432   1.61157   1.61816
 Alpha virt. eigenvalues --    1.62305   1.62792   1.62939   1.63334   1.63604
 Alpha virt. eigenvalues --    1.63818   1.63825   1.64334   1.64573   1.64848
 Alpha virt. eigenvalues --    1.65128   1.65680   1.66061   1.66259   1.66394
 Alpha virt. eigenvalues --    1.66697   1.67122   1.67336   1.67375   1.67517
 Alpha virt. eigenvalues --    1.67596   1.67997   1.68175   1.68434   1.68628
 Alpha virt. eigenvalues --    1.68712   1.68960   1.69178   1.69216   1.69343
 Alpha virt. eigenvalues --    1.69758   1.69926   1.70079   1.70301   1.70550
 Alpha virt. eigenvalues --    1.70659   1.70963   1.71274   1.71382   1.71426
 Alpha virt. eigenvalues --    1.71571   1.71705   1.71835   1.72075   1.72196
 Alpha virt. eigenvalues --    1.72554   1.72664   1.72710   1.72964   1.73261
 Alpha virt. eigenvalues --    1.73338   1.73620   1.73724   1.73942   1.74058
 Alpha virt. eigenvalues --    1.74264   1.74428   1.74578   1.74988   1.75018
 Alpha virt. eigenvalues --    1.75409   1.75546   1.75733   1.75843   1.76007
 Alpha virt. eigenvalues --    1.76193   1.76299   1.76679   1.76867   1.77003
 Alpha virt. eigenvalues --    1.77421   1.77615   1.77648   1.77835   1.77881
 Alpha virt. eigenvalues --    1.78413   1.78995   1.79162   1.79372   1.79565
 Alpha virt. eigenvalues --    1.79773   1.79843   1.80518   1.80647   1.80888
 Alpha virt. eigenvalues --    1.81246   1.82185   1.82387   1.82423   1.82605
 Alpha virt. eigenvalues --    1.82741   1.82814   1.82987   1.83245   1.83377
 Alpha virt. eigenvalues --    1.83535   1.84134   1.84161   1.84196   1.84426
 Alpha virt. eigenvalues --    1.84800   1.85497   1.85737   1.85986   1.86181
 Alpha virt. eigenvalues --    1.86427   1.86599   1.86758   1.87407   1.87609
 Alpha virt. eigenvalues --    1.87820   1.87875   1.88150   1.88491   1.88535
 Alpha virt. eigenvalues --    1.88632   1.89135   1.89465   1.89688   1.89951
 Alpha virt. eigenvalues --    1.90069   1.90191   1.90294   1.90668   1.91312
 Alpha virt. eigenvalues --    1.91453   1.91885   1.92326   1.92476   1.92658
 Alpha virt. eigenvalues --    1.92950   1.93221   1.93797   1.93882   1.94296
 Alpha virt. eigenvalues --    1.94724   1.95000   1.95386   1.95502   1.95584
 Alpha virt. eigenvalues --    1.95862   1.96310   1.97015   1.97146   1.97407
 Alpha virt. eigenvalues --    1.97457   1.97869   1.98588   1.98791   1.99012
 Alpha virt. eigenvalues --    1.99227   1.99790   1.99814   2.00333   2.00467
 Alpha virt. eigenvalues --    2.00681   2.00979   2.01083   2.01517   2.02032
 Alpha virt. eigenvalues --    2.02285   2.02362   2.02723   2.02835   2.02841
 Alpha virt. eigenvalues --    2.03210   2.03426   2.04291   2.04353   2.04450
 Alpha virt. eigenvalues --    2.04989   2.05244   2.05328   2.05787   2.06135
 Alpha virt. eigenvalues --    2.06835   2.07007   2.07228   2.07395   2.07839
 Alpha virt. eigenvalues --    2.08109   2.08285   2.08802   2.08871   2.09356
 Alpha virt. eigenvalues --    2.09475   2.09687   2.09916   2.10486   2.10958
 Alpha virt. eigenvalues --    2.11518   2.12214   2.13010   2.13104   2.13874
 Alpha virt. eigenvalues --    2.14187   2.14569   2.14840   2.15190   2.15609
 Alpha virt. eigenvalues --    2.16304   2.16614   2.17731   2.17861   2.18280
 Alpha virt. eigenvalues --    2.18569   2.18754   2.18999   2.19420   2.19511
 Alpha virt. eigenvalues --    2.19908   2.19985   2.20742   2.20928   2.21108
 Alpha virt. eigenvalues --    2.21514   2.21785   2.22978   2.23128   2.23225
 Alpha virt. eigenvalues --    2.23766   2.23846   2.24519   2.24614   2.25045
 Alpha virt. eigenvalues --    2.25724   2.25863   2.26176   2.26575   2.27175
 Alpha virt. eigenvalues --    2.27524   2.27832   2.28084   2.28119   2.28592
 Alpha virt. eigenvalues --    2.29215   2.29629   2.30163   2.30597   2.30759
 Alpha virt. eigenvalues --    2.30842   2.31180   2.31521   2.31668   2.32119
 Alpha virt. eigenvalues --    2.32852   2.33465   2.33633   2.34081   2.34506
 Alpha virt. eigenvalues --    2.35015   2.35046   2.35381   2.35432   2.35678
 Alpha virt. eigenvalues --    2.35881   2.36020   2.36459   2.36629   2.37635
 Alpha virt. eigenvalues --    2.38183   2.38329   2.38897   2.39136   2.39484
 Alpha virt. eigenvalues --    2.39943   2.40027   2.40984   2.41091   2.41565
 Alpha virt. eigenvalues --    2.41843   2.42319   2.42658   2.42806   2.43666
 Alpha virt. eigenvalues --    2.44283   2.44584   2.45020   2.45943   2.46251
 Alpha virt. eigenvalues --    2.46399   2.47094   2.47229   2.47859   2.48188
 Alpha virt. eigenvalues --    2.48516   2.49315   2.49630   2.49773   2.49850
 Alpha virt. eigenvalues --    2.50580   2.50637   2.50857   2.51324   2.51712
 Alpha virt. eigenvalues --    2.52138   2.52426   2.52552   2.52695   2.53041
 Alpha virt. eigenvalues --    2.53524   2.53897   2.54332   2.54748   2.54821
 Alpha virt. eigenvalues --    2.55943   2.56115   2.56839   2.57868   2.57993
 Alpha virt. eigenvalues --    2.58376   2.58549   2.58952   2.59202   2.59276
 Alpha virt. eigenvalues --    2.59568   2.59877   2.60183   2.61781   2.61882
 Alpha virt. eigenvalues --    2.62344   2.62408   2.62604   2.62879   2.63292
 Alpha virt. eigenvalues --    2.63331   2.64179   2.64671   2.64760   2.66228
 Alpha virt. eigenvalues --    2.66620   2.67092   2.67541   2.67921   2.68426
 Alpha virt. eigenvalues --    2.69126   2.69492   2.69992   2.70755   2.71030
 Alpha virt. eigenvalues --    2.71596   2.71717   2.72354   2.72583   2.72957
 Alpha virt. eigenvalues --    2.73455   2.73706   2.73761   2.74293   2.74724
 Alpha virt. eigenvalues --    2.75620   2.76536   2.76885   2.77695   2.77777
 Alpha virt. eigenvalues --    2.78056   2.78516   2.79213   2.79524   2.79666
 Alpha virt. eigenvalues --    2.80116   2.80299   2.80462   2.80793   2.81113
 Alpha virt. eigenvalues --    2.81505   2.81583   2.82430   2.83026   2.83132
 Alpha virt. eigenvalues --    2.83375   2.83390   2.84047   2.84331   2.84477
 Alpha virt. eigenvalues --    2.84843   2.84930   2.85067   2.85535   2.85889
 Alpha virt. eigenvalues --    2.86381   2.86442   2.86900   2.87163   2.87264
 Alpha virt. eigenvalues --    2.87425   2.88135   2.88282   2.88481   2.88739
 Alpha virt. eigenvalues --    2.89240   2.89383   2.90169   2.90400   2.90779
 Alpha virt. eigenvalues --    2.90826   2.91018   2.91352   2.91527   2.92104
 Alpha virt. eigenvalues --    2.92269   2.92530   2.92727   2.92845   2.93444
 Alpha virt. eigenvalues --    2.93871   2.94261   2.95016   2.95297   2.95571
 Alpha virt. eigenvalues --    2.95613   2.95920   2.96607   2.97246   2.97623
 Alpha virt. eigenvalues --    2.97891   2.98543   2.99078   2.99669   2.99917
 Alpha virt. eigenvalues --    3.00446   3.00553   3.01016   3.01287   3.01626
 Alpha virt. eigenvalues --    3.01773   3.02839   3.04552   3.05244   3.05848
 Alpha virt. eigenvalues --    3.06358   3.07699   3.07966   3.08119   3.09050
 Alpha virt. eigenvalues --    3.09556   3.10317   3.13075   3.14272   3.14862
 Alpha virt. eigenvalues --    3.15476   3.22489   3.23979   3.25029   3.28845
 Alpha virt. eigenvalues --    3.31872   3.36834   3.38563   3.40903   3.44833
 Alpha virt. eigenvalues --    3.46008   3.48394   3.49073   3.51530   3.53036
 Alpha virt. eigenvalues --    3.58285   3.60906
          Condensed to atoms (all electrons):
 Mulliken charges:
               1
     1  Mg   0.701917
     2  C    0.060773
     3  C   -0.108412
     4  C   -0.011452
     5  C   -0.137904
     6  N   -0.222116
     7  C   -0.092721
     8  C    0.061236
     9  C   -0.017240
    10  C    0.040023
    11  C    0.141469
    12  C    0.099305
    13  C    0.176410
    14  C    0.085835
    15  O   -0.185909
    16  O   -0.304534
    17  N   -0.291558
    18  C    0.158169
    19  C   -0.137191
    20  C    0.011432
    21  C    0.102600
    22  C    0.146621
    23  C   -0.058406
    24  O   -0.203019
    25  C    0.127766
    26  N   -0.128975
    27  C   -0.029514
    28  C   -0.016341
    29  C    0.013554
    30  C    0.012315
    31  C    0.152810
    32  C    0.093245
    33  C    0.059467
    34  N   -0.211570
    35  C    0.143025
    36  C   -0.189513
    37  C    0.145617
    38  C    0.031439
    39  C    0.180926
    40  C   -0.068566
    41  O   -0.159215
    42  C    0.023124
    43  C    0.121864
    44  O   -0.176268
    45  O   -0.271940
    46  C    0.200804
    47  C    0.319213
    48  C   -0.088821
    49  C   -0.196346
    50  C    0.182342
    51  C    0.112001
    52  C    0.084367
    53  C    0.136611
    54  C   -0.092350
    55  C    0.104507
    56  C    0.087654
    57  C    0.012279
    58  C    0.212892
    59  C   -0.088181
    60  C    0.107385
    61  C    0.121142
    62  C    0.074156
    63  C    0.082029
    64  C   -0.137917
    65  C    0.084540
    66  C    0.098715
    67  H   -0.062492
    68  H   -0.037958
    69  H   -0.072308
    70  H   -0.035704
    71  H   -0.046532
    72  H   -0.008084
    73  H   -0.006482
    74  H   -0.006230
    75  H   -0.026393
    76  H    0.014844
    77  H   -0.004780
    78  H   -0.005633
    79  H   -0.020989
    80  H    0.006615
    81  H    0.013552
    82  H    0.009887
    83  H   -0.004521
    84  H    0.017674
    85  H   -0.014233
    86  H   -0.041858
    87  H    0.007576
    88  H   -0.017414
    89  H   -0.002619
    90  H   -0.020125
    91  H   -0.024445
    92  H   -0.012411
    93  H    0.001350
    94  H   -0.003806
    95  H    0.005300
    96  H   -0.004001
    97  H    0.011917
    98  H    0.002680
    99  H    0.014010
   100  H    0.027959
   101  H    0.022402
   102  H    0.020314
   103  H   -0.005959
   104  H   -0.038940
   105  H   -0.010944
   106  H   -0.014392
   107  H   -0.000983
   108  H   -0.043851
   109  H   -0.010250
   110  H   -0.030904
   111  H   -0.031075
   112  H   -0.026794
   113  H   -0.042965
   114  H   -0.044578
   115  H   -0.024668
   116  H   -0.020811
   117  H   -0.032682
   118  H   -0.034049
   119  H   -0.036701
   120  H   -0.037583
   121  H   -0.026268
   122  H   -0.024597
   123  H   -0.051941
   124  H   -0.023690
   125  H   -0.021580
   126  H   -0.019878
   127  H   -0.029885
   128  H   -0.031423
   129  H   -0.038060
   130  H   -0.024506
   131  H   -0.025350
   132  H   -0.038052
   133  H   -0.049112
   134  H   -0.028345
   135  H   -0.005989
   136  H   -0.007738
   137  H   -0.023389
   138  H   -0.010232
   139  H   -0.007830
   140  H   -0.006670
 Sum of Mulliken charges =  -0.00000
 Mulliken charges with hydrogens summed into heavy atoms:
               1
     1  Mg   0.701917
     2  C    0.060773
     3  C   -0.170905
     4  C   -0.049410
     5  C   -0.210212
     6  N   -0.222116
     7  C   -0.092721
     8  C    0.025532
     9  C   -0.063772
    10  C    0.040023
    11  C    0.120673
    12  C    0.087757
    13  C    0.165997
    14  C    0.085835
    15  O   -0.185909
    16  O   -0.304534
    17  N   -0.291558
    18  C    0.158169
    19  C   -0.137191
    20  C    0.011432
    21  C    0.102600
    22  C    0.145801
    23  C   -0.058406
    24  O   -0.203019
    25  C    0.150807
    26  N   -0.128975
    27  C   -0.029514
    28  C   -0.030574
    29  C   -0.028303
    30  C    0.012315
    31  C    0.140354
    32  C    0.048675
    33  C    0.044600
    34  N   -0.211570
    35  C    0.143025
    36  C   -0.189513
    37  C    0.145617
    38  C    0.031439
    39  C    0.194141
    40  C   -0.068566
    41  O   -0.159215
    42  C    0.025804
    43  C    0.121864
    44  O   -0.176268
    45  O   -0.271940
    46  C    0.265175
    47  C    0.333568
    48  C   -0.127761
    49  C   -0.196346
    50  C    0.156023
    51  C    0.057900
    52  C    0.022387
    53  C    0.066853
    54  C   -0.136928
    55  C    0.026346
    56  C    0.016903
    57  C   -0.051573
    58  C    0.136354
    59  C   -0.111871
    60  C    0.036041
    61  C    0.051659
    62  C    0.024300
    63  C   -0.005135
    64  C   -0.166262
    65  C    0.047424
    66  C    0.073982
 Electronic spatial extent (au):  <R**2>=         146292.7006
 Charge=             -0.0000 electrons
 Dipole moment (field-independent basis, Debye):
    X=             -2.0815    Y=              2.3022    Z=             -2.7789  Tot=              4.1659
 Quadrupole moment (field-independent basis, Debye-Ang):
   XX=           -371.4499   YY=           -424.2292   ZZ=           -403.7936
   XY=             -4.3994   XZ=             -4.8928   YZ=             -1.2824
 Traceless Quadrupole moment (field-independent basis, Debye-Ang):
   XX=             28.3743   YY=            -24.4049   ZZ=             -3.9694
   XY=             -4.3994   XZ=             -4.8928   YZ=             -1.2824
 Octapole moment (field-independent basis, Debye-Ang**2):
  XXX=            267.7107  YYY=             80.5003  ZZZ=              5.4664  XYY=           -197.5365
  XXY=           -415.3613  XXZ=            144.7551  XZZ=             70.3325  YZZ=             -9.1004
  YYZ=            -73.8449  XYZ=            -15.5163
 Hexadecapole moment (field-independent basis, Debye-Ang**3):
 XXXX=        -174974.3306 YYYY=         -21208.3508 ZZZZ=          -4748.1577 XXXY=          -3275.0865
 XXXZ=            258.4137 YYYX=            418.3523 YYYZ=           -138.3458 ZZZX=            111.4324
 ZZZY=            -10.6520 XXYY=         -34783.1287 XXZZ=         -30718.2612 YYZZ=          -4279.6823
 XXYZ=           -786.3400 YYXZ=           -261.0038 ZZXY=             77.2958
 N-N= 9.364593677696D+03 E-N=-2.572566825530D+04  KE= 2.978401872787D+03
 Leave Link  601 at Wed May  4 18:11:15 2022, MaxMem= 10066329600 cpu:              11.7 elap:               0.6
 (Enter /sw/apps/gaussian-16.0/g16/l9999.exe)
 1\1\GINC-BP1-COMPUTE168\SP\RBLYP TD-FC\def2SVP\C55H74Mg1N4O6\OF15641\0
 4-May-2022\0\\#p blyp/Def2SVP td=(nstates=5)\\step_201_chromophore_22 
 TDDFT with blyp functional\\0,1\Mg,0,8.658,48.462,24.727\C,0,6.661,48.
 706,27.389\C,0,11.286,49.832,26.476\C,0,10.514,48.358,21.949\C,0,5.82,
 47.902,22.689\N,0,8.978,49.057,26.69\C,0,7.974,49.088,27.653\C,0,8.533
 ,49.599,28.945\C,0,9.778,50.289,28.46\C,0,10.066,49.627,27.124\C,0,9.5
 46,51.819,28.28\C,0,8.943,48.421,29.874\C,0,9.009,48.659,31.322\C,0,8.
 409,47.605,32.238\O,0,7.72,46.655,31.874\O,0,8.745,47.711,33.608\N,0,1
 0.692,48.773,24.341\C,0,11.608,49.314,25.226\C,0,12.919,49.257,24.684\
 C,0,12.778,48.829,23.267\C,0,11.302,48.577,23.134\C,0,14.167,49.664,25
 .526\C,0,13.82,48.614,22.137\O,0,13.466,48.339,20.95\C,0,15.332,48.788
 ,22.448\N,0,8.146,48.29,22.547\C,0,9.122,48.347,21.657\C,0,8.604,48.07
 7,20.238\C,0,7.141,47.626,20.599\C,0,7.002,48.002,21.976\C,0,8.702,49.
 279,19.256\C,0,6.811,46.118,20.296\C,0,5.44,45.976,19.681\N,0,6.606,48
 .247,24.943\C,0,5.631,48.021,24.063\C,0,4.344,47.992,24.761\C,0,4.717,
 48.198,26.124\C,0,6.085,48.336,26.157\C,0,3.024,47.893,24.142\C,0,4.28
 2,48.221,27.446\O,0,3.212,47.872,27.967\C,0,5.453,48.805,28.339\C,0,5.
 45,48.072,29.699\O,0,5.54,46.851,29.855\O,0,5.195,49.03,30.613\C,0,4.9
 15,48.514,32.007\C,0,8.12,46.65,34.453\C,0,8.529,46.875,35.932\C,0,7.7
 33,46.832,37.068\C,0,6.393,46.225,37.188\C,0,8.372,47.248,38.405\C,0,9
 .277,46.175,39.104\C,0,10.822,46.478,39.138\C,0,11.379,46.771,40.531\C
 ,0,11.167,48.173,40.984\C,0,12.917,46.432,40.706\C,0,12.962,45.034,41.
 375\C,0,14.348,44.673,41.821\C,0,14.227,44.085,43.22\C,0,15.288,42.967
 ,43.399\C,0,14.537,45.22,44.263\C,0,13.473,45.167,45.324\C,0,13.567,46
 .475,46.185\C,0,12.159,47.052,46.595\C,0,11.967,48.219,45.604\C,0,12.0
 91,47.604,48.135\H,0,12.115,50.305,27.006\H,0,11.022,48.445,20.986\H,0
 ,4.958,47.787,22.027\H,0,7.856,50.302,29.429\H,0,10.659,50.193,29.095\
 H,0,8.532,52.101,27.996\H,0,10.246,52.101,27.493\H,0,9.676,52.184,29.2
 99\H,0,9.916,47.994,29.634\H,0,8.253,47.61,29.641\H,0,8.562,49.618,31.
 583\H,0,10.049,48.762,31.632\H,0,13.893,49.774,26.575\H,0,14.504,50.66
 9,25.27\H,0,14.977,48.934,25.5\H,0,15.89,48.271,21.667\H,0,15.505,48.3
 68,23.439\H,0,15.489,49.865,22.502\H,0,9.193,47.256,19.829\H,0,6.37,48
 .041,19.95\H,0,9.146,50.11,19.804\H,0,7.674,49.419,18.922\H,0,9.278,49
 .006,18.372\H,0,6.86,45.523,21.208\H,0,7.586,45.733,19.633\H,0,5.277,4
 4.9,19.616\H,0,5.411,46.431,18.691\H,0,4.616,46.323,20.305\H,0,2.288,4
 7.619,24.897\H,0,3.124,47.047,23.463\H,0,2.707,48.798,23.624\H,0,5.337
 ,49.874,28.512\H,0,4.871,49.327,32.731\H,0,5.678,47.821,32.363\H,0,3.9
 94,47.933,31.951\H,0,8.283,45.6,34.213\H,0,7.047,46.828,34.381\H,0,9.5
 01,47.304,36.174\H,0,5.713,46.993,37.555\H,0,6.349,45.542,38.036\H,0,6
 .161,45.727,36.246\H,0,7.616,47.43,39.168\H,0,8.885,48.175,38.148\H,0,
 9.165,45.238,38.558\H,0,8.842,45.947,40.077\H,0,11.157,47.247,38.442\H
 ,0,11.286,45.557,38.785\H,0,10.754,46.288,41.282\H,0,11.866,48.474,41.
 763\H,0,10.194,48.344,41.445\H,0,11.394,48.821,40.137\H,0,13.455,47.15
 8,41.316\H,0,13.343,46.486,39.704\H,0,12.588,44.322,40.639\H,0,12.167,
 45.07,42.119\H,0,14.948,45.573,41.688\H,0,14.649,43.854,41.168\H,0,13.
 254,43.619,43.377\H,0,15.751,42.948,44.385\H,0,16.076,42.973,42.645\H,
 0,14.79,42.009,43.248\H,0,14.669,46.194,43.792\H,0,15.517,45.062,44.71
 1\H,0,13.523,44.397,46.094\H,0,12.445,45.129,44.965\H,0,14.098,47.31,4
 5.728\H,0,14.115,46.277,47.105\H,0,11.379,46.316,46.401\H,0,12.314,47.
 9,44.621\H,0,12.533,49.06,46.003\H,0,10.921,48.508,45.497\H,0,12.996,4
 7.344,48.684\H,0,11.257,47.003,48.498\H,0,11.913,48.679,48.157\\Versio
 n=ES64L-G16RevA.03\State=1-A\HF=-3007.3554603\RMSD=3.466e-09\PG=C01 [X
 (C55H74Mg1N4O6)]\\@


 IT TAKES GREATER CHARACTER TO CARRY OFF GOOD FORTUNE THAN BAD.
                     FRENCH PROVERB.
 Job cpu time:       0 days  7 hours 57 minutes 36.1 seconds.
 Elapsed time:       0 days  0 hours 19 minutes 57.1 seconds.
 File lengths (MBytes):  RWF=   8014 Int=      0 D2E=      0 Chk=    390 Scr=      1
 Normal termination of Gaussian 16 at Wed May  4 18:11:16 2022.
