 Entering Gaussian System, Link 0=g16
 Initial command:
 /sw/apps/gaussian-16.0/g16/l1.exe "/tmp/Gau-205336.inp" -scrdir="/tmp/"
 Entering Link 1 = /sw/apps/gaussian-16.0/g16/l1.exe PID=    205337.
  
 Copyright (c) 1988,1990,1992,1993,1995,1998,2003,2009,2016,
            Gaussian, Inc.  All Rights Reserved.
  
 This is part of the Gaussian(R) 16 program.  It is based on
 the Gaussian(R) 09 system (copyright 2009, Gaussian, Inc.),
 the Gaussian(R) 03 system (copyright 2003, Gaussian, Inc.),
 the Gaussian(R) 98 system (copyright 1998, Gaussian, Inc.),
 the Gaussian(R) 94 system (copyright 1995, Gaussian, Inc.),
 the Gaussian 92(TM) system (copyright 1992, Gaussian, Inc.),
 the Gaussian 90(TM) system (copyright 1990, Gaussian, Inc.),
 the Gaussian 88(TM) system (copyright 1988, Gaussian, Inc.),
 the Gaussian 86(TM) system (copyright 1986, Carnegie Mellon
 University), and the Gaussian 82(TM) system (copyright 1983,
 Carnegie Mellon University). Gaussian is a federally registered
 trademark of Gaussian, Inc.
  
 This software contains proprietary and confidential information,
 including trade secrets, belonging to Gaussian, Inc.
  
 This software is provided under written license and may be
 used, copied, transmitted, or stored only in accord with that
 written license.
  
 The following legend is applicable only to US Government
 contracts under FAR:
  
                    RESTRICTED RIGHTS LEGEND
  
 Use, reproduction and disclosure by the US Government is
 subject to restrictions as set forth in subparagraphs (a)
 and (c) of the Commercial Computer Software - Restricted
 Rights clause in FAR 52.227-19.
  
 Gaussian, Inc.
 340 Quinnipiac St., Bldg. 40, Wallingford CT 06492
  
  
 ---------------------------------------------------------------
 Warning -- This program may not be used in any manner that
 competes with the business of Gaussian, Inc. or will provide
 assistance to any competitor of Gaussian, Inc.  The licensee
 of this program is prohibited from giving any competitor of
 Gaussian, Inc. access to this program.  By using this program,
 the user acknowledges that Gaussian, Inc. is engaged in the
 business of creating and licensing software in the field of
 computational chemistry and represents and warrants to the
 licensee that it is not a competitor of Gaussian, Inc. and that
 it will not use this program in any manner prohibited above.
 ---------------------------------------------------------------
  

 Cite this work as:
 Gaussian 16, Revision A.03,
 M. J. Frisch, G. W. Trucks, H. B. Schlegel, G. E. Scuseria, 
 M. A. Robb, J. R. Cheeseman, G. Scalmani, V. Barone, 
 G. A. Petersson, H. Nakatsuji, X. Li, M. Caricato, A. V. Marenich, 
 J. Bloino, B. G. Janesko, R. Gomperts, B. Mennucci, H. P. Hratchian, 
 J. V. Ortiz, A. F. Izmaylov, J. L. Sonnenberg, D. Williams-Young, 
 F. Ding, F. Lipparini, F. Egidi, J. Goings, B. Peng, A. Petrone, 
 T. Henderson, D. Ranasinghe, V. G. Zakrzewski, J. Gao, N. Rega, 
 G. Zheng, W. Liang, M. Hada, M. Ehara, K. Toyota, R. Fukuda, 
 J. Hasegawa, M. Ishida, T. Nakajima, Y. Honda, O. Kitao, H. Nakai, 
 T. Vreven, K. Throssell, J. A. Montgomery, Jr., J. E. Peralta, 
 F. Ogliaro, M. J. Bearpark, J. J. Heyd, E. N. Brothers, K. N. Kudin, 
 V. N. Staroverov, T. A. Keith, R. Kobayashi, J. Normand, 
 K. Raghavachari, A. P. Rendell, J. C. Burant, S. S. Iyengar, 
 J. Tomasi, M. Cossi, J. M. Millam, M. Klene, C. Adamo, R. Cammi, 
 J. W. Ochterski, R. L. Martin, K. Morokuma, O. Farkas, 
 J. B. Foresman, and D. J. Fox, Gaussian, Inc., Wallingford CT, 2016.
 
 ******************************************
 Gaussian 16:  ES64L-G16RevA.03 25-Dec-2016
                28-Apr-2022 
 ******************************************
 %nproc=24
 Will use up to   24 processors via shared memory.
 %mem=75GB
 --------------------------------
 #p wB97XD/Def2SVP td=(nstates=5)
 --------------------------------
 1/38=1,172=1/1;
 2/12=2,17=6,18=5,40=1/2;
 3/5=43,7=101,11=9,25=1,30=1,74=-58/1,2,3,8;
 4//1;
 5/5=2,38=5/2;
 8/6=1,10=1,108=5/1;
 9/41=5,42=1,70=2/14;
 6/7=2,8=2,9=2,10=2/1;
 99/5=1,9=1/99;
 Leave Link    1 at Thu Apr 28 08:01:05 2022, MaxMem= 10066329600 cpu:               0.9 elap:               0.0
 (Enter /sw/apps/gaussian-16.0/g16/l101.exe)
 -----------------------------------------------------
 step_1501_chromophore_25 TDDFT with wB97XD functional
 -----------------------------------------------------
 Symbolic Z-matrix:
 Charge =  0 Multiplicity = 1
 Mg                   -2.019     34.138    26.358 
 C                    -3.311     32.493    29.211 
 C                    -0.781     36.552    28.426 
 C                    -1.434     36.107    23.557 
 C                    -4.029     32.017    24.367 
 N                    -1.942     34.437    28.671 
 C                    -2.502     33.602    29.597 
 C                    -2.149     34.113    31.014 
 C                    -1.469     35.474    30.667 
 C                    -1.342     35.423    29.152 
 C                    -1.995     36.757    31.299 
 C                    -1.267     32.981    31.668 
 C                    -1.895     32.381    32.896 
 C                    -1.177     32.543    34.187 
 O                    -0.299     31.781    34.551 
 O                    -1.593     33.632    34.854 
 N                    -1.116     36.002    26.068 
 C                    -0.657     36.833    27.037 
 C                    -0.081     38.002    26.462 
 C                    -0.148     37.898    25.054 
 C                    -0.897     36.598    24.818 
 C                     0.625     39.086    27.303 
 C                     0.357     38.831    23.945 
 O                     0.148     38.604    22.755 
 C                     1.103     40.061    24.246 
 N                    -2.658     34.049    24.277 
 C                    -2.253     34.961    23.345 
 C                    -2.852     34.589    21.948 
 C                    -3.653     33.29     22.226 
 C                    -3.418     33.079    23.72 
 C                    -3.752     35.67     21.314 
 C                    -3.139     32.152    21.305 
 C                    -2.174     31.135    21.84 
 N                    -3.27      32.5      26.646 
 C                    -3.983     31.688    25.785 
 C                    -4.551     30.619    26.506 
 C                    -4.373     30.925    27.846 
 C                    -3.621     32.103    27.873 
 C                    -5.291     29.453    25.995 
 C                    -4.831     30.586    29.199 
 O                    -5.557     29.733    29.659 
 C                    -4.035     31.536    30.135 
 C                    -5.07      32.297    30.976 
 O                    -5.725     33.257    30.669 
 O                    -5.19      31.516    32.101 
 C                    -5.875     32.21     33.177 
 C                    -0.826     33.907    36.186 
 C                    -1.669     34.424    37.268 
 C                    -1.357     34.688    38.546 
 C                     0.134     34.564    38.958 
 C                    -2.338     34.963    39.712 
 C                    -2.189     36.323    40.397 
 C                    -1.514     36.185    41.862 
 C                    -1.702     37.475    42.726 
 C                    -0.558     38.503    42.485 
 C                    -1.8       37.119    44.238 
 C                    -0.68      36.089    44.757 
 C                     0.189     36.763    45.906 
 C                     1.307     35.755    46.505 
 C                     1.331     35.732    48.045 
 C                     2.798     36.168    45.932 
 C                     2.965     35.19     44.768 
 C                     4.156     35.532    43.841 
 C                     5.319     34.564    43.936 
 C                     6.651     35.423    44.198 
 C                     5.534     33.557    42.77 
 H                    -0.337     37.361    29.008 
 H                    -1.307     36.602    22.593 
 H                    -4.589     31.317    23.743 
 H                    -3.085     34.253    31.556 
 H                    -0.448     35.401    31.042 
 H                    -2.909     36.51     31.84 
 H                    -2.342     37.439    30.522 
 H                    -1.271     37.252    31.945 
 H                    -0.253     33.335    31.856 
 H                    -1.25      32.106    31.019 
 H                    -1.941     31.295    32.815 
 H                    -2.923     32.7      33.069 
 H                     1.694     38.923    27.162 
 H                     0.29      39.164    28.338 
 H                     0.414     39.981    26.718 
 H                     1.557     40.43     23.326 
 H                     1.953     39.883    24.904 
 H                     0.456     40.846    24.636 
 H                    -1.946     34.387    21.377 
 H                    -4.735     33.402    22.171 
 H                    -3.092     36.125    20.574 
 H                    -3.964     36.449    22.046 
 H                    -4.629     35.205    20.865 
 H                    -2.666     32.729    20.51 
 H                    -4.001     31.656    20.858 
 H                    -2.583     30.129    21.94 
 H                    -1.857     31.366    22.857 
 H                    -1.199     31.057    21.36 
 H                    -4.79      28.522    25.731 
 H                    -5.853     29.873    25.16 
 H                    -6.068     29.129    26.688 
 H                    -3.443     30.942    30.831 
 H                    -6.744     32.745    32.793 
 H                    -5.237     32.814    33.821 
 H                    -6.293     31.422    33.805 
 H                    -0.178     34.723    35.867 
 H                    -0.281     33.027    36.526 
 H                    -2.73      34.593    37.088 
 H                     0.257     33.83     39.754 
 H                     0.376     35.507    39.448 
 H                     0.768     34.312    38.108 
 H                    -2.177     34.193    40.466 
 H                    -3.325     35.031    39.254 
 H                    -3.234     36.617    40.498 
 H                    -1.636     36.969    39.715 
 H                    -0.446     35.992    41.765 
 H                    -1.928     35.334    42.403 
 H                    -2.686     37.856    42.454 
 H                    -0.923     39.225    41.754 
 H                     0.303     37.985    42.062 
 H                    -0.266     38.983    43.419 
 H                    -2.688     36.599    44.597 
 H                    -1.683     37.984    44.89 
 H                    -0.069     35.581    44.011 
 H                    -1.187     35.265    45.258 
 H                    -0.584     36.931    46.656 
 H                     0.69      37.694    45.64 
 H                     1.038     34.746    46.194 
 H                     2.183     36.288    48.436 
 H                     1.534     34.74     48.448 
 H                     0.461     36.198    48.508 
 H                     3.603     36.04     46.656 
 H                     2.8       37.18     45.528 
 H                     2.045     35.226    44.185 
 H                     3.062     34.136    45.025 
 H                     4.514     36.532    44.089 
 H                     3.826     35.542    42.802 
 H                     5.231     33.931    44.819 
 H                     6.281     36.021    45.031 
 H                     6.856     35.991    43.291 
 H                     7.451     34.713    44.408 
 H                     4.604     33.269    42.279 
 H                     6.003     32.683    43.221 
 H                     6.269     33.991    42.092 
 
 ITRead=  0  0  0  0  0  0  0  0  0  0  0  0  0  0  0  0  0  0  0  0
 ITRead=  0  0  0  0  0  0  0  0  0  0  0  0  0  0  0  0  0  0  0  0
 ITRead=  0  0  0  0  0  0  0  0  0  0  0  0  0  0  0  0  0  0  0  0
 ITRead=  0  0  0  0  0  0  0  0  0  0  0  0  0  0  0  0  0  0  0  0
 ITRead=  0  0  0  0  0  0  0  0  0  0  0  0  0  0  0  0  0  0  0  0
 ITRead=  0  0  0  0  0  0  0  0  0  0  0  0  0  0  0  0  0  0  0  0
 ITRead=  0  0  0  0  0  0  0  0  0  0  0  0  0  0  0  0  0  0  0  0
 MicOpt= -1 -1 -1 -1 -1 -1 -1 -1 -1 -1 -1 -1 -1 -1 -1 -1 -1 -1 -1 -1
 MicOpt= -1 -1 -1 -1 -1 -1 -1 -1 -1 -1 -1 -1 -1 -1 -1 -1 -1 -1 -1 -1
 MicOpt= -1 -1 -1 -1 -1 -1 -1 -1 -1 -1 -1 -1 -1 -1 -1 -1 -1 -1 -1 -1
 MicOpt= -1 -1 -1 -1 -1 -1 -1 -1 -1 -1 -1 -1 -1 -1 -1 -1 -1 -1 -1 -1
 MicOpt= -1 -1 -1 -1 -1 -1 -1 -1 -1 -1 -1 -1 -1 -1 -1 -1 -1 -1 -1 -1
 MicOpt= -1 -1 -1 -1 -1 -1 -1 -1 -1 -1 -1 -1 -1 -1 -1 -1 -1 -1 -1 -1
 MicOpt= -1 -1 -1 -1 -1 -1 -1 -1 -1 -1 -1 -1 -1 -1 -1 -1 -1 -1 -1 -1
 NAtoms=    140 NQM=      140 NQMF=       0 NMMI=      0 NMMIF=      0
                NMic=       0 NMicF=      0.
                    Isotopes and Nuclear Properties:
 (Nuclear quadrupole moments (NQMom) in fm**2, nuclear magnetic moments (NMagM)
  in nuclear magnetons)

  Atom         1           2           3           4           5           6           7           8           9          10
 IAtWgt=          24          12          12          12          12          14          12          12          12          12
 AtmWgt=  23.9850450  12.0000000  12.0000000  12.0000000  12.0000000  14.0030740  12.0000000  12.0000000  12.0000000  12.0000000
 NucSpn=           0           0           0           0           0           2           0           0           0           0
 AtZEff=  -0.0000000  -0.0000000  -0.0000000  -0.0000000  -0.0000000  -0.0000000  -0.0000000  -0.0000000  -0.0000000  -0.0000000
 NQMom=    0.0000000   0.0000000   0.0000000   0.0000000   0.0000000   2.0440000   0.0000000   0.0000000   0.0000000   0.0000000
 NMagM=    0.0000000   0.0000000   0.0000000   0.0000000   0.0000000   0.4037610   0.0000000   0.0000000   0.0000000   0.0000000
 AtZNuc=  12.0000000   6.0000000   6.0000000   6.0000000   6.0000000   7.0000000   6.0000000   6.0000000   6.0000000   6.0000000

  Atom        11          12          13          14          15          16          17          18          19          20
 IAtWgt=          12          12          12          12          16          16          14          12          12          12
 AtmWgt=  12.0000000  12.0000000  12.0000000  12.0000000  15.9949146  15.9949146  14.0030740  12.0000000  12.0000000  12.0000000
 NucSpn=           0           0           0           0           0           0           2           0           0           0
 AtZEff=  -0.0000000  -0.0000000  -0.0000000  -0.0000000  -0.0000000  -0.0000000  -0.0000000  -0.0000000  -0.0000000  -0.0000000
 NQMom=    0.0000000   0.0000000   0.0000000   0.0000000   0.0000000   0.0000000   2.0440000   0.0000000   0.0000000   0.0000000
 NMagM=    0.0000000   0.0000000   0.0000000   0.0000000   0.0000000   0.0000000   0.4037610   0.0000000   0.0000000   0.0000000
 AtZNuc=   6.0000000   6.0000000   6.0000000   6.0000000   8.0000000   8.0000000   7.0000000   6.0000000   6.0000000   6.0000000

  Atom        21          22          23          24          25          26          27          28          29          30
 IAtWgt=          12          12          12          16          12          14          12          12          12          12
 AtmWgt=  12.0000000  12.0000000  12.0000000  15.9949146  12.0000000  14.0030740  12.0000000  12.0000000  12.0000000  12.0000000
 NucSpn=           0           0           0           0           0           2           0           0           0           0
 AtZEff=  -0.0000000  -0.0000000  -0.0000000  -0.0000000  -0.0000000  -0.0000000  -0.0000000  -0.0000000  -0.0000000  -0.0000000
 NQMom=    0.0000000   0.0000000   0.0000000   0.0000000   0.0000000   2.0440000   0.0000000   0.0000000   0.0000000   0.0000000
 NMagM=    0.0000000   0.0000000   0.0000000   0.0000000   0.0000000   0.4037610   0.0000000   0.0000000   0.0000000   0.0000000
 AtZNuc=   6.0000000   6.0000000   6.0000000   8.0000000   6.0000000   7.0000000   6.0000000   6.0000000   6.0000000   6.0000000

  Atom        31          32          33          34          35          36          37          38          39          40
 IAtWgt=          12          12          12          14          12          12          12          12          12          12
 AtmWgt=  12.0000000  12.0000000  12.0000000  14.0030740  12.0000000  12.0000000  12.0000000  12.0000000  12.0000000  12.0000000
 NucSpn=           0           0           0           2           0           0           0           0           0           0
 AtZEff=  -0.0000000  -0.0000000  -0.0000000  -0.0000000  -0.0000000  -0.0000000  -0.0000000  -0.0000000  -0.0000000  -0.0000000
 NQMom=    0.0000000   0.0000000   0.0000000   2.0440000   0.0000000   0.0000000   0.0000000   0.0000000   0.0000000   0.0000000
 NMagM=    0.0000000   0.0000000   0.0000000   0.4037610   0.0000000   0.0000000   0.0000000   0.0000000   0.0000000   0.0000000
 AtZNuc=   6.0000000   6.0000000   6.0000000   7.0000000   6.0000000   6.0000000   6.0000000   6.0000000   6.0000000   6.0000000

  Atom        41          42          43          44          45          46          47          48          49          50
 IAtWgt=          16          12          12          16          16          12          12          12          12          12
 AtmWgt=  15.9949146  12.0000000  12.0000000  15.9949146  15.9949146  12.0000000  12.0000000  12.0000000  12.0000000  12.0000000
 NucSpn=           0           0           0           0           0           0           0           0           0           0
 AtZEff=  -0.0000000  -0.0000000  -0.0000000  -0.0000000  -0.0000000  -0.0000000  -0.0000000  -0.0000000  -0.0000000  -0.0000000
 NQMom=    0.0000000   0.0000000   0.0000000   0.0000000   0.0000000   0.0000000   0.0000000   0.0000000   0.0000000   0.0000000
 NMagM=    0.0000000   0.0000000   0.0000000   0.0000000   0.0000000   0.0000000   0.0000000   0.0000000   0.0000000   0.0000000
 AtZNuc=   8.0000000   6.0000000   6.0000000   8.0000000   8.0000000   6.0000000   6.0000000   6.0000000   6.0000000   6.0000000

  Atom        51          52          53          54          55          56          57          58          59          60
 IAtWgt=          12          12          12          12          12          12          12          12          12          12
 AtmWgt=  12.0000000  12.0000000  12.0000000  12.0000000  12.0000000  12.0000000  12.0000000  12.0000000  12.0000000  12.0000000
 NucSpn=           0           0           0           0           0           0           0           0           0           0
 AtZEff=  -0.0000000  -0.0000000  -0.0000000  -0.0000000  -0.0000000  -0.0000000  -0.0000000  -0.0000000  -0.0000000  -0.0000000
 NQMom=    0.0000000   0.0000000   0.0000000   0.0000000   0.0000000   0.0000000   0.0000000   0.0000000   0.0000000   0.0000000
 NMagM=    0.0000000   0.0000000   0.0000000   0.0000000   0.0000000   0.0000000   0.0000000   0.0000000   0.0000000   0.0000000
 AtZNuc=   6.0000000   6.0000000   6.0000000   6.0000000   6.0000000   6.0000000   6.0000000   6.0000000   6.0000000   6.0000000

  Atom        61          62          63          64          65          66          67          68          69          70
 IAtWgt=          12          12          12          12          12          12           1           1           1           1
 AtmWgt=  12.0000000  12.0000000  12.0000000  12.0000000  12.0000000  12.0000000   1.0078250   1.0078250   1.0078250   1.0078250
 NucSpn=           0           0           0           0           0           0           1           1           1           1
 AtZEff=  -0.0000000  -0.0000000  -0.0000000  -0.0000000  -0.0000000  -0.0000000  -0.0000000  -0.0000000  -0.0000000  -0.0000000
 NQMom=    0.0000000   0.0000000   0.0000000   0.0000000   0.0000000   0.0000000   0.0000000   0.0000000   0.0000000   0.0000000
 NMagM=    0.0000000   0.0000000   0.0000000   0.0000000   0.0000000   0.0000000   2.7928460   2.7928460   2.7928460   2.7928460
 AtZNuc=   6.0000000   6.0000000   6.0000000   6.0000000   6.0000000   6.0000000   1.0000000   1.0000000   1.0000000   1.0000000

  Atom        71          72          73          74          75          76          77          78          79          80
 IAtWgt=           1           1           1           1           1           1           1           1           1           1
 AtmWgt=   1.0078250   1.0078250   1.0078250   1.0078250   1.0078250   1.0078250   1.0078250   1.0078250   1.0078250   1.0078250
 NucSpn=           1           1           1           1           1           1           1           1           1           1
 AtZEff=  -0.0000000  -0.0000000  -0.0000000  -0.0000000  -0.0000000  -0.0000000  -0.0000000  -0.0000000  -0.0000000  -0.0000000
 NQMom=    0.0000000   0.0000000   0.0000000   0.0000000   0.0000000   0.0000000   0.0000000   0.0000000   0.0000000   0.0000000
 NMagM=    2.7928460   2.7928460   2.7928460   2.7928460   2.7928460   2.7928460   2.7928460   2.7928460   2.7928460   2.7928460
 AtZNuc=   1.0000000   1.0000000   1.0000000   1.0000000   1.0000000   1.0000000   1.0000000   1.0000000   1.0000000   1.0000000

  Atom        81          82          83          84          85          86          87          88          89          90
 IAtWgt=           1           1           1           1           1           1           1           1           1           1
 AtmWgt=   1.0078250   1.0078250   1.0078250   1.0078250   1.0078250   1.0078250   1.0078250   1.0078250   1.0078250   1.0078250
 NucSpn=           1           1           1           1           1           1           1           1           1           1
 AtZEff=  -0.0000000  -0.0000000  -0.0000000  -0.0000000  -0.0000000  -0.0000000  -0.0000000  -0.0000000  -0.0000000  -0.0000000
 NQMom=    0.0000000   0.0000000   0.0000000   0.0000000   0.0000000   0.0000000   0.0000000   0.0000000   0.0000000   0.0000000
 NMagM=    2.7928460   2.7928460   2.7928460   2.7928460   2.7928460   2.7928460   2.7928460   2.7928460   2.7928460   2.7928460
 AtZNuc=   1.0000000   1.0000000   1.0000000   1.0000000   1.0000000   1.0000000   1.0000000   1.0000000   1.0000000   1.0000000

  Atom        91          92          93          94          95          96          97          98          99         100
 IAtWgt=           1           1           1           1           1           1           1           1           1           1
 AtmWgt=   1.0078250   1.0078250   1.0078250   1.0078250   1.0078250   1.0078250   1.0078250   1.0078250   1.0078250   1.0078250
 NucSpn=           1           1           1           1           1           1           1           1           1           1
 AtZEff=  -0.0000000  -0.0000000  -0.0000000  -0.0000000  -0.0000000  -0.0000000  -0.0000000  -0.0000000  -0.0000000  -0.0000000
 NQMom=    0.0000000   0.0000000   0.0000000   0.0000000   0.0000000   0.0000000   0.0000000   0.0000000   0.0000000   0.0000000
 NMagM=    2.7928460   2.7928460   2.7928460   2.7928460   2.7928460   2.7928460   2.7928460   2.7928460   2.7928460   2.7928460
 AtZNuc=   1.0000000   1.0000000   1.0000000   1.0000000   1.0000000   1.0000000   1.0000000   1.0000000   1.0000000   1.0000000

  Atom       101         102         103         104         105         106         107         108         109         110
 IAtWgt=           1           1           1           1           1           1           1           1           1           1
 AtmWgt=   1.0078250   1.0078250   1.0078250   1.0078250   1.0078250   1.0078250   1.0078250   1.0078250   1.0078250   1.0078250
 NucSpn=           1           1           1           1           1           1           1           1           1           1
 AtZEff=  -0.0000000  -0.0000000  -0.0000000  -0.0000000  -0.0000000  -0.0000000  -0.0000000  -0.0000000  -0.0000000  -0.0000000
 NQMom=    0.0000000   0.0000000   0.0000000   0.0000000   0.0000000   0.0000000   0.0000000   0.0000000   0.0000000   0.0000000
 NMagM=    2.7928460   2.7928460   2.7928460   2.7928460   2.7928460   2.7928460   2.7928460   2.7928460   2.7928460   2.7928460
 AtZNuc=   1.0000000   1.0000000   1.0000000   1.0000000   1.0000000   1.0000000   1.0000000   1.0000000   1.0000000   1.0000000

  Atom       111         112         113         114         115         116         117         118         119         120
 IAtWgt=           1           1           1           1           1           1           1           1           1           1
 AtmWgt=   1.0078250   1.0078250   1.0078250   1.0078250   1.0078250   1.0078250   1.0078250   1.0078250   1.0078250   1.0078250
 NucSpn=           1           1           1           1           1           1           1           1           1           1
 AtZEff=  -0.0000000  -0.0000000  -0.0000000  -0.0000000  -0.0000000  -0.0000000  -0.0000000  -0.0000000  -0.0000000  -0.0000000
 NQMom=    0.0000000   0.0000000   0.0000000   0.0000000   0.0000000   0.0000000   0.0000000   0.0000000   0.0000000   0.0000000
 NMagM=    2.7928460   2.7928460   2.7928460   2.7928460   2.7928460   2.7928460   2.7928460   2.7928460   2.7928460   2.7928460
 AtZNuc=   1.0000000   1.0000000   1.0000000   1.0000000   1.0000000   1.0000000   1.0000000   1.0000000   1.0000000   1.0000000

  Atom       121         122         123         124         125         126         127         128         129         130
 IAtWgt=           1           1           1           1           1           1           1           1           1           1
 AtmWgt=   1.0078250   1.0078250   1.0078250   1.0078250   1.0078250   1.0078250   1.0078250   1.0078250   1.0078250   1.0078250
 NucSpn=           1           1           1           1           1           1           1           1           1           1
 AtZEff=  -0.0000000  -0.0000000  -0.0000000  -0.0000000  -0.0000000  -0.0000000  -0.0000000  -0.0000000  -0.0000000  -0.0000000
 NQMom=    0.0000000   0.0000000   0.0000000   0.0000000   0.0000000   0.0000000   0.0000000   0.0000000   0.0000000   0.0000000
 NMagM=    2.7928460   2.7928460   2.7928460   2.7928460   2.7928460   2.7928460   2.7928460   2.7928460   2.7928460   2.7928460
 AtZNuc=   1.0000000   1.0000000   1.0000000   1.0000000   1.0000000   1.0000000   1.0000000   1.0000000   1.0000000   1.0000000

  Atom       131         132         133         134         135         136         137         138         139         140
 IAtWgt=           1           1           1           1           1           1           1           1           1           1
 AtmWgt=   1.0078250   1.0078250   1.0078250   1.0078250   1.0078250   1.0078250   1.0078250   1.0078250   1.0078250   1.0078250
 NucSpn=           1           1           1           1           1           1           1           1           1           1
 AtZEff=  -0.0000000  -0.0000000  -0.0000000  -0.0000000  -0.0000000  -0.0000000  -0.0000000  -0.0000000  -0.0000000  -0.0000000
 NQMom=    0.0000000   0.0000000   0.0000000   0.0000000   0.0000000   0.0000000   0.0000000   0.0000000   0.0000000   0.0000000
 NMagM=    2.7928460   2.7928460   2.7928460   2.7928460   2.7928460   2.7928460   2.7928460   2.7928460   2.7928460   2.7928460
 AtZNuc=   1.0000000   1.0000000   1.0000000   1.0000000   1.0000000   1.0000000   1.0000000   1.0000000   1.0000000   1.0000000
 Leave Link  101 at Thu Apr 28 08:01:05 2022, MaxMem= 10066329600 cpu:               3.4 elap:               0.2
 (Enter /sw/apps/gaussian-16.0/g16/l202.exe)
 Stoichiometry    C55H74MgN4O6
 Framework group  C1[X(C55H74MgN4O6)]
 Deg. of freedom   414
 Full point group                 C1      NOp   1
 Largest Abelian subgroup         C1      NOp   1
 Largest concise Abelian subgroup C1      NOp   1
                         Standard orientation:                         
 ---------------------------------------------------------------------
 Center     Atomic      Atomic             Coordinates (Angstroms)
 Number     Number       Type             X           Y           Z
 ---------------------------------------------------------------------
      1         12           0        6.082634    0.470343    0.420728
      2          6           0        3.682250   -2.124275    0.275778
      3          6           0        3.628381    2.663902   -0.474593
      4          6           0        8.548962    2.841695   -0.178185
      5          6           0        8.593840   -2.016001    0.542230
      6          7           0        3.785121    0.301198    0.049078
      7          6           0        3.057467   -0.854830    0.098260
      8          6           0        1.563336   -0.518645   -0.121223
      9          6           0        1.660848    0.994736   -0.489053
     10          6           0        3.118951    1.327012   -0.210694
     11          6           0        1.050021    1.489339   -1.794598
     12          6           0        0.835162   -0.917513    1.219572
     13          6           0       -0.191948   -2.000226    1.032102
     14          6           0       -1.609257   -1.664838    1.327401
     15          8           0       -2.081960   -1.736274    2.447879
     16          8           0       -2.261345   -1.250333    0.228841
     17          7           0        6.040942    2.489572   -0.122394
     18          6           0        4.938399    3.216788   -0.431843
     19          6           0        5.294259    4.564248   -0.726250
     20          6           0        6.690845    4.712218   -0.566808
     21          6           0        7.171845    3.310890   -0.232719
     22          6           0        4.247679    5.662318   -1.008538
     23          6           0        7.600688    5.940566   -0.703711
     24          8           0        8.822327    5.864493   -0.589161
     25          6           0        7.062210    7.275604   -0.999905
     26          7           0        8.250024    0.390381    0.213775
     27          6           0        9.008669    1.505207   -0.000731
     28          6           0       10.521855    1.110478   -0.057737
     29          6           0       10.511204   -0.421412    0.186163
     30          6           0        9.021261   -0.711808    0.352058
     31          6           0       11.238042    1.456106   -1.379908
     32          6           0       11.395497   -0.760992    1.415062
     33          6           0       10.758028   -0.998500    2.752583
     34          7           0        6.178601   -1.604128    0.556190
     35          6           0        7.225122   -2.500899    0.654326
     36          6           0        6.717347   -3.796777    0.873624
     37          6           0        5.349328   -3.710520    0.668681
     38          6           0        5.081264   -2.358047    0.438733
     39          6           0        7.454779   -5.040434    1.152535
     40          6           0        4.145907   -4.514075    0.420949
     41          8           0        3.908041   -5.701285    0.405553
     42          6           0        2.998845   -3.475821    0.284972
     43          6           0        2.326236   -3.735484   -1.070683
     44          8           0        2.683280   -3.384689   -2.163540
     45          8           0        1.311848   -4.606802   -0.751611
     46          6           0        0.344730   -4.736254   -1.827046
     47          6           0       -3.737242   -0.807381    0.481148
     48          6           0       -4.664881   -1.170864   -0.594039
     49          6           0       -5.995971   -1.017944   -0.665729
     50          6           0       -6.687698   -0.231154    0.479118
     51          6           0       -6.959302   -1.665742   -1.690372
     52          6           0       -7.763162   -0.690645   -2.552940
     53          6           0       -9.318629   -0.638789   -2.107153
     54          6           0      -10.224343    0.033844   -3.190291
     55          6           0      -10.297674    1.577681   -3.003769
     56          6           0      -11.653913   -0.581472   -3.176121
     57          6           0      -12.305827   -0.726062   -1.713670
     58          6           0      -13.654246    0.113535   -1.633164
     59          6           0      -14.385589   -0.031241   -0.194774
     60          6           0      -15.892669   -0.326275   -0.314652
     61          6           0      -14.156766    1.341956    0.690634
     62          6           0      -12.977930    0.944675    1.580456
     63          6           0      -12.337747    2.139958    2.326270
     64          6           0      -12.588968    2.149789    3.821399
     65          6           0      -13.178200    3.593022    4.209512
     66          6           0      -11.415563    1.762174    4.766230
     67          1           0        2.908507    3.438872   -0.742072
     68          1           0        9.426784    3.474459   -0.317794
     69          1           0        9.369574   -2.776511    0.655530
     70          1           0        1.210835   -1.118928   -0.960784
     71          1           0        1.095547    1.524664    0.277762
     72          1           0        0.723959    0.615992   -2.360314
     73          1           0        1.825801    1.920993   -2.427924
     74          1           0        0.235745    2.198731   -1.652345
     75          1           0        0.420937   -0.039373    1.715700
     76          1           0        1.533144   -1.432727    1.878731
     77          1           0       -0.019787   -2.820779    1.728612
     78          1           0       -0.179438   -2.456365    0.042024
     79          1           0        4.183654    6.254530   -0.095085
     80          1           0        3.297985    5.307975   -1.411100
     81          1           0        4.792235    6.302891   -1.702004
     82          1           0        7.841228    8.016384   -0.818093
     83          1           0        6.262904    7.563854   -0.317871
     84          1           0        6.750432    7.368808   -2.039637
     85          1           0       10.913480    1.650982    0.803753
     86          1           0       10.773196   -1.022506   -0.683514
     87          1           0       11.793324    2.358729   -1.120757
     88          1           0       10.505502    1.759013   -2.127733
     89          1           0       11.888275    0.633225   -1.674896
     90          1           0       12.032568    0.122632    1.460139
     91          1           0       12.043163   -1.597643    1.151599
     92          1           0       10.820015   -2.027205    3.109292
     93          1           0        9.683389   -0.817156    2.732467
     94          1           0       11.037372   -0.338946    3.573597
     95          1           0        7.684039   -5.359802    2.168852
     96          1           0        8.350533   -4.930338    0.540185
     97          1           0        6.958744   -5.911949    0.724324
     98          1           0        2.246262   -3.669385    1.049084
     99          1           0        0.852685   -4.823796   -2.787859
    100          1           0       -0.458765   -4.000759   -1.820748
    101          1           0       -0.123979   -5.709436   -1.674466
    102          1           0       -3.618591    0.275410    0.449441
    103          1           0       -4.110637   -1.175686    1.436110
    104          1           0       -4.289418   -1.692334   -1.473686
    105          1           0       -7.433113   -0.848869    0.979403
    106          1           0       -7.287566    0.531146   -0.017843
    107          1           0       -5.965197    0.150722    1.200314
    108          1           0       -7.668537   -2.277790   -1.133848
    109          1           0       -6.319370   -2.161741   -2.420460
    110          1           0       -7.674994   -1.162549   -3.531815
    111          1           0       -7.257817    0.274059   -2.505794
    112          1           0       -9.423110   -0.077878   -1.178851
    113          1           0       -9.698308   -1.639612   -1.901059
    114          1           0       -9.790830   -0.263233   -4.144865
    115          1           0       -9.566299    2.018717   -3.681594
    116          1           0      -10.017180    1.826441   -1.980043
    117          1           0      -11.305460    1.943688   -3.199798
    118          1           0      -11.786363   -1.606180   -3.522900
    119          1           0      -12.380917    0.011784   -3.729771
    120          1           0      -11.660525   -0.568868   -0.849507
    121          1           0      -12.629879   -1.758930   -1.590382
    122          1           0      -14.244730   -0.400918   -2.391398
    123          1           0      -13.566763    1.177241   -1.855416
    124          1           0      -13.950034   -0.893987    0.308341
    125          1           0      -16.488269    0.559178   -0.092944
    126          1           0      -16.250383   -1.009345    0.455503
    127          1           0      -16.206411   -0.627049   -1.314415
    128          1           0      -15.015369    1.625868    1.299551
    129          1           0      -13.840718    2.171697    0.058963
    130          1           0      -12.226878    0.491745    0.933648
    131          1           0      -13.167016    0.175316    2.327923
    132          1           0      -12.728921    3.065168    1.901255
    133          1           0      -11.257619    2.133420    2.178617
    134          1           0      -13.384846    1.455020    4.089720
    135          1           0      -13.963733    3.640831    3.455161
    136          1           0      -12.377321    4.319219    4.073392
    137          1           0      -13.488876    3.539454    5.252973
    138          1           0      -10.727348    1.044700    4.318440
    139          1           0      -11.882593    1.328381    5.649941
    140          1           0      -10.934249    2.685548    5.088692
 ---------------------------------------------------------------------
 Rotational constants (GHZ):           0.0525620           0.0082804           0.0076589
 Leave Link  202 at Thu Apr 28 08:01:05 2022, MaxMem= 10066329600 cpu:               2.3 elap:               0.1
 (Enter /sw/apps/gaussian-16.0/g16/l301.exe)
 Standard basis: def2SVP (5D, 7F)
 Ernie: Thresh=  0.10000D-02 Tol=  0.10000D-05 Strict=F.
 There are  1364 symmetry adapted cartesian basis functions of A   symmetry.
 There are  1298 symmetry adapted basis functions of A   symmetry.
  1298 basis functions,  2180 primitive gaussians,  1364 cartesian basis functions
   246 alpha electrons      246 beta electrons
       nuclear repulsion energy      9379.3097779800 Hartrees.
 IExCor= 4639 DFT=T Ex+Corr=wB97XD ExCW=0 ScaHFX=  1.000000
 ScaDFX=  1.000000  1.000000  1.000000  1.000000 ScalE2=  1.000000  1.000000
 IRadAn=      5 IRanWt=     -1 IRanGd=            0 ICorTp=0 IEmpDi=121
 HFx  wShort=  0.000000 wLong=  0.200000 cFull=  0.222036 cShort=  0.000000 cLong=  0.777964
 DFx  wShort=  0.000000 wLong=  0.200000 cFull=  0.000000 cShort=  0.000000 cLong=  1.000000
 NAtoms=  140 NActive=  140 NUniq=  140 SFac= 1.00D+00 NAtFMM=   60 NAOKFM=T Big=T
 Integral buffers will be    131072 words long.
 Raffenetti 1 integral format.
 Two-electron integral symmetry is turned on.
 R6Disp:  Grimme-D2 Dispersion energy=       -0.1350854631 Hartrees.
 Nuclear repulsion after empirical dispersion term =     9379.1746925168 Hartrees.
 Leave Link  301 at Thu Apr 28 08:01:05 2022, MaxMem= 10066329600 cpu:               1.3 elap:               0.1
 (Enter /sw/apps/gaussian-16.0/g16/l302.exe)
 NPDir=0 NMtPBC=     1 NCelOv=     1 NCel=       1 NClECP=     1 NCelD=      1
         NCelK=      1 NCelE2=     1 NClLst=     1 CellRange=     0.0.
 One-electron integrals computed using PRISM.
 One-electron integral symmetry used in STVInt
   1 Symmetry operations used in ECPInt.
 ECPInt:  NShTT=  192510 NPrTT=  683786 LenC2=   90423 LenP2D=  200799.
 LDataN:  DoStor=T MaxTD1= 4 Len=   56
 NBasis=  1298 RedAO= T EigKep=  2.69D-04  NBF=  1298
 NBsUse=  1298 1.00D-06 EigRej= -1.00D+00 NBFU=  1298
 Precomputing XC quadrature grid using
 IXCGrd= 4 IRadAn=           5 IRanWt=          -1 IRanGd=           0 AccXCQ= 0.00D+00.
 Generated NRdTot=       0 NPtTot=           0 NUsed=           0 NTot=          32
 NSgBfM=   988   974   982   987   988 MxSgAt=   140 MxSgA2=   140.
 Leave Link  302 at Thu Apr 28 08:01:09 2022, MaxMem= 10066329600 cpu:              83.2 elap:               3.5
 (Enter /sw/apps/gaussian-16.0/g16/l303.exe)
 DipDrv:  MaxL=1.
 Leave Link  303 at Thu Apr 28 08:01:09 2022, MaxMem= 10066329600 cpu:               5.6 elap:               0.3
 (Enter /sw/apps/gaussian-16.0/g16/l308.exe)
 Leave Link  308 at Thu Apr 28 08:01:10 2022, MaxMem= 10066329600 cpu:              13.1 elap:               0.6
 (Enter /sw/apps/gaussian-16.0/g16/l401.exe)
 ExpMin= 3.36D-02 ExpMax= 4.95D+03 ExpMxC= 7.45D+02 IAcc=3 IRadAn=         5 AccDes= 0.00D+00
 Harris functional with IExCor= 4639 and IRadAn=       5 diagonalized for initial guess.
 HarFok:  IExCor= 4639 AccDes= 0.00D+00 IRadAn=         5 IDoV= 1 UseB2=F ITyADJ=14
 ICtDFT=  3500011 ScaDFX=  1.000000  1.000000  1.000000  1.000000
 FoFCou: FMM=F IPFlag=           0 FMFlag=      100000 FMFlg1=        2001
         NFxFlg=           0 DoJE=T BraDBF=F KetDBF=T FulRan=T
         wScrn=  0.000000 ICntrl=       500 IOpCl=  0 I1Cent=   200000004 NGrid=           0
         NMat0=    1 NMatS0=      1 NMatT0=    0 NMatD0=    1 NMtDS0=    0 NMtDT0=    0
 Petite list used in FoFCou.
 Harris En= -2878.00606348027    
 JPrj=0 DoOrth=F DoCkMO=F.
 Leave Link  401 at Thu Apr 28 08:01:15 2022, MaxMem= 10066329600 cpu:             133.0 elap:               5.6
 (Enter /sw/apps/gaussian-16.0/g16/l502.exe)
 Integral symmetry usage will be decided dynamically.
 Closed shell SCF:
 Using DIIS extrapolation, IDIIS=  1040.
 NGot= 10066329600 LenX= 10062561258 LenY= 10060699398
 Requested convergence on RMS density matrix=1.00D-08 within 128 cycles.
 Requested convergence on MAX density matrix=1.00D-06.
 Requested convergence on             energy=1.00D-06.
 No special actions if energy rises.
 Fock matrices will be formed incrementally for  20 cycles.

 Cycle   1  Pass 1  IDiag  1:
 FoFJK:  IHMeth= 1 ICntrl=       0 DoSepK=T KAlg= 0 I1Cent=           0 FoldK=F
 IRaf=         1 NMat=       1 IRICut=       1 DoRegI=T DoRafI=F ISym2E= 0 IDoP0=0 IntGTp=1.
 FoFCou: FMM=T IPFlag=           0 FMFlag=      100000 FMFlg1=        2001
         NFxFlg=           0 DoJE=T BraDBF=F KetDBF=F FulRan=T
         wScrn=  0.000000 ICntrl=       500 IOpCl=  0 I1Cent=           0 NGrid=           0
         NMat0=    1 NMatS0=      1 NMatT0=    0 NMatD0=    1 NMtDS0=    0 NMtDT0=    0
 Symmetry not used in FoFCou.
 FMM levels:  10  Number of levels for PrismC:   9
 E= -3007.20997197600    
 DIIS: error= 2.49D-02 at cycle   1 NSaved=   1.
 NSaved= 1 IEnMin= 1 EnMin= -3007.20997197600     IErMin= 1 ErrMin= 2.49D-02
 ErrMax= 2.49D-02  0.00D+00 EMaxC= 1.00D-01 BMatC= 1.48D+00 BMatP= 1.48D+00
 IDIUse=3 WtCom= 7.51D-01 WtEn= 2.49D-01
 Coeff-Com:  0.100D+01
 Coeff-En:   0.100D+01
 Coeff:      0.100D+01
 Gap=     0.155 Goal=   None    Shift=    0.000
 GapD=    0.155 DampG=1.000 DampE=0.500 DampFc=0.5000 IDamp=-1.
 Damping current iteration by 5.00D-01
 RMSDP=1.53D-03 MaxDP=2.00D-01              OVMax= 2.01D-01

 Cycle   2  Pass 1  IDiag  1:
 RMSU=  7.53D-04    CP:  9.87D-01
 E= -3007.52442271756     Delta-E=       -0.314450741560 Rises=F Damp=T
 DIIS: error= 1.41D-02 at cycle   2 NSaved=   2.
 NSaved= 2 IEnMin= 2 EnMin= -3007.52442271756     IErMin= 2 ErrMin= 1.41D-02
 ErrMax= 1.41D-02  0.00D+00 EMaxC= 1.00D-01 BMatC= 2.88D-01 BMatP= 1.48D+00
 IDIUse=3 WtCom= 8.59D-01 WtEn= 1.41D-01
 Coeff-Com: -0.356D+00 0.136D+01
 Coeff-En:   0.000D+00 0.100D+01
 Coeff:     -0.306D+00 0.131D+01
 Gap=     0.183 Goal=   None    Shift=    0.000
 RMSDP=7.10D-04 MaxDP=8.81D-02 DE=-3.14D-01 OVMax= 1.69D-01

 Cycle   3  Pass 1  IDiag  1:
 RMSU=  6.59D-04    CP:  9.78D-01  1.34D+00
 E= -3007.75572429893     Delta-E=       -0.231301581362 Rises=F Damp=F
 DIIS: error= 1.59D-02 at cycle   3 NSaved=   3.
 NSaved= 3 IEnMin= 3 EnMin= -3007.75572429893     IErMin= 2 ErrMin= 1.41D-02
 ErrMax= 1.59D-02  0.00D+00 EMaxC= 1.00D-01 BMatC= 1.34D-01 BMatP= 2.88D-01
 IDIUse=3 WtCom= 8.41D-01 WtEn= 1.59D-01
 Coeff-Com: -0.312D+00 0.686D+00 0.626D+00
 Coeff-En:   0.000D+00 0.000D+00 0.100D+01
 Coeff:     -0.262D+00 0.577D+00 0.685D+00
 Gap=     0.163 Goal=   None    Shift=    0.000
 RMSDP=4.21D-04 MaxDP=5.27D-02 DE=-2.31D-01 OVMax= 1.06D-01

 Cycle   4  Pass 1  IDiag  1:
 RMSU=  2.15D-04    CP:  9.74D-01  1.63D+00  5.73D-01
 E= -3007.85211306334     Delta-E=       -0.096388764414 Rises=F Damp=F
 DIIS: error= 6.32D-03 at cycle   4 NSaved=   4.
 NSaved= 4 IEnMin= 4 EnMin= -3007.85211306334     IErMin= 4 ErrMin= 6.32D-03
 ErrMax= 6.32D-03  0.00D+00 EMaxC= 1.00D-01 BMatC= 2.24D-02 BMatP= 1.34D-01
 IDIUse=3 WtCom= 9.37D-01 WtEn= 6.32D-02
 Coeff-Com: -0.114D+00 0.229D+00 0.380D+00 0.506D+00
 Coeff-En:   0.000D+00 0.000D+00 0.119D+00 0.881D+00
 Coeff:     -0.107D+00 0.214D+00 0.363D+00 0.529D+00
 Gap=     0.162 Goal=   None    Shift=    0.000
 RMSDP=1.37D-04 MaxDP=1.76D-02 DE=-9.64D-02 OVMax= 3.32D-02

 Cycle   5  Pass 1  IDiag  1:
 RMSU=  6.21D-05    CP:  9.74D-01  1.59D+00  7.09D-01  6.49D-01
 E= -3007.87038708781     Delta-E=       -0.018274024465 Rises=F Damp=F
 DIIS: error= 7.65D-04 at cycle   5 NSaved=   5.
 NSaved= 5 IEnMin= 5 EnMin= -3007.87038708781     IErMin= 5 ErrMin= 7.65D-04
 ErrMax= 7.65D-04  0.00D+00 EMaxC= 1.00D-01 BMatC= 5.06D-04 BMatP= 2.24D-02
 IDIUse=3 WtCom= 9.92D-01 WtEn= 7.65D-03
 Coeff-Com: -0.292D-01 0.556D-01 0.126D+00 0.238D+00 0.609D+00
 Coeff-En:   0.000D+00 0.000D+00 0.000D+00 0.000D+00 0.100D+01
 Coeff:     -0.290D-01 0.552D-01 0.125D+00 0.236D+00 0.612D+00
 Gap=     0.162 Goal=   None    Shift=    0.000
 RMSDP=2.68D-05 MaxDP=5.70D-03 DE=-1.83D-02 OVMax= 4.47D-03

 Cycle   6  Pass 1  IDiag  1:
 RMSU=  2.14D-05    CP:  9.74D-01  1.60D+00  7.09D-01  7.09D-01  8.73D-01
 E= -3007.87080060113     Delta-E=       -0.000413513328 Rises=F Damp=F
 DIIS: error= 2.38D-04 at cycle   6 NSaved=   6.
 NSaved= 6 IEnMin= 6 EnMin= -3007.87080060113     IErMin= 6 ErrMin= 2.38D-04
 ErrMax= 2.38D-04  0.00D+00 EMaxC= 1.00D-01 BMatC= 6.05D-05 BMatP= 5.06D-04
 IDIUse=3 WtCom= 9.98D-01 WtEn= 2.38D-03
 Coeff-Com:  0.103D-01-0.220D-01-0.187D-01 0.441D-03 0.265D+00 0.765D+00
 Coeff-En:   0.000D+00 0.000D+00 0.000D+00 0.000D+00 0.000D+00 0.100D+01
 Coeff:      0.103D-01-0.219D-01-0.187D-01 0.440D-03 0.264D+00 0.766D+00
 Gap=     0.163 Goal=   None    Shift=    0.000
 RMSDP=1.22D-05 MaxDP=1.34D-03 DE=-4.14D-04 OVMax= 5.61D-03

 Cycle   7  Pass 1  IDiag  1:
 RMSU=  8.55D-06    CP:  9.74D-01  1.60D+00  7.14D-01  7.24D-01  9.86D-01
                    CP:  9.68D-01
 E= -3007.87088583986     Delta-E=       -0.000085238726 Rises=F Damp=F
 DIIS: error= 6.53D-05 at cycle   7 NSaved=   7.
 NSaved= 7 IEnMin= 7 EnMin= -3007.87088583986     IErMin= 7 ErrMin= 6.53D-05
 ErrMax= 6.53D-05  0.00D+00 EMaxC= 1.00D-01 BMatC= 6.85D-06 BMatP= 6.05D-05
 IDIUse=1 WtCom= 1.00D+00 WtEn= 0.00D+00
 Coeff-Com:  0.631D-02-0.128D-01-0.176D-01-0.220D-01 0.371D-01 0.290D+00
 Coeff-Com:  0.719D+00
 Coeff:      0.631D-02-0.128D-01-0.176D-01-0.220D-01 0.371D-01 0.290D+00
 Coeff:      0.719D+00
 Gap=     0.163 Goal=   None    Shift=    0.000
 RMSDP=5.50D-06 MaxDP=1.15D-03 DE=-8.52D-05 OVMax= 2.32D-03

 Cycle   8  Pass 1  IDiag  1:
 RMSU=  3.84D-06    CP:  9.74D-01  1.60D+00  7.16D-01  7.30D-01  1.01D+00
                    CP:  1.11D+00  1.10D+00
 E= -3007.87090301586     Delta-E=       -0.000017175997 Rises=F Damp=F
 DIIS: error= 4.64D-05 at cycle   8 NSaved=   8.
 NSaved= 8 IEnMin= 8 EnMin= -3007.87090301586     IErMin= 8 ErrMin= 4.64D-05
 ErrMax= 4.64D-05  0.00D+00 EMaxC= 1.00D-01 BMatC= 1.74D-06 BMatP= 6.85D-06
 IDIUse=1 WtCom= 1.00D+00 WtEn= 0.00D+00
 Coeff-Com:  0.897D-03-0.155D-02-0.465D-02-0.109D-01-0.397D-01-0.225D-01
 Coeff-Com:  0.305D+00 0.773D+00
 Coeff:      0.897D-03-0.155D-02-0.465D-02-0.109D-01-0.397D-01-0.225D-01
 Coeff:      0.305D+00 0.773D+00
 Gap=     0.163 Goal=   None    Shift=    0.000
 RMSDP=3.67D-06 MaxDP=2.64D-04 DE=-1.72D-05 OVMax= 2.70D-03

 Cycle   9  Pass 1  IDiag  1:
 RMSU=  2.11D-06    CP:  9.74D-01  1.60D+00  7.16D-01  7.31D-01  1.03D+00
                    CP:  1.17D+00  1.37D+00  1.29D+00
 E= -3007.87091196790     Delta-E=       -0.000008952047 Rises=F Damp=F
 DIIS: error= 2.48D-05 at cycle   9 NSaved=   9.
 NSaved= 9 IEnMin= 9 EnMin= -3007.87091196790     IErMin= 9 ErrMin= 2.48D-05
 ErrMax= 2.48D-05  0.00D+00 EMaxC= 1.00D-01 BMatC= 6.09D-07 BMatP= 1.74D-06
 IDIUse=1 WtCom= 1.00D+00 WtEn= 0.00D+00
 Coeff-Com: -0.151D-02 0.310D-02 0.346D-02 0.326D-02-0.208D-01-0.827D-01
 Coeff-Com: -0.130D+00 0.251D+00 0.974D+00
 Coeff:     -0.151D-02 0.310D-02 0.346D-02 0.326D-02-0.208D-01-0.827D-01
 Coeff:     -0.130D+00 0.251D+00 0.974D+00
 Gap=     0.163 Goal=   None    Shift=    0.000
 RMSDP=3.36D-06 MaxDP=2.53D-04 DE=-8.95D-06 OVMax= 2.31D-03

 Cycle  10  Pass 1  IDiag  1:
 RMSU=  1.17D-06    CP:  9.74D-01  1.60D+00  7.16D-01  7.32D-01  1.03D+00
                    CP:  1.22D+00  1.56D+00  1.82D+00  1.61D+00
 E= -3007.87091744034     Delta-E=       -0.000005472433 Rises=F Damp=F
 DIIS: error= 2.12D-05 at cycle  10 NSaved=  10.
 NSaved=10 IEnMin=10 EnMin= -3007.87091744034     IErMin=10 ErrMin= 2.12D-05
 ErrMax= 2.12D-05  0.00D+00 EMaxC= 1.00D-01 BMatC= 2.32D-07 BMatP= 6.09D-07
 IDIUse=1 WtCom= 1.00D+00 WtEn= 0.00D+00
 Coeff-Com: -0.109D-02 0.211D-02 0.353D-02 0.668D-02 0.885D-02-0.263D-01
 Coeff-Com: -0.208D+00-0.206D+00 0.404D+00 0.102D+01
 Coeff:     -0.109D-02 0.211D-02 0.353D-02 0.668D-02 0.885D-02-0.263D-01
 Coeff:     -0.208D+00-0.206D+00 0.404D+00 0.102D+01
 Gap=     0.163 Goal=   None    Shift=    0.000
 RMSDP=3.09D-06 MaxDP=2.36D-04 DE=-5.47D-06 OVMax= 2.39D-03

 Cycle  11  Pass 1  IDiag  1:
 RMSU=  7.08D-07    CP:  9.74D-01  1.60D+00  7.16D-01  7.32D-01  1.04D+00
                    CP:  1.24D+00  1.74D+00  2.25D+00  2.44D+00  1.60D+00
 E= -3007.87092044311     Delta-E=       -0.000003002771 Rises=F Damp=F
 DIIS: error= 8.86D-06 at cycle  11 NSaved=  11.
 NSaved=11 IEnMin=11 EnMin= -3007.87092044311     IErMin=11 ErrMin= 8.86D-06
 ErrMax= 8.86D-06  0.00D+00 EMaxC= 1.00D-01 BMatC= 9.39D-08 BMatP= 2.32D-07
 IDIUse=1 WtCom= 1.00D+00 WtEn= 0.00D+00
 Coeff-Com: -0.117D-04-0.293D-04 0.432D-03 0.224D-02 0.111D-01 0.159D-01
 Coeff-Com: -0.591D-01-0.174D+00-0.152D+00 0.465D+00 0.891D+00
 Coeff:     -0.117D-04-0.293D-04 0.432D-03 0.224D-02 0.111D-01 0.159D-01
 Coeff:     -0.591D-01-0.174D+00-0.152D+00 0.465D+00 0.891D+00
 Gap=     0.163 Goal=   None    Shift=    0.000
 RMSDP=1.86D-06 MaxDP=1.36D-04 DE=-3.00D-06 OVMax= 1.32D-03

 Cycle  12  Pass 1  IDiag  1:
 RMSU=  3.88D-07    CP:  9.74D-01  1.60D+00  7.16D-01  7.32D-01  1.04D+00
                    CP:  1.26D+00  1.83D+00  2.52D+00  2.92D+00  2.21D+00
                    CP:  1.42D+00
 E= -3007.87092136103     Delta-E=       -0.000000917924 Rises=F Damp=F
 DIIS: error= 5.05D-06 at cycle  12 NSaved=  12.
 NSaved=12 IEnMin=12 EnMin= -3007.87092136103     IErMin=12 ErrMin= 5.05D-06
 ErrMax= 5.05D-06  0.00D+00 EMaxC= 1.00D-01 BMatC= 2.26D-08 BMatP= 9.39D-08
 IDIUse=1 WtCom= 1.00D+00 WtEn= 0.00D+00
 Coeff-Com:  0.421D-03-0.835D-03-0.126D-02-0.164D-02 0.568D-03 0.164D-01
 Coeff-Com:  0.613D-01 0.242D-01-0.212D+00-0.263D+00 0.343D+00 0.103D+01
 Coeff:      0.421D-03-0.835D-03-0.126D-02-0.164D-02 0.568D-03 0.164D-01
 Coeff:      0.613D-01 0.242D-01-0.212D+00-0.263D+00 0.343D+00 0.103D+01
 Gap=     0.163 Goal=   None    Shift=    0.000
 RMSDP=1.16D-06 MaxDP=1.07D-04 DE=-9.18D-07 OVMax= 8.69D-04

 Cycle  13  Pass 1  IDiag  1:
 RMSU=  5.51D-07    CP:  9.74D-01  1.60D+00  7.16D-01  7.32D-01  1.04D+00
                    CP:  1.26D+00  1.87D+00  2.64D+00  3.00D+00  2.62D+00
                    CP:  2.00D+00  1.36D+00
 E= -3007.87092159560     Delta-E=       -0.000000234564 Rises=F Damp=F
 DIIS: error= 1.52D-06 at cycle  13 NSaved=  13.
 NSaved=13 IEnMin=13 EnMin= -3007.87092159560     IErMin=13 ErrMin= 1.52D-06
 ErrMax= 1.52D-06  0.00D+00 EMaxC= 1.00D-01 BMatC= 4.75D-09 BMatP= 2.26D-08
 IDIUse=1 WtCom= 1.00D+00 WtEn= 0.00D+00
 Coeff-Com:  0.192D-03-0.374D-03-0.649D-03-0.110D-02-0.164D-02 0.405D-02
 Coeff-Com:  0.369D-01 0.402D-01-0.610D-01-0.203D+00-0.156D-01 0.455D+00
 Coeff-Com:  0.747D+00
 Coeff:      0.192D-03-0.374D-03-0.649D-03-0.110D-02-0.164D-02 0.405D-02
 Coeff:      0.369D-01 0.402D-01-0.610D-01-0.203D+00-0.156D-01 0.455D+00
 Coeff:      0.747D+00
 Gap=     0.163 Goal=   None    Shift=    0.000
 RMSDP=3.28D-07 MaxDP=2.80D-05 DE=-2.35D-07 OVMax= 2.22D-04

 Cycle  14  Pass 1  IDiag  1:
 RMSU=  9.00D-08    CP:  9.74D-01  1.60D+00  7.16D-01  7.32D-01  1.04D+00
                    CP:  1.26D+00  1.89D+00  2.67D+00  3.00D+00  2.74D+00
                    CP:  2.18D+00  1.60D+00  1.31D+00
 E= -3007.87092161579     Delta-E=       -0.000000020196 Rises=F Damp=F
 DIIS: error= 5.53D-07 at cycle  14 NSaved=  14.
 NSaved=14 IEnMin=14 EnMin= -3007.87092161579     IErMin=14 ErrMin= 5.53D-07
 ErrMax= 5.53D-07  0.00D+00 EMaxC= 1.00D-01 BMatC= 4.74D-10 BMatP= 4.75D-09
 IDIUse=1 WtCom= 1.00D+00 WtEn= 0.00D+00
 Coeff-Com: -0.118D-04 0.263D-04 0.129D-04-0.489D-04-0.571D-03-0.177D-02
 Coeff-Com:  0.872D-03 0.777D-02 0.196D-01-0.188D-01-0.632D-01-0.302D-01
 Coeff-Com:  0.211D+00 0.875D+00
 Coeff:     -0.118D-04 0.263D-04 0.129D-04-0.489D-04-0.571D-03-0.177D-02
 Coeff:      0.872D-03 0.777D-02 0.196D-01-0.188D-01-0.632D-01-0.302D-01
 Coeff:      0.211D+00 0.875D+00
 Gap=     0.163 Goal=   None    Shift=    0.000
 RMSDP=8.72D-08 MaxDP=1.75D-05 DE=-2.02D-08 OVMax= 5.45D-05

 Cycle  15  Pass 1  IDiag  1:
 RMSU=  3.70D-08    CP:  9.74D-01  1.60D+00  7.16D-01  7.32D-01  1.04D+00
                    CP:  1.26D+00  1.89D+00  2.67D+00  3.00D+00  2.77D+00
                    CP:  2.24D+00  1.68D+00  1.39D+00  9.81D-01
 E= -3007.87092161769     Delta-E=       -0.000000001901 Rises=F Damp=F
 DIIS: error= 2.61D-07 at cycle  15 NSaved=  15.
 NSaved=15 IEnMin=15 EnMin= -3007.87092161769     IErMin=15 ErrMin= 2.61D-07
 ErrMax= 2.61D-07  0.00D+00 EMaxC= 1.00D-01 BMatC= 1.60D-10 BMatP= 4.74D-10
 IDIUse=1 WtCom= 1.00D+00 WtEn= 0.00D+00
 Coeff-Com: -0.395D-04 0.785D-04 0.122D-03 0.171D-03 0.130D-04-0.160D-02
 Coeff-Com: -0.598D-02-0.396D-02 0.198D-01 0.271D-01-0.250D-01-0.909D-01
 Coeff-Com: -0.374D-01 0.429D+00 0.688D+00
 Coeff:     -0.395D-04 0.785D-04 0.122D-03 0.171D-03 0.130D-04-0.160D-02
 Coeff:     -0.598D-02-0.396D-02 0.198D-01 0.271D-01-0.250D-01-0.909D-01
 Coeff:     -0.374D-01 0.429D+00 0.688D+00
 Gap=     0.163 Goal=   None    Shift=    0.000
 RMSDP=2.52D-08 MaxDP=1.94D-06 DE=-1.90D-09 OVMax= 1.22D-05

 Cycle  16  Pass 1  IDiag  1:
 RMSU=  1.68D-08    CP:  9.74D-01  1.60D+00  7.16D-01  7.32D-01  1.04D+00
                    CP:  1.26D+00  1.89D+00  2.67D+00  3.00D+00  2.77D+00
                    CP:  2.25D+00  1.70D+00  1.41D+00  1.05D+00  1.15D+00
 E= -3007.87092161783     Delta-E=       -0.000000000142 Rises=F Damp=F
 DIIS: error= 9.12D-08 at cycle  16 NSaved=  16.
 NSaved=16 IEnMin=16 EnMin= -3007.87092161783     IErMin=16 ErrMin= 9.12D-08
 ErrMax= 9.12D-08  0.00D+00 EMaxC= 1.00D-01 BMatC= 1.58D-11 BMatP= 1.60D-10
 IDIUse=1 WtCom= 1.00D+00 WtEn= 0.00D+00
 Coeff-Com: -0.119D-04 0.232D-04 0.420D-04 0.672D-04 0.938D-04-0.306D-03
 Coeff-Com: -0.217D-02-0.275D-02 0.453D-02 0.129D-01-0.130D-02-0.299D-01
 Coeff-Com: -0.472D-01 0.237D-01 0.225D+00 0.817D+00
 Coeff:     -0.119D-04 0.232D-04 0.420D-04 0.672D-04 0.938D-04-0.306D-03
 Coeff:     -0.217D-02-0.275D-02 0.453D-02 0.129D-01-0.130D-02-0.299D-01
 Coeff:     -0.472D-01 0.237D-01 0.225D+00 0.817D+00
 Gap=     0.163 Goal=   None    Shift=    0.000
 RMSDP=1.20D-08 MaxDP=2.00D-06 DE=-1.42D-10 OVMax= 6.67D-06

 Cycle  17  Pass 1  IDiag  1:
 RMSU=  5.61D-09    CP:  9.74D-01  1.60D+00  7.16D-01  7.32D-01  1.04D+00
                    CP:  1.26D+00  1.89D+00  2.67D+00  3.00D+00  2.77D+00
                    CP:  2.25D+00  1.71D+00  1.42D+00  1.08D+00  1.31D+00
                    CP:  1.15D+00
 E= -3007.87092161805     Delta-E=       -0.000000000220 Rises=F Damp=F
 DIIS: error= 5.16D-08 at cycle  17 NSaved=  17.
 NSaved=17 IEnMin=17 EnMin= -3007.87092161805     IErMin=17 ErrMin= 5.16D-08
 ErrMax= 5.16D-08  0.00D+00 EMaxC= 1.00D-01 BMatC= 4.15D-12 BMatP= 1.58D-11
 IDIUse=1 WtCom= 1.00D+00 WtEn= 0.00D+00
 Coeff-Com:  0.274D-05-0.565D-05-0.625D-05-0.623D-05 0.339D-04 0.170D-03
 Coeff-Com:  0.346D-03-0.387D-03-0.200D-02 0.247D-03 0.397D-02 0.579D-02
 Coeff-Com: -0.813D-02-0.661D-01-0.506D-01 0.311D+00 0.805D+00
 Coeff:      0.274D-05-0.565D-05-0.625D-05-0.623D-05 0.339D-04 0.170D-03
 Coeff:      0.346D-03-0.387D-03-0.200D-02 0.247D-03 0.397D-02 0.579D-02
 Coeff:     -0.813D-02-0.661D-01-0.506D-01 0.311D+00 0.805D+00
 Gap=     0.163 Goal=   None    Shift=    0.000
 RMSDP=5.40D-09 MaxDP=4.03D-07 DE=-2.20D-10 OVMax= 2.88D-06

 SCF Done:  E(RwB97XD) =  -3007.87092162     A.U. after   17 cycles
            NFock= 17  Conv=0.54D-08     -V/T= 2.0108
 KE= 2.975653617511D+03 PE=-2.575069624932D+04 EE= 1.038799701768D+04
 Leave Link  502 at Thu Apr 28 08:07:37 2022, MaxMem= 10066329600 cpu:            8775.4 elap:             381.2
 (Enter /sw/apps/gaussian-16.0/g16/l801.exe)
 DoSCS=F DFT=T ScalE2(SS,OS)=  1.000000  1.000000
 ExpMin= 3.36D-02 ExpMax= 4.95D+03 ExpMxC= 7.45D+02 IAcc=3 IRadAn=         5 AccDes= 0.00D+00
 HarFok:  IExCor=  205 AccDes= 0.00D+00 IRadAn=         5 IDoV=-2 UseB2=F ITyADJ=14
 ICtDFT= 12500011 ScaDFX=  1.000000  1.000000  1.000000  1.000000
 GSVD:  LWork=       -5460 too small for GESVD, short by       25550 words or       25550 for optimal perf.
 Largest valence mixing into a core orbital is  1.44D-04
 Largest core mixing into a valence orbital is  5.59D-05
 Range of M.O.s used for correlation:    71  1298
 NBasis=  1298 NAE=   246 NBE=   246 NFC=    70 NFV=     0
 NROrb=   1228 NOA=   176 NOB=   176 NVA=  1052 NVB=  1052
 Leave Link  801 at Thu Apr 28 08:07:37 2022, MaxMem= 10066329600 cpu:               8.8 elap:               0.4
 (Enter /sw/apps/gaussian-16.0/g16/l914.exe)
 RHF ground state
 Two-electron integrals replicated using symmetry.
 MDV= 10066329600 DFT=T DoStab=F Mixed=T DoRPA=T DoScal=F NonHer=T
 Making orbital integer symmetry assigments:
 Orbital symmetries:
       Occupied  (A) (A) (A) (A) (A) (A) (A) (A) (A) (A) (A) (A)
                 (A) (A) (A) (A) (A) (A) (A) (A) (A) (A) (A) (A)
                 (A) (A) (A) (A) (A) (A) (A) (A) (A) (A) (A) (A)
                 (A) (A) (A) (A) (A) (A) (A) (A) (A) (A) (A) (A)
                 (A) (A) (A) (A) (A) (A) (A) (A) (A) (A) (A) (A)
                 (A) (A) (A) (A) (A) (A) (A) (A) (A) (A) (A) (A)
                 (A) (A) (A) (A) (A) (A) (A) (A) (A) (A) (A) (A)
                 (A) (A) (A) (A) (A) (A) (A) (A) (A) (A) (A) (A)
                 (A) (A) (A) (A) (A) (A) (A) (A) (A) (A) (A) (A)
                 (A) (A) (A) (A) (A) (A) (A) (A) (A) (A) (A) (A)
                 (A) (A) (A) (A) (A) (A) (A) (A) (A) (A) (A) (A)
                 (A) (A) (A) (A) (A) (A) (A) (A) (A) (A) (A) (A)
                 (A) (A) (A) (A) (A) (A) (A) (A) (A) (A) (A) (A)
                 (A) (A) (A) (A) (A) (A) (A) (A) (A) (A) (A) (A)
                 (A) (A) (A) (A) (A) (A) (A) (A) (A) (A) (A) (A)
                 (A) (A) (A) (A) (A) (A) (A) (A) (A) (A) (A) (A)
                 (A) (A) (A) (A) (A) (A) (A) (A) (A) (A) (A) (A)
                 (A) (A) (A) (A) (A) (A) (A) (A) (A) (A) (A) (A)
                 (A) (A) (A) (A) (A) (A) (A) (A) (A) (A) (A) (A)
                 (A) (A) (A) (A) (A) (A) (A) (A) (A) (A) (A) (A)
                 (A) (A) (A) (A) (A) (A)
       Virtual   (A) (A) (A) (A) (A) (A) (A) (A) (A) (A) (A) (A)
                 (A) (A) (A) (A) (A) (A) (A) (A) (A) (A) (A) (A)
                 (A) (A) (A) (A) (A) (A) (A) (A) (A) (A) (A) (A)
                 (A) (A) (A) (A) (A) (A) (A) (A) (A) (A) (A) (A)
                 (A) (A) (A) (A) (A) (A) (A) (A) (A) (A) (A) (A)
                 (A) (A) (A) (A) (A) (A) (A) (A) (A) (A) (A) (A)
                 (A) (A) (A) (A) (A) (A) (A) (A) (A) (A) (A) (A)
                 (A) (A) (A) (A) (A) (A) (A) (A) (A) (A) (A) (A)
                 (A) (A) (A) (A) (A) (A) (A) (A) (A) (A) (A) (A)
                 (A) (A) (A) (A) (A) (A) (A) (A) (A) (A) (A) (A)
                 (A) (A) (A) (A) (A) (A) (A) (A) (A) (A) (A) (A)
                 (A) (A) (A) (A) (A) (A) (A) (A) (A) (A) (A) (A)
                 (A) (A) (A) (A) (A) (A) (A) (A) (A) (A) (A) (A)
                 (A) (A) (A) (A) (A) (A) (A) (A) (A) (A) (A) (A)
                 (A) (A) (A) (A) (A) (A) (A) (A) (A) (A) (A) (A)
                 (A) (A) (A) (A) (A) (A) (A) (A) (A) (A) (A) (A)
                 (A) (A) (A) (A) (A) (A) (A) (A) (A) (A) (A) (A)
                 (A) (A) (A) (A) (A) (A) (A) (A) (A) (A) (A) (A)
                 (A) (A) (A) (A) (A) (A) (A) (A) (A) (A) (A) (A)
                 (A) (A) (A) (A) (A) (A) (A) (A) (A) (A) (A) (A)
                 (A) (A) (A) (A) (A) (A) (A) (A) (A) (A) (A) (A)
                 (A) (A) (A) (A) (A) (A) (A) (A) (A) (A) (A) (A)
                 (A) (A) (A) (A) (A) (A) (A) (A) (A) (A) (A) (A)
                 (A) (A) (A) (A) (A) (A) (A) (A) (A) (A) (A) (A)
                 (A) (A) (A) (A) (A) (A) (A) (A) (A) (A) (A) (A)
                 (A) (A) (A) (A) (A) (A) (A) (A) (A) (A) (A) (A)
                 (A) (A) (A) (A) (A) (A) (A) (A) (A) (A) (A) (A)
                 (A) (A) (A) (A) (A) (A) (A) (A) (A) (A) (A) (A)
                 (A) (A) (A) (A) (A) (A) (A) (A) (A) (A) (A) (A)
                 (A) (A) (A) (A) (A) (A) (A) (A) (A) (A) (A) (A)
                 (A) (A) (A) (A) (A) (A) (A) (A) (A) (A) (A) (A)
                 (A) (A) (A) (A) (A) (A) (A) (A) (A) (A) (A) (A)
                 (A) (A) (A) (A) (A) (A) (A) (A) (A) (A) (A) (A)
                 (A) (A) (A) (A) (A) (A) (A) (A) (A) (A) (A) (A)
                 (A) (A) (A) (A) (A) (A) (A) (A) (A) (A) (A) (A)
                 (A) (A) (A) (A) (A) (A) (A) (A) (A) (A) (A) (A)
                 (A) (A) (A) (A) (A) (A) (A) (A) (A) (A) (A) (A)
                 (A) (A) (A) (A) (A) (A) (A) (A) (A) (A) (A) (A)
                 (A) (A) (A) (A) (A) (A) (A) (A) (A) (A) (A) (A)
                 (A) (A) (A) (A) (A) (A) (A) (A) (A) (A) (A) (A)
                 (A) (A) (A) (A) (A) (A) (A) (A) (A) (A) (A) (A)
                 (A) (A) (A) (A) (A) (A) (A) (A) (A) (A) (A) (A)
                 (A) (A) (A) (A) (A) (A) (A) (A) (A) (A) (A) (A)
                 (A) (A) (A) (A) (A) (A) (A) (A) (A) (A) (A) (A)
                 (A) (A) (A) (A) (A) (A) (A) (A) (A) (A) (A) (A)
                 (A) (A) (A) (A) (A) (A) (A) (A) (A) (A) (A) (A)
                 (A) (A) (A) (A) (A) (A) (A) (A) (A) (A) (A) (A)
                 (A) (A) (A) (A) (A) (A) (A) (A) (A) (A) (A) (A)
                 (A) (A) (A) (A) (A) (A) (A) (A) (A) (A) (A) (A)
                 (A) (A) (A) (A) (A) (A) (A) (A) (A) (A) (A) (A)
                 (A) (A) (A) (A) (A) (A) (A) (A) (A) (A) (A) (A)
                 (A) (A) (A) (A) (A) (A) (A) (A) (A) (A) (A) (A)
                 (A) (A) (A) (A) (A) (A) (A) (A) (A) (A) (A) (A)
                 (A) (A) (A) (A) (A) (A) (A) (A) (A) (A) (A) (A)
                 (A) (A) (A) (A) (A) (A) (A) (A) (A) (A) (A) (A)
                 (A) (A) (A) (A) (A) (A) (A) (A) (A) (A) (A) (A)
                 (A) (A) (A) (A) (A) (A) (A) (A) (A) (A) (A) (A)
                 (A) (A) (A) (A) (A) (A) (A) (A) (A) (A) (A) (A)
                 (A) (A) (A) (A) (A) (A) (A) (A) (A) (A) (A) (A)
                 (A) (A) (A) (A) (A) (A) (A) (A) (A) (A) (A) (A)
                 (A) (A) (A) (A) (A) (A) (A) (A) (A) (A) (A) (A)
                 (A) (A) (A) (A) (A) (A) (A) (A) (A) (A) (A) (A)
                 (A) (A) (A) (A) (A) (A) (A) (A) (A) (A) (A) (A)
                 (A) (A) (A) (A) (A) (A) (A) (A) (A) (A) (A) (A)
                 (A) (A) (A) (A) (A) (A) (A) (A) (A) (A) (A) (A)
                 (A) (A) (A) (A) (A) (A) (A) (A) (A) (A) (A) (A)
                 (A) (A) (A) (A) (A) (A) (A) (A) (A) (A) (A) (A)
                 (A) (A) (A) (A) (A) (A) (A) (A) (A) (A) (A) (A)
                 (A) (A) (A) (A) (A) (A) (A) (A) (A) (A) (A) (A)
                 (A) (A) (A) (A) (A) (A) (A) (A) (A) (A) (A) (A)
                 (A) (A) (A) (A) (A) (A) (A) (A) (A) (A) (A) (A)
                 (A) (A) (A) (A) (A) (A) (A) (A) (A) (A) (A) (A)
                 (A) (A) (A) (A) (A) (A) (A) (A) (A) (A) (A) (A)
                 (A) (A) (A) (A) (A) (A) (A) (A) (A) (A) (A) (A)
                 (A) (A) (A) (A) (A) (A) (A) (A) (A) (A) (A) (A)
                 (A) (A) (A) (A) (A) (A) (A) (A) (A) (A) (A) (A)
                 (A) (A) (A) (A) (A) (A) (A) (A) (A) (A) (A) (A)
                 (A) (A) (A) (A) (A) (A) (A) (A) (A) (A) (A) (A)
                 (A) (A) (A) (A) (A) (A) (A) (A) (A) (A) (A) (A)
                 (A) (A) (A) (A) (A) (A) (A) (A) (A) (A) (A) (A)
                 (A) (A) (A) (A) (A) (A) (A) (A) (A) (A) (A) (A)
                 (A) (A) (A) (A) (A) (A) (A) (A) (A) (A) (A) (A)
                 (A) (A) (A) (A) (A) (A) (A) (A) (A) (A) (A) (A)
                 (A) (A) (A) (A) (A) (A) (A) (A) (A) (A) (A) (A)
                 (A) (A) (A) (A) (A) (A) (A) (A) (A) (A) (A) (A)
                 (A) (A) (A) (A) (A) (A) (A) (A) (A) (A) (A) (A)
                 (A) (A) (A) (A) (A) (A) (A) (A) (A) (A) (A) (A)
                 (A) (A) (A) (A) (A) (A) (A) (A)
    20 initial guesses have been made.
 Convergence on wavefunction:    0.001000000000000
 Davidson Disk Diagonalization:  ConvIn= 1.00D-03 SkipCon=T Conv= 1.00D-03.
 Max sub-space:  2000 roots to seek:    20 dimension of matrix:       370304
 Iteration     1 Dimension    20 NMult     0 NNew     20
 CISAX will form    20 AO SS matrices at one time.
 NMat=    20 NSing=    20 JSym2X= 0.
 FoFJK:  IHMeth= 1 ICntrl=       0 DoSepK=T KAlg= 0 I1Cent=           0 FoldK=F
 IRaf=         1 NMat=      40 IRICut=       1 DoRegI=T DoRafI=F ISym2E= 0 IDoP0=3 IntGTp=3.
 FoFCou: FMM=T IPFlag=           0 FMFlag=      100000 FMFlg1=        2001
         NFxFlg=           0 DoJE=F BraDBF=F KetDBF=F FulRan=T
         wScrn=  0.000000 ICntrl=       500 IOpCl=  0 I1Cent=           0 NGrid=           0
         NMat0=   20 NMatS0=     20 NMatT0=    0 NMatD0=   20 NMtDS0=    0 NMtDT0=    0
 Symmetry not used in FoFCou.
 FMM levels:  10  Number of levels for PrismC:   9
 New state      3 was old state      4
 New state      4 was old state      3
 New state      5 was old state      9
 Excitation Energies [eV] at current iteration:
 Root      1 :     2.266897713127094
 Root      2 :     2.668817293295760
 Root      3 :     3.979223627967679
 Root      4 :     4.073111868115260
 Root      5 :     4.329090056396040
 Root      6 :     4.363322793355590
 Root      7 :     4.475586822602997
 Root      8 :     4.504551089876048
 Root      9 :     4.530546331650757
 Root     10 :     4.600928517641730
 Root     11 :     4.791081036212639
 Root     12 :     4.925662711943527
 Root     13 :     5.077246896295679
 Root     14 :     5.194293889391957
 Root     15 :     5.331686695261288
 Root     16 :     5.677974942963542
 Root     17 :     5.747955468666286
 Root     18 :     5.846640316257607
 Root     19 :     6.111343829174942
 Root     20 :     7.153078338050851
 Iteration     2 Dimension    30 NMult    20 NNew     10
 CISAX will form    10 AO SS matrices at one time.
 NMat=    10 NSing=    10 JSym2X= 0.
 Root      1 not converged, maximum delta is    0.069986802049083
 Root      2 not converged, maximum delta is    0.064311143903725
 Root      3 not converged, maximum delta is    0.387337127985074
 Root      4 not converged, maximum delta is    0.427855507988331
 Root      5 not converged, maximum delta is    0.200139993288975
 Excitation Energies [eV] at current iteration:
 Root      1 :     1.811143803432588   Change is   -0.455753909694506
 Root      2 :     2.243257461564229   Change is   -0.425559831731531
 Root      3 :     3.543530992624657   Change is   -0.435692635343022
 Root      4 :     3.660280770812078   Change is   -0.412831097303182
 Root      5 :     3.839121193444285   Change is   -0.489968862951756
 Iteration     3 Dimension    40 NMult    30 NNew     10
 CISAX will form    10 AO SS matrices at one time.
 NMat=    10 NSing=    10 JSym2X= 0.
 Root      1 not converged, maximum delta is    0.016928623018694
 Root      2 not converged, maximum delta is    0.009923276364763
 Root      3 not converged, maximum delta is    0.030150495288386
 Root      4 not converged, maximum delta is    0.038022121170573
 Root      5 not converged, maximum delta is    0.024738027700247
 Excitation Energies [eV] at current iteration:
 Root      1 :     1.779258456492330   Change is   -0.031885346940258
 Root      2 :     2.224638632341327   Change is   -0.018618829222902
 Root      3 :     3.515253316621287   Change is   -0.028277676003370
 Root      4 :     3.638347951486606   Change is   -0.021932819325471
 Root      5 :     3.811130630613807   Change is   -0.027990562830477
 Iteration     4 Dimension    50 NMult    40 NNew     10
 CISAX will form    10 AO SS matrices at one time.
 NMat=    10 NSing=    10 JSym2X= 0.
 Root      1 not converged, maximum delta is    0.002238379032648
 Root      2 not converged, maximum delta is    0.002383182277270
 Root      3 not converged, maximum delta is    0.009157191859877
 Root      4 not converged, maximum delta is    0.009625970524482
 Root      5 not converged, maximum delta is    0.024933515371483
 Excitation Energies [eV] at current iteration:
 Root      1 :     1.775968091239025   Change is   -0.003290365253306
 Root      2 :     2.222138353961499   Change is   -0.002500278379829
 Root      3 :     3.509856851695651   Change is   -0.005396464925637
 Root      4 :     3.633701561285197   Change is   -0.004646390201410
 Root      5 :     3.804037929496630   Change is   -0.007092701117177
 Iteration     5 Dimension    60 NMult    50 NNew     10
 CISAX will form    10 AO SS matrices at one time.
 NMat=    10 NSing=    10 JSym2X= 0.
 Root      1 has converged.
 Root      2 has converged.
 Root      3 not converged, maximum delta is    0.004147019679398
 Root      4 not converged, maximum delta is    0.014529472511625
 Root      5 not converged, maximum delta is    0.245307386013525
 Excitation Energies [eV] at current iteration:
 Root      1 :     1.775676671272137   Change is   -0.000291419966887
 Root      2 :     2.221939518694602   Change is   -0.000198835266896
 Root      3 :     3.509085768848684   Change is   -0.000771082846966
 Root      4 :     3.632708924265500   Change is   -0.000992637019697
 Root      5 :     3.775721208134520   Change is   -0.028316721362110
 Iteration     6 Dimension    66 NMult    60 NNew      6
 CISAX will form     6 AO SS matrices at one time.
 NMat=     6 NSing=     6 JSym2X= 0.
 Root      1 has converged.
 Root      2 has converged.
 Root      3 not converged, maximum delta is    0.003621825827198
 Root      4 not converged, maximum delta is    0.017905795467057
 Root      5 not converged, maximum delta is    0.188735833983911
 Excitation Energies [eV] at current iteration:
 Root      1 :     1.775675793438422   Change is   -0.000000877833715
 Root      2 :     2.221937316838567   Change is   -0.000002201856035
 Root      3 :     3.508933634912418   Change is   -0.000152133936265
 Root      4 :     3.632283856551282   Change is   -0.000425067714217
 Root      5 :     3.717133224242072   Change is   -0.058587983892448
 Iteration     7 Dimension    72 NMult    66 NNew      6
 CISAX will form     6 AO SS matrices at one time.
 NMat=     6 NSing=     6 JSym2X= 0.
 Root      1 has converged.
 Root      2 has converged.
 Root      3 not converged, maximum delta is    0.001164132446150
 Root      4 not converged, maximum delta is    0.006943687798951
 Root      5 not converged, maximum delta is    0.020770405561095
 Excitation Energies [eV] at current iteration:
 Root      1 :     1.775675283609339   Change is   -0.000000509829083
 Root      2 :     2.221934898424213   Change is   -0.000002418414354
 Root      3 :     3.508895494406662   Change is   -0.000038140505757
 Root      4 :     3.632150164583530   Change is   -0.000133691967752
 Root      5 :     3.704329216819475   Change is   -0.012804007422597
 Iteration     8 Dimension    78 NMult    72 NNew      6
 CISAX will form     6 AO SS matrices at one time.
 NMat=     6 NSing=     6 JSym2X= 0.
 Root      1 has converged.
 Root      2 has converged.
 Root      3 not converged, maximum delta is    0.001164002254994
 Root      4 not converged, maximum delta is    0.002950547403169
 Root      5 not converged, maximum delta is    0.025165380871438
 Excitation Energies [eV] at current iteration:
 Root      1 :     1.775674743462480   Change is   -0.000000540146859
 Root      2 :     2.221934487909879   Change is   -0.000000410514334
 Root      3 :     3.508879164973998   Change is   -0.000016329432663
 Root      4 :     3.632091272448963   Change is   -0.000058892134567
 Root      5 :     3.701149298579542   Change is   -0.003179918239933
 Iteration     9 Dimension    84 NMult    78 NNew      6
 CISAX will form     6 AO SS matrices at one time.
 NMat=     6 NSing=     6 JSym2X= 0.
 Root      1 has converged.
 Root      2 has converged.
 Root      3 not converged, maximum delta is    0.001257554284833
 Root      4 not converged, maximum delta is    0.004515109882037
 Root      5 not converged, maximum delta is    0.045667610329599
 Excitation Energies [eV] at current iteration:
 Root      1 :     1.775674506515293   Change is   -0.000000236947187
 Root      2 :     2.221934069898233   Change is   -0.000000418011647
 Root      3 :     3.508868787715963   Change is   -0.000010377258036
 Root      4 :     3.632038024184093   Change is   -0.000053248264870
 Root      5 :     3.698712995424791   Change is   -0.002436303154750
 Iteration    10 Dimension    90 NMult    84 NNew      6
 CISAX will form     6 AO SS matrices at one time.
 NMat=     6 NSing=     6 JSym2X= 0.
 Root      1 has converged.
 Root      2 has converged.
 Root      3 has converged.
 Root      4 not converged, maximum delta is    0.002361742329723
 Root      5 not converged, maximum delta is    0.032218959065982
 Excitation Energies [eV] at current iteration:
 Root      1 :     1.775674156856725   Change is   -0.000000349658568
 Root      2 :     2.221933884255197   Change is   -0.000000185643035
 Root      3 :     3.508865909411000   Change is   -0.000002878304962
 Root      4 :     3.632016285314543   Change is   -0.000021738869551
 Root      5 :     3.697383355856365   Change is   -0.001329639568427
 Iteration    11 Dimension    94 NMult    90 NNew      4
 CISAX will form     4 AO SS matrices at one time.
 NMat=     4 NSing=     4 JSym2X= 0.
 Root      1 has converged.
 Root      2 has converged.
 Root      3 has converged.
 Root      4 has converged.
 Root      5 not converged, maximum delta is    0.007501176469087
 Excitation Energies [eV] at current iteration:
 Root      1 :     1.775673948519086   Change is   -0.000000208337639
 Root      2 :     2.221933859266846   Change is   -0.000000024988351
 Root      3 :     3.508865661995921   Change is   -0.000000247415079
 Root      4 :     3.632012976917811   Change is   -0.000003308396732
 Root      5 :     3.697113022365081   Change is   -0.000270333491284
 Iteration    12 Dimension    96 NMult    94 NNew      2
 CISAX will form     2 AO SS matrices at one time.
 NMat=     2 NSing=     2 JSym2X= 0.
 Root      1 has converged.
 Root      2 has converged.
 Root      3 has converged.
 Root      4 has converged.
 Root      5 not converged, maximum delta is    0.001446128442311
 Excitation Energies [eV] at current iteration:
 Root      1 :     1.775673379218572   Change is   -0.000000569300514
 Root      2 :     2.221933070612768   Change is   -0.000000788654078
 Root      3 :     3.508865640207144   Change is   -0.000000021788778
 Root      4 :     3.632012594469831   Change is   -0.000000382447981
 Root      5 :     3.697066729098367   Change is   -0.000046293266713
 Iteration    13 Dimension    98 NMult    96 NNew      2
 CISAX will form     2 AO SS matrices at one time.
 NMat=     2 NSing=     2 JSym2X= 0.
 Root      1 has converged.
 Root      2 has converged.
 Root      3 has converged.
 Root      4 has converged.
 Root      5 has converged.
 Excitation Energies [eV] at current iteration:
 Root      1 :     1.775673341251112   Change is   -0.000000037967461
 Root      2 :     2.221933052623136   Change is   -0.000000017989633
 Root      3 :     3.508865638035063   Change is   -0.000000002172081
 Root      4 :     3.632012556257614   Change is   -0.000000038212216
 Root      5 :     3.697059536551888   Change is   -0.000007192546480
 Convergence achieved on expansion vectors.
 ***********************************************************************
 Excited states from <AA,BB:AA,BB> singles matrix:
 ***********************************************************************
 
 1PDM for each excited state written to RWF  633
 Ground to excited state transition densities written to RWF  633
 Ground to excited state transition electric dipole moments (Au):
       state          X           Y           Z        Dip. S.      Osc.
         1        -0.0838      2.8770     -0.4731      8.5078      0.3701
         2         1.4427      0.1828      0.1059      2.1260      0.1157
         3        -2.2205     -0.5172     -0.0300      5.1989      0.4469
         4         1.3715      0.5048     -0.0177      2.1361      0.1901
         5         0.2113      0.1144      0.0337      0.0589      0.0053
 Ground to excited state transition velocity dipole moments (Au):
       state          X           Y           Z        Dip. S.      Osc.
         1         0.0057     -0.1823      0.0309      0.0342      0.3495
         2        -0.1106     -0.0140     -0.0082      0.0125      0.1021
         3         0.2762      0.0660      0.0039      0.0807      0.4171
         4        -0.1751     -0.0657      0.0021      0.0350      0.1747
         5        -0.0301     -0.0122     -0.0028      0.0011      0.0052
 Ground to excited state transition magnetic dipole moments (Au):
       state          X           Y           Z
         1         0.0557     -0.3339     -1.8939
         2        -0.0357      0.2034      0.8854
         3        -0.1271      0.2063      1.5313
         4        -0.2087      0.0432      0.0601
         5        -0.7341     -0.0049     -0.3110
 Ground to excited state transition velocity quadrupole moments (Au):
       state          XX          YY          ZZ          XY          XZ          YZ
         1         0.2490     -0.3051      0.0215     -2.0784      0.4016      0.0293
         2        -2.3799      0.0178     -0.0011     -0.1875     -0.0820      0.0248
         3         5.5460     -0.0928     -0.0003      0.6764      0.0491     -0.0178
         4        -3.5817     -0.1131      0.0337     -1.0693      0.0204     -0.0506
         5        -0.6022     -0.0159      0.0167     -0.1512     -0.0248     -0.0252
 <0|del|b> * <b|rxdel|0> + <0|del|b> * <b|delr+rdel|0>
 Rotatory Strengths (R) in cgs (10**-40 erg-esu-cm/Gauss)
       state          XX          YY          ZZ    R(velocity)    E-M Angle
         1        60.6006     33.5502    -66.0192      9.3772       89.58
         2       -42.1088    -32.9506     21.6581    -17.8004       93.48
         3        52.1438   -100.6277    -36.5439    -28.3426       92.02
         4        -9.6717    126.6848     62.2693     59.7608       35.21
         5         2.6812     60.6980     56.5479     39.9757       27.63
 1/2[<0|r|b>*<b|rxdel|0> + (<0|rxdel|b>*<b|r|0>)*]
 Rotatory Strengths (R) in cgs (10**-40 erg-esu-cm/Gauss)
       state          XX          YY          ZZ     R(length)
         1         3.3011    679.2771   -633.6553     16.3076
         2        36.4411    -26.3046    -66.3152    -18.7263
         3      -199.6198     75.4464     32.5054    -30.5560
[...]
 Alpha virt. eigenvalues --    1.22820   1.23805   1.24094   1.24546   1.24998
 Alpha virt. eigenvalues --    1.25218   1.25798   1.25815   1.26129   1.26704
 Alpha virt. eigenvalues --    1.27415   1.27684   1.27892   1.28570   1.29195
 Alpha virt. eigenvalues --    1.29399   1.29825   1.30373   1.30624   1.30921
 Alpha virt. eigenvalues --    1.31484   1.32062   1.32285   1.33178   1.33813
 Alpha virt. eigenvalues --    1.34183   1.34854   1.35363   1.35776   1.36495
 Alpha virt. eigenvalues --    1.36709   1.36798   1.37034   1.37734   1.37936
 Alpha virt. eigenvalues --    1.38106   1.38812   1.39367   1.39766   1.39836
 Alpha virt. eigenvalues --    1.39993   1.40326   1.40547   1.40972   1.41191
 Alpha virt. eigenvalues --    1.41497   1.42125   1.42752   1.42847   1.42997
 Alpha virt. eigenvalues --    1.43415   1.43755   1.44596   1.45176   1.45303
 Alpha virt. eigenvalues --    1.45622   1.45678   1.46382   1.46726   1.47615
 Alpha virt. eigenvalues --    1.48166   1.48318   1.48386   1.49046   1.49446
 Alpha virt. eigenvalues --    1.49560   1.50082   1.50480   1.50976   1.51661
 Alpha virt. eigenvalues --    1.51913   1.52176   1.53083   1.53150   1.53936
 Alpha virt. eigenvalues --    1.55143   1.55403   1.55575   1.55749   1.55849
 Alpha virt. eigenvalues --    1.56453   1.57268   1.57637   1.58069   1.58557
 Alpha virt. eigenvalues --    1.58805   1.59029   1.59645   1.59774   1.60060
 Alpha virt. eigenvalues --    1.60177   1.60247   1.60640   1.60985   1.61302
 Alpha virt. eigenvalues --    1.61439   1.61751   1.61975   1.62137   1.62232
 Alpha virt. eigenvalues --    1.62494   1.62717   1.63391   1.63599   1.64012
 Alpha virt. eigenvalues --    1.64339   1.64679   1.64758   1.64789   1.65299
 Alpha virt. eigenvalues --    1.65386   1.65742   1.65790   1.66133   1.66310
 Alpha virt. eigenvalues --    1.66624   1.67231   1.67570   1.68039   1.68226
 Alpha virt. eigenvalues --    1.68476   1.68539   1.68601   1.69922   1.70528
 Alpha virt. eigenvalues --    1.70796   1.71309   1.72632   1.72951   1.73002
 Alpha virt. eigenvalues --    1.73332   1.74379   1.74751   1.75336   1.75507
 Alpha virt. eigenvalues --    1.75951   1.76453   1.76739   1.76814   1.77157
 Alpha virt. eigenvalues --    1.77294   1.78099   1.78300   1.78920   1.79088
 Alpha virt. eigenvalues --    1.79278   1.79465   1.79589   1.79832   1.80057
 Alpha virt. eigenvalues --    1.80534   1.80898   1.81092   1.81453   1.81553
 Alpha virt. eigenvalues --    1.81890   1.82028   1.82505   1.82517   1.82731
 Alpha virt. eigenvalues --    1.82864   1.83070   1.83087   1.83398   1.83760
 Alpha virt. eigenvalues --    1.83858   1.83953   1.84184   1.84217   1.84610
 Alpha virt. eigenvalues --    1.84954   1.85182   1.85222   1.85436   1.85730
 Alpha virt. eigenvalues --    1.85931   1.85981   1.86002   1.86475   1.86552
 Alpha virt. eigenvalues --    1.86915   1.87198   1.87272   1.87621   1.87724
 Alpha virt. eigenvalues --    1.87894   1.88022   1.88078   1.88474   1.88717
 Alpha virt. eigenvalues --    1.88841   1.89081   1.89170   1.89496   1.89722
 Alpha virt. eigenvalues --    1.89981   1.90100   1.90295   1.90547   1.90830
 Alpha virt. eigenvalues --    1.90958   1.91264   1.91434   1.91737   1.91774
 Alpha virt. eigenvalues --    1.92039   1.92095   1.92485   1.92728   1.93083
 Alpha virt. eigenvalues --    1.93213   1.93490   1.93668   1.93794   1.93972
 Alpha virt. eigenvalues --    1.94037   1.94154   1.94181   1.94368   1.94638
 Alpha virt. eigenvalues --    1.94919   1.95115   1.95298   1.95489   1.96354
 Alpha virt. eigenvalues --    1.96411   1.96764   1.96855   1.97804   1.97960
 Alpha virt. eigenvalues --    1.98013   1.98429   1.98727   1.98948   1.98985
 Alpha virt. eigenvalues --    1.99086   1.99371   1.99688   2.00157   2.00352
 Alpha virt. eigenvalues --    2.00574   2.00677   2.00772   2.00975   2.01252
 Alpha virt. eigenvalues --    2.01713   2.02061   2.02665   2.02846   2.02977
 Alpha virt. eigenvalues --    2.03378   2.03515   2.03575   2.04213   2.04434
 Alpha virt. eigenvalues --    2.04657   2.04816   2.05389   2.05513   2.05856
 Alpha virt. eigenvalues --    2.05995   2.06300   2.06515   2.07094   2.07298
 Alpha virt. eigenvalues --    2.07459   2.08061   2.08359   2.08523   2.08800
 Alpha virt. eigenvalues --    2.09249   2.09623   2.09832   2.09881   2.10033
 Alpha virt. eigenvalues --    2.10482   2.10680   2.11446   2.11597   2.11971
 Alpha virt. eigenvalues --    2.12240   2.12667   2.12782   2.12865   2.13652
 Alpha virt. eigenvalues --    2.14032   2.14319   2.14695   2.14944   2.15281
 Alpha virt. eigenvalues --    2.15711   2.16066   2.16150   2.16549   2.16624
 Alpha virt. eigenvalues --    2.17610   2.17722   2.18238   2.18367   2.18442
 Alpha virt. eigenvalues --    2.18766   2.18985   2.19117   2.19461   2.19689
 Alpha virt. eigenvalues --    2.20071   2.20425   2.20580   2.21040   2.21400
 Alpha virt. eigenvalues --    2.21475   2.21957   2.22222   2.22349   2.23156
 Alpha virt. eigenvalues --    2.23510   2.23606   2.23829   2.24145   2.24499
 Alpha virt. eigenvalues --    2.24694   2.24810   2.25083   2.25262   2.25711
 Alpha virt. eigenvalues --    2.26069   2.26443   2.27128   2.27720   2.27766
 Alpha virt. eigenvalues --    2.28535   2.28762   2.29131   2.29590   2.30428
 Alpha virt. eigenvalues --    2.30752   2.31306   2.31462   2.32071   2.32443
 Alpha virt. eigenvalues --    2.33091   2.33546   2.34238   2.34516   2.34851
 Alpha virt. eigenvalues --    2.34953   2.35766   2.36292   2.36408   2.36580
 Alpha virt. eigenvalues --    2.37257   2.37570   2.37815   2.37961   2.38177
 Alpha virt. eigenvalues --    2.39172   2.39384   2.39391   2.39772   2.40198
 Alpha virt. eigenvalues --    2.40509   2.40842   2.40908   2.41472   2.41770
 Alpha virt. eigenvalues --    2.42027   2.42291   2.42429   2.43339   2.43439
 Alpha virt. eigenvalues --    2.44450   2.44551   2.44976   2.45019   2.45234
 Alpha virt. eigenvalues --    2.46006   2.46250   2.46860   2.46978   2.47208
 Alpha virt. eigenvalues --    2.47516   2.47935   2.48470   2.48571   2.48903
 Alpha virt. eigenvalues --    2.49731   2.49858   2.50415   2.50830   2.51390
 Alpha virt. eigenvalues --    2.51499   2.51788   2.52045   2.52665   2.52895
 Alpha virt. eigenvalues --    2.53186   2.53771   2.54041   2.54430   2.55042
 Alpha virt. eigenvalues --    2.55214   2.55637   2.55759   2.56007   2.56553
 Alpha virt. eigenvalues --    2.57875   2.58126   2.58572   2.58759   2.58989
 Alpha virt. eigenvalues --    2.59709   2.60361   2.60914   2.61045   2.61754
 Alpha virt. eigenvalues --    2.62292   2.62679   2.62817   2.63088   2.63589
 Alpha virt. eigenvalues --    2.63752   2.64036   2.64700   2.65323   2.65386
 Alpha virt. eigenvalues --    2.66121   2.66384   2.66565   2.66837   2.67378
 Alpha virt. eigenvalues --    2.67634   2.68054   2.68186   2.68701   2.68971
 Alpha virt. eigenvalues --    2.69402   2.69669   2.69839   2.69933   2.71136
 Alpha virt. eigenvalues --    2.71339   2.71452   2.71727   2.72358   2.73244
 Alpha virt. eigenvalues --    2.73682   2.74472   2.74633   2.74815   2.75180
 Alpha virt. eigenvalues --    2.75535   2.75760   2.76130   2.77225   2.77598
 Alpha virt. eigenvalues --    2.77775   2.78147   2.78475   2.79504   2.79670
 Alpha virt. eigenvalues --    2.79761   2.80172   2.80254   2.80808   2.81107
 Alpha virt. eigenvalues --    2.81365   2.81817   2.82254   2.82263   2.83601
 Alpha virt. eigenvalues --    2.83869   2.84358   2.84563   2.85606   2.85883
 Alpha virt. eigenvalues --    2.86275   2.86456   2.86669   2.86921   2.87565
 Alpha virt. eigenvalues --    2.88218   2.88570   2.89226   2.89472   2.90266
 Alpha virt. eigenvalues --    2.91054   2.91375   2.92166   2.92794   2.93545
 Alpha virt. eigenvalues --    2.94095   2.95280   2.95446   2.95711   2.96132
 Alpha virt. eigenvalues --    2.97024   2.97114   2.97435   2.97554   2.97792
 Alpha virt. eigenvalues --    2.97811   2.98996   2.99118   2.99836   3.00259
 Alpha virt. eigenvalues --    3.00448   3.00714   3.01235   3.01322   3.01356
 Alpha virt. eigenvalues --    3.01886   3.02056   3.02314   3.02415   3.02539
 Alpha virt. eigenvalues --    3.02960   3.03436   3.03676   3.03850   3.03880
 Alpha virt. eigenvalues --    3.04302   3.04794   3.05100   3.05229   3.05815
 Alpha virt. eigenvalues --    3.05931   3.06378   3.06407   3.06651   3.06764
 Alpha virt. eigenvalues --    3.07084   3.07303   3.07701   3.07890   3.07979
 Alpha virt. eigenvalues --    3.08053   3.08431   3.08728   3.09199   3.09689
 Alpha virt. eigenvalues --    3.10191   3.10476   3.10891   3.11395   3.11968
 Alpha virt. eigenvalues --    3.12004   3.12234   3.13147   3.13408   3.14254
 Alpha virt. eigenvalues --    3.14304   3.14456   3.14694   3.15054   3.15404
 Alpha virt. eigenvalues --    3.16159   3.17127   3.17840   3.18285   3.19026
 Alpha virt. eigenvalues --    3.19446   3.19473   3.20585   3.20702   3.21437
 Alpha virt. eigenvalues --    3.22648   3.23772   3.24349   3.24673   3.27486
 Alpha virt. eigenvalues --    3.28224   3.29755   3.30641   3.31352   3.31881
 Alpha virt. eigenvalues --    3.32891   3.36697   3.45278   3.46489   3.46689
 Alpha virt. eigenvalues --    3.47392   3.52913   3.55018   3.56417   3.59454
 Alpha virt. eigenvalues --    3.62214   3.70257   3.70444   3.72495   3.75080
 Alpha virt. eigenvalues --    3.76780   3.79289
          Condensed to atoms (all electrons):
 Mulliken charges:
               1
     1  Mg   0.961901
     2  C   -0.012867
     3  C   -0.090095
     4  C   -0.052727
     5  C   -0.072619
     6  N   -0.240682
     7  C   -0.053050
     8  C   -0.087266
     9  C   -0.084621
    10  C    0.045659
    11  C    0.041395
    12  C    0.071019
    13  C    0.006636
    14  C    0.175894
    15  O   -0.275266
    16  O   -0.375836
    17  N   -0.474484
    18  C    0.157742
    19  C   -0.179922
    20  C   -0.084808
    21  C    0.172790
    22  C    0.072191
    23  C    0.062377
    24  O   -0.233460
    25  C   -0.025604
    26  N   -0.348873
    27  C    0.020519
    28  C   -0.109186
    29  C   -0.077768
    30  C    0.034010
    31  C    0.031196
    32  C    0.002793
    33  C   -0.043092
    34  N   -0.434042
    35  C    0.109586
    36  C   -0.184329
    37  C   -0.061331
    38  C    0.162170
    39  C    0.059565
    40  C    0.153643
    41  O   -0.188242
    42  C   -0.132005
    43  C    0.247792
    44  O   -0.213591
    45  O   -0.352584
    46  C    0.118594
    47  C    0.257009
    48  C   -0.137788
    49  C   -0.249671
    50  C    0.018588
    51  C    0.076554
    52  C   -0.036350
    53  C   -0.049146
    54  C   -0.141106
    55  C    0.013265
    56  C    0.004565
    57  C   -0.106237
    58  C   -0.002429
    59  C   -0.179756
    60  C    0.002846
    61  C    0.017925
    62  C   -0.064040
    63  C    0.045160
    64  C   -0.247740
    65  C   -0.033880
    66  C    0.006928
    67  H   -0.019112
    68  H    0.019087
    69  H   -0.009077
    70  H    0.047209
    71  H    0.025083
    72  H    0.038773
    73  H    0.035723
    74  H    0.042413
    75  H    0.045997
    76  H    0.050893
    77  H    0.056041
    78  H    0.029595
    79  H    0.065975
    80  H    0.061636
    81  H    0.035700
    82  H    0.053587
    83  H    0.047708
    84  H    0.077833
    85  H    0.045454
    86  H    0.042020
    87  H    0.040980
    88  H    0.051498
    89  H    0.048569
    90  H    0.024429
    91  H    0.028103
    92  H    0.035770
    93  H    0.036294
    94  H    0.031672
    95  H    0.055949
    96  H    0.026269
    97  H    0.042338
    98  H    0.075806
    99  H    0.064667
   100  H    0.055506
   101  H    0.049408
   102  H    0.061820
   103  H    0.092008
   104  H    0.017292
   105  H    0.038175
   106  H    0.037611
   107  H    0.039219
   108  H    0.038943
   109  H    0.018628
   110  H    0.029665
   111  H    0.038358
   112  H    0.021906
   113  H    0.028038
   114  H    0.022252
   115  H    0.037467
   116  H    0.024710
   117  H    0.034863
   118  H    0.021906
   119  H    0.021238
   120  H    0.025024
   121  H    0.021025
   122  H    0.021406
   123  H    0.028613
   124  H    0.027068
   125  H    0.014619
   126  H    0.028581
   127  H    0.023855
   128  H    0.028553
   129  H    0.026724
   130  H    0.003901
   131  H    0.022462
   132  H    0.005399
   133  H    0.007209
   134  H    0.020438
   135  H    0.039795
   136  H    0.038038
   137  H    0.034473
   138  H    0.033333
   139  H    0.027103
   140  H    0.024666
 Sum of Mulliken charges =  -0.00000
 Mulliken charges with hydrogens summed into heavy atoms:
               1
     1  Mg   0.961901
     2  C   -0.012867
     3  C   -0.109207
     4  C   -0.033640
     5  C   -0.081696
     6  N   -0.240682
     7  C   -0.053050
     8  C   -0.040057
     9  C   -0.059539
    10  C    0.045659
    11  C    0.158305
    12  C    0.167910
    13  C    0.092271
    14  C    0.175894
    15  O   -0.275266
    16  O   -0.375836
    17  N   -0.474484
    18  C    0.157742
    19  C   -0.179922
    20  C   -0.084808
    21  C    0.172790
    22  C    0.235502
    23  C    0.062377
    24  O   -0.233460
    25  C    0.153523
    26  N   -0.348873
    27  C    0.020519
    28  C   -0.063732
    29  C   -0.035747
    30  C    0.034010
    31  C    0.172243
    32  C    0.055325
    33  C    0.060645
    34  N   -0.434042
    35  C    0.109586
    36  C   -0.184329
    37  C   -0.061331
    38  C    0.162170
    39  C    0.184121
    40  C    0.153643
    41  O   -0.188242
    42  C   -0.056199
    43  C    0.247792
    44  O   -0.213591
    45  O   -0.352584
    46  C    0.288175
    47  C    0.410837
    48  C   -0.120495
    49  C   -0.249671
    50  C    0.133593
    51  C    0.134125
    52  C    0.031673
    53  C    0.000798
    54  C   -0.118854
    55  C    0.110305
    56  C    0.047709
    57  C   -0.060188
    58  C    0.047591
    59  C   -0.152688
    60  C    0.069901
    61  C    0.073202
    62  C   -0.037677
    63  C    0.057769
    64  C   -0.227301
    65  C    0.078426
    66  C    0.092029
 Electronic spatial extent (au):  <R**2>=         137064.0298
 Charge=             -0.0000 electrons
 Dipole moment (field-independent basis, Debye):
    X=             -3.5234    Y=              5.5096    Z=             -1.3572  Tot=              6.6792
 Quadrupole moment (field-independent basis, Debye-Ang):
   XX=           -382.0008   YY=           -414.0428   ZZ=           -408.6938
   XY=             11.7956   XZ=             17.0819   YZ=              1.3481
 Traceless Quadrupole moment (field-independent basis, Debye-Ang):
   XX=             19.5783   YY=            -12.4636   ZZ=             -7.1146
   XY=             11.7956   XZ=             17.0819   YZ=              1.3481
 Octapole moment (field-independent basis, Debye-Ang**2):
  XXX=             68.0240  YYY=            213.8475  ZZZ=            -20.4627  XYY=            -84.5820
  XXY=           -263.0048  XXZ=             27.5281  XZZ=              9.4602  YZZ=             -1.8115
  YYZ=            -63.3292  XYZ=            -35.5658
 Hexadecapole moment (field-independent basis, Debye-Ang**3):
 XXXX=        -160377.6943 YYYY=         -19319.7076 ZZZZ=          -7113.1613 XXXY=          -1645.3792
 XXXZ=            380.5897 YYYX=           1051.5784 YYYZ=            -74.6566 ZZZX=             47.2579
 ZZZY=             31.7477 XXYY=         -31739.1160 XXZZ=         -28300.2420 YYZZ=          -4344.3241
 XXYZ=           -168.3579 YYXZ=             83.2764 ZZXY=            191.3244
 N-N= 9.379174692517D+03 E-N=-2.575069625261D+04  KE= 2.975653617511D+03
 Leave Link  601 at Thu Apr 28 08:34:17 2022, MaxMem= 10066329600 cpu:              16.8 elap:               0.8
 (Enter /sw/apps/gaussian-16.0/g16/l9999.exe)
 1\1\GINC-BP1-COMPUTE134\SP\RwB97XD TD-FC\def2SVP\C55H74Mg1N4O6\OF15641
 \28-Apr-2022\0\\#p wB97XD/Def2SVP td=(nstates=5)\\step_1501_chromophor
 e_25 TDDFT with wB97XD functional\\0,1\Mg,0,-2.019,34.138,26.358\C,0,-
 3.311,32.493,29.211\C,0,-0.781,36.552,28.426\C,0,-1.434,36.107,23.557\
 C,0,-4.029,32.017,24.367\N,0,-1.942,34.437,28.671\C,0,-2.502,33.602,29
 .597\C,0,-2.149,34.113,31.014\C,0,-1.469,35.474,30.667\C,0,-1.342,35.4
 23,29.152\C,0,-1.995,36.757,31.299\C,0,-1.267,32.981,31.668\C,0,-1.895
 ,32.381,32.896\C,0,-1.177,32.543,34.187\O,0,-0.299,31.781,34.551\O,0,-
 1.593,33.632,34.854\N,0,-1.116,36.002,26.068\C,0,-0.657,36.833,27.037\
 C,0,-0.081,38.002,26.462\C,0,-0.148,37.898,25.054\C,0,-0.897,36.598,24
 .818\C,0,0.625,39.086,27.303\C,0,0.357,38.831,23.945\O,0,0.148,38.604,
 22.755\C,0,1.103,40.061,24.246\N,0,-2.658,34.049,24.277\C,0,-2.253,34.
 961,23.345\C,0,-2.852,34.589,21.948\C,0,-3.653,33.29,22.226\C,0,-3.418
 ,33.079,23.72\C,0,-3.752,35.67,21.314\C,0,-3.139,32.152,21.305\C,0,-2.
 174,31.135,21.84\N,0,-3.27,32.5,26.646\C,0,-3.983,31.688,25.785\C,0,-4
 .551,30.619,26.506\C,0,-4.373,30.925,27.846\C,0,-3.621,32.103,27.873\C
 ,0,-5.291,29.453,25.995\C,0,-4.831,30.586,29.199\O,0,-5.557,29.733,29.
 659\C,0,-4.035,31.536,30.135\C,0,-5.07,32.297,30.976\O,0,-5.725,33.257
 ,30.669\O,0,-5.19,31.516,32.101\C,0,-5.875,32.21,33.177\C,0,-0.826,33.
 907,36.186\C,0,-1.669,34.424,37.268\C,0,-1.357,34.688,38.546\C,0,0.134
 ,34.564,38.958\C,0,-2.338,34.963,39.712\C,0,-2.189,36.323,40.397\C,0,-
 1.514,36.185,41.862\C,0,-1.702,37.475,42.726\C,0,-0.558,38.503,42.485\
 C,0,-1.8,37.119,44.238\C,0,-0.68,36.089,44.757\C,0,0.189,36.763,45.906
 \C,0,1.307,35.755,46.505\C,0,1.331,35.732,48.045\C,0,2.798,36.168,45.9
 32\C,0,2.965,35.19,44.768\C,0,4.156,35.532,43.841\C,0,5.319,34.564,43.
 936\C,0,6.651,35.423,44.198\C,0,5.534,33.557,42.77\H,0,-0.337,37.361,2
 9.008\H,0,-1.307,36.602,22.593\H,0,-4.589,31.317,23.743\H,0,-3.085,34.
 253,31.556\H,0,-0.448,35.401,31.042\H,0,-2.909,36.51,31.84\H,0,-2.342,
 37.439,30.522\H,0,-1.271,37.252,31.945\H,0,-0.253,33.335,31.856\H,0,-1
 .25,32.106,31.019\H,0,-1.941,31.295,32.815\H,0,-2.923,32.7,33.069\H,0,
 1.694,38.923,27.162\H,0,0.29,39.164,28.338\H,0,0.414,39.981,26.718\H,0
 ,1.557,40.43,23.326\H,0,1.953,39.883,24.904\H,0,0.456,40.846,24.636\H,
 0,-1.946,34.387,21.377\H,0,-4.735,33.402,22.171\H,0,-3.092,36.125,20.5
 74\H,0,-3.964,36.449,22.046\H,0,-4.629,35.205,20.865\H,0,-2.666,32.729
 ,20.51\H,0,-4.001,31.656,20.858\H,0,-2.583,30.129,21.94\H,0,-1.857,31.
 366,22.857\H,0,-1.199,31.057,21.36\H,0,-4.79,28.522,25.731\H,0,-5.853,
 29.873,25.16\H,0,-6.068,29.129,26.688\H,0,-3.443,30.942,30.831\H,0,-6.
 744,32.745,32.793\H,0,-5.237,32.814,33.821\H,0,-6.293,31.422,33.805\H,
 0,-0.178,34.723,35.867\H,0,-0.281,33.027,36.526\H,0,-2.73,34.593,37.08
 8\H,0,0.257,33.83,39.754\H,0,0.376,35.507,39.448\H,0,0.768,34.312,38.1
 08\H,0,-2.177,34.193,40.466\H,0,-3.325,35.031,39.254\H,0,-3.234,36.617
 ,40.498\H,0,-1.636,36.969,39.715\H,0,-0.446,35.992,41.765\H,0,-1.928,3
 5.334,42.403\H,0,-2.686,37.856,42.454\H,0,-0.923,39.225,41.754\H,0,0.3
 03,37.985,42.062\H,0,-0.266,38.983,43.419\H,0,-2.688,36.599,44.597\H,0
 ,-1.683,37.984,44.89\H,0,-0.069,35.581,44.011\H,0,-1.187,35.265,45.258
 \H,0,-0.584,36.931,46.656\H,0,0.69,37.694,45.64\H,0,1.038,34.746,46.19
 4\H,0,2.183,36.288,48.436\H,0,1.534,34.74,48.448\H,0,0.461,36.198,48.5
 08\H,0,3.603,36.04,46.656\H,0,2.8,37.18,45.528\H,0,2.045,35.226,44.185
 \H,0,3.062,34.136,45.025\H,0,4.514,36.532,44.089\H,0,3.826,35.542,42.8
 02\H,0,5.231,33.931,44.819\H,0,6.281,36.021,45.031\H,0,6.856,35.991,43
 .291\H,0,7.451,34.713,44.408\H,0,4.604,33.269,42.279\H,0,6.003,32.683,
 43.221\H,0,6.269,33.991,42.092\\Version=ES64L-G16RevA.03\State=1-A\HF=
 -3007.8709216\RMSD=5.404e-09\PG=C01 [X(C55H74Mg1N4O6)]\\@


 YOU CAN WIPE THE SLATE CLEAN, BUT YOU'LL STILL
 HAVE TO EAT A LITTLE CHALK DUST.
 Job cpu time:       0 days 13 hours  4 minutes 43.1 seconds.
 Elapsed time:       0 days  0 hours 33 minutes 12.1 seconds.
 File lengths (MBytes):  RWF=   8929 Int=      0 D2E=      0 Chk=    390 Scr=      1
 Normal termination of Gaussian 16 at Thu Apr 28 08:34:18 2022.
