 Entering Gaussian System, Link 0=g16
 Initial command:
 /sw/apps/gaussian-16.0/g16/l1.exe "/tmp/Gau-97724.inp" -scrdir="/tmp/"
 Entering Link 1 = /sw/apps/gaussian-16.0/g16/l1.exe PID=     97725.
  
 Copyright (c) 1988,1990,1992,1993,1995,1998,2003,2009,2016,
            Gaussian, Inc.  All Rights Reserved.
  
 This is part of the Gaussian(R) 16 program.  It is based on
 the Gaussian(R) 09 system (copyright 2009, Gaussian, Inc.),
 the Gaussian(R) 03 system (copyright 2003, Gaussian, Inc.),
 the Gaussian(R) 98 system (copyright 1998, Gaussian, Inc.),
 the Gaussian(R) 94 system (copyright 1995, Gaussian, Inc.),
 the Gaussian 92(TM) system (copyright 1992, Gaussian, Inc.),
 the Gaussian 90(TM) system (copyright 1990, Gaussian, Inc.),
 the Gaussian 88(TM) system (copyright 1988, Gaussian, Inc.),
 the Gaussian 86(TM) system (copyright 1986, Carnegie Mellon
 University), and the Gaussian 82(TM) system (copyright 1983,
 Carnegie Mellon University). Gaussian is a federally registered
 trademark of Gaussian, Inc.
  
 This software contains proprietary and confidential information,
 including trade secrets, belonging to Gaussian, Inc.
  
 This software is provided under written license and may be
 used, copied, transmitted, or stored only in accord with that
 written license.
  
 The following legend is applicable only to US Government
 contracts under FAR:
  
                    RESTRICTED RIGHTS LEGEND
  
 Use, reproduction and disclosure by the US Government is
 subject to restrictions as set forth in subparagraphs (a)
 and (c) of the Commercial Computer Software - Restricted
 Rights clause in FAR 52.227-19.
  
 Gaussian, Inc.
 340 Quinnipiac St., Bldg. 40, Wallingford CT 06492
  
  
 ---------------------------------------------------------------
 Warning -- This program may not be used in any manner that
 competes with the business of Gaussian, Inc. or will provide
 assistance to any competitor of Gaussian, Inc.  The licensee
 of this program is prohibited from giving any competitor of
 Gaussian, Inc. access to this program.  By using this program,
 the user acknowledges that Gaussian, Inc. is engaged in the
 business of creating and licensing software in the field of
 computational chemistry and represents and warrants to the
 licensee that it is not a competitor of Gaussian, Inc. and that
 it will not use this program in any manner prohibited above.
 ---------------------------------------------------------------
  

 Cite this work as:
 Gaussian 16, Revision A.03,
 M. J. Frisch, G. W. Trucks, H. B. Schlegel, G. E. Scuseria, 
 M. A. Robb, J. R. Cheeseman, G. Scalmani, V. Barone, 
 G. A. Petersson, H. Nakatsuji, X. Li, M. Caricato, A. V. Marenich, 
 J. Bloino, B. G. Janesko, R. Gomperts, B. Mennucci, H. P. Hratchian, 
 J. V. Ortiz, A. F. Izmaylov, J. L. Sonnenberg, D. Williams-Young, 
 F. Ding, F. Lipparini, F. Egidi, J. Goings, B. Peng, A. Petrone, 
 T. Henderson, D. Ranasinghe, V. G. Zakrzewski, J. Gao, N. Rega, 
 G. Zheng, W. Liang, M. Hada, M. Ehara, K. Toyota, R. Fukuda, 
 J. Hasegawa, M. Ishida, T. Nakajima, Y. Honda, O. Kitao, H. Nakai, 
 T. Vreven, K. Throssell, J. A. Montgomery, Jr., J. E. Peralta, 
 F. Ogliaro, M. J. Bearpark, J. J. Heyd, E. N. Brothers, K. N. Kudin, 
 V. N. Staroverov, T. A. Keith, R. Kobayashi, J. Normand, 
 K. Raghavachari, A. P. Rendell, J. C. Burant, S. S. Iyengar, 
 J. Tomasi, M. Cossi, J. M. Millam, M. Klene, C. Adamo, R. Cammi, 
 J. W. Ochterski, R. L. Martin, K. Morokuma, O. Farkas, 
 J. B. Foresman, and D. J. Fox, Gaussian, Inc., Wallingford CT, 2016.
 
 ******************************************
 Gaussian 16:  ES64L-G16RevA.03 25-Dec-2016
                 4-May-2022 
 ******************************************
 %nproc=24
 Will use up to   24 processors via shared memory.
 %mem=75GB
 --------------------------------
 #p wB97XD/Def2SVP td=(nstates=5)
 --------------------------------
 1/38=1,172=1/1;
 2/12=2,17=6,18=5,40=1/2;
 3/5=43,7=101,11=9,25=1,30=1,74=-58/1,2,3,8;
 4//1;
 5/5=2,38=5/2;
 8/6=1,10=1,108=5/1;
 9/41=5,42=1,70=2/14;
 6/7=2,8=2,9=2,10=2/1;
 99/5=1,9=1/99;
 Leave Link    1 at Wed May  4 09:22:12 2022, MaxMem= 10066329600 cpu:               0.6 elap:               0.0
 (Enter /sw/apps/gaussian-16.0/g16/l101.exe)
 -----------------------------------------------------
 step_1551_chromophore_13 TDDFT with wB97XD functional
 -----------------------------------------------------
 Symbolic Z-matrix:
 Charge =  0 Multiplicity = 1
 Mg                    46.487    25.012    29.361 
 C                     47.032    27.474    31.788 
 C                     45.65     22.894    31.797 
 C                     46.315    22.658    27.025 
 C                     47.391    27.368    26.903 
 N                     46.525    25.19     31.619 
 C                     46.512    26.296    32.365 
 C                     45.974    26.163    33.804 
 C                     45.789    24.577    33.839 
 C                     45.922    24.23     32.304 
 C                     46.745    23.792    34.801 
 C                     44.78     27.013    34.179 
 C                     44.949    28.05     35.264 
 C                     44.009    28.033    36.455 
 O                     42.903    28.614    36.504 
 O                     44.57     27.162    37.4 
 N                     45.949    23.131    29.419 
 C                     45.699    22.381    30.499 
 C                     45.371    21.044    30.145 
 C                     45.598    21.008    28.767 
 C                     45.959    22.294    28.328 
 C                     44.916    20.064    31.168 
 C                     45.531    19.724    27.829 
 O                     45.732    19.604    26.596 
 C                     45.002    18.421    28.372 
 N                     46.958    24.918    27.257 
 C                     46.844    23.812    26.524 
 C                     46.958    24.077    24.997 
 C                     47.05     25.669    24.987 
 C                     47.1      26.052    26.488 
 C                     48.152    23.34     24.445 
 C                     45.839    26.289    24.274 
 C                     44.59     26.824    25.126 
 N                     47.223    26.949    29.32 
 C                     47.484    27.768    28.268 
 C                     48.024    29.054    28.727 
 C                     47.841    28.995    30.085 
 C                     47.341    27.675    30.389 
 C                     48.422    30.197    27.903 
 C                     47.986    29.642    31.331 
 O                     48.543    30.704    31.619 
 C                     47.355    28.723    32.498 
 C                     48.39     28.466    33.517 
 O                     49.437    27.819    33.289 
 O                     48.254    29.224    34.657 
 C                     49.194    28.905    35.683 
 C                     43.73     27.069    38.631 
 C                     44.172    25.826    39.389 
 C                     43.817    25.62     40.672 
 C                     42.932    26.562    41.59 
 C                     44.285    24.369    41.498 
 C                     43.531    23.022    41.032 
 C                     42.722    22.316    42.151 
 C                     41.307    21.888    41.75 
 C                     41.228    21.064    40.503 
 C                     40.213    23.021    41.862 
 C                     39.514    23.076    43.33 
 C                     39.993    24.258    44.235 
 C                     40.005    23.818    45.76 
 C                     38.797    24.455    46.521 
 C                     41.314    24.132    46.439 
 C                     42.043    22.973    47.151 
 C                     43.473    22.611    46.726 
 C                     44.656    23.587    47.14 
 C                     45.6      24.078    46.01 
 C                     45.443    22.867    48.292 
 H                     45.303    22.176    32.543 
 H                     46.164    21.884    26.269 
 H                     47.661    28.096    26.136 
 H                     46.783    26.52     34.442 
 H                     44.873    24.318    34.369 
 H                     46.293    22.953    35.328 
 H                     47.178    24.553    35.45 
 H                     47.537    23.297    34.239 
 H                     43.938    26.355    34.391 
 H                     44.551    27.534    33.25 
 H                     44.624    29.024    34.901 
 H                     45.969    28.061    35.648 
 H                     45.617    20.184    31.994 
 H                     45.058    19.013    30.914 
 H                     43.951    20.288    31.621 
 H                     44.079    18.459    28.951 
 H                     45.826    18.023    28.964 
 H                     44.814    17.674    27.602 
 H                     46.02     23.719    24.573 
 H                     47.92     26.089    24.481 
 H                     48.932    24.005    24.073 
 H                     47.707    22.846    23.581 
 H                     48.462    22.552    25.131 
 H                     45.428    25.653    23.49 
 H                     46.383    27.15     23.886 
 H                     44.722    26.835    26.208 
 H                     43.708    26.284    24.781 
 H                     44.379    27.887    25.001 
 H                     48.48     30.005    26.832 
 H                     49.428    30.488    28.202 
 H                     47.758    31.039    28.097 
 H                     46.456    29.028    33.033 
 H                     50.243    28.862    35.388 
 H                     49.009    27.915    36.098 
 H                     49.171    29.619    36.506 
 H                     42.641    27.075    38.59 
 H                     44.015    27.882    39.298 
 H                     44.797    25.028    38.989 
 H                     42.082    25.969    41.927 
 H                     42.548    27.428    41.051 
 H                     43.668    26.926    42.306 
 H                     44.225    24.626    42.556 
 H                     45.341    24.203    41.284 
 H                     44.324    22.348    40.709 
 H                     42.898    23.333    40.201 
 H                     42.609    23.027    42.97 
 H                     43.273    21.522    42.654 
 H                     41.182    21.091    42.483 
 H                     42.225    20.979    40.07 
 H                     40.597    21.525    39.743 
 H                     40.933    20.046    40.76 
 H                     39.41     22.808    41.157 
 H                     40.559    24.036    41.665 
 H                     39.637    22.098    43.797 
 H                     38.48     23.246    43.033 
 H                     39.212    25.009    44.114 
 H                     41.019    24.475    43.938 
 H                     39.908    22.738    45.861 
 H                     38.206    23.59     46.823 
 H                     38.169    25.127    45.937 
 H                     39.046    25.062    47.391 
 H                     41.171    24.802    47.286 
 H                     42.028    24.692    45.834 
 H                     41.517    22.028    47.016 
 H                     42.019    23.284    48.196 
 H                     43.453    22.622    45.636 
 H                     43.713    21.612    47.09 
 H                     44.15     24.387    47.68 
 H                     45.307    23.677    45.04 
 H                     46.666    23.903    46.161 
 H                     45.516    25.165    46.016 
 H                     46.513    22.847    48.085 
 H                     45.208    21.844    48.587 
 H                     45.432    23.457    49.208 
 
 ITRead=  0  0  0  0  0  0  0  0  0  0  0  0  0  0  0  0  0  0  0  0
 ITRead=  0  0  0  0  0  0  0  0  0  0  0  0  0  0  0  0  0  0  0  0
 ITRead=  0  0  0  0  0  0  0  0  0  0  0  0  0  0  0  0  0  0  0  0
 ITRead=  0  0  0  0  0  0  0  0  0  0  0  0  0  0  0  0  0  0  0  0
 ITRead=  0  0  0  0  0  0  0  0  0  0  0  0  0  0  0  0  0  0  0  0
 ITRead=  0  0  0  0  0  0  0  0  0  0  0  0  0  0  0  0  0  0  0  0
 ITRead=  0  0  0  0  0  0  0  0  0  0  0  0  0  0  0  0  0  0  0  0
 MicOpt= -1 -1 -1 -1 -1 -1 -1 -1 -1 -1 -1 -1 -1 -1 -1 -1 -1 -1 -1 -1
 MicOpt= -1 -1 -1 -1 -1 -1 -1 -1 -1 -1 -1 -1 -1 -1 -1 -1 -1 -1 -1 -1
 MicOpt= -1 -1 -1 -1 -1 -1 -1 -1 -1 -1 -1 -1 -1 -1 -1 -1 -1 -1 -1 -1
 MicOpt= -1 -1 -1 -1 -1 -1 -1 -1 -1 -1 -1 -1 -1 -1 -1 -1 -1 -1 -1 -1
 MicOpt= -1 -1 -1 -1 -1 -1 -1 -1 -1 -1 -1 -1 -1 -1 -1 -1 -1 -1 -1 -1
 MicOpt= -1 -1 -1 -1 -1 -1 -1 -1 -1 -1 -1 -1 -1 -1 -1 -1 -1 -1 -1 -1
 MicOpt= -1 -1 -1 -1 -1 -1 -1 -1 -1 -1 -1 -1 -1 -1 -1 -1 -1 -1 -1 -1
 NAtoms=    140 NQM=      140 NQMF=       0 NMMI=      0 NMMIF=      0
                NMic=       0 NMicF=      0.
                    Isotopes and Nuclear Properties:
 (Nuclear quadrupole moments (NQMom) in fm**2, nuclear magnetic moments (NMagM)
  in nuclear magnetons)

  Atom         1           2           3           4           5           6           7           8           9          10
 IAtWgt=          24          12          12          12          12          14          12          12          12          12
 AtmWgt=  23.9850450  12.0000000  12.0000000  12.0000000  12.0000000  14.0030740  12.0000000  12.0000000  12.0000000  12.0000000
 NucSpn=           0           0           0           0           0           2           0           0           0           0
 AtZEff=  -0.0000000  -0.0000000  -0.0000000  -0.0000000  -0.0000000  -0.0000000  -0.0000000  -0.0000000  -0.0000000  -0.0000000
 NQMom=    0.0000000   0.0000000   0.0000000   0.0000000   0.0000000   2.0440000   0.0000000   0.0000000   0.0000000   0.0000000
 NMagM=    0.0000000   0.0000000   0.0000000   0.0000000   0.0000000   0.4037610   0.0000000   0.0000000   0.0000000   0.0000000
 AtZNuc=  12.0000000   6.0000000   6.0000000   6.0000000   6.0000000   7.0000000   6.0000000   6.0000000   6.0000000   6.0000000

  Atom        11          12          13          14          15          16          17          18          19          20
 IAtWgt=          12          12          12          12          16          16          14          12          12          12
 AtmWgt=  12.0000000  12.0000000  12.0000000  12.0000000  15.9949146  15.9949146  14.0030740  12.0000000  12.0000000  12.0000000
 NucSpn=           0           0           0           0           0           0           2           0           0           0
 AtZEff=  -0.0000000  -0.0000000  -0.0000000  -0.0000000  -0.0000000  -0.0000000  -0.0000000  -0.0000000  -0.0000000  -0.0000000
 NQMom=    0.0000000   0.0000000   0.0000000   0.0000000   0.0000000   0.0000000   2.0440000   0.0000000   0.0000000   0.0000000
 NMagM=    0.0000000   0.0000000   0.0000000   0.0000000   0.0000000   0.0000000   0.4037610   0.0000000   0.0000000   0.0000000
 AtZNuc=   6.0000000   6.0000000   6.0000000   6.0000000   8.0000000   8.0000000   7.0000000   6.0000000   6.0000000   6.0000000

  Atom        21          22          23          24          25          26          27          28          29          30
 IAtWgt=          12          12          12          16          12          14          12          12          12          12
 AtmWgt=  12.0000000  12.0000000  12.0000000  15.9949146  12.0000000  14.0030740  12.0000000  12.0000000  12.0000000  12.0000000
 NucSpn=           0           0           0           0           0           2           0           0           0           0
 AtZEff=  -0.0000000  -0.0000000  -0.0000000  -0.0000000  -0.0000000  -0.0000000  -0.0000000  -0.0000000  -0.0000000  -0.0000000
 NQMom=    0.0000000   0.0000000   0.0000000   0.0000000   0.0000000   2.0440000   0.0000000   0.0000000   0.0000000   0.0000000
 NMagM=    0.0000000   0.0000000   0.0000000   0.0000000   0.0000000   0.4037610   0.0000000   0.0000000   0.0000000   0.0000000
 AtZNuc=   6.0000000   6.0000000   6.0000000   8.0000000   6.0000000   7.0000000   6.0000000   6.0000000   6.0000000   6.0000000

  Atom        31          32          33          34          35          36          37          38          39          40
 IAtWgt=          12          12          12          14          12          12          12          12          12          12
 AtmWgt=  12.0000000  12.0000000  12.0000000  14.0030740  12.0000000  12.0000000  12.0000000  12.0000000  12.0000000  12.0000000
 NucSpn=           0           0           0           2           0           0           0           0           0           0
 AtZEff=  -0.0000000  -0.0000000  -0.0000000  -0.0000000  -0.0000000  -0.0000000  -0.0000000  -0.0000000  -0.0000000  -0.0000000
 NQMom=    0.0000000   0.0000000   0.0000000   2.0440000   0.0000000   0.0000000   0.0000000   0.0000000   0.0000000   0.0000000
 NMagM=    0.0000000   0.0000000   0.0000000   0.4037610   0.0000000   0.0000000   0.0000000   0.0000000   0.0000000   0.0000000
 AtZNuc=   6.0000000   6.0000000   6.0000000   7.0000000   6.0000000   6.0000000   6.0000000   6.0000000   6.0000000   6.0000000

  Atom        41          42          43          44          45          46          47          48          49          50
 IAtWgt=          16          12          12          16          16          12          12          12          12          12
 AtmWgt=  15.9949146  12.0000000  12.0000000  15.9949146  15.9949146  12.0000000  12.0000000  12.0000000  12.0000000  12.0000000
 NucSpn=           0           0           0           0           0           0           0           0           0           0
 AtZEff=  -0.0000000  -0.0000000  -0.0000000  -0.0000000  -0.0000000  -0.0000000  -0.0000000  -0.0000000  -0.0000000  -0.0000000
 NQMom=    0.0000000   0.0000000   0.0000000   0.0000000   0.0000000   0.0000000   0.0000000   0.0000000   0.0000000   0.0000000
 NMagM=    0.0000000   0.0000000   0.0000000   0.0000000   0.0000000   0.0000000   0.0000000   0.0000000   0.0000000   0.0000000
 AtZNuc=   8.0000000   6.0000000   6.0000000   8.0000000   8.0000000   6.0000000   6.0000000   6.0000000   6.0000000   6.0000000

  Atom        51          52          53          54          55          56          57          58          59          60
 IAtWgt=          12          12          12          12          12          12          12          12          12          12
 AtmWgt=  12.0000000  12.0000000  12.0000000  12.0000000  12.0000000  12.0000000  12.0000000  12.0000000  12.0000000  12.0000000
 NucSpn=           0           0           0           0           0           0           0           0           0           0
 AtZEff=  -0.0000000  -0.0000000  -0.0000000  -0.0000000  -0.0000000  -0.0000000  -0.0000000  -0.0000000  -0.0000000  -0.0000000
 NQMom=    0.0000000   0.0000000   0.0000000   0.0000000   0.0000000   0.0000000   0.0000000   0.0000000   0.0000000   0.0000000
 NMagM=    0.0000000   0.0000000   0.0000000   0.0000000   0.0000000   0.0000000   0.0000000   0.0000000   0.0000000   0.0000000
 AtZNuc=   6.0000000   6.0000000   6.0000000   6.0000000   6.0000000   6.0000000   6.0000000   6.0000000   6.0000000   6.0000000

  Atom        61          62          63          64          65          66          67          68          69          70
 IAtWgt=          12          12          12          12          12          12           1           1           1           1
 AtmWgt=  12.0000000  12.0000000  12.0000000  12.0000000  12.0000000  12.0000000   1.0078250   1.0078250   1.0078250   1.0078250
 NucSpn=           0           0           0           0           0           0           1           1           1           1
 AtZEff=  -0.0000000  -0.0000000  -0.0000000  -0.0000000  -0.0000000  -0.0000000  -0.0000000  -0.0000000  -0.0000000  -0.0000000
 NQMom=    0.0000000   0.0000000   0.0000000   0.0000000   0.0000000   0.0000000   0.0000000   0.0000000   0.0000000   0.0000000
 NMagM=    0.0000000   0.0000000   0.0000000   0.0000000   0.0000000   0.0000000   2.7928460   2.7928460   2.7928460   2.7928460
 AtZNuc=   6.0000000   6.0000000   6.0000000   6.0000000   6.0000000   6.0000000   1.0000000   1.0000000   1.0000000   1.0000000

  Atom        71          72          73          74          75          76          77          78          79          80
 IAtWgt=           1           1           1           1           1           1           1           1           1           1
 AtmWgt=   1.0078250   1.0078250   1.0078250   1.0078250   1.0078250   1.0078250   1.0078250   1.0078250   1.0078250   1.0078250
 NucSpn=           1           1           1           1           1           1           1           1           1           1
 AtZEff=  -0.0000000  -0.0000000  -0.0000000  -0.0000000  -0.0000000  -0.0000000  -0.0000000  -0.0000000  -0.0000000  -0.0000000
 NQMom=    0.0000000   0.0000000   0.0000000   0.0000000   0.0000000   0.0000000   0.0000000   0.0000000   0.0000000   0.0000000
 NMagM=    2.7928460   2.7928460   2.7928460   2.7928460   2.7928460   2.7928460   2.7928460   2.7928460   2.7928460   2.7928460
 AtZNuc=   1.0000000   1.0000000   1.0000000   1.0000000   1.0000000   1.0000000   1.0000000   1.0000000   1.0000000   1.0000000

  Atom        81          82          83          84          85          86          87          88          89          90
 IAtWgt=           1           1           1           1           1           1           1           1           1           1
 AtmWgt=   1.0078250   1.0078250   1.0078250   1.0078250   1.0078250   1.0078250   1.0078250   1.0078250   1.0078250   1.0078250
 NucSpn=           1           1           1           1           1           1           1           1           1           1
 AtZEff=  -0.0000000  -0.0000000  -0.0000000  -0.0000000  -0.0000000  -0.0000000  -0.0000000  -0.0000000  -0.0000000  -0.0000000
 NQMom=    0.0000000   0.0000000   0.0000000   0.0000000   0.0000000   0.0000000   0.0000000   0.0000000   0.0000000   0.0000000
 NMagM=    2.7928460   2.7928460   2.7928460   2.7928460   2.7928460   2.7928460   2.7928460   2.7928460   2.7928460   2.7928460
 AtZNuc=   1.0000000   1.0000000   1.0000000   1.0000000   1.0000000   1.0000000   1.0000000   1.0000000   1.0000000   1.0000000

  Atom        91          92          93          94          95          96          97          98          99         100
 IAtWgt=           1           1           1           1           1           1           1           1           1           1
 AtmWgt=   1.0078250   1.0078250   1.0078250   1.0078250   1.0078250   1.0078250   1.0078250   1.0078250   1.0078250   1.0078250
 NucSpn=           1           1           1           1           1           1           1           1           1           1
 AtZEff=  -0.0000000  -0.0000000  -0.0000000  -0.0000000  -0.0000000  -0.0000000  -0.0000000  -0.0000000  -0.0000000  -0.0000000
 NQMom=    0.0000000   0.0000000   0.0000000   0.0000000   0.0000000   0.0000000   0.0000000   0.0000000   0.0000000   0.0000000
 NMagM=    2.7928460   2.7928460   2.7928460   2.7928460   2.7928460   2.7928460   2.7928460   2.7928460   2.7928460   2.7928460
 AtZNuc=   1.0000000   1.0000000   1.0000000   1.0000000   1.0000000   1.0000000   1.0000000   1.0000000   1.0000000   1.0000000

  Atom       101         102         103         104         105         106         107         108         109         110
 IAtWgt=           1           1           1           1           1           1           1           1           1           1
 AtmWgt=   1.0078250   1.0078250   1.0078250   1.0078250   1.0078250   1.0078250   1.0078250   1.0078250   1.0078250   1.0078250
 NucSpn=           1           1           1           1           1           1           1           1           1           1
 AtZEff=  -0.0000000  -0.0000000  -0.0000000  -0.0000000  -0.0000000  -0.0000000  -0.0000000  -0.0000000  -0.0000000  -0.0000000
 NQMom=    0.0000000   0.0000000   0.0000000   0.0000000   0.0000000   0.0000000   0.0000000   0.0000000   0.0000000   0.0000000
 NMagM=    2.7928460   2.7928460   2.7928460   2.7928460   2.7928460   2.7928460   2.7928460   2.7928460   2.7928460   2.7928460
 AtZNuc=   1.0000000   1.0000000   1.0000000   1.0000000   1.0000000   1.0000000   1.0000000   1.0000000   1.0000000   1.0000000

  Atom       111         112         113         114         115         116         117         118         119         120
 IAtWgt=           1           1           1           1           1           1           1           1           1           1
 AtmWgt=   1.0078250   1.0078250   1.0078250   1.0078250   1.0078250   1.0078250   1.0078250   1.0078250   1.0078250   1.0078250
 NucSpn=           1           1           1           1           1           1           1           1           1           1
 AtZEff=  -0.0000000  -0.0000000  -0.0000000  -0.0000000  -0.0000000  -0.0000000  -0.0000000  -0.0000000  -0.0000000  -0.0000000
 NQMom=    0.0000000   0.0000000   0.0000000   0.0000000   0.0000000   0.0000000   0.0000000   0.0000000   0.0000000   0.0000000
 NMagM=    2.7928460   2.7928460   2.7928460   2.7928460   2.7928460   2.7928460   2.7928460   2.7928460   2.7928460   2.7928460
 AtZNuc=   1.0000000   1.0000000   1.0000000   1.0000000   1.0000000   1.0000000   1.0000000   1.0000000   1.0000000   1.0000000

  Atom       121         122         123         124         125         126         127         128         129         130
 IAtWgt=           1           1           1           1           1           1           1           1           1           1
 AtmWgt=   1.0078250   1.0078250   1.0078250   1.0078250   1.0078250   1.0078250   1.0078250   1.0078250   1.0078250   1.0078250
 NucSpn=           1           1           1           1           1           1           1           1           1           1
 AtZEff=  -0.0000000  -0.0000000  -0.0000000  -0.0000000  -0.0000000  -0.0000000  -0.0000000  -0.0000000  -0.0000000  -0.0000000
 NQMom=    0.0000000   0.0000000   0.0000000   0.0000000   0.0000000   0.0000000   0.0000000   0.0000000   0.0000000   0.0000000
 NMagM=    2.7928460   2.7928460   2.7928460   2.7928460   2.7928460   2.7928460   2.7928460   2.7928460   2.7928460   2.7928460
 AtZNuc=   1.0000000   1.0000000   1.0000000   1.0000000   1.0000000   1.0000000   1.0000000   1.0000000   1.0000000   1.0000000

  Atom       131         132         133         134         135         136         137         138         139         140
 IAtWgt=           1           1           1           1           1           1           1           1           1           1
 AtmWgt=   1.0078250   1.0078250   1.0078250   1.0078250   1.0078250   1.0078250   1.0078250   1.0078250   1.0078250   1.0078250
 NucSpn=           1           1           1           1           1           1           1           1           1           1
 AtZEff=  -0.0000000  -0.0000000  -0.0000000  -0.0000000  -0.0000000  -0.0000000  -0.0000000  -0.0000000  -0.0000000  -0.0000000
 NQMom=    0.0000000   0.0000000   0.0000000   0.0000000   0.0000000   0.0000000   0.0000000   0.0000000   0.0000000   0.0000000
 NMagM=    2.7928460   2.7928460   2.7928460   2.7928460   2.7928460   2.7928460   2.7928460   2.7928460   2.7928460   2.7928460
 AtZNuc=   1.0000000   1.0000000   1.0000000   1.0000000   1.0000000   1.0000000   1.0000000   1.0000000   1.0000000   1.0000000
 Leave Link  101 at Wed May  4 09:22:12 2022, MaxMem= 10066329600 cpu:               2.8 elap:               0.1
 (Enter /sw/apps/gaussian-16.0/g16/l202.exe)
 Stoichiometry    C55H74MgN4O6
 Framework group  C1[X(C55H74MgN4O6)]
 Deg. of freedom   414
 Full point group                 C1      NOp   1
 Largest Abelian subgroup         C1      NOp   1
 Largest concise Abelian subgroup C1      NOp   1
                         Standard orientation:                         
 ---------------------------------------------------------------------
 Center     Atomic      Atomic             Coordinates (Angstroms)
 Number     Number       Type             X           Y           Z
 ---------------------------------------------------------------------
      1         12           0        5.455602    0.447562   -0.035714
      2          6           0        3.454531   -2.422386   -0.124664
      3          6           0        2.726506    2.283328   -0.585790
      4          6           0        7.474052    3.074749   -0.262738
      5          6           0        8.242015   -1.627477    0.547240
      6          7           0        3.305610   -0.108926   -0.482419
      7          6           0        2.671453   -1.252184   -0.216475
      8          6           0        1.136425   -1.186600   -0.085164
      9          6           0        0.929536    0.337123   -0.516801
     10          6           0        2.414322    0.870010   -0.440871
     11          6           0        0.188536    0.574293   -1.877049
     12          6           0        0.533824   -1.626784    1.230842
     13          6           0       -0.385095   -2.825420    1.234776
     14          6           0       -1.776145   -2.687898    1.825064
     15          8           0       -2.063395   -2.854793    3.030398
     16          8           0       -2.609717   -2.233197    0.793177
     17          7           0        5.111973    2.360955   -0.263337
     18          6           0        3.948279    2.958659   -0.546120
     19          6           0        4.098602    4.366390   -0.673264
     20          6           0        5.481124    4.553238   -0.599580
     21          6           0        6.098763    3.314440   -0.353128
     22          6           0        2.918595    5.256450   -0.844531
     23          6           0        6.265373    5.920657   -0.818915
     24          8           0        7.494934    6.169729   -0.783806
     25          6           0        5.502821    7.215209   -0.941993
     26          7           0        7.595591    0.726366   -0.050143
     27          6           0        8.184392    1.910902   -0.204119
     28          6           0        9.704934    1.883142    0.115461
     29          6           0        9.864179    0.381501    0.628047
     30          6           0        8.462294   -0.241585    0.407435
     31          6           0       10.486872    2.248558   -1.120885
     32          6           0       10.286475    0.342353    2.104334
     33          6           0        9.185523    0.132168    3.251442
     34          7           0        5.838491   -1.588214    0.030322
     35          6           0        6.983526   -2.258172    0.322958
     36          6           0        6.782904   -3.708920    0.217315
     37          6           0        5.423506   -3.819638    0.072704
     38          6           0        4.897207   -2.479186   -0.032237
     39          6           0        7.769467   -4.763565    0.458654
     40          6           0        4.312553   -4.676516   -0.081228
     41          8           0        4.263252   -5.897292   -0.249490
     42          6           0        2.953221   -3.806789   -0.101293
     43          6           0        2.219504   -4.094365   -1.348127
     44          8           0        2.658613   -3.816223   -2.486820
     45          8           0        1.146713   -4.939918   -1.184359
     46          6           0        0.376790   -5.138839   -2.369975
     47          6           0       -4.019425   -2.066345    1.256313
     48          6           0       -4.733138   -1.195620    0.232873
     49          6           0       -6.076425   -1.098990    0.204730
     50          6           0       -7.114624   -1.821092    1.160776
     51          6           0       -6.849514   -0.241177   -0.859597
     52          6           0       -6.702311    1.340371   -0.581899
     53          6           0       -8.044624    2.082142   -0.351575
     54          6           0       -8.058290    3.029343    0.852100
     55          6           0       -6.943298    4.027443    0.880629
     56          6           0       -8.359462    2.337434    2.239049
     57          6           0       -9.949183    2.279435    2.579745
     58          6           0      -10.603185    0.870869    2.395869
     59          6           0      -12.103051    1.017638    1.897643
     60          6           0      -13.097729    0.714392    3.065038
     61          6           0      -12.393450    0.165454    0.688276
     62          6           0      -12.982023    0.868027   -0.553352
     63          6           0      -12.231687    0.784677   -1.889996
     64          6           0      -12.247217   -0.591953   -2.682531
     65          6           0      -10.876397   -1.179302   -3.112636
     66          6           0      -13.209703   -0.388929   -3.906163
     67          1           0        1.861816    2.940690   -0.698202
     68          1           0        8.101669    3.968866   -0.254629
     69          1           0        9.107802   -2.264210    0.737390
     70          1           0        0.759604   -1.900558   -0.818133
     71          1           0        0.161943    0.801089    0.101724
     72          1           0       -0.502027    1.416203   -1.893291
     73          1           0       -0.264173   -0.386350   -2.122062
     74          1           0        0.895278    0.855218   -2.657901
     75          1           0        0.059985   -0.765893    1.701176
     76          1           0        1.410181   -1.874198    1.828930
     77          1           0       -0.042675   -3.553772    1.968480
     78          1           0       -0.490163   -3.249074    0.236049
     79          1           0        2.314118    4.767012   -1.608164
     80          1           0        3.116784    6.222152   -1.310814
     81          1           0        2.250638    5.303562    0.014669
     82          1           0        4.709718    7.398766   -0.216799
     83          1           0        5.114492    7.201851   -1.960260
     84          1           0        6.136483    8.099375   -0.887425
     85          1           0        9.842289    2.606257    0.919217
     86          1           0       10.609497   -0.219599    0.106015
     87          1           0       11.099273    1.429262   -1.498678
     88          1           0       11.164572    3.002540   -0.719896
     89          1           0        9.844307    2.755879   -1.840172
     90          1           0       10.884723    1.202557    2.404703
     91          1           0       10.868744   -0.574705    2.016200
     92          1           0        8.178831   -0.104745    2.906894
     93          1           0        9.246918    0.991125    3.920002
     94          1           0        9.335322   -0.757416    3.864887
     95          1           0        8.800394   -4.426179    0.561749
     96          1           0        7.764743   -5.427030   -0.405006
     97          1           0        7.477542   -5.347346    1.331280
     98          1           0        2.229787   -3.870909    0.711100
     99          1           0        0.928660   -5.408549   -3.271070
    100          1           0       -0.148837   -4.229899   -2.659964
    101          1           0       -0.365067   -5.929185   -2.257480
    102          1           0       -4.261079   -1.692355    2.250985
    103          1           0       -4.523624   -3.027437    1.160566
    104          1           0       -4.249494   -0.604603   -0.544441
    105          1           0       -7.705739   -1.038533    1.636069
    106          1           0       -6.626553   -2.399871    1.944826
    107          1           0       -7.584863   -2.529630    0.479823
    108          1           0       -7.863305   -0.635792   -0.933894
    109          1           0       -6.383538   -0.413159   -1.830049
    110          1           0       -6.239555    1.746336   -1.481067
    111          1           0       -6.041371    1.408910    0.282064
    112          1           0       -8.806140    1.326038   -0.158049
    113          1           0       -8.449162    2.543249   -1.252006
    114          1           0       -8.859302    3.685954    0.512447
    115          1           0       -6.275335    3.837515    0.040108
    116          1           0       -6.338340    3.944704    1.783659
    117          1           0       -7.347468    5.026426    0.713068
    118          1           0       -7.905204    2.927451    3.034493
    119          1           0       -8.000106    1.313703    2.346699
    120          1           0      -10.444279    3.063158    2.004975
    121          1           0       -9.917188    2.525943    3.640158
    122          1           0      -10.629291    0.464118    3.407044
    123          1           0      -10.034787    0.368990    1.612915
    124          1           0      -12.310733    2.032365    1.561178
    125          1           0      -13.609671    1.665664    3.212372
    126          1           0      -12.644762    0.406019    4.006713
    127          1           0      -13.822956   -0.077996    2.881965
    128          1           0      -13.192921   -0.547176    0.887679
    129          1           0      -11.582095   -0.495082    0.380355
    130          1           0      -13.062759    1.944351   -0.401910
    131          1           0      -13.969721    0.413351   -0.637279
    132          1           0      -11.186593    0.964266   -1.636725
    133          1           0      -12.599026    1.565061   -2.556449
    134          1           0      -12.834716   -1.249034   -2.041653
    135          1           0      -10.049990   -0.545527   -2.791807
    136          1           0      -10.759950   -1.407637   -4.172865
    137          1           0      -10.817980   -2.156518   -2.632743
    138          1           0      -12.735307   -0.701856   -4.836310
    139          1           0      -13.635338    0.587768   -4.137846
    140          1           0      -14.047794   -1.084347   -3.870458
 ---------------------------------------------------------------------
 Rotational constants (GHZ):           0.0506920           0.0103318           0.0091972
 Leave Link  202 at Wed May  4 09:22:12 2022, MaxMem= 10066329600 cpu:               0.2 elap:               0.0
 (Enter /sw/apps/gaussian-16.0/g16/l301.exe)
 Standard basis: def2SVP (5D, 7F)
 Ernie: Thresh=  0.10000D-02 Tol=  0.10000D-05 Strict=F.
 There are  1364 symmetry adapted cartesian basis functions of A   symmetry.
 There are  1298 symmetry adapted basis functions of A   symmetry.
  1298 basis functions,  2180 primitive gaussians,  1364 cartesian basis functions
   246 alpha electrons      246 beta electrons
       nuclear repulsion energy      9671.8572517064 Hartrees.
 IExCor= 4639 DFT=T Ex+Corr=wB97XD ExCW=0 ScaHFX=  1.000000
 ScaDFX=  1.000000  1.000000  1.000000  1.000000 ScalE2=  1.000000  1.000000
 IRadAn=      5 IRanWt=     -1 IRanGd=            0 ICorTp=0 IEmpDi=121
 HFx  wShort=  0.000000 wLong=  0.200000 cFull=  0.222036 cShort=  0.000000 cLong=  0.777964
 DFx  wShort=  0.000000 wLong=  0.200000 cFull=  0.000000 cShort=  0.000000 cLong=  1.000000
 NAtoms=  140 NActive=  140 NUniq=  140 SFac= 1.00D+00 NAtFMM=   60 NAOKFM=T Big=T
 Integral buffers will be    131072 words long.
 Raffenetti 1 integral format.
 Two-electron integral symmetry is turned on.
 R6Disp:  Grimme-D2 Dispersion energy=       -0.1362964739 Hartrees.
 Nuclear repulsion after empirical dispersion term =     9671.7209552325 Hartrees.
 Leave Link  301 at Wed May  4 09:22:12 2022, MaxMem= 10066329600 cpu:               1.5 elap:               0.1
 (Enter /sw/apps/gaussian-16.0/g16/l302.exe)
 NPDir=0 NMtPBC=     1 NCelOv=     1 NCel=       1 NClECP=     1 NCelD=      1
         NCelK=      1 NCelE2=     1 NClLst=     1 CellRange=     0.0.
 One-electron integrals computed using PRISM.
 One-electron integral symmetry used in STVInt
   1 Symmetry operations used in ECPInt.
 ECPInt:  NShTT=  192510 NPrTT=  683786 LenC2=   96993 LenP2D=  212814.
 LDataN:  DoStor=T MaxTD1= 4 Len=   56
 NBasis=  1298 RedAO= T EigKep=  2.86D-04  NBF=  1298
 NBsUse=  1298 1.00D-06 EigRej= -1.00D+00 NBFU=  1298
 Precomputing XC quadrature grid using
 IXCGrd= 4 IRadAn=           5 IRanWt=          -1 IRanGd=           0 AccXCQ= 0.00D+00.
 Generated NRdTot=       0 NPtTot=           0 NUsed=           0 NTot=          32
 NSgBfM=  1049  1029  1030  1032  1049 MxSgAt=   140 MxSgA2=   140.
 Leave Link  302 at Wed May  4 09:22:15 2022, MaxMem= 10066329600 cpu:              76.3 elap:               3.2
 (Enter /sw/apps/gaussian-16.0/g16/l303.exe)
 DipDrv:  MaxL=1.
 Leave Link  303 at Wed May  4 09:22:16 2022, MaxMem= 10066329600 cpu:               6.0 elap:               0.3
 (Enter /sw/apps/gaussian-16.0/g16/l308.exe)
 Leave Link  308 at Wed May  4 09:22:16 2022, MaxMem= 10066329600 cpu:               8.9 elap:               0.4
 (Enter /sw/apps/gaussian-16.0/g16/l401.exe)
 ExpMin= 3.36D-02 ExpMax= 4.95D+03 ExpMxC= 7.45D+02 IAcc=3 IRadAn=         5 AccDes= 0.00D+00
 Harris functional with IExCor= 4639 and IRadAn=       5 diagonalized for initial guess.
 HarFok:  IExCor= 4639 AccDes= 0.00D+00 IRadAn=         5 IDoV= 1 UseB2=F ITyADJ=14
 ICtDFT=  3500011 ScaDFX=  1.000000  1.000000  1.000000  1.000000
 FoFCou: FMM=F IPFlag=           0 FMFlag=      100000 FMFlg1=        2001
         NFxFlg=           0 DoJE=T BraDBF=F KetDBF=T FulRan=T
         wScrn=  0.000000 ICntrl=       500 IOpCl=  0 I1Cent=   200000004 NGrid=           0
         NMat0=    1 NMatS0=      1 NMatT0=    0 NMatD0=    1 NMtDS0=    0 NMtDT0=    0
 Petite list used in FoFCou.
 Harris En= -2877.95047900764    
 JPrj=0 DoOrth=F DoCkMO=F.
 Leave Link  401 at Wed May  4 09:22:22 2022, MaxMem= 10066329600 cpu:             135.4 elap:               5.7
 (Enter /sw/apps/gaussian-16.0/g16/l502.exe)
 Integral symmetry usage will be decided dynamically.
 Closed shell SCF:
 Using DIIS extrapolation, IDIIS=  1040.
 NGot= 10066329600 LenX= 10062561258 LenY= 10060699398
 Requested convergence on RMS density matrix=1.00D-08 within 128 cycles.
 Requested convergence on MAX density matrix=1.00D-06.
 Requested convergence on             energy=1.00D-06.
 No special actions if energy rises.
 Fock matrices will be formed incrementally for  20 cycles.

 Cycle   1  Pass 1  IDiag  1:
 FoFJK:  IHMeth= 1 ICntrl=       0 DoSepK=T KAlg= 0 I1Cent=           0 FoldK=F
 IRaf=         1 NMat=       1 IRICut=       1 DoRegI=T DoRafI=F ISym2E= 0 IDoP0=0 IntGTp=1.
 FoFCou: FMM=T IPFlag=           0 FMFlag=      100000 FMFlg1=        2001
         NFxFlg=           0 DoJE=T BraDBF=F KetDBF=F FulRan=T
         wScrn=  0.000000 ICntrl=       500 IOpCl=  0 I1Cent=           0 NGrid=           0
         NMat0=    1 NMatS0=      1 NMatT0=    0 NMatD0=    1 NMtDS0=    0 NMtDT0=    0
 Symmetry not used in FoFCou.
 FMM levels:  10  Number of levels for PrismC:   9
 E= -3007.12395370485    
 DIIS: error= 2.54D-02 at cycle   1 NSaved=   1.
 NSaved= 1 IEnMin= 1 EnMin= -3007.12395370485     IErMin= 1 ErrMin= 2.54D-02
 ErrMax= 2.54D-02  0.00D+00 EMaxC= 1.00D-01 BMatC= 1.50D+00 BMatP= 1.50D+00
 IDIUse=3 WtCom= 7.46D-01 WtEn= 2.54D-01
 Coeff-Com:  0.100D+01
 Coeff-En:   0.100D+01
 Coeff:      0.100D+01
 Gap=     0.164 Goal=   None    Shift=    0.000
 GapD=    0.164 DampG=1.000 DampE=0.500 DampFc=0.5000 IDamp=-1.
 Damping current iteration by 5.00D-01
 RMSDP=1.55D-03 MaxDP=2.00D-01              OVMax= 1.64D-01

 Cycle   2  Pass 1  IDiag  1:
 RMSU=  7.67D-04    CP:  9.86D-01
 E= -3007.44920903902     Delta-E=       -0.325255334164 Rises=F Damp=T
 DIIS: error= 1.26D-02 at cycle   2 NSaved=   2.
 NSaved= 2 IEnMin= 2 EnMin= -3007.44920903902     IErMin= 2 ErrMin= 1.26D-02
 ErrMax= 1.26D-02  0.00D+00 EMaxC= 1.00D-01 BMatC= 2.89D-01 BMatP= 1.50D+00
 IDIUse=3 WtCom= 8.74D-01 WtEn= 1.26D-01
 Coeff-Com: -0.355D+00 0.136D+01
 Coeff-En:   0.000D+00 0.100D+01
 Coeff:     -0.311D+00 0.131D+01
 Gap=     0.180 Goal=   None    Shift=    0.000
 RMSDP=7.22D-04 MaxDP=1.13D-01 DE=-3.25D-01 OVMax= 1.36D-01

 Cycle   3  Pass 1  IDiag  1:
 RMSU=  6.63D-04    CP:  9.77D-01  1.36D+00
 E= -3007.68720590779     Delta-E=       -0.237996868773 Rises=F Damp=F
 DIIS: error= 1.48D-02 at cycle   3 NSaved=   3.
 NSaved= 3 IEnMin= 3 EnMin= -3007.68720590779     IErMin= 2 ErrMin= 1.26D-02
 ErrMax= 1.48D-02  0.00D+00 EMaxC= 1.00D-01 BMatC= 1.37D-01 BMatP= 2.89D-01
 IDIUse=3 WtCom= 8.52D-01 WtEn= 1.48D-01
 Coeff-Com: -0.309D+00 0.688D+00 0.621D+00
 Coeff-En:   0.000D+00 0.000D+00 0.100D+01
 Coeff:     -0.263D+00 0.586D+00 0.677D+00
 Gap=     0.166 Goal=   None    Shift=    0.000
 RMSDP=4.16D-04 MaxDP=5.10D-02 DE=-2.38D-01 OVMax= 8.08D-02

 Cycle   4  Pass 1  IDiag  1:
 RMSU=  2.19D-04    CP:  9.73D-01  1.63D+00  5.74D-01
 E= -3007.78422129091     Delta-E=       -0.097015383119 Rises=F Damp=F
 DIIS: error= 5.48D-03 at cycle   4 NSaved=   4.
 NSaved= 4 IEnMin= 4 EnMin= -3007.78422129091     IErMin= 4 ErrMin= 5.48D-03
 ErrMax= 5.48D-03  0.00D+00 EMaxC= 1.00D-01 BMatC= 2.36D-02 BMatP= 1.37D-01
 IDIUse=3 WtCom= 9.45D-01 WtEn= 5.48D-02
 Coeff-Com: -0.116D+00 0.233D+00 0.380D+00 0.503D+00
 Coeff-En:   0.000D+00 0.000D+00 0.122D+00 0.878D+00
 Coeff:     -0.110D+00 0.220D+00 0.366D+00 0.523D+00
 Gap=     0.163 Goal=   None    Shift=    0.000
 RMSDP=1.34D-04 MaxDP=1.86D-02 DE=-9.70D-02 OVMax= 2.01D-02

 Cycle   5  Pass 1  IDiag  1:
 RMSU=  6.44D-05    CP:  9.73D-01  1.60D+00  7.06D-01  6.59D-01
 E= -3007.80299487032     Delta-E=       -0.018773579408 Rises=F Damp=F
 DIIS: error= 7.58D-04 at cycle   5 NSaved=   5.
 NSaved= 5 IEnMin= 5 EnMin= -3007.80299487032     IErMin= 5 ErrMin= 7.58D-04
 ErrMax= 7.58D-04  0.00D+00 EMaxC= 1.00D-01 BMatC= 5.84D-04 BMatP= 2.36D-02
 IDIUse=3 WtCom= 9.92D-01 WtEn= 7.58D-03
 Coeff-Com: -0.340D-01 0.652D-01 0.139D+00 0.247D+00 0.583D+00
 Coeff-En:   0.000D+00 0.000D+00 0.000D+00 0.000D+00 0.100D+01
 Coeff:     -0.338D-01 0.647D-01 0.138D+00 0.245D+00 0.586D+00
 Gap=     0.163 Goal=   None    Shift=    0.000
 RMSDP=2.53D-05 MaxDP=4.33D-03 DE=-1.88D-02 OVMax= 4.37D-03

 Cycle   6  Pass 1  IDiag  1:
 RMSU=  2.15D-05    CP:  9.73D-01  1.60D+00  7.09D-01  7.03D-01  8.72D-01
 E= -3007.80344677389     Delta-E=       -0.000451903572 Rises=F Damp=F
 DIIS: error= 2.80D-04 at cycle   6 NSaved=   6.
 NSaved= 6 IEnMin= 6 EnMin= -3007.80344677389     IErMin= 6 ErrMin= 2.80D-04
 ErrMax= 2.80D-04  0.00D+00 EMaxC= 1.00D-01 BMatC= 6.42D-05 BMatP= 5.84D-04
 IDIUse=3 WtCom= 9.97D-01 WtEn= 2.80D-03
 Coeff-Com:  0.950D-02-0.205D-01-0.159D-01-0.743D-03 0.249D+00 0.778D+00
 Coeff-En:   0.000D+00 0.000D+00 0.000D+00 0.000D+00 0.000D+00 0.100D+01
 Coeff:      0.948D-02-0.205D-01-0.159D-01-0.741D-03 0.249D+00 0.779D+00
 Gap=     0.163 Goal=   None    Shift=    0.000
 RMSDP=1.23D-05 MaxDP=2.48D-03 DE=-4.52D-04 OVMax= 3.69D-03

 Cycle   7  Pass 1  IDiag  1:
 RMSU=  8.06D-06    CP:  9.73D-01  1.60D+00  7.14D-01  7.23D-01  9.76D-01
                    CP:  9.78D-01
 E= -3007.80352203954     Delta-E=       -0.000075265658 Rises=F Damp=F
 DIIS: error= 5.98D-05 at cycle   7 NSaved=   7.
 NSaved= 7 IEnMin= 7 EnMin= -3007.80352203954     IErMin= 7 ErrMin= 5.98D-05
 ErrMax= 5.98D-05  0.00D+00 EMaxC= 1.00D-01 BMatC= 5.88D-06 BMatP= 6.42D-05
 IDIUse=1 WtCom= 1.00D+00 WtEn= 0.00D+00
 Coeff-Com:  0.626D-02-0.127D-01-0.167D-01-0.227D-01 0.353D-01 0.282D+00
 Coeff-Com:  0.729D+00
 Coeff:      0.626D-02-0.127D-01-0.167D-01-0.227D-01 0.353D-01 0.282D+00
 Coeff:      0.729D+00
 Gap=     0.164 Goal=   None    Shift=    0.000
 RMSDP=4.55D-06 MaxDP=9.06D-04 DE=-7.53D-05 OVMax= 1.12D-03

 Cycle   8  Pass 1  IDiag  1:
 RMSU=  3.01D-06    CP:  9.73D-01  1.60D+00  7.16D-01  7.25D-01  1.01D+00
                    CP:  1.08D+00  1.04D+00
 E= -3007.80353148991     Delta-E=       -0.000009450365 Rises=F Damp=F
 DIIS: error= 3.66D-05 at cycle   8 NSaved=   8.
 NSaved= 8 IEnMin= 8 EnMin= -3007.80353148991     IErMin= 8 ErrMin= 3.66D-05
 ErrMax= 3.66D-05  0.00D+00 EMaxC= 1.00D-01 BMatC= 1.31D-06 BMatP= 5.88D-06
 IDIUse=1 WtCom= 1.00D+00 WtEn= 0.00D+00
 Coeff-Com:  0.139D-02-0.258D-02-0.524D-02-0.115D-01-0.275D-01-0.247D-02
 Coeff-Com:  0.333D+00 0.715D+00
 Coeff:      0.139D-02-0.258D-02-0.524D-02-0.115D-01-0.275D-01-0.247D-02
 Coeff:      0.333D+00 0.715D+00
 Gap=     0.164 Goal=   None    Shift=    0.000
 RMSDP=2.23D-06 MaxDP=4.53D-04 DE=-9.45D-06 OVMax= 1.03D-03

 Cycle   9  Pass 1  IDiag  1:
 RMSU=  1.37D-06    CP:  9.73D-01  1.60D+00  7.16D-01  7.27D-01  1.02D+00
                    CP:  1.11D+00  1.19D+00  1.13D+00
 E= -3007.80353418152     Delta-E=       -0.000002691606 Rises=F Damp=F
 DIIS: error= 1.13D-05 at cycle   9 NSaved=   9.
 NSaved= 9 IEnMin= 9 EnMin= -3007.80353418152     IErMin= 9 ErrMin= 1.13D-05
 ErrMax= 1.13D-05  0.00D+00 EMaxC= 1.00D-01 BMatC= 1.79D-07 BMatP= 1.31D-06
 IDIUse=1 WtCom= 1.00D+00 WtEn= 0.00D+00
 Coeff-Com: -0.565D-03 0.120D-02 0.109D-02-0.198D-03-0.139D-01-0.462D-01
 Coeff-Com: -0.671D-02 0.229D+00 0.837D+00
 Coeff:     -0.565D-03 0.120D-02 0.109D-02-0.198D-03-0.139D-01-0.462D-01
 Coeff:     -0.671D-02 0.229D+00 0.837D+00
 Gap=     0.164 Goal=   None    Shift=    0.000
 RMSDP=1.22D-06 MaxDP=1.45D-04 DE=-2.69D-06 OVMax= 6.26D-04

 Cycle  10  Pass 1  IDiag  1:
 RMSU=  7.00D-07    CP:  9.73D-01  1.60D+00  7.17D-01  7.27D-01  1.02D+00
                    CP:  1.13D+00  1.25D+00  1.34D+00  1.28D+00
 E= -3007.80353497293     Delta-E=       -0.000000791417 Rises=F Damp=F
 DIIS: error= 7.10D-06 at cycle  10 NSaved=  10.
 NSaved=10 IEnMin=10 EnMin= -3007.80353497293     IErMin=10 ErrMin= 7.10D-06
 ErrMax= 7.10D-06  0.00D+00 EMaxC= 1.00D-01 BMatC= 5.70D-08 BMatP= 1.79D-07
 IDIUse=1 WtCom= 1.00D+00 WtEn= 0.00D+00
 Coeff-Com: -0.596D-03 0.117D-02 0.181D-02 0.277D-02 0.141D-02-0.194D-01
 Coeff-Com: -0.879D-01-0.929D-01 0.331D+00 0.863D+00
 Coeff:     -0.596D-03 0.117D-02 0.181D-02 0.277D-02 0.141D-02-0.194D-01
 Coeff:     -0.879D-01-0.929D-01 0.331D+00 0.863D+00
 Gap=     0.164 Goal=   None    Shift=    0.000
 RMSDP=9.23D-07 MaxDP=1.58D-04 DE=-7.91D-07 OVMax= 5.29D-04

 Cycle  11  Pass 1  IDiag  1:
 RMSU=  3.68D-07    CP:  9.73D-01  1.60D+00  7.17D-01  7.27D-01  1.02D+00
                    CP:  1.14D+00  1.29D+00  1.49D+00  1.66D+00  1.40D+00
 E= -3007.80353533100     Delta-E=       -0.000000358063 Rises=F Damp=F
 DIIS: error= 4.42D-06 at cycle  11 NSaved=  11.
 NSaved=11 IEnMin=11 EnMin= -3007.80353533100     IErMin=11 ErrMin= 4.42D-06
 ErrMax= 4.42D-06  0.00D+00 EMaxC= 1.00D-01 BMatC= 2.10D-08 BMatP= 5.70D-08
 IDIUse=1 WtCom= 1.00D+00 WtEn= 0.00D+00
 Coeff-Com: -0.145D-03 0.269D-03 0.590D-03 0.133D-02 0.389D-02 0.148D-02
 Coeff-Com: -0.389D-01-0.901D-01-0.244D-01 0.408D+00 0.738D+00
 Coeff:     -0.145D-03 0.269D-03 0.590D-03 0.133D-02 0.389D-02 0.148D-02
 Coeff:     -0.389D-01-0.901D-01-0.244D-01 0.408D+00 0.738D+00
 Gap=     0.164 Goal=   None    Shift=    0.000
 RMSDP=4.89D-07 MaxDP=3.58D-05 DE=-3.58D-07 OVMax= 3.10D-04

 Cycle  12  Pass 1  IDiag  1:
 RMSU=  2.02D-07    CP:  9.73D-01  1.60D+00  7.17D-01  7.27D-01  1.02D+00
                    CP:  1.14D+00  1.30D+00  1.55D+00  1.82D+00  1.82D+00
                    CP:  1.41D+00
 E= -3007.80353546883     Delta-E=       -0.000000137830 Rises=F Damp=F
 DIIS: error= 3.21D-06 at cycle  12 NSaved=  12.
 NSaved=12 IEnMin=12 EnMin= -3007.80353546883     IErMin=12 ErrMin= 3.21D-06
 ErrMax= 3.21D-06  0.00D+00 EMaxC= 1.00D-01 BMatC= 7.38D-09 BMatP= 2.10D-08
 IDIUse=1 WtCom= 1.00D+00 WtEn= 0.00D+00
 Coeff-Com:  0.228D-03-0.454D-03-0.653D-03-0.844D-03 0.309D-03 0.932D-02
 Coeff-Com:  0.301D-01 0.233D-01-0.177D+00-0.326D+00 0.144D+00 0.130D+01
 Coeff:      0.228D-03-0.454D-03-0.653D-03-0.844D-03 0.309D-03 0.932D-02
 Coeff:      0.301D-01 0.233D-01-0.177D+00-0.326D+00 0.144D+00 0.130D+01
 Gap=     0.164 Goal=   None    Shift=    0.000
 RMSDP=6.67D-07 MaxDP=4.96D-05 DE=-1.38D-07 OVMax= 4.40D-04

 Cycle  13  Pass 1  IDiag  1:
 RMSU=  1.34D-07    CP:  9.73D-01  1.60D+00  7.17D-01  7.27D-01  1.02D+00
                    CP:  1.14D+00  1.31D+00  1.61D+00  2.04D+00  2.36D+00
                    CP:  2.31D+00  1.92D+00
 E= -3007.80353558185     Delta-E=       -0.000000113025 Rises=F Damp=F
 DIIS: error= 2.08D-06 at cycle  13 NSaved=  13.
 NSaved=13 IEnMin=13 EnMin= -3007.80353558185     IErMin=13 ErrMin= 2.08D-06
 ErrMax= 2.08D-06  0.00D+00 EMaxC= 1.00D-01 BMatC= 3.00D-09 BMatP= 7.38D-09
 IDIUse=1 WtCom= 1.00D+00 WtEn= 0.00D+00
 Coeff-Com:  0.168D-03-0.327D-03-0.549D-03-0.910D-03-0.140D-02 0.347D-02
 Coeff-Com:  0.289D-01 0.497D-01-0.634D-01-0.300D+00-0.260D+00 0.647D+00
 Coeff-Com:  0.898D+00
 Coeff:      0.168D-03-0.327D-03-0.549D-03-0.910D-03-0.140D-02 0.347D-02
 Coeff:      0.289D-01 0.497D-01-0.634D-01-0.300D+00-0.260D+00 0.647D+00
 Coeff:      0.898D+00
 Gap=     0.164 Goal=   None    Shift=    0.000
 RMSDP=3.75D-07 MaxDP=2.93D-05 DE=-1.13D-07 OVMax= 2.49D-04

 Cycle  14  Pass 1  IDiag  1:
 RMSU=  7.79D-08    CP:  9.73D-01  1.60D+00  7.17D-01  7.27D-01  1.02D+00
                    CP:  1.14D+00  1.32D+00  1.63D+00  2.13D+00  2.67D+00
                    CP:  2.86D+00  2.70D+00  1.33D+00
 E= -3007.80353561223     Delta-E=       -0.000000030384 Rises=F Damp=F
 DIIS: error= 6.86D-07 at cycle  14 NSaved=  14.
 NSaved=14 IEnMin=14 EnMin= -3007.80353561223     IErMin=14 ErrMin= 6.86D-07
 ErrMax= 6.86D-07  0.00D+00 EMaxC= 1.00D-01 BMatC= 5.47D-10 BMatP= 3.00D-09
 IDIUse=1 WtCom= 1.00D+00 WtEn= 0.00D+00
 Coeff-Com: -0.828D-05 0.191D-04 0.204D-05-0.544D-04-0.527D-03-0.155D-02
 Coeff-Com:  0.876D-03 0.922D-02 0.255D-01-0.135D-01-0.137D+00-0.124D+00
 Coeff-Com:  0.273D+00 0.967D+00
 Coeff:     -0.828D-05 0.191D-04 0.204D-05-0.544D-04-0.527D-03-0.155D-02
 Coeff:      0.876D-03 0.922D-02 0.255D-01-0.135D-01-0.137D+00-0.124D+00
 Coeff:      0.273D+00 0.967D+00
 Gap=     0.164 Goal=   None    Shift=    0.000
 RMSDP=1.86D-07 MaxDP=1.53D-05 DE=-3.04D-08 OVMax= 1.26D-04

 Cycle  15  Pass 1  IDiag  1:
 RMSU=  5.99D-08    CP:  9.73D-01  1.60D+00  7.17D-01  7.27D-01  1.02D+00
                    CP:  1.14D+00  1.32D+00  1.64D+00  2.17D+00  2.81D+00
                    CP:  3.00D+00  3.00D+00  1.75D+00  1.25D+00
 E= -3007.80353561818     Delta-E=       -0.000000005948 Rises=F Damp=F
 DIIS: error= 5.15D-07 at cycle  15 NSaved=  15.
 NSaved=15 IEnMin=15 EnMin= -3007.80353561818     IErMin=15 ErrMin= 5.15D-07
 ErrMax= 5.15D-07  0.00D+00 EMaxC= 1.00D-01 BMatC= 2.01D-10 BMatP= 5.47D-10
 IDIUse=1 WtCom= 1.00D+00 WtEn= 0.00D+00
 Coeff-Com: -0.452D-04 0.897D-04 0.137D-03 0.193D-03 0.695D-04-0.165D-02
 Coeff-Com: -0.660D-02-0.758D-02 0.300D-01 0.661D-01-0.512D-02-0.209D+00
 Coeff-Com: -0.916D-01 0.489D+00 0.736D+00
 Coeff:     -0.452D-04 0.897D-04 0.137D-03 0.193D-03 0.695D-04-0.165D-02
 Coeff:     -0.660D-02-0.758D-02 0.300D-01 0.661D-01-0.512D-02-0.209D+00
 Coeff:     -0.916D-01 0.489D+00 0.736D+00
 Gap=     0.164 Goal=   None    Shift=    0.000
 RMSDP=5.89D-08 MaxDP=1.01D-05 DE=-5.95D-09 OVMax= 3.80D-05

 Cycle  16  Pass 1  IDiag  1:
 RMSU=  3.14D-08    CP:  9.73D-01  1.60D+00  7.17D-01  7.27D-01  1.02D+00
                    CP:  1.14D+00  1.32D+00  1.64D+00  2.18D+00  2.84D+00
                    CP:  3.00D+00  3.00D+00  1.88D+00  1.57D+00  1.51D+00
 E= -3007.80353561909     Delta-E=       -0.000000000908 Rises=F Damp=F
 DIIS: error= 2.13D-07 at cycle  16 NSaved=  16.
 NSaved=16 IEnMin=16 EnMin= -3007.80353561909     IErMin=16 ErrMin= 2.13D-07
 ErrMax= 2.13D-07  0.00D+00 EMaxC= 1.00D-01 BMatC= 3.31D-11 BMatP= 2.01D-10
 IDIUse=1 WtCom= 1.00D+00 WtEn= 0.00D+00
 Coeff-Com: -0.133D-04 0.259D-04 0.454D-04 0.715D-04 0.131D-03-0.231D-03
 Coeff-Com: -0.238D-02-0.460D-02 0.608D-02 0.233D-01 0.235D-01-0.464D-01
 Coeff-Com: -0.912D-01-0.117D-01 0.233D+00 0.871D+00
 Coeff:     -0.133D-04 0.259D-04 0.454D-04 0.715D-04 0.131D-03-0.231D-03
 Coeff:     -0.238D-02-0.460D-02 0.608D-02 0.233D-01 0.235D-01-0.464D-01
 Coeff:     -0.912D-01-0.117D-01 0.233D+00 0.871D+00
 Gap=     0.164 Goal=   None    Shift=    0.000
 RMSDP=2.86D-08 MaxDP=3.52D-06 DE=-9.08D-10 OVMax= 1.88D-05

 Cycle  17  Pass 1  IDiag  1:
 RMSU=  1.15D-08    CP:  9.73D-01  1.60D+00  7.17D-01  7.27D-01  1.02D+00
                    CP:  1.14D+00  1.32D+00  1.64D+00  2.18D+00  2.86D+00
                    CP:  3.00D+00  3.00D+00  1.96D+00  1.68D+00  1.82D+00
                    CP:  1.20D+00
 E= -3007.80353561938     Delta-E=       -0.000000000286 Rises=F Damp=F
 DIIS: error= 1.41D-07 at cycle  17 NSaved=  17.
 NSaved=17 IEnMin=17 EnMin= -3007.80353561938     IErMin=17 ErrMin= 1.41D-07
 ErrMax= 1.41D-07  0.00D+00 EMaxC= 1.00D-01 BMatC= 1.54D-11 BMatP= 3.31D-11
 IDIUse=1 WtCom= 1.00D+00 WtEn= 0.00D+00
 Coeff-Com:  0.729D-05-0.148D-04-0.200D-04-0.272D-04 0.428D-04 0.398D-03
 Coeff-Com:  0.900D-03 0.222D-03-0.577D-02-0.985D-02 0.118D-01 0.454D-01
 Coeff-Com: -0.136D-01-0.150D+00-0.136D+00 0.386D+00 0.870D+00
 Coeff:      0.729D-05-0.148D-04-0.200D-04-0.272D-04 0.428D-04 0.398D-03
 Coeff:      0.900D-03 0.222D-03-0.577D-02-0.985D-02 0.118D-01 0.454D-01
 Coeff:     -0.136D-01-0.150D+00-0.136D+00 0.386D+00 0.870D+00
 Gap=     0.164 Goal=   None    Shift=    0.000
 RMSDP=1.77D-08 MaxDP=2.88D-06 DE=-2.86D-10 OVMax= 1.08D-05

 Cycle  18  Pass 1  IDiag  1:
 RMSU=  8.27D-09    CP:  9.73D-01  1.60D+00  7.17D-01  7.27D-01  1.02D+00
                    CP:  1.14D+00  1.32D+00  1.64D+00  2.18D+00  2.86D+00
                    CP:  3.00D+00  3.00D+00  1.99D+00  1.78D+00  1.95D+00
                    CP:  1.38D+00  1.74D+00
 E= -3007.80353561925     Delta-E=        0.000000000129 Rises=F Damp=F
 DIIS: error= 8.76D-08 at cycle  18 NSaved=  18.
 NSaved=18 IEnMin=17 EnMin= -3007.80353561938     IErMin=18 ErrMin= 8.76D-08
 ErrMax= 8.76D-08  0.00D+00 EMaxC= 1.00D-01 BMatC= 4.75D-12 BMatP= 1.54D-11
 IDIUse=1 WtCom= 1.00D+00 WtEn= 0.00D+00
 Coeff-Com:  0.844D-05-0.166D-04-0.275D-04-0.423D-04-0.326D-04 0.267D-03
 Coeff-Com:  0.133D-02 0.203D-02-0.504D-02-0.147D-01-0.519D-02 0.400D-01
 Coeff-Com:  0.307D-01-0.575D-01-0.157D+00-0.160D+00 0.355D+00 0.971D+00
 Coeff:      0.844D-05-0.166D-04-0.275D-04-0.423D-04-0.326D-04 0.267D-03
 Coeff:      0.133D-02 0.203D-02-0.504D-02-0.147D-01-0.519D-02 0.400D-01
 Coeff:      0.307D-01-0.575D-01-0.157D+00-0.160D+00 0.355D+00 0.971D+00
 Gap=     0.164 Goal=   None    Shift=    0.000
 RMSDP=1.36D-08 MaxDP=9.76D-07 DE= 1.29D-10 OVMax= 8.46D-06

 Cycle  19  Pass 1  IDiag  1:
 RMSU=  3.83D-09    CP:  9.73D-01  1.60D+00  7.17D-01  7.27D-01  1.02D+00
                    CP:  1.14D+00  1.32D+00  1.64D+00  2.18D+00  2.86D+00
                    CP:  3.00D+00  3.00D+00  2.00D+00  1.82D+00  2.05D+00
                    CP:  1.48D+00  2.53D+00  1.55D+00
 E= -3007.80353561943     Delta-E=       -0.000000000180 Rises=F Damp=F
 DIIS: error= 3.99D-08 at cycle  19 NSaved=  19.
 NSaved=19 IEnMin=19 EnMin= -3007.80353561943     IErMin=19 ErrMin= 3.99D-08
 ErrMax= 3.99D-08  0.00D+00 EMaxC= 1.00D-01 BMatC= 1.79D-12 BMatP= 4.75D-12
 IDIUse=1 WtCom= 1.00D+00 WtEn= 0.00D+00
 Coeff-Com:  0.416D-06-0.647D-06-0.304D-05-0.576D-05-0.273D-04-0.467D-04
 Coeff-Com:  0.129D-03 0.770D-03 0.293D-03-0.184D-02-0.634D-02-0.128D-02
 Coeff-Com:  0.157D-01 0.323D-01-0.113D-01-0.203D+00-0.210D+00 0.415D+00
 Coeff-Com:  0.969D+00
 Coeff:      0.416D-06-0.647D-06-0.304D-05-0.576D-05-0.273D-04-0.467D-04
 Coeff:      0.129D-03 0.770D-03 0.293D-03-0.184D-02-0.634D-02-0.128D-02
 Coeff:      0.157D-01 0.323D-01-0.113D-01-0.203D+00-0.210D+00 0.415D+00
 Coeff:      0.969D+00
 Gap=     0.164 Goal=   None    Shift=    0.000
 RMSDP=9.05D-09 MaxDP=7.92D-07 DE=-1.80D-10 OVMax= 5.82D-06

 SCF Done:  E(RwB97XD) =  -3007.80353562     A.U. after   19 cycles
            NFock= 19  Conv=0.91D-08     -V/T= 2.0107
 KE= 2.975942990575D+03 PE=-2.633536041009D+04 EE= 1.067989292866D+04
 Leave Link  502 at Wed May  4 09:29:26 2022, MaxMem= 10066329600 cpu:            9709.9 elap:             423.7
 (Enter /sw/apps/gaussian-16.0/g16/l801.exe)
 DoSCS=F DFT=T ScalE2(SS,OS)=  1.000000  1.000000
 ExpMin= 3.36D-02 ExpMax= 4.95D+03 ExpMxC= 7.45D+02 IAcc=3 IRadAn=         5 AccDes= 0.00D+00
 HarFok:  IExCor=  205 AccDes= 0.00D+00 IRadAn=         5 IDoV=-2 UseB2=F ITyADJ=14
 ICtDFT= 12500011 ScaDFX=  1.000000  1.000000  1.000000  1.000000
 GSVD:  LWork=       -5460 too small for GESVD, short by       25550 words or       25550 for optimal perf.
 Largest valence mixing into a core orbital is  2.31D-04
 Largest core mixing into a valence orbital is  5.36D-05
 Range of M.O.s used for correlation:    71  1298
 NBasis=  1298 NAE=   246 NBE=   246 NFC=    70 NFV=     0
 NROrb=   1228 NOA=   176 NOB=   176 NVA=  1052 NVB=  1052
 Leave Link  801 at Wed May  4 09:29:26 2022, MaxMem= 10066329600 cpu:               7.4 elap:               0.3
 (Enter /sw/apps/gaussian-16.0/g16/l914.exe)
 RHF ground state
 Two-electron integrals replicated using symmetry.
 MDV= 10066329600 DFT=T DoStab=F Mixed=T DoRPA=T DoScal=F NonHer=T
 Making orbital integer symmetry assigments:
 Orbital symmetries:
       Occupied  (A) (A) (A) (A) (A) (A) (A) (A) (A) (A) (A) (A)
                 (A) (A) (A) (A) (A) (A) (A) (A) (A) (A) (A) (A)
                 (A) (A) (A) (A) (A) (A) (A) (A) (A) (A) (A) (A)
                 (A) (A) (A) (A) (A) (A) (A) (A) (A) (A) (A) (A)
                 (A) (A) (A) (A) (A) (A) (A) (A) (A) (A) (A) (A)
                 (A) (A) (A) (A) (A) (A) (A) (A) (A) (A) (A) (A)
                 (A) (A) (A) (A) (A) (A) (A) (A) (A) (A) (A) (A)
                 (A) (A) (A) (A) (A) (A) (A) (A) (A) (A) (A) (A)
                 (A) (A) (A) (A) (A) (A) (A) (A) (A) (A) (A) (A)
                 (A) (A) (A) (A) (A) (A) (A) (A) (A) (A) (A) (A)
                 (A) (A) (A) (A) (A) (A) (A) (A) (A) (A) (A) (A)
                 (A) (A) (A) (A) (A) (A) (A) (A) (A) (A) (A) (A)
                 (A) (A) (A) (A) (A) (A) (A) (A) (A) (A) (A) (A)
                 (A) (A) (A) (A) (A) (A) (A) (A) (A) (A) (A) (A)
                 (A) (A) (A) (A) (A) (A) (A) (A) (A) (A) (A) (A)
                 (A) (A) (A) (A) (A) (A) (A) (A) (A) (A) (A) (A)
                 (A) (A) (A) (A) (A) (A) (A) (A) (A) (A) (A) (A)
                 (A) (A) (A) (A) (A) (A) (A) (A) (A) (A) (A) (A)
                 (A) (A) (A) (A) (A) (A) (A) (A) (A) (A) (A) (A)
                 (A) (A) (A) (A) (A) (A) (A) (A) (A) (A) (A) (A)
                 (A) (A) (A) (A) (A) (A)
       Virtual   (A) (A) (A) (A) (A) (A) (A) (A) (A) (A) (A) (A)
                 (A) (A) (A) (A) (A) (A) (A) (A) (A) (A) (A) (A)
                 (A) (A) (A) (A) (A) (A) (A) (A) (A) (A) (A) (A)
                 (A) (A) (A) (A) (A) (A) (A) (A) (A) (A) (A) (A)
                 (A) (A) (A) (A) (A) (A) (A) (A) (A) (A) (A) (A)
                 (A) (A) (A) (A) (A) (A) (A) (A) (A) (A) (A) (A)
                 (A) (A) (A) (A) (A) (A) (A) (A) (A) (A) (A) (A)
                 (A) (A) (A) (A) (A) (A) (A) (A) (A) (A) (A) (A)
                 (A) (A) (A) (A) (A) (A) (A) (A) (A) (A) (A) (A)
                 (A) (A) (A) (A) (A) (A) (A) (A) (A) (A) (A) (A)
                 (A) (A) (A) (A) (A) (A) (A) (A) (A) (A) (A) (A)
                 (A) (A) (A) (A) (A) (A) (A) (A) (A) (A) (A) (A)
                 (A) (A) (A) (A) (A) (A) (A) (A) (A) (A) (A) (A)
                 (A) (A) (A) (A) (A) (A) (A) (A) (A) (A) (A) (A)
                 (A) (A) (A) (A) (A) (A) (A) (A) (A) (A) (A) (A)
                 (A) (A) (A) (A) (A) (A) (A) (A) (A) (A) (A) (A)
                 (A) (A) (A) (A) (A) (A) (A) (A) (A) (A) (A) (A)
                 (A) (A) (A) (A) (A) (A) (A) (A) (A) (A) (A) (A)
                 (A) (A) (A) (A) (A) (A) (A) (A) (A) (A) (A) (A)
                 (A) (A) (A) (A) (A) (A) (A) (A) (A) (A) (A) (A)
                 (A) (A) (A) (A) (A) (A) (A) (A) (A) (A) (A) (A)
                 (A) (A) (A) (A) (A) (A) (A) (A) (A) (A) (A) (A)
                 (A) (A) (A) (A) (A) (A) (A) (A) (A) (A) (A) (A)
                 (A) (A) (A) (A) (A) (A) (A) (A) (A) (A) (A) (A)
                 (A) (A) (A) (A) (A) (A) (A) (A) (A) (A) (A) (A)
                 (A) (A) (A) (A) (A) (A) (A) (A) (A) (A) (A) (A)
                 (A) (A) (A) (A) (A) (A) (A) (A) (A) (A) (A) (A)
                 (A) (A) (A) (A) (A) (A) (A) (A) (A) (A) (A) (A)
                 (A) (A) (A) (A) (A) (A) (A) (A) (A) (A) (A) (A)
                 (A) (A) (A) (A) (A) (A) (A) (A) (A) (A) (A) (A)
                 (A) (A) (A) (A) (A) (A) (A) (A) (A) (A) (A) (A)
                 (A) (A) (A) (A) (A) (A) (A) (A) (A) (A) (A) (A)
                 (A) (A) (A) (A) (A) (A) (A) (A) (A) (A) (A) (A)
                 (A) (A) (A) (A) (A) (A) (A) (A) (A) (A) (A) (A)
                 (A) (A) (A) (A) (A) (A) (A) (A) (A) (A) (A) (A)
                 (A) (A) (A) (A) (A) (A) (A) (A) (A) (A) (A) (A)
                 (A) (A) (A) (A) (A) (A) (A) (A) (A) (A) (A) (A)
                 (A) (A) (A) (A) (A) (A) (A) (A) (A) (A) (A) (A)
                 (A) (A) (A) (A) (A) (A) (A) (A) (A) (A) (A) (A)
                 (A) (A) (A) (A) (A) (A) (A) (A) (A) (A) (A) (A)
                 (A) (A) (A) (A) (A) (A) (A) (A) (A) (A) (A) (A)
                 (A) (A) (A) (A) (A) (A) (A) (A) (A) (A) (A) (A)
                 (A) (A) (A) (A) (A) (A) (A) (A) (A) (A) (A) (A)
                 (A) (A) (A) (A) (A) (A) (A) (A) (A) (A) (A) (A)
                 (A) (A) (A) (A) (A) (A) (A) (A) (A) (A) (A) (A)
                 (A) (A) (A) (A) (A) (A) (A) (A) (A) (A) (A) (A)
                 (A) (A) (A) (A) (A) (A) (A) (A) (A) (A) (A) (A)
                 (A) (A) (A) (A) (A) (A) (A) (A) (A) (A) (A) (A)
                 (A) (A) (A) (A) (A) (A) (A) (A) (A) (A) (A) (A)
                 (A) (A) (A) (A) (A) (A) (A) (A) (A) (A) (A) (A)
                 (A) (A) (A) (A) (A) (A) (A) (A) (A) (A) (A) (A)
                 (A) (A) (A) (A) (A) (A) (A) (A) (A) (A) (A) (A)
                 (A) (A) (A) (A) (A) (A) (A) (A) (A) (A) (A) (A)
                 (A) (A) (A) (A) (A) (A) (A) (A) (A) (A) (A) (A)
                 (A) (A) (A) (A) (A) (A) (A) (A) (A) (A) (A) (A)
                 (A) (A) (A) (A) (A) (A) (A) (A) (A) (A) (A) (A)
                 (A) (A) (A) (A) (A) (A) (A) (A) (A) (A) (A) (A)
                 (A) (A) (A) (A) (A) (A) (A) (A) (A) (A) (A) (A)
                 (A) (A) (A) (A) (A) (A) (A) (A) (A) (A) (A) (A)
                 (A) (A) (A) (A) (A) (A) (A) (A) (A) (A) (A) (A)
                 (A) (A) (A) (A) (A) (A) (A) (A) (A) (A) (A) (A)
                 (A) (A) (A) (A) (A) (A) (A) (A) (A) (A) (A) (A)
                 (A) (A) (A) (A) (A) (A) (A) (A) (A) (A) (A) (A)
                 (A) (A) (A) (A) (A) (A) (A) (A) (A) (A) (A) (A)
                 (A) (A) (A) (A) (A) (A) (A) (A) (A) (A) (A) (A)
                 (A) (A) (A) (A) (A) (A) (A) (A) (A) (A) (A) (A)
                 (A) (A) (A) (A) (A) (A) (A) (A) (A) (A) (A) (A)
                 (A) (A) (A) (A) (A) (A) (A) (A) (A) (A) (A) (A)
                 (A) (A) (A) (A) (A) (A) (A) (A) (A) (A) (A) (A)
                 (A) (A) (A) (A) (A) (A) (A) (A) (A) (A) (A) (A)
                 (A) (A) (A) (A) (A) (A) (A) (A) (A) (A) (A) (A)
                 (A) (A) (A) (A) (A) (A) (A) (A) (A) (A) (A) (A)
                 (A) (A) (A) (A) (A) (A) (A) (A) (A) (A) (A) (A)
                 (A) (A) (A) (A) (A) (A) (A) (A) (A) (A) (A) (A)
                 (A) (A) (A) (A) (A) (A) (A) (A) (A) (A) (A) (A)
                 (A) (A) (A) (A) (A) (A) (A) (A) (A) (A) (A) (A)
                 (A) (A) (A) (A) (A) (A) (A) (A) (A) (A) (A) (A)
                 (A) (A) (A) (A) (A) (A) (A) (A) (A) (A) (A) (A)
                 (A) (A) (A) (A) (A) (A) (A) (A) (A) (A) (A) (A)
                 (A) (A) (A) (A) (A) (A) (A) (A) (A) (A) (A) (A)
                 (A) (A) (A) (A) (A) (A) (A) (A) (A) (A) (A) (A)
                 (A) (A) (A) (A) (A) (A) (A) (A) (A) (A) (A) (A)
                 (A) (A) (A) (A) (A) (A) (A) (A) (A) (A) (A) (A)
                 (A) (A) (A) (A) (A) (A) (A) (A) (A) (A) (A) (A)
                 (A) (A) (A) (A) (A) (A) (A) (A) (A) (A) (A) (A)
                 (A) (A) (A) (A) (A) (A) (A) (A) (A) (A) (A) (A)
                 (A) (A) (A) (A) (A) (A) (A) (A) (A) (A) (A) (A)
                 (A) (A) (A) (A) (A) (A) (A) (A)
    20 initial guesses have been made.
 Convergence on wavefunction:    0.001000000000000
 Davidson Disk Diagonalization:  ConvIn= 1.00D-03 SkipCon=T Conv= 1.00D-03.
 Max sub-space:  2000 roots to seek:    20 dimension of matrix:       370304
 Iteration     1 Dimension    20 NMult     0 NNew     20
 CISAX will form    20 AO SS matrices at one time.
 NMat=    20 NSing=    20 JSym2X= 0.
 FoFJK:  IHMeth= 1 ICntrl=       0 DoSepK=T KAlg= 0 I1Cent=           0 FoldK=F
 IRaf=         1 NMat=      40 IRICut=       1 DoRegI=T DoRafI=F ISym2E= 0 IDoP0=3 IntGTp=3.
 FoFCou: FMM=T IPFlag=           0 FMFlag=      100000 FMFlg1=        2001
         NFxFlg=           0 DoJE=F BraDBF=F KetDBF=F FulRan=T
         wScrn=  0.000000 ICntrl=       500 IOpCl=  0 I1Cent=           0 NGrid=           0
         NMat0=   20 NMatS0=     20 NMatT0=    0 NMatD0=   20 NMtDS0=    0 NMtDT0=    0
 Symmetry not used in FoFCou.
 FMM levels:  10  Number of levels for PrismC:   9
 New state      3 was old state      9
 New state      4 was old state      3
 New state      5 was old state      7
 Excitation Energies [eV] at current iteration:
 Root      1 :     2.231801484057377
 Root      2 :     2.629415231970467
 Root      3 :     4.121196101833720
 Root      4 :     4.262165084453074
 Root      5 :     4.301961080986216
 Root      6 :     4.357855588385146
 Root      7 :     4.475830345171006
 Root      8 :     4.535919885602638
 Root      9 :     4.544964595621213
 Root     10 :     4.602120709233678
 Root     11 :     4.876690826874426
 Root     12 :     5.053942730691023
 Root     13 :     5.084907987443117
 Root     14 :     5.240367418440760
 Root     15 :     5.333706984633574
 Root     16 :     5.379172956328310
 Root     17 :     5.517800523053414
 Root     18 :     5.699557746537957
 Root     19 :     5.920211176245068
 Root     20 :     6.978319756296566
 Iteration     2 Dimension    30 NMult    20 NNew     10
 CISAX will form    10 AO SS matrices at one time.
 NMat=    10 NSing=    10 JSym2X= 0.
 Root      1 not converged, maximum delta is    0.074165187438447
 Root      2 not converged, maximum delta is    0.061232300679023
 Root      3 not converged, maximum delta is    0.364847413657235
 New state      4 was old state      5
 Root      4 not converged, maximum delta is    0.467728230205867
 New state      5 was old state      4
 Root      5 not converged, maximum delta is    0.471131311557558
 Excitation Energies [eV] at current iteration:
 Root      1 :     1.750043557122126   Change is   -0.481757926935251
 Root      2 :     2.210917081140303   Change is   -0.418498150830164
 Root      3 :     3.643439016054991   Change is   -0.477757085778729
 Root      4 :     3.732091341806186   Change is   -0.569869739180031
 Root      5 :     3.793590144437212   Change is   -0.468574940015863
 Iteration     3 Dimension    40 NMult    30 NNew     10
 CISAX will form    10 AO SS matrices at one time.
 NMat=    10 NSing=    10 JSym2X= 0.
 Root      1 not converged, maximum delta is    0.016620470109934
 Root      2 not converged, maximum delta is    0.010004855151938
 New state      3 was old state      4
 Root      3 not converged, maximum delta is    0.242792037581620
 New state      4 was old state      3
 Root      4 not converged, maximum delta is    0.184189199213876
 Root      5 not converged, maximum delta is    0.206189044496703
 Excitation Energies [eV] at current iteration:
 Root      1 :     1.714419695109703   Change is   -0.035623862012423
 Root      2 :     2.190235076395684   Change is   -0.020682004744618
 Root      3 :     3.552954099388439   Change is   -0.179137242417747
 Root      4 :     3.574777542485227   Change is   -0.068661473569763
 Root      5 :     3.753066684419952   Change is   -0.040523460017260
 Iteration     4 Dimension    50 NMult    40 NNew     10
 CISAX will form    10 AO SS matrices at one time.
 NMat=    10 NSing=    10 JSym2X= 0.
 Root      1 not converged, maximum delta is    0.003990547292655
 Root      2 not converged, maximum delta is    0.004555353209512
 Root      3 not converged, maximum delta is    0.050851012375337
 Root      4 not converged, maximum delta is    0.042971968757654
 Root      5 not converged, maximum delta is    0.029380005246280
 Excitation Energies [eV] at current iteration:
 Root      1 :     1.710233609683209   Change is   -0.004186085426494
 Root      2 :     2.187496171643629   Change is   -0.002738904752056
 Root      3 :     3.533015382677514   Change is   -0.019938716710924
 Root      4 :     3.561971074487643   Change is   -0.012806467997584
 Root      5 :     3.743880477218037   Change is   -0.009186207201915
 Iteration     5 Dimension    60 NMult    50 NNew     10
 CISAX will form    10 AO SS matrices at one time.
 NMat=    10 NSing=    10 JSym2X= 0.
 Root      1 not converged, maximum delta is    0.001221320828324
 Root      2 has converged.
 Root      3 not converged, maximum delta is    0.008731069817209
 Root      4 not converged, maximum delta is    0.018150111697914
 Root      5 not converged, maximum delta is    0.103302969752880
 Excitation Energies [eV] at current iteration:
 Root      1 :     1.709837575992254   Change is   -0.000396033690955
 Root      2 :     2.187252760580523   Change is   -0.000243411063105
 Root      3 :     3.530702545179174   Change is   -0.002312837498341
 Root      4 :     3.559987871771785   Change is   -0.001983202715859
 Root      5 :     3.731156942027118   Change is   -0.012723535190919
 Iteration     6 Dimension    68 NMult    60 NNew      8
 CISAX will form     8 AO SS matrices at one time.
 NMat=     8 NSing=     8 JSym2X= 0.
 Root      1 has converged.
 Root      2 has converged.
 Root      3 not converged, maximum delta is    0.019198404552159
 Root      4 not converged, maximum delta is    0.163117715058498
 Root      5 not converged, maximum delta is    0.477170656553150
 Excitation Energies [eV] at current iteration:
 Root      1 :     1.709804540432049   Change is   -0.000033035560205
 Root      2 :     2.187249234694241   Change is   -0.000003525886282
 Root      3 :     3.530203791791384   Change is   -0.000498753387789
 Root      4 :     3.554084610913662   Change is   -0.005903260858123
 Root      5 :     3.588220871336534   Change is   -0.142936070690584
 Iteration     7 Dimension    74 NMult    68 NNew      6
 CISAX will form     6 AO SS matrices at one time.
 NMat=     6 NSing=     6 JSym2X= 0.
 Root      1 has converged.
 Root      2 has converged.
 Root      3 not converged, maximum delta is    0.048332658296813
 Root      4 not converged, maximum delta is    0.213034603979132
 Root      5 not converged, maximum delta is    0.221335600850507
 Excitation Energies [eV] at current iteration:
 Root      1 :     1.709804415720525   Change is   -0.000000124711523
 Root      2 :     2.187248235737285   Change is   -0.000000998956956
 Root      3 :     3.529761792911926   Change is   -0.000441998879457
 Root      4 :     3.540503580956869   Change is   -0.013581029956792
 Root      5 :     3.569048756554457   Change is   -0.019172114782078
 Iteration     8 Dimension    80 NMult    74 NNew      6
 CISAX will form     6 AO SS matrices at one time.
 NMat=     6 NSing=     6 JSym2X= 0.
 Root      1 has converged.
 Root      2 has converged.
 Root      3 not converged, maximum delta is    0.025423499033226
 Root      4 not converged, maximum delta is    0.038870862790898
 Root      5 not converged, maximum delta is    0.018660934635803
 Excitation Energies [eV] at current iteration:
 Root      1 :     1.709804301221152   Change is   -0.000000114499373
 Root      2 :     2.187246973282345   Change is   -0.000001262454940
 Root      3 :     3.529558070677825   Change is   -0.000203722234102
 Root      4 :     3.538012653363531   Change is   -0.002490927593338
 Root      5 :     3.567992298709554   Change is   -0.001056457844903
 Iteration     9 Dimension    86 NMult    80 NNew      6
 CISAX will form     6 AO SS matrices at one time.
 NMat=     6 NSing=     6 JSym2X= 0.
 Root      1 has converged.
 Root      2 has converged.
 Root      3 not converged, maximum delta is    0.004081957669342
 Root      4 not converged, maximum delta is    0.005076231169177
 Root      5 not converged, maximum delta is    0.002262441053886
 Excitation Energies [eV] at current iteration:
 Root      1 :     1.709804239830110   Change is   -0.000000061391042
 Root      2 :     2.187246677949560   Change is   -0.000000295332785
 Root      3 :     3.529526128228422   Change is   -0.000031942449402
 Root      4 :     3.537715820043545   Change is   -0.000296833319987
 Root      5 :     3.567874224032145   Change is   -0.000118074677408
 Iteration    10 Dimension    92 NMult    86 NNew      6
 CISAX will form     6 AO SS matrices at one time.
 NMat=     6 NSing=     6 JSym2X= 0.
 Root      1 has converged.
 Root      2 has converged.
 Root      3 has converged.
 Root      4 not converged, maximum delta is    0.001037747110668
 Root      5 has converged.
 Excitation Energies [eV] at current iteration:
 Root      1 :     1.709804222608019   Change is   -0.000000017222091
 Root      2 :     2.187246248163537   Change is   -0.000000429786023
 Root      3 :     3.529520433625006   Change is   -0.000005694603416
 Root      4 :     3.537662603691082   Change is   -0.000053216352463
 Root      5 :     3.567852923280587   Change is   -0.000021300751559
 Iteration    11 Dimension    94 NMult    92 NNew      2
 CISAX will form     2 AO SS matrices at one time.
 NMat=     2 NSing=     2 JSym2X= 0.
 Root      1 has converged.
 Root      2 has converged.
 Root      3 has converged.
 Root      4 has converged.
 Root      5 has converged.
 Excitation Energies [eV] at current iteration:
 Root      1 :     1.709804199604299   Change is   -0.000000023003720
 Root      2 :     2.187246166332142   Change is   -0.000000081831395
 Root      3 :     3.529519712606049   Change is   -0.000000721018957
 Root      4 :     3.537653486218695   Change is   -0.000009117472387
 Root      5 :     3.567849534255445   Change is   -0.000003389025142
 Convergence achieved on expansion vectors.
 ***********************************************************************
 Excited states from <AA,BB:AA,BB> singles matrix:
 ***********************************************************************
 
 1PDM for each excited state written to RWF  633
 Ground to excited state transition densities written to RWF  633
 Ground to excited state transition electric dipole moments (Au):
       state          X           Y           Z        Dip. S.      Osc.
         1        -0.4995      2.8387     -0.3632      8.4397      0.3535
         2        -1.3441     -0.4172     -0.1385      1.9998      0.1072
         3         0.8573      0.3381      0.0236      0.8499      0.0735
         4        -1.0720     -0.3975     -0.0653      1.3115      0.1137
         5         2.3300      0.7863      0.2085      6.0905      0.5324
 Ground to excited state transition velocity dipole moments (Au):
       state          X           Y           Z        Dip. S.      Osc.
         1         0.0298     -0.1730      0.0234      0.0314      0.3326
         2         0.1016      0.0318      0.0105      0.0115      0.0950
         3        -0.1079     -0.0409     -0.0061      0.0134      0.0686
         4         0.1341      0.0507      0.0073      0.0206      0.1056
         5        -0.2954     -0.1026     -0.0254      0.0984      0.5004
 Ground to excited state transition magnetic dipole moments (Au):
       state          X           Y           Z
         1        -0.0343     -0.2824     -1.9316
         2        -0.0133     -0.1497     -0.0421
         3         0.2768      0.8924     -0.2243
         4        -0.7075     -0.0606      0.6534
         5        -0.3317      0.1330     -1.1318
 Ground to excited state transition velocity quadrupole moments (Au):
       state          XX          YY          ZZ          XY          XZ          YZ
         1         0.6245     -0.2065      0.0127     -1.7551      0.2838      0.1312
         2         1.8984      0.0109     -0.0074      0.3218      0.0926     -0.0517
         3        -1.9849      0.0101     -0.0382     -0.4501     -0.1413      0.0215
[...]
 Alpha virt. eigenvalues --    1.31293   1.31630   1.31777   1.32414   1.32946
 Alpha virt. eigenvalues --    1.33226   1.33611   1.34741   1.35062   1.35192
 Alpha virt. eigenvalues --    1.35258   1.35642   1.36062   1.37051   1.37175
 Alpha virt. eigenvalues --    1.37967   1.38676   1.38778   1.39241   1.39636
 Alpha virt. eigenvalues --    1.40205   1.40440   1.40735   1.40988   1.41151
 Alpha virt. eigenvalues --    1.41514   1.42577   1.43012   1.43262   1.43593
 Alpha virt. eigenvalues --    1.43993   1.44092   1.44320   1.44651   1.45114
 Alpha virt. eigenvalues --    1.45271   1.45607   1.46108   1.46295   1.46856
 Alpha virt. eigenvalues --    1.47106   1.48077   1.48166   1.48514   1.48793
 Alpha virt. eigenvalues --    1.49563   1.50099   1.50791   1.50982   1.51101
 Alpha virt. eigenvalues --    1.51537   1.52068   1.52321   1.52920   1.53389
 Alpha virt. eigenvalues --    1.53906   1.54376   1.55464   1.55587   1.56002
 Alpha virt. eigenvalues --    1.56381   1.56737   1.56908   1.57585   1.57667
 Alpha virt. eigenvalues --    1.58362   1.58585   1.58841   1.59434   1.59718
 Alpha virt. eigenvalues --    1.59992   1.60145   1.60440   1.60667   1.61341
 Alpha virt. eigenvalues --    1.61568   1.61716   1.61844   1.61973   1.62348
 Alpha virt. eigenvalues --    1.62414   1.62962   1.63196   1.63299   1.63354
 Alpha virt. eigenvalues --    1.63505   1.63613   1.63956   1.64278   1.64525
 Alpha virt. eigenvalues --    1.64620   1.64744   1.64789   1.66157   1.66367
 Alpha virt. eigenvalues --    1.66537   1.66704   1.67134   1.67590   1.67876
 Alpha virt. eigenvalues --    1.68011   1.68120   1.68216   1.68889   1.69349
 Alpha virt. eigenvalues --    1.69704   1.70904   1.70980   1.71402   1.71437
 Alpha virt. eigenvalues --    1.72795   1.72951   1.73540   1.73748   1.74093
 Alpha virt. eigenvalues --    1.74329   1.74585   1.74661   1.75614   1.76044
 Alpha virt. eigenvalues --    1.76377   1.77255   1.77428   1.77839   1.78078
 Alpha virt. eigenvalues --    1.78298   1.78899   1.79525   1.79597   1.80025
 Alpha virt. eigenvalues --    1.80267   1.80305   1.80502   1.80687   1.81160
 Alpha virt. eigenvalues --    1.81507   1.81609   1.81909   1.82325   1.82376
 Alpha virt. eigenvalues --    1.82646   1.83194   1.83365   1.83654   1.83783
 Alpha virt. eigenvalues --    1.83859   1.84321   1.84677   1.84848   1.84927
 Alpha virt. eigenvalues --    1.85167   1.85333   1.85446   1.85544   1.85725
 Alpha virt. eigenvalues --    1.86153   1.86650   1.86700   1.86880   1.86923
 Alpha virt. eigenvalues --    1.87034   1.87494   1.87539   1.88014   1.88666
 Alpha virt. eigenvalues --    1.88759   1.88905   1.89146   1.89399   1.89425
 Alpha virt. eigenvalues --    1.89468   1.89562   1.89793   1.90184   1.90319
 Alpha virt. eigenvalues --    1.90711   1.90868   1.90872   1.91110   1.91416
 Alpha virt. eigenvalues --    1.91705   1.91764   1.91854   1.91909   1.92209
 Alpha virt. eigenvalues --    1.92338   1.92743   1.92915   1.93035   1.93205
 Alpha virt. eigenvalues --    1.93470   1.93639   1.94091   1.94159   1.94317
 Alpha virt. eigenvalues --    1.94441   1.94511   1.94882   1.95267   1.95315
 Alpha virt. eigenvalues --    1.95448   1.95897   1.96059   1.96233   1.96410
 Alpha virt. eigenvalues --    1.96768   1.96836   1.96959   1.97314   1.97451
 Alpha virt. eigenvalues --    1.97895   1.97935   1.98472   1.98755   1.99125
 Alpha virt. eigenvalues --    1.99428   1.99503   1.99828   1.99941   2.00353
 Alpha virt. eigenvalues --    2.00453   2.00799   2.00835   2.00999   2.01392
 Alpha virt. eigenvalues --    2.01972   2.02232   2.02415   2.02642   2.02910
 Alpha virt. eigenvalues --    2.03206   2.03382   2.03573   2.04075   2.04354
 Alpha virt. eigenvalues --    2.04850   2.04968   2.05114   2.05229   2.05296
 Alpha virt. eigenvalues --    2.06331   2.06499   2.06826   2.07004   2.07345
 Alpha virt. eigenvalues --    2.08056   2.08222   2.08615   2.09320   2.09329
 Alpha virt. eigenvalues --    2.10126   2.10184   2.10358   2.10557   2.10960
 Alpha virt. eigenvalues --    2.11576   2.11669   2.11969   2.12077   2.12152
 Alpha virt. eigenvalues --    2.12775   2.12882   2.13099   2.13381   2.13710
 Alpha virt. eigenvalues --    2.14113   2.14187   2.14407   2.14685   2.15110
 Alpha virt. eigenvalues --    2.15459   2.15566   2.15795   2.16031   2.16171
 Alpha virt. eigenvalues --    2.16619   2.16708   2.17577   2.17910   2.18315
 Alpha virt. eigenvalues --    2.18610   2.18740   2.18964   2.19398   2.19642
 Alpha virt. eigenvalues --    2.19840   2.20247   2.20419   2.21137   2.21377
 Alpha virt. eigenvalues --    2.21824   2.22243   2.22454   2.22807   2.22927
 Alpha virt. eigenvalues --    2.23265   2.23568   2.24060   2.24203   2.24474
 Alpha virt. eigenvalues --    2.24700   2.24940   2.25312   2.26158   2.26434
 Alpha virt. eigenvalues --    2.26962   2.27188   2.27296   2.27901   2.28575
 Alpha virt. eigenvalues --    2.29472   2.29759   2.30230   2.31332   2.31482
 Alpha virt. eigenvalues --    2.31826   2.31965   2.32145   2.32772   2.32881
 Alpha virt. eigenvalues --    2.33236   2.33551   2.33973   2.34197   2.34519
 Alpha virt. eigenvalues --    2.35203   2.35527   2.35738   2.36093   2.36279
 Alpha virt. eigenvalues --    2.36456   2.37022   2.37107   2.37696   2.38613
 Alpha virt. eigenvalues --    2.38685   2.38747   2.39046   2.39661   2.39864
 Alpha virt. eigenvalues --    2.40348   2.40494   2.40902   2.41124   2.41408
 Alpha virt. eigenvalues --    2.41549   2.42209   2.42451   2.43066   2.43175
 Alpha virt. eigenvalues --    2.43659   2.44013   2.44149   2.44318   2.44919
 Alpha virt. eigenvalues --    2.45353   2.45837   2.46835   2.46949   2.47227
 Alpha virt. eigenvalues --    2.47457   2.48202   2.48328   2.48788   2.49093
 Alpha virt. eigenvalues --    2.49192   2.50237   2.50544   2.50701   2.51450
 Alpha virt. eigenvalues --    2.51893   2.52034   2.52586   2.52691   2.53174
 Alpha virt. eigenvalues --    2.53318   2.53883   2.53991   2.54386   2.54506
 Alpha virt. eigenvalues --    2.54820   2.55045   2.55053   2.55505   2.55994
 Alpha virt. eigenvalues --    2.56028   2.56048   2.56578   2.57819   2.58349
 Alpha virt. eigenvalues --    2.59407   2.59934   2.60274   2.60535   2.60578
 Alpha virt. eigenvalues --    2.61663   2.61773   2.62044   2.62603   2.63091
 Alpha virt. eigenvalues --    2.63609   2.64437   2.64820   2.64882   2.65253
 Alpha virt. eigenvalues --    2.65877   2.66689   2.67004   2.67395   2.67413
 Alpha virt. eigenvalues --    2.67617   2.68343   2.68740   2.68864   2.69077
 Alpha virt. eigenvalues --    2.69448   2.69998   2.70710   2.70901   2.71587
 Alpha virt. eigenvalues --    2.71847   2.72390   2.72883   2.73112   2.73282
 Alpha virt. eigenvalues --    2.73486   2.74312   2.74603   2.75358   2.75485
 Alpha virt. eigenvalues --    2.76106   2.76716   2.76731   2.76873   2.77133
 Alpha virt. eigenvalues --    2.77620   2.77684   2.78472   2.78692   2.79474
 Alpha virt. eigenvalues --    2.79720   2.80181   2.80190   2.80771   2.80958
 Alpha virt. eigenvalues --    2.81708   2.81725   2.82110   2.82253   2.82823
 Alpha virt. eigenvalues --    2.83309   2.83334   2.83920   2.84178   2.84407
 Alpha virt. eigenvalues --    2.84495   2.86053   2.86444   2.87074   2.87540
 Alpha virt. eigenvalues --    2.88030   2.88539   2.88903   2.89211   2.90020
 Alpha virt. eigenvalues --    2.90509   2.91318   2.92106   2.92785   2.93399
 Alpha virt. eigenvalues --    2.94371   2.94603   2.94848   2.95632   2.95715
 Alpha virt. eigenvalues --    2.96359   2.96927   2.97504   2.98336   2.98405
 Alpha virt. eigenvalues --    2.98502   2.98943   2.99077   2.99688   2.99761
 Alpha virt. eigenvalues --    3.00011   3.00473   3.00895   3.01356   3.01491
 Alpha virt. eigenvalues --    3.01585   3.02020   3.02214   3.02572   3.03013
 Alpha virt. eigenvalues --    3.03203   3.03485   3.03553   3.04029   3.04472
 Alpha virt. eigenvalues --    3.05031   3.05136   3.05386   3.05510   3.05907
 Alpha virt. eigenvalues --    3.06136   3.06496   3.06633   3.06766   3.06943
 Alpha virt. eigenvalues --    3.07136   3.07246   3.07529   3.08004   3.08509
 Alpha virt. eigenvalues --    3.08562   3.08931   3.09407   3.09850   3.10201
 Alpha virt. eigenvalues --    3.10521   3.10792   3.11479   3.11687   3.12290
 Alpha virt. eigenvalues --    3.12348   3.12883   3.13616   3.13825   3.14177
 Alpha virt. eigenvalues --    3.14599   3.14842   3.15063   3.15691   3.15868
 Alpha virt. eigenvalues --    3.16123   3.16233   3.16485   3.16821   3.17534
 Alpha virt. eigenvalues --    3.18157   3.18339   3.19142   3.19254   3.20236
 Alpha virt. eigenvalues --    3.20668   3.20802   3.21918   3.25014   3.25385
 Alpha virt. eigenvalues --    3.25949   3.26928   3.28871   3.29572   3.30837
 Alpha virt. eigenvalues --    3.32320   3.34426   3.40202   3.45312   3.47952
 Alpha virt. eigenvalues --    3.49359   3.51483   3.53741   3.58833   3.60030
 Alpha virt. eigenvalues --    3.63520   3.65385   3.67898   3.68206   3.69641
 Alpha virt. eigenvalues --    3.71786   3.76267
          Condensed to atoms (all electrons):
 Mulliken charges:
               1
     1  Mg   0.988632
     2  C   -0.042790
     3  C   -0.108847
     4  C   -0.087059
     5  C   -0.087895
     6  N   -0.284107
     7  C   -0.030612
     8  C   -0.076697
     9  C   -0.108485
    10  C    0.082848
    11  C    0.008321
    12  C    0.070302
    13  C    0.002877
    14  C    0.218265
    15  O   -0.278934
    16  O   -0.384290
    17  N   -0.513020
    18  C    0.162014
    19  C   -0.151396
    20  C   -0.085526
    21  C    0.163307
    22  C    0.075108
    23  C    0.102146
    24  O   -0.252806
    25  C   -0.027995
    26  N   -0.348023
    27  C    0.055299
    28  C   -0.112452
    29  C   -0.056718
    30  C    0.052950
    31  C    0.050652
    32  C   -0.042766
    33  C   -0.053808
    34  N   -0.379291
    35  C    0.116771
    36  C   -0.197131
    37  C    0.042196
    38  C    0.087808
    39  C    0.081747
    40  C    0.116582
    41  O   -0.218398
    42  C   -0.018464
    43  C    0.229561
    44  O   -0.277954
    45  O   -0.336598
    46  C    0.146564
    47  C    0.252911
    48  C   -0.107835
    49  C   -0.269324
    50  C    0.009460
    51  C    0.010517
    52  C   -0.032937
    53  C    0.007421
    54  C   -0.174699
    55  C    0.011163
    56  C    0.000162
    57  C   -0.062909
    58  C    0.035420
    59  C   -0.175786
    60  C   -0.003411
    61  C    0.022523
    62  C   -0.052893
    63  C    0.006256
    64  C   -0.214865
    65  C    0.008448
    66  C   -0.028091
    67  H   -0.013580
    68  H    0.016560
    69  H    0.000165
    70  H    0.035267
    71  H    0.034800
    72  H    0.040229
    73  H    0.045598
    74  H    0.038554
    75  H    0.043642
    76  H    0.040040
    77  H    0.059026
    78  H    0.058776
    79  H    0.040237
    80  H    0.032579
    81  H    0.061538
    82  H    0.059454
    83  H    0.054266
    84  H    0.052306
    85  H    0.045044
    86  H    0.029981
    87  H    0.041555
    88  H    0.031758
    89  H    0.053506
    90  H    0.040233
    91  H    0.028142
    92  H    0.045673
    93  H    0.040815
    94  H    0.028947
    95  H    0.025285
    96  H    0.058470
    97  H    0.063162
    98  H    0.048041
    99  H    0.057749
   100  H    0.028514
   101  H    0.050930
   102  H    0.075894
   103  H    0.054657
   104  H    0.017876
   105  H    0.063797
   106  H    0.025346
   107  H    0.062233
   108  H    0.025720
   109  H    0.028671
   110  H    0.033232
   111  H    0.035209
   112  H   -0.000895
   113  H    0.021590
   114  H    0.013388
   115  H    0.015451
   116  H    0.028081
   117  H    0.031783
   118  H    0.016924
   119  H    0.018346
   120  H    0.023568
   121  H    0.022572
   122  H    0.029908
   123  H    0.027829
   124  H    0.023190
   125  H    0.032318
   126  H    0.023279
   127  H    0.028240
   128  H    0.003987
   129  H    0.005506
   130  H    0.022055
   131  H    0.018941
   132  H    0.003582
   133  H    0.022544
   134  H    0.028946
   135  H    0.036436
   136  H    0.033322
   137  H    0.030744
   138  H    0.011008
   139  H    0.032141
   140  H    0.021894
 Sum of Mulliken charges =  -0.00000
 Mulliken charges with hydrogens summed into heavy atoms:
               1
     1  Mg   0.988632
     2  C   -0.042790
     3  C   -0.122427
     4  C   -0.070499
     5  C   -0.087729
     6  N   -0.284107
     7  C   -0.030612
     8  C   -0.041429
     9  C   -0.073685
    10  C    0.082848
    11  C    0.132702
    12  C    0.153985
    13  C    0.120679
    14  C    0.218265
    15  O   -0.278934
    16  O   -0.384290
    17  N   -0.513020
    18  C    0.162014
    19  C   -0.151396
    20  C   -0.085526
    21  C    0.163307
    22  C    0.209462
    23  C    0.102146
    24  O   -0.252806
    25  C    0.138030
    26  N   -0.348023
    27  C    0.055299
    28  C   -0.067408
    29  C   -0.026737
    30  C    0.052950
    31  C    0.177471
    32  C    0.025610
    33  C    0.061627
    34  N   -0.379291
    35  C    0.116771
    36  C   -0.197131
    37  C    0.042196
    38  C    0.087808
    39  C    0.228664
    40  C    0.116582
    41  O   -0.218398
    42  C    0.029577
    43  C    0.229561
    44  O   -0.277954
    45  O   -0.336598
    46  C    0.283757
    47  C    0.383462
    48  C   -0.089959
    49  C   -0.269324
    50  C    0.160836
    51  C    0.064908
    52  C    0.035504
    53  C    0.028116
    54  C   -0.161311
    55  C    0.086478
    56  C    0.035432
    57  C   -0.016769
    58  C    0.093157
    59  C   -0.152596
    60  C    0.080427
    61  C    0.032017
    62  C   -0.011897
    63  C    0.032382
    64  C   -0.185919
    65  C    0.108950
    66  C    0.036952
 Electronic spatial extent (au):  <R**2>=         114135.5325
 Charge=             -0.0000 electrons
 Dipole moment (field-independent basis, Debye):
    X=             -3.8187    Y=              4.1477    Z=              0.5921  Tot=              5.6689
 Quadrupole moment (field-independent basis, Debye-Ang):
   XX=           -371.1734   YY=           -427.8263   ZZ=           -412.4245
   XY=             -3.2996   XZ=             22.5025   YZ=             -0.1911
 Traceless Quadrupole moment (field-independent basis, Debye-Ang):
   XX=             32.6347   YY=            -24.0183   ZZ=             -8.6165
   XY=             -3.2996   XZ=             22.5025   YZ=             -0.1911
 Octapole moment (field-independent basis, Debye-Ang**2):
  XXX=            145.9038  YYY=            133.2826  ZZZ=            -28.6359  XYY=           -234.3573
  XXY=           -239.4515  XXZ=            133.7506  XZZ=             -6.7363  YZZ=             16.9981
  YYZ=            -28.4149  XYZ=            -37.0770
 Hexadecapole moment (field-independent basis, Debye-Ang**3):
 XXXX=        -124915.4010 YYYY=         -22035.1124 ZZZZ=          -6071.4671 XXXY=          -1951.3569
 XXXZ=            723.6242 YYYX=            170.2547 YYYZ=             20.2493 ZZZX=             19.5210
 ZZZY=            133.4393 XXYY=         -26476.6370 XXZZ=         -22868.2376 YYZZ=          -4499.4658
 XXYZ=             51.4176 YYXZ=            336.3070 ZZXY=             81.6875
 N-N= 9.671720955233D+03 E-N=-2.633536040970D+04  KE= 2.975942990575D+03
 Leave Link  601 at Wed May  4 09:53:08 2022, MaxMem= 10066329600 cpu:              11.5 elap:               0.6
 (Enter /sw/apps/gaussian-16.0/g16/l9999.exe)
 1\1\GINC-BP1-COMPUTE062\SP\RwB97XD TD-FC\def2SVP\C55H74Mg1N4O6\OF15641
 \04-May-2022\0\\#p wB97XD/Def2SVP td=(nstates=5)\\step_1551_chromophor
 e_13 TDDFT with wB97XD functional\\0,1\Mg,0,46.487,25.012,29.361\C,0,4
 7.032,27.474,31.788\C,0,45.65,22.894,31.797\C,0,46.315,22.658,27.025\C
 ,0,47.391,27.368,26.903\N,0,46.525,25.19,31.619\C,0,46.512,26.296,32.3
 65\C,0,45.974,26.163,33.804\C,0,45.789,24.577,33.839\C,0,45.922,24.23,
 32.304\C,0,46.745,23.792,34.801\C,0,44.78,27.013,34.179\C,0,44.949,28.
 05,35.264\C,0,44.009,28.033,36.455\O,0,42.903,28.614,36.504\O,0,44.57,
 27.162,37.4\N,0,45.949,23.131,29.419\C,0,45.699,22.381,30.499\C,0,45.3
 71,21.044,30.145\C,0,45.598,21.008,28.767\C,0,45.959,22.294,28.328\C,0
 ,44.916,20.064,31.168\C,0,45.531,19.724,27.829\O,0,45.732,19.604,26.59
 6\C,0,45.002,18.421,28.372\N,0,46.958,24.918,27.257\C,0,46.844,23.812,
 26.524\C,0,46.958,24.077,24.997\C,0,47.05,25.669,24.987\C,0,47.1,26.05
 2,26.488\C,0,48.152,23.34,24.445\C,0,45.839,26.289,24.274\C,0,44.59,26
 .824,25.126\N,0,47.223,26.949,29.32\C,0,47.484,27.768,28.268\C,0,48.02
 4,29.054,28.727\C,0,47.841,28.995,30.085\C,0,47.341,27.675,30.389\C,0,
 48.422,30.197,27.903\C,0,47.986,29.642,31.331\O,0,48.543,30.704,31.619
 \C,0,47.355,28.723,32.498\C,0,48.39,28.466,33.517\O,0,49.437,27.819,33
 .289\O,0,48.254,29.224,34.657\C,0,49.194,28.905,35.683\C,0,43.73,27.06
 9,38.631\C,0,44.172,25.826,39.389\C,0,43.817,25.62,40.672\C,0,42.932,2
 6.562,41.59\C,0,44.285,24.369,41.498\C,0,43.531,23.022,41.032\C,0,42.7
 22,22.316,42.151\C,0,41.307,21.888,41.75\C,0,41.228,21.064,40.503\C,0,
 40.213,23.021,41.862\C,0,39.514,23.076,43.33\C,0,39.993,24.258,44.235\
 C,0,40.005,23.818,45.76\C,0,38.797,24.455,46.521\C,0,41.314,24.132,46.
 439\C,0,42.043,22.973,47.151\C,0,43.473,22.611,46.726\C,0,44.656,23.58
 7,47.14\C,0,45.6,24.078,46.01\C,0,45.443,22.867,48.292\H,0,45.303,22.1
 76,32.543\H,0,46.164,21.884,26.269\H,0,47.661,28.096,26.136\H,0,46.783
 ,26.52,34.442\H,0,44.873,24.318,34.369\H,0,46.293,22.953,35.328\H,0,47
 .178,24.553,35.45\H,0,47.537,23.297,34.239\H,0,43.938,26.355,34.391\H,
 0,44.551,27.534,33.25\H,0,44.624,29.024,34.901\H,0,45.969,28.061,35.64
 8\H,0,45.617,20.184,31.994\H,0,45.058,19.013,30.914\H,0,43.951,20.288,
 31.621\H,0,44.079,18.459,28.951\H,0,45.826,18.023,28.964\H,0,44.814,17
 .674,27.602\H,0,46.02,23.719,24.573\H,0,47.92,26.089,24.481\H,0,48.932
 ,24.005,24.073\H,0,47.707,22.846,23.581\H,0,48.462,22.552,25.131\H,0,4
 5.428,25.653,23.49\H,0,46.383,27.15,23.886\H,0,44.722,26.835,26.208\H,
 0,43.708,26.284,24.781\H,0,44.379,27.887,25.001\H,0,48.48,30.005,26.83
 2\H,0,49.428,30.488,28.202\H,0,47.758,31.039,28.097\H,0,46.456,29.028,
 33.033\H,0,50.243,28.862,35.388\H,0,49.009,27.915,36.098\H,0,49.171,29
 .619,36.506\H,0,42.641,27.075,38.59\H,0,44.015,27.882,39.298\H,0,44.79
 7,25.028,38.989\H,0,42.082,25.969,41.927\H,0,42.548,27.428,41.051\H,0,
 43.668,26.926,42.306\H,0,44.225,24.626,42.556\H,0,45.341,24.203,41.284
 \H,0,44.324,22.348,40.709\H,0,42.898,23.333,40.201\H,0,42.609,23.027,4
 2.97\H,0,43.273,21.522,42.654\H,0,41.182,21.091,42.483\H,0,42.225,20.9
 79,40.07\H,0,40.597,21.525,39.743\H,0,40.933,20.046,40.76\H,0,39.41,22
 .808,41.157\H,0,40.559,24.036,41.665\H,0,39.637,22.098,43.797\H,0,38.4
 8,23.246,43.033\H,0,39.212,25.009,44.114\H,0,41.019,24.475,43.938\H,0,
 39.908,22.738,45.861\H,0,38.206,23.59,46.823\H,0,38.169,25.127,45.937\
 H,0,39.046,25.062,47.391\H,0,41.171,24.802,47.286\H,0,42.028,24.692,45
 .834\H,0,41.517,22.028,47.016\H,0,42.019,23.284,48.196\H,0,43.453,22.6
 22,45.636\H,0,43.713,21.612,47.09\H,0,44.15,24.387,47.68\H,0,45.307,23
 .677,45.04\H,0,46.666,23.903,46.161\H,0,45.516,25.165,46.016\H,0,46.51
 3,22.847,48.085\H,0,45.208,21.844,48.587\H,0,45.432,23.457,49.208\\Ver
 sion=ES64L-G16RevA.03\State=1-A\HF=-3007.8035356\RMSD=9.050e-09\PG=C01
  [X(C55H74Mg1N4O6)]\\@


 IT IS A PROFOUNDLY ERRONEOUS TRUISM ... THAT WE SHOULD CULTIVATE
 THE HABIT OF THINKING OF WHAT WE ARE DOING.
 THE PRECISE OPPOSITE IS THE CASE.
 CIVILIZATION ADVANCES BY EXTENDING THE NUMBER OF IMPORTANT OPERATIONS
 WHICH WE CAN PERFORM WITHOUT THINKING ABOUT THEM.

                                    -- ALFRED NORTH WHITEHEAD
 Job cpu time:       0 days 12 hours  9 minutes 37.1 seconds.
 Elapsed time:       0 days  0 hours 30 minutes 56.5 seconds.
 File lengths (MBytes):  RWF=   8929 Int=      0 D2E=      0 Chk=    390 Scr=      1
 Normal termination of Gaussian 16 at Wed May  4 09:53:09 2022.
