 Entering Gaussian System, Link 0=g16
 Initial command:
 /sw/apps/gaussian-16.0/g16/l1.exe "/tmp/Gau-272890.inp" -scrdir="/tmp/"
 Entering Link 1 = /sw/apps/gaussian-16.0/g16/l1.exe PID=    272891.
  
 Copyright (c) 1988,1990,1992,1993,1995,1998,2003,2009,2016,
            Gaussian, Inc.  All Rights Reserved.
  
 This is part of the Gaussian(R) 16 program.  It is based on
 the Gaussian(R) 09 system (copyright 2009, Gaussian, Inc.),
 the Gaussian(R) 03 system (copyright 2003, Gaussian, Inc.),
 the Gaussian(R) 98 system (copyright 1998, Gaussian, Inc.),
 the Gaussian(R) 94 system (copyright 1995, Gaussian, Inc.),
 the Gaussian 92(TM) system (copyright 1992, Gaussian, Inc.),
 the Gaussian 90(TM) system (copyright 1990, Gaussian, Inc.),
 the Gaussian 88(TM) system (copyright 1988, Gaussian, Inc.),
 the Gaussian 86(TM) system (copyright 1986, Carnegie Mellon
 University), and the Gaussian 82(TM) system (copyright 1983,
 Carnegie Mellon University). Gaussian is a federally registered
 trademark of Gaussian, Inc.
  
 This software contains proprietary and confidential information,
 including trade secrets, belonging to Gaussian, Inc.
  
 This software is provided under written license and may be
 used, copied, transmitted, or stored only in accord with that
 written license.
  
 The following legend is applicable only to US Government
 contracts under FAR:
  
                    RESTRICTED RIGHTS LEGEND
  
 Use, reproduction and disclosure by the US Government is
 subject to restrictions as set forth in subparagraphs (a)
 and (c) of the Commercial Computer Software - Restricted
 Rights clause in FAR 52.227-19.
  
 Gaussian, Inc.
 340 Quinnipiac St., Bldg. 40, Wallingford CT 06492
  
  
 ---------------------------------------------------------------
 Warning -- This program may not be used in any manner that
 competes with the business of Gaussian, Inc. or will provide
 assistance to any competitor of Gaussian, Inc.  The licensee
 of this program is prohibited from giving any competitor of
 Gaussian, Inc. access to this program.  By using this program,
 the user acknowledges that Gaussian, Inc. is engaged in the
 business of creating and licensing software in the field of
 computational chemistry and represents and warrants to the
 licensee that it is not a competitor of Gaussian, Inc. and that
 it will not use this program in any manner prohibited above.
 ---------------------------------------------------------------
  

 Cite this work as:
 Gaussian 16, Revision A.03,
 M. J. Frisch, G. W. Trucks, H. B. Schlegel, G. E. Scuseria, 
 M. A. Robb, J. R. Cheeseman, G. Scalmani, V. Barone, 
 G. A. Petersson, H. Nakatsuji, X. Li, M. Caricato, A. V. Marenich, 
 J. Bloino, B. G. Janesko, R. Gomperts, B. Mennucci, H. P. Hratchian, 
 J. V. Ortiz, A. F. Izmaylov, J. L. Sonnenberg, D. Williams-Young, 
 F. Ding, F. Lipparini, F. Egidi, J. Goings, B. Peng, A. Petrone, 
 T. Henderson, D. Ranasinghe, V. G. Zakrzewski, J. Gao, N. Rega, 
 G. Zheng, W. Liang, M. Hada, M. Ehara, K. Toyota, R. Fukuda, 
 J. Hasegawa, M. Ishida, T. Nakajima, Y. Honda, O. Kitao, H. Nakai, 
 T. Vreven, K. Throssell, J. A. Montgomery, Jr., J. E. Peralta, 
 F. Ogliaro, M. J. Bearpark, J. J. Heyd, E. N. Brothers, K. N. Kudin, 
 V. N. Staroverov, T. A. Keith, R. Kobayashi, J. Normand, 
 K. Raghavachari, A. P. Rendell, J. C. Burant, S. S. Iyengar, 
 J. Tomasi, M. Cossi, J. M. Millam, M. Klene, C. Adamo, R. Cammi, 
 J. W. Ochterski, R. L. Martin, K. Morokuma, O. Farkas, 
 J. B. Foresman, and D. J. Fox, Gaussian, Inc., Wallingford CT, 2016.
 
 ******************************************
 Gaussian 16:  ES64L-G16RevA.03 25-Dec-2016
                 5-May-2022 
 ******************************************
 %nproc=24
 Will use up to   24 processors via shared memory.
 %mem=75GB
 ---------------------------------
 #p PBE1PBE/Def2SVP td=(nstates=5)
 ---------------------------------
 1/38=1,172=1/1;
 2/12=2,17=6,18=5,40=1/2;
 3/5=43,7=101,11=9,25=1,30=1,74=-13/1,2,3,8;
 4//1;
 5/5=2,38=5/2;
 8/6=1,10=1,108=5/1;
 9/41=5,42=1,70=2/14;
 6/7=2,8=2,9=2,10=2/1;
 99/5=1,9=1/99;
 Leave Link    1 at Thu May  5 12:37:50 2022, MaxMem= 10066329600 cpu:               0.6 elap:               0.0
 (Enter /sw/apps/gaussian-16.0/g16/l101.exe)
 -----------------------------------------------------
 step_901_chromophore_13 TDDFT with PBE1PBE functional
 -----------------------------------------------------
 Symbolic Z-matrix:
 Charge =  0 Multiplicity = 1
 Mg                    46.437    24.635    28.168 
 C                     47.199    26.817    31.009 
 C                     45.741    22.171    30.48 
 C                     46.57     22.43     25.693 
 C                     47.434    27.201    26.142 
 N                     46.636    24.496    30.466 
 C                     46.767    25.542    31.389 
 C                     46.646    24.996    32.858 
 C                     46.261    23.52     32.602 
 C                     46.111    23.345    31.111 
 C                     47.109    22.484    33.273 
 C                     45.568    25.791    33.662 
 C                     45.864    26.579    34.905 
 C                     44.858    26.497    36.035 
 O                     43.679    26.151    35.984 
 O                     45.466    26.726    37.267 
 N                     46.096    22.619    28.09 
 C                     45.779    21.772    29.154 
 C                     45.582    20.347    28.655 
 C                     45.764    20.445    27.181 
 C                     46.196    21.863    26.902 
 C                     45.192    19.127    29.601 
 C                     45.747    19.426    26.205 
 O                     46.124    19.517    25.071 
 C                     45.312    18.071    26.706 
 N                     47.128    24.769    26.251 
 C                     46.965    23.715    25.336 
 C                     47.338    24.257    23.941 
 C                     47.174    25.759    24.074 
 C                     47.223    25.975    25.601 
 C                     48.788    23.799    23.644 
 C                     45.92     26.351    23.402 
 C                     44.599    26.259    24.276 
 N                     47.033    26.645    28.391 
 C                     47.43     27.536    27.418 
 C                     47.67     28.809    28.035 
 C                     47.637    28.555    29.477 
 C                     47.279    27.251    29.61 
 C                     48.038    30.087    27.362 
 C                     47.965    29.153    30.713 
 O                     48.353    30.249    31.022 
 C                     47.67     28.034    31.851 
 C                     48.922    27.619    32.55 
 O                     49.971    27.363    31.975 
 O                     48.752    27.681    33.925 
 C                     49.893    27.286    34.725 
 C                     44.614    26.949    38.388 
 C                     44.666    25.692    39.232 
 C                     44.048    25.364    40.377 
 C                     43.169    26.286    41.18 
 C                     43.981    23.912    40.751 
 C                     42.603    23.245    40.817 
 C                     42.156    22.953    42.239 
 C                     40.627    22.695    42.269 
 C                     39.967    21.88     41.071 
 C                     39.829    24.07     42.473 
 C                     38.766    23.872    43.638 
 C                     39.077    24.632    44.974 
 C                     40.105    23.775    45.84 
 C                     39.326    23.343    47.105 
 C                     41.326    24.667    46.124 
 C                     42.327    23.942    46.998 
 C                     43.802    24.146    46.611 
 C                     44.399    22.961    45.799 
 C                     45.445    22.161    46.807 
 C                     45.201    23.548    44.593 
 H                     45.36     21.43     31.186 
 H                     46.669    21.725    24.865 
 H                     47.467    27.983    25.38 
 H                     47.655    25.073    33.263 
 H                     45.291    23.434    33.091 
 H                     47.683    21.913    32.543 
 H                     46.534    21.797    33.895 
 H                     47.946    22.916    33.822 
 H                     44.652    25.217    33.796 
 H                     45.28     26.59     32.98 
 H                     45.952    27.643    34.684 
 H                     46.82     26.235    35.299 
 H                     46.078    18.509    29.745 
 H                     44.421    18.551    29.09 
 H                     44.781    19.49     30.543 
 H                     44.244    17.958    26.893 
 H                     45.967    17.721    27.504 
 H                     45.422    17.434    25.829 
 H                     46.694    23.889    23.143 
 H                     47.96     26.337    23.589 
 H                     49.464    24.652    23.584 
 H                     48.665    23.441    22.622 
 H                     49.235    23.008    24.247 
 H                     45.597    25.959    22.437 
 H                     46.115    27.415    23.267 
 H                     44.603    27.172    24.872 
 H                     44.702    25.385    24.919 
 H                     43.682    26.208    23.688 
 H                     47.72     30.141    26.32 
 H                     49.128    30.091    27.37 
 H                     47.745    30.978    27.916 
 H                     46.951    28.449    32.558 
 H                     50.698    28.005    34.876 
 H                     50.36     26.411    34.272 
 H                     49.586    26.897    35.696 
 H                     43.593    27.167    38.076 
 H                     45.012    27.785    38.963 
 H                     45.157    24.901    38.665 
 H                     42.926    27.072    40.466 
 H                     43.81     26.524    42.03 
 H                     42.269    25.717    41.412 
 H                     44.493    23.904    41.714 
 H                     44.584    23.346    40.042 
 H                     42.709    22.277    40.327 
 H                     41.807    23.837    40.365 
 H                     42.57     23.744    42.864 
 H                     42.682    22.043    42.529 
 H                     40.567    22.043    43.141 
 H                     39.848    20.851    41.411 
 H                     40.418    21.977    40.083 
 H                     38.941    22.201    40.89 
 H                     39.339    24.419    41.564 
 H                     40.437    24.919    42.785 
 H                     38.646    22.833    43.948 
 H                     37.751    24.134    43.339 
 H                     38.113    24.847    45.437 
 H                     39.528    25.592    44.723 
 H                     40.418    22.941    45.213 
 H                     38.405    22.827    46.832 
 H                     39.08     24.249    47.659 
 H                     39.856    22.646    47.755 
 H                     41.003    25.619    46.546 
 H                     41.75     24.973    45.168 
 H                     42.226    22.857    47.025 
 H                     42.091    24.336    47.986 
 H                     44.38     24.233    47.531 
 H                     43.976    25.052    46.03 
 H                     43.635    22.26     45.463 
 H                     46.101    21.46     46.291 
 H                     44.898    21.614    47.575 
 H                     46.043    22.9      47.34 
 H                     46.121    24.086    44.821 
 H                     44.564    24.242    44.046 
 H                     45.394    22.681    43.96 
 
 ITRead=  0  0  0  0  0  0  0  0  0  0  0  0  0  0  0  0  0  0  0  0
 ITRead=  0  0  0  0  0  0  0  0  0  0  0  0  0  0  0  0  0  0  0  0
 ITRead=  0  0  0  0  0  0  0  0  0  0  0  0  0  0  0  0  0  0  0  0
 ITRead=  0  0  0  0  0  0  0  0  0  0  0  0  0  0  0  0  0  0  0  0
 ITRead=  0  0  0  0  0  0  0  0  0  0  0  0  0  0  0  0  0  0  0  0
 ITRead=  0  0  0  0  0  0  0  0  0  0  0  0  0  0  0  0  0  0  0  0
 ITRead=  0  0  0  0  0  0  0  0  0  0  0  0  0  0  0  0  0  0  0  0
 MicOpt= -1 -1 -1 -1 -1 -1 -1 -1 -1 -1 -1 -1 -1 -1 -1 -1 -1 -1 -1 -1
 MicOpt= -1 -1 -1 -1 -1 -1 -1 -1 -1 -1 -1 -1 -1 -1 -1 -1 -1 -1 -1 -1
 MicOpt= -1 -1 -1 -1 -1 -1 -1 -1 -1 -1 -1 -1 -1 -1 -1 -1 -1 -1 -1 -1
 MicOpt= -1 -1 -1 -1 -1 -1 -1 -1 -1 -1 -1 -1 -1 -1 -1 -1 -1 -1 -1 -1
 MicOpt= -1 -1 -1 -1 -1 -1 -1 -1 -1 -1 -1 -1 -1 -1 -1 -1 -1 -1 -1 -1
 MicOpt= -1 -1 -1 -1 -1 -1 -1 -1 -1 -1 -1 -1 -1 -1 -1 -1 -1 -1 -1 -1
 MicOpt= -1 -1 -1 -1 -1 -1 -1 -1 -1 -1 -1 -1 -1 -1 -1 -1 -1 -1 -1 -1
 NAtoms=    140 NQM=      140 NQMF=       0 NMMI=      0 NMMIF=      0
                NMic=       0 NMicF=      0.
                    Isotopes and Nuclear Properties:
 (Nuclear quadrupole moments (NQMom) in fm**2, nuclear magnetic moments (NMagM)
  in nuclear magnetons)

  Atom         1           2           3           4           5           6           7           8           9          10
 IAtWgt=          24          12          12          12          12          14          12          12          12          12
 AtmWgt=  23.9850450  12.0000000  12.0000000  12.0000000  12.0000000  14.0030740  12.0000000  12.0000000  12.0000000  12.0000000
 NucSpn=           0           0           0           0           0           2           0           0           0           0
 AtZEff=  -0.0000000  -0.0000000  -0.0000000  -0.0000000  -0.0000000  -0.0000000  -0.0000000  -0.0000000  -0.0000000  -0.0000000
 NQMom=    0.0000000   0.0000000   0.0000000   0.0000000   0.0000000   2.0440000   0.0000000   0.0000000   0.0000000   0.0000000
 NMagM=    0.0000000   0.0000000   0.0000000   0.0000000   0.0000000   0.4037610   0.0000000   0.0000000   0.0000000   0.0000000
 AtZNuc=  12.0000000   6.0000000   6.0000000   6.0000000   6.0000000   7.0000000   6.0000000   6.0000000   6.0000000   6.0000000

  Atom        11          12          13          14          15          16          17          18          19          20
 IAtWgt=          12          12          12          12          16          16          14          12          12          12
 AtmWgt=  12.0000000  12.0000000  12.0000000  12.0000000  15.9949146  15.9949146  14.0030740  12.0000000  12.0000000  12.0000000
 NucSpn=           0           0           0           0           0           0           2           0           0           0
 AtZEff=  -0.0000000  -0.0000000  -0.0000000  -0.0000000  -0.0000000  -0.0000000  -0.0000000  -0.0000000  -0.0000000  -0.0000000
 NQMom=    0.0000000   0.0000000   0.0000000   0.0000000   0.0000000   0.0000000   2.0440000   0.0000000   0.0000000   0.0000000
 NMagM=    0.0000000   0.0000000   0.0000000   0.0000000   0.0000000   0.0000000   0.4037610   0.0000000   0.0000000   0.0000000
 AtZNuc=   6.0000000   6.0000000   6.0000000   6.0000000   8.0000000   8.0000000   7.0000000   6.0000000   6.0000000   6.0000000

  Atom        21          22          23          24          25          26          27          28          29          30
 IAtWgt=          12          12          12          16          12          14          12          12          12          12
 AtmWgt=  12.0000000  12.0000000  12.0000000  15.9949146  12.0000000  14.0030740  12.0000000  12.0000000  12.0000000  12.0000000
 NucSpn=           0           0           0           0           0           2           0           0           0           0
 AtZEff=  -0.0000000  -0.0000000  -0.0000000  -0.0000000  -0.0000000  -0.0000000  -0.0000000  -0.0000000  -0.0000000  -0.0000000
 NQMom=    0.0000000   0.0000000   0.0000000   0.0000000   0.0000000   2.0440000   0.0000000   0.0000000   0.0000000   0.0000000
 NMagM=    0.0000000   0.0000000   0.0000000   0.0000000   0.0000000   0.4037610   0.0000000   0.0000000   0.0000000   0.0000000
 AtZNuc=   6.0000000   6.0000000   6.0000000   8.0000000   6.0000000   7.0000000   6.0000000   6.0000000   6.0000000   6.0000000

  Atom        31          32          33          34          35          36          37          38          39          40
 IAtWgt=          12          12          12          14          12          12          12          12          12          12
 AtmWgt=  12.0000000  12.0000000  12.0000000  14.0030740  12.0000000  12.0000000  12.0000000  12.0000000  12.0000000  12.0000000
 NucSpn=           0           0           0           2           0           0           0           0           0           0
 AtZEff=  -0.0000000  -0.0000000  -0.0000000  -0.0000000  -0.0000000  -0.0000000  -0.0000000  -0.0000000  -0.0000000  -0.0000000
 NQMom=    0.0000000   0.0000000   0.0000000   2.0440000   0.0000000   0.0000000   0.0000000   0.0000000   0.0000000   0.0000000
 NMagM=    0.0000000   0.0000000   0.0000000   0.4037610   0.0000000   0.0000000   0.0000000   0.0000000   0.0000000   0.0000000
 AtZNuc=   6.0000000   6.0000000   6.0000000   7.0000000   6.0000000   6.0000000   6.0000000   6.0000000   6.0000000   6.0000000

  Atom        41          42          43          44          45          46          47          48          49          50
 IAtWgt=          16          12          12          16          16          12          12          12          12          12
 AtmWgt=  15.9949146  12.0000000  12.0000000  15.9949146  15.9949146  12.0000000  12.0000000  12.0000000  12.0000000  12.0000000
 NucSpn=           0           0           0           0           0           0           0           0           0           0
 AtZEff=  -0.0000000  -0.0000000  -0.0000000  -0.0000000  -0.0000000  -0.0000000  -0.0000000  -0.0000000  -0.0000000  -0.0000000
 NQMom=    0.0000000   0.0000000   0.0000000   0.0000000   0.0000000   0.0000000   0.0000000   0.0000000   0.0000000   0.0000000
 NMagM=    0.0000000   0.0000000   0.0000000   0.0000000   0.0000000   0.0000000   0.0000000   0.0000000   0.0000000   0.0000000
 AtZNuc=   8.0000000   6.0000000   6.0000000   8.0000000   8.0000000   6.0000000   6.0000000   6.0000000   6.0000000   6.0000000

  Atom        51          52          53          54          55          56          57          58          59          60
 IAtWgt=          12          12          12          12          12          12          12          12          12          12
 AtmWgt=  12.0000000  12.0000000  12.0000000  12.0000000  12.0000000  12.0000000  12.0000000  12.0000000  12.0000000  12.0000000
 NucSpn=           0           0           0           0           0           0           0           0           0           0
 AtZEff=  -0.0000000  -0.0000000  -0.0000000  -0.0000000  -0.0000000  -0.0000000  -0.0000000  -0.0000000  -0.0000000  -0.0000000
 NQMom=    0.0000000   0.0000000   0.0000000   0.0000000   0.0000000   0.0000000   0.0000000   0.0000000   0.0000000   0.0000000
 NMagM=    0.0000000   0.0000000   0.0000000   0.0000000   0.0000000   0.0000000   0.0000000   0.0000000   0.0000000   0.0000000
 AtZNuc=   6.0000000   6.0000000   6.0000000   6.0000000   6.0000000   6.0000000   6.0000000   6.0000000   6.0000000   6.0000000

  Atom        61          62          63          64          65          66          67          68          69          70
 IAtWgt=          12          12          12          12          12          12           1           1           1           1
 AtmWgt=  12.0000000  12.0000000  12.0000000  12.0000000  12.0000000  12.0000000   1.0078250   1.0078250   1.0078250   1.0078250
 NucSpn=           0           0           0           0           0           0           1           1           1           1
 AtZEff=  -0.0000000  -0.0000000  -0.0000000  -0.0000000  -0.0000000  -0.0000000  -0.0000000  -0.0000000  -0.0000000  -0.0000000
 NQMom=    0.0000000   0.0000000   0.0000000   0.0000000   0.0000000   0.0000000   0.0000000   0.0000000   0.0000000   0.0000000
 NMagM=    0.0000000   0.0000000   0.0000000   0.0000000   0.0000000   0.0000000   2.7928460   2.7928460   2.7928460   2.7928460
 AtZNuc=   6.0000000   6.0000000   6.0000000   6.0000000   6.0000000   6.0000000   1.0000000   1.0000000   1.0000000   1.0000000

  Atom        71          72          73          74          75          76          77          78          79          80
 IAtWgt=           1           1           1           1           1           1           1           1           1           1
 AtmWgt=   1.0078250   1.0078250   1.0078250   1.0078250   1.0078250   1.0078250   1.0078250   1.0078250   1.0078250   1.0078250
 NucSpn=           1           1           1           1           1           1           1           1           1           1
 AtZEff=  -0.0000000  -0.0000000  -0.0000000  -0.0000000  -0.0000000  -0.0000000  -0.0000000  -0.0000000  -0.0000000  -0.0000000
 NQMom=    0.0000000   0.0000000   0.0000000   0.0000000   0.0000000   0.0000000   0.0000000   0.0000000   0.0000000   0.0000000
 NMagM=    2.7928460   2.7928460   2.7928460   2.7928460   2.7928460   2.7928460   2.7928460   2.7928460   2.7928460   2.7928460
 AtZNuc=   1.0000000   1.0000000   1.0000000   1.0000000   1.0000000   1.0000000   1.0000000   1.0000000   1.0000000   1.0000000

  Atom        81          82          83          84          85          86          87          88          89          90
 IAtWgt=           1           1           1           1           1           1           1           1           1           1
 AtmWgt=   1.0078250   1.0078250   1.0078250   1.0078250   1.0078250   1.0078250   1.0078250   1.0078250   1.0078250   1.0078250
 NucSpn=           1           1           1           1           1           1           1           1           1           1
 AtZEff=  -0.0000000  -0.0000000  -0.0000000  -0.0000000  -0.0000000  -0.0000000  -0.0000000  -0.0000000  -0.0000000  -0.0000000
 NQMom=    0.0000000   0.0000000   0.0000000   0.0000000   0.0000000   0.0000000   0.0000000   0.0000000   0.0000000   0.0000000
 NMagM=    2.7928460   2.7928460   2.7928460   2.7928460   2.7928460   2.7928460   2.7928460   2.7928460   2.7928460   2.7928460
 AtZNuc=   1.0000000   1.0000000   1.0000000   1.0000000   1.0000000   1.0000000   1.0000000   1.0000000   1.0000000   1.0000000

  Atom        91          92          93          94          95          96          97          98          99         100
 IAtWgt=           1           1           1           1           1           1           1           1           1           1
 AtmWgt=   1.0078250   1.0078250   1.0078250   1.0078250   1.0078250   1.0078250   1.0078250   1.0078250   1.0078250   1.0078250
 NucSpn=           1           1           1           1           1           1           1           1           1           1
 AtZEff=  -0.0000000  -0.0000000  -0.0000000  -0.0000000  -0.0000000  -0.0000000  -0.0000000  -0.0000000  -0.0000000  -0.0000000
 NQMom=    0.0000000   0.0000000   0.0000000   0.0000000   0.0000000   0.0000000   0.0000000   0.0000000   0.0000000   0.0000000
 NMagM=    2.7928460   2.7928460   2.7928460   2.7928460   2.7928460   2.7928460   2.7928460   2.7928460   2.7928460   2.7928460
 AtZNuc=   1.0000000   1.0000000   1.0000000   1.0000000   1.0000000   1.0000000   1.0000000   1.0000000   1.0000000   1.0000000

  Atom       101         102         103         104         105         106         107         108         109         110
 IAtWgt=           1           1           1           1           1           1           1           1           1           1
 AtmWgt=   1.0078250   1.0078250   1.0078250   1.0078250   1.0078250   1.0078250   1.0078250   1.0078250   1.0078250   1.0078250
 NucSpn=           1           1           1           1           1           1           1           1           1           1
 AtZEff=  -0.0000000  -0.0000000  -0.0000000  -0.0000000  -0.0000000  -0.0000000  -0.0000000  -0.0000000  -0.0000000  -0.0000000
 NQMom=    0.0000000   0.0000000   0.0000000   0.0000000   0.0000000   0.0000000   0.0000000   0.0000000   0.0000000   0.0000000
 NMagM=    2.7928460   2.7928460   2.7928460   2.7928460   2.7928460   2.7928460   2.7928460   2.7928460   2.7928460   2.7928460
 AtZNuc=   1.0000000   1.0000000   1.0000000   1.0000000   1.0000000   1.0000000   1.0000000   1.0000000   1.0000000   1.0000000

  Atom       111         112         113         114         115         116         117         118         119         120
 IAtWgt=           1           1           1           1           1           1           1           1           1           1
 AtmWgt=   1.0078250   1.0078250   1.0078250   1.0078250   1.0078250   1.0078250   1.0078250   1.0078250   1.0078250   1.0078250
 NucSpn=           1           1           1           1           1           1           1           1           1           1
 AtZEff=  -0.0000000  -0.0000000  -0.0000000  -0.0000000  -0.0000000  -0.0000000  -0.0000000  -0.0000000  -0.0000000  -0.0000000
 NQMom=    0.0000000   0.0000000   0.0000000   0.0000000   0.0000000   0.0000000   0.0000000   0.0000000   0.0000000   0.0000000
 NMagM=    2.7928460   2.7928460   2.7928460   2.7928460   2.7928460   2.7928460   2.7928460   2.7928460   2.7928460   2.7928460
 AtZNuc=   1.0000000   1.0000000   1.0000000   1.0000000   1.0000000   1.0000000   1.0000000   1.0000000   1.0000000   1.0000000

  Atom       121         122         123         124         125         126         127         128         129         130
 IAtWgt=           1           1           1           1           1           1           1           1           1           1
 AtmWgt=   1.0078250   1.0078250   1.0078250   1.0078250   1.0078250   1.0078250   1.0078250   1.0078250   1.0078250   1.0078250
 NucSpn=           1           1           1           1           1           1           1           1           1           1
 AtZEff=  -0.0000000  -0.0000000  -0.0000000  -0.0000000  -0.0000000  -0.0000000  -0.0000000  -0.0000000  -0.0000000  -0.0000000
 NQMom=    0.0000000   0.0000000   0.0000000   0.0000000   0.0000000   0.0000000   0.0000000   0.0000000   0.0000000   0.0000000
 NMagM=    2.7928460   2.7928460   2.7928460   2.7928460   2.7928460   2.7928460   2.7928460   2.7928460   2.7928460   2.7928460
 AtZNuc=   1.0000000   1.0000000   1.0000000   1.0000000   1.0000000   1.0000000   1.0000000   1.0000000   1.0000000   1.0000000

  Atom       131         132         133         134         135         136         137         138         139         140
 IAtWgt=           1           1           1           1           1           1           1           1           1           1
 AtmWgt=   1.0078250   1.0078250   1.0078250   1.0078250   1.0078250   1.0078250   1.0078250   1.0078250   1.0078250   1.0078250
 NucSpn=           1           1           1           1           1           1           1           1           1           1
 AtZEff=  -0.0000000  -0.0000000  -0.0000000  -0.0000000  -0.0000000  -0.0000000  -0.0000000  -0.0000000  -0.0000000  -0.0000000
 NQMom=    0.0000000   0.0000000   0.0000000   0.0000000   0.0000000   0.0000000   0.0000000   0.0000000   0.0000000   0.0000000
 NMagM=    2.7928460   2.7928460   2.7928460   2.7928460   2.7928460   2.7928460   2.7928460   2.7928460   2.7928460   2.7928460
 AtZNuc=   1.0000000   1.0000000   1.0000000   1.0000000   1.0000000   1.0000000   1.0000000   1.0000000   1.0000000   1.0000000
 Leave Link  101 at Thu May  5 12:37:50 2022, MaxMem= 10066329600 cpu:               2.9 elap:               0.1
 (Enter /sw/apps/gaussian-16.0/g16/l202.exe)
 Stoichiometry    C55H74MgN4O6
 Framework group  C1[X(C55H74MgN4O6)]
 Deg. of freedom   414
 Full point group                 C1      NOp   1
 Largest Abelian subgroup         C1      NOp   1
 Largest concise Abelian subgroup C1      NOp   1
                         Standard orientation:                         
 ---------------------------------------------------------------------
 Center     Atomic      Atomic             Coordinates (Angstroms)
 Number     Number       Type             X           Y           Z
 ---------------------------------------------------------------------
      1         12           0       -5.861106    0.421414   -0.324924
      2          6           0       -3.416473   -2.276422    0.073202
      3          6           0       -3.352111    2.589961    0.625552
      4          6           0       -8.192466    2.732002    0.155995
      5          6           0       -8.179505   -2.000831   -0.988846
      6          7           0       -3.696955    0.130271    0.430997
      7          6           0       -2.884736   -1.005658    0.316232
      8          6           0       -1.416780   -0.679152    0.773635
      9          6           0       -1.501947    0.848865    0.997794
     10          6           0       -2.890075    1.286416    0.600482
     11          6           0       -1.042649    1.353563    2.330823
     12          6           0       -0.385119   -1.091563   -0.324598
     13          6           0        0.701040   -2.106043   -0.113179
     14          6           0        2.061691   -1.799977   -0.705304
     15          8           0        2.342283   -1.012230   -1.607015
     16          8           0        3.075600   -2.429595    0.012679
     17          7           0       -5.765492    2.395302    0.205401
     18          6           0       -4.623004    3.131862    0.525077
     19          6           0       -4.994487    4.575030    0.837653
     20          6           0       -6.465992    4.631218    0.621044
     21          6           0       -6.906131    3.215956    0.340866
     22          6           0       -3.931346    5.695971    1.223189
     23          6           0       -7.360853    5.705361    0.812535
     24          8           0       -8.557079    5.640656    0.847482
     25          6           0       -6.708692    7.032012    1.114086
     26          7           0       -7.896912    0.308762   -0.210347
     27          6           0       -8.692537    1.463429   -0.118507
     28          6           0      -10.156662    1.029921   -0.336052
     29          6           0      -10.043735   -0.286282   -1.081334
     30          6           0       -8.595489   -0.726327   -0.781786
     31          6           0      -10.813272    0.914973    1.062563
     32          6           0      -10.377691   -0.227681   -2.584532
     33          6           0       -9.178622    0.249810   -3.507363
     34          7           0       -5.885270   -1.669305   -0.595765
     35          6           0       -6.963340   -2.490811   -0.842973
     36          6           0       -6.483822   -3.830588   -1.027035
     37          6           0       -5.076931   -3.799622   -0.621244
     38          6           0       -4.801652   -2.495485   -0.357204
     39          6           0       -7.280559   -5.035598   -1.394185
     40          6           0       -3.998617   -4.653506   -0.303427
     41          8           0       -3.848294   -5.846055   -0.353133
     42          6           0       -2.780099   -3.689988    0.166760
     43          6           0       -2.426577   -3.912219    1.599927
     44          8           0       -3.251226   -4.010640    2.498163
     45          8           0       -1.059877   -4.103614    1.737289
     46          6           0       -0.580162   -4.314918    3.087522
     47          6           0        4.374308   -2.459624   -0.574458
     48          6           0        5.222224   -1.465048    0.191666
     49          6           0        6.502968   -1.091752    0.047179
     50          6           0        7.475323   -1.697894   -0.929884
     51          6           0        6.938037    0.195890    0.683860
     52          6           0        7.397225    1.336142   -0.231073
     53          6           0        8.897348    1.568342   -0.177493
     54          6           0        9.346281    2.402906   -1.405201
     55          6           0        8.402085    3.579290   -1.914754
     56          6           0        9.702515    1.442280   -2.637816
     57          6           0       11.116699    1.870901   -3.223277
     58          6           0       12.289459    0.862172   -2.965757
     59          6           0       12.881166    1.104660   -1.505528
     60          6           0       14.324674    1.618276   -1.720411
     61          6           0       12.792128   -0.228952   -0.743484
     62          6           0       13.393584   -0.096611    0.639353
     63          6           0       12.617607   -0.808285    1.761132
     64          6           0       11.722532    0.149188    2.599025
     65          6           0       12.443860    0.311974    4.083399
     66          6           0       10.323556   -0.522722    2.782363
     67          1           0       -2.541241    3.308481    0.763019
     68          1           0       -8.988309    3.453810    0.351023
     69          1           0       -8.952598   -2.610547   -1.461956
     70          1           0       -1.300461   -1.207906    1.719639
     71          1           0       -0.767811    1.238699    0.293173
     72          1           0       -1.876771    1.751489    2.909021
     73          1           0       -0.262751    2.112279    2.256080
     74          1           0       -0.755566    0.549877    3.009251
     75          1           0        0.012011   -0.228467   -0.857365
     76          1           0       -0.995815   -1.601431   -1.068610
     77          1           0        0.422876   -3.072814   -0.533487
     78          1           0        0.837535   -2.230578    0.960771
     79          1           0       -4.005958    5.884326    2.293989
     80          1           0       -4.193882    6.598474    0.671917
     81          1           0       -2.928675    5.390865    0.923832
     82          1           0       -6.237924    7.529575    0.266047
     83          1           0       -6.102380    6.972549    2.018066
     84          1           0       -7.557325    7.695043    1.279041
     85          1           0      -10.737689    1.735878   -0.928501
     86          1           0      -10.744040   -1.049870   -0.744271
     87          1           0      -11.085799   -0.116945    1.284057
     88          1           0      -11.749987    1.438661    0.872582
     89          1           0      -10.321561    1.366296    1.924901
     90          1           0      -11.204584    0.397585   -2.922925
     91          1           0      -10.601759   -1.249462   -2.891295
     92          1           0       -8.641893   -0.667146   -3.752138
     93          1           0       -8.552921    0.906621   -2.903185
     94          1           0       -9.496782    0.745534   -4.425113
     95          1           0       -8.200449   -4.805259   -1.933211
     96          1           0       -7.565233   -5.471776   -0.436642
     97          1           0       -6.703770   -5.808887   -1.900135
     98          1           0       -1.923110   -3.885733   -0.478444
     99          1           0       -0.678897   -5.307491    3.526654
    100          1           0       -1.107005   -3.639867    3.762552
    101          1           0        0.452115   -3.983785    3.202272
    102          1           0        4.339126   -2.207225   -1.633876
    103          1           0        4.788223   -3.459617   -0.445566
    104          1           0        4.575907   -0.858852    0.826531
    105          1           0        6.822271   -2.209074   -1.636182
    106          1           0        8.112321   -2.292479   -0.273586
    107          1           0        7.962300   -0.860092   -1.428408
    108          1           0        7.728065   -0.141290    1.355978
    109          1           0        6.116159    0.574715    1.290205
    110          1           0        6.935203    2.243811    0.157555
    111          1           0        7.152254    1.181090   -1.281946
    112          1           0        9.356873    0.595445   -0.004256
    113          1           0        9.071269    2.142361    0.733072
    114          1           0       10.227384    2.889267   -0.985443
    115          1           0        8.801732    4.509079   -1.509323
    116          1           0        7.326322    3.458361   -1.784123
    117          1           0        8.490293    3.721011   -2.992071
    118          1           0        8.945160    1.453694   -3.421694
    119          1           0        9.806459    0.386121   -2.389756
    120          1           0       11.488130    2.814569   -2.821344
    121          1           0       11.090693    2.079127   -4.292967
    122          1           0       12.985122    0.980611   -3.797571
    123          1           0       11.889189   -0.149568   -3.030322
    124          1           0       12.226506    1.829114   -1.022579
    125          1           0       14.329088    2.490708   -2.374528
    126          1           0       14.888272    0.812790   -2.191385
    127          1           0       14.835679    1.944623   -0.814000
    128          1           0       13.247498   -1.026226   -1.331455
    129          1           0       11.746188   -0.533360   -0.717159
    130          1           0       13.489317    0.922908    1.012946
    131          1           0       14.392400   -0.505848    0.491137
    132          1           0       13.344813   -1.251368    2.441500
    133          1           0       11.976066   -1.612858    1.400907
    134          1           0       11.631488    1.136460    2.146259
    135          1           0       11.798862    0.763778    4.836953
    136          1           0       13.351286    0.911203    4.007598
    137          1           0       12.767544   -0.673058    4.419190
    138          1           0       10.275228   -1.408074    3.416117
    139          1           0        9.940501   -0.819170    1.806658
    140          1           0        9.696588    0.280020    3.172419
 ---------------------------------------------------------------------
 Rotational constants (GHZ):           0.0538341           0.0093421           0.0085256
 Leave Link  202 at Thu May  5 12:37:50 2022, MaxMem= 10066329600 cpu:               0.2 elap:               0.0
 (Enter /sw/apps/gaussian-16.0/g16/l301.exe)
 Standard basis: def2SVP (5D, 7F)
 Ernie: Thresh=  0.10000D-02 Tol=  0.10000D-05 Strict=F.
 There are  1364 symmetry adapted cartesian basis functions of A   symmetry.
 There are  1298 symmetry adapted basis functions of A   symmetry.
  1298 basis functions,  2180 primitive gaussians,  1364 cartesian basis functions
   246 alpha electrons      246 beta electrons
       nuclear repulsion energy      9593.0010171483 Hartrees.
 IExCor= 1009 DFT=T Ex+Corr=PBE1PBE ExCW=0 ScaHFX=  0.250000
 ScaDFX=  0.750000  0.750000  1.000000  1.000000 ScalE2=  1.000000  1.000000
 IRadAn=      5 IRanWt=     -1 IRanGd=            0 ICorTp=0 IEmpDi=  4
 NAtoms=  140 NActive=  140 NUniq=  140 SFac= 1.00D+00 NAtFMM=   60 NAOKFM=T Big=T
 Integral buffers will be    131072 words long.
 Regular integral format.
 Two-electron integral symmetry is turned on.
 Leave Link  301 at Thu May  5 12:37:51 2022, MaxMem= 10066329600 cpu:               1.3 elap:               0.1
 (Enter /sw/apps/gaussian-16.0/g16/l302.exe)
 NPDir=0 NMtPBC=     1 NCelOv=     1 NCel=       1 NClECP=     1 NCelD=      1
         NCelK=      1 NCelE2=     1 NClLst=     1 CellRange=     0.0.
 One-electron integrals computed using PRISM.
 One-electron integral symmetry used in STVInt
   1 Symmetry operations used in ECPInt.
 ECPInt:  NShTT=  192510 NPrTT=  683786 LenC2=   94496 LenP2D=  209212.
 LDataN:  DoStor=T MaxTD1= 4 Len=   56
 NBasis=  1298 RedAO= T EigKep=  2.79D-04  NBF=  1298
 NBsUse=  1298 1.00D-06 EigRej= -1.00D+00 NBFU=  1298
 Precomputing XC quadrature grid using
 IXCGrd= 4 IRadAn=           5 IRanWt=          -1 IRanGd=           0 AccXCQ= 0.00D+00.
 Generated NRdTot=       0 NPtTot=           0 NUsed=           0 NTot=          32
 NSgBfM=   997   982   983   984   997 MxSgAt=   140 MxSgA2=   140.
 Leave Link  302 at Thu May  5 12:37:54 2022, MaxMem= 10066329600 cpu:              73.7 elap:               3.1
 (Enter /sw/apps/gaussian-16.0/g16/l303.exe)
 DipDrv:  MaxL=1.
 Leave Link  303 at Thu May  5 12:37:54 2022, MaxMem= 10066329600 cpu:               6.5 elap:               0.3
 (Enter /sw/apps/gaussian-16.0/g16/l308.exe)
 Leave Link  308 at Thu May  5 12:37:54 2022, MaxMem= 10066329600 cpu:               8.5 elap:               0.4
 (Enter /sw/apps/gaussian-16.0/g16/l401.exe)
 ExpMin= 3.36D-02 ExpMax= 4.95D+03 ExpMxC= 7.45D+02 IAcc=3 IRadAn=         5 AccDes= 0.00D+00
 Harris functional with IExCor= 1009 and IRadAn=       5 diagonalized for initial guess.
 HarFok:  IExCor= 1009 AccDes= 0.00D+00 IRadAn=         5 IDoV= 1 UseB2=F ITyADJ=14
 ICtDFT=  3500011 ScaDFX=  1.000000  1.000000  1.000000  1.000000
 FoFCou: FMM=F IPFlag=           0 FMFlag=      100000 FMFlg1=        2001
         NFxFlg=           0 DoJE=T BraDBF=F KetDBF=T FulRan=T
         wScrn=  0.000000 ICntrl=       500 IOpCl=  0 I1Cent=   200000004 NGrid=           0
         NMat0=    1 NMatS0=      1 NMatT0=    0 NMatD0=    1 NMtDS0=    0 NMtDT0=    0
 Petite list used in FoFCou.
 Harris En= -3006.14538567347    
 JPrj=0 DoOrth=F DoCkMO=F.
 Leave Link  401 at Thu May  5 12:38:01 2022, MaxMem= 10066329600 cpu:             152.2 elap:               6.4
 (Enter /sw/apps/gaussian-16.0/g16/l502.exe)
 Integral symmetry usage will be decided dynamically.
 Closed shell SCF:
 Using DIIS extrapolation, IDIIS=  1040.
 NGot= 10066329600 LenX= 10062561258 LenY= 10060699398
 Requested convergence on RMS density matrix=1.00D-08 within 128 cycles.
 Requested convergence on MAX density matrix=1.00D-06.
 Requested convergence on             energy=1.00D-06.
 No special actions if energy rises.
 Fock matrices will be formed incrementally for  20 cycles.

 Cycle   1  Pass 1  IDiag  1:
 FoFJK:  IHMeth= 1 ICntrl=       0 DoSepK=F KAlg= 0 I1Cent=           0 FoldK=F
 IRaf= 530000000 NMat=       1 IRICut=       1 DoRegI=T DoRafI=F ISym2E= 0 IDoP0=0 IntGTp=1.
 FoFCou: FMM=T IPFlag=           0 FMFlag=      100000 FMFlg1=        2001
         NFxFlg=           0 DoJE=F BraDBF=F KetDBF=F FulRan=T
         wScrn=  0.000000 ICntrl=         0 IOpCl=  0 I1Cent=           0 NGrid=           0
         NMat0=    1 NMatS0=      1 NMatT0=    0 NMatD0=    1 NMtDS0=    0 NMtDT0=    0
 Symmetry not used in FoFCou.
 FMM levels:  10  Number of levels for PrismC:   9
 E= -3003.80588255617    
 DIIS: error= 1.94D-02 at cycle   1 NSaved=   1.
 NSaved= 1 IEnMin= 1 EnMin= -3003.80588255617     IErMin= 1 ErrMin= 1.94D-02
 ErrMax= 1.94D-02  0.00D+00 EMaxC= 1.00D-01 BMatC= 1.47D+00 BMatP= 1.47D+00
 IDIUse=3 WtCom= 8.06D-01 WtEn= 1.94D-01
 Coeff-Com:  0.100D+01
 Coeff-En:   0.100D+01
 Coeff:      0.100D+01
 Gap=     0.059 Goal=   None    Shift=    0.000
 GapD=    0.059 DampG=0.500 DampE=0.500 DampFc=0.2500 IDamp=-1.
 Damping current iteration by 2.50D-01
 RMSDP=2.82D-03 MaxDP=6.53D-01              OVMax= 4.37D-01

 Cycle   2  Pass 1  IDiag  1:
 RMSU=  6.97D-04    CP:  9.89D-01
 E= -3004.35428179208     Delta-E=       -0.548399235900 Rises=F Damp=T
 DIIS: error= 9.22D-03 at cycle   2 NSaved=   2.
 NSaved= 2 IEnMin= 2 EnMin= -3004.35428179208     IErMin= 2 ErrMin= 9.22D-03
 ErrMax= 9.22D-03  0.00D+00 EMaxC= 1.00D-01 BMatC= 3.65D-01 BMatP= 1.47D+00
 IDIUse=3 WtCom= 9.08D-01 WtEn= 9.22D-02
 Coeff-Com: -0.751D+00 0.175D+01
 Coeff-En:   0.000D+00 0.100D+01
 Coeff:     -0.682D+00 0.168D+01
 Gap=     0.154 Goal=   None    Shift=    0.000
 RMSDP=1.07D-03 MaxDP=6.13D-02 DE=-5.48D-01 OVMax= 4.80D-01

 Cycle   3  Pass 1  IDiag  1:
 RMSU=  9.68D-04    CP:  9.65D-01  1.57D+00
 E= -3005.07971558955     Delta-E=       -0.725433797479 Rises=F Damp=F
 DIIS: error= 1.57D-02 at cycle   3 NSaved=   3.
 NSaved= 3 IEnMin= 3 EnMin= -3005.07971558955     IErMin= 2 ErrMin= 9.22D-03
 ErrMax= 1.57D-02  0.00D+00 EMaxC= 1.00D-01 BMatC= 2.39D-01 BMatP= 3.65D-01
 IDIUse=3 WtCom= 8.43D-01 WtEn= 1.57D-01
 Coeff-Com: -0.523D+00 0.112D+01 0.407D+00
 Coeff-En:   0.000D+00 0.000D+00 0.100D+01
 Coeff:     -0.441D+00 0.940D+00 0.500D+00
 Gap=     0.074 Goal=   None    Shift=    0.000
 RMSDP=9.02D-04 MaxDP=8.64D-02 DE=-7.25D-01 OVMax= 5.68D-01

 Cycle   4  Pass 1  IDiag  1:
 RMSU=  5.52D-04    CP:  9.69D-01  1.96D+00  3.20D-01
 E= -3005.18752786138     Delta-E=       -0.107812271828 Rises=F Damp=F
 DIIS: error= 8.01D-03 at cycle   4 NSaved=   4.
 NSaved= 4 IEnMin= 4 EnMin= -3005.18752786138     IErMin= 4 ErrMin= 8.01D-03
 ErrMax= 8.01D-03  0.00D+00 EMaxC= 1.00D-01 BMatC= 1.17D-01 BMatP= 2.39D-01
 IDIUse=3 WtCom= 9.20D-01 WtEn= 8.01D-02
 Coeff-Com: -0.194D+00 0.423D+00 0.379D+00 0.392D+00
 Coeff-En:   0.000D+00 0.000D+00 0.409D+00 0.591D+00
 Coeff:     -0.179D+00 0.389D+00 0.382D+00 0.408D+00
 Gap=     0.058 Goal=   None    Shift=    0.000
 RMSDP=5.62D-04 MaxDP=6.36D-02 DE=-1.08D-01 OVMax= 4.28D-01

 Cycle   5  Pass 1  IDiag  1:
 RMSU=  2.43D-04    CP:  9.69D-01  1.77D+00  6.47D-01  3.28D-01
 E= -3005.32223915334     Delta-E=       -0.134711291961 Rises=F Damp=F
 DIIS: error= 4.33D-03 at cycle   5 NSaved=   5.
 NSaved= 5 IEnMin= 5 EnMin= -3005.32223915334     IErMin= 5 ErrMin= 4.33D-03
 ErrMax= 4.33D-03  0.00D+00 EMaxC= 1.00D-01 BMatC= 1.98D-02 BMatP= 1.17D-01
 IDIUse=3 WtCom= 9.57D-01 WtEn= 4.33D-02
 Coeff-Com: -0.379D-01 0.896D-01 0.219D+00 0.336D+00 0.394D+00
 Coeff-En:   0.000D+00 0.000D+00 0.000D+00 0.189D+00 0.811D+00
 Coeff:     -0.363D-01 0.857D-01 0.209D+00 0.330D+00 0.412D+00
 Gap=     0.067 Goal=   None    Shift=    0.000
 RMSDP=2.23D-04 MaxDP=2.75D-02 DE=-1.35D-01 OVMax= 1.69D-01

 Cycle   6  Pass 1  IDiag  1:
 RMSU=  1.07D-04    CP:  9.68D-01  1.77D+00  5.85D-01  5.48D-01  4.21D-01
 E= -3005.34741541721     Delta-E=       -0.025176263869 Rises=F Damp=F
 DIIS: error= 1.16D-03 at cycle   6 NSaved=   6.
 NSaved= 6 IEnMin= 6 EnMin= -3005.34741541721     IErMin= 6 ErrMin= 1.16D-03
 ErrMax= 1.16D-03  0.00D+00 EMaxC= 1.00D-01 BMatC= 1.67D-03 BMatP= 1.98D-02
 IDIUse=3 WtCom= 9.88D-01 WtEn= 1.16D-02
 Coeff-Com:  0.446D-02-0.771D-02 0.403D-01 0.950D-01 0.247D+00 0.621D+00
 Coeff-En:   0.000D+00 0.000D+00 0.000D+00 0.000D+00 0.847D-01 0.915D+00
 Coeff:      0.441D-02-0.762D-02 0.398D-01 0.939D-01 0.245D+00 0.624D+00
 Gap=     0.071 Goal=   None    Shift=    0.000
 RMSDP=7.43D-05 MaxDP=7.05D-03 DE=-2.52D-02 OVMax= 4.64D-02

 Cycle   7  Pass 1  IDiag  1:
 RMSU=  5.45D-05    CP:  9.68D-01  1.77D+00  5.93D-01  5.20D-01  5.66D-01
                    CP:  7.05D-01
 E= -3005.34848642866     Delta-E=       -0.001071011449 Rises=F Damp=F
 DIIS: error= 6.51D-04 at cycle   7 NSaved=   7.
 NSaved= 7 IEnMin= 7 EnMin= -3005.34848642866     IErMin= 7 ErrMin= 6.51D-04
 ErrMax= 6.51D-04  0.00D+00 EMaxC= 1.00D-01 BMatC= 7.14D-04 BMatP= 1.67D-03
 IDIUse=3 WtCom= 9.93D-01 WtEn= 6.51D-03
 Coeff-Com:  0.541D-02-0.118D-01-0.254D-02 0.157D-01 0.116D+00 0.466D+00
 Coeff-Com:  0.412D+00
 Coeff-En:   0.000D+00 0.000D+00 0.000D+00 0.000D+00 0.000D+00 0.346D+00
 Coeff-En:   0.654D+00
 Coeff:      0.538D-02-0.117D-01-0.252D-02 0.156D-01 0.115D+00 0.465D+00
 Coeff:      0.413D+00
 Gap=     0.073 Goal=   None    Shift=    0.000
 RMSDP=4.17D-05 MaxDP=4.77D-03 DE=-1.07D-03 OVMax= 2.43D-02

 Cycle   8  Pass 1  IDiag  1:
 RMSU=  1.72D-05    CP:  9.68D-01  1.77D+00  5.94D-01  5.23D-01  5.36D-01
                    CP:  8.33D-01  3.65D-01
 E= -3005.34934846620     Delta-E=       -0.000862037537 Rises=F Damp=F
 DIIS: error= 2.08D-04 at cycle   8 NSaved=   8.
 NSaved= 8 IEnMin= 8 EnMin= -3005.34934846620     IErMin= 8 ErrMin= 2.08D-04
 ErrMax= 2.08D-04  0.00D+00 EMaxC= 1.00D-01 BMatC= 7.26D-05 BMatP= 7.14D-04
 IDIUse=3 WtCom= 9.98D-01 WtEn= 2.08D-03
 Coeff-Com:  0.186D-02-0.450D-02-0.615D-02-0.221D-02 0.456D-01 0.231D+00
 Coeff-Com:  0.286D+00 0.448D+00
 Coeff-En:   0.000D+00 0.000D+00 0.000D+00 0.000D+00 0.000D+00 0.000D+00
 Coeff-En:   0.999D-01 0.900D+00
 Coeff:      0.186D-02-0.449D-02-0.613D-02-0.221D-02 0.455D-01 0.230D+00
 Coeff:      0.286D+00 0.449D+00
 Gap=     0.073 Goal=   None    Shift=    0.000
 RMSDP=1.16D-05 MaxDP=9.43D-04 DE=-8.62D-04 OVMax= 6.54D-03

 Cycle   9  Pass 1  IDiag  1:
 RMSU=  5.80D-06    CP:  9.68D-01  1.77D+00  5.93D-01  5.23D-01  5.46D-01
                    CP:  8.16D-01  4.79D-01  5.77D-01
 E= -3005.34943750410     Delta-E=       -0.000089037905 Rises=F Damp=F
 DIIS: error= 7.95D-05 at cycle   9 NSaved=   9.
 NSaved= 9 IEnMin= 9 EnMin= -3005.34943750410     IErMin= 9 ErrMin= 7.95D-05
 ErrMax= 7.95D-05  0.00D+00 EMaxC= 1.00D-01 BMatC= 4.84D-06 BMatP= 7.26D-05
 IDIUse=1 WtCom= 1.00D+00 WtEn= 0.00D+00
 Coeff-Com:  0.197D-03-0.612D-03-0.328D-02-0.382D-02 0.123D-01 0.778D-01
 Coeff-Com:  0.124D+00 0.267D+00 0.527D+00
 Coeff:      0.197D-03-0.612D-03-0.328D-02-0.382D-02 0.123D-01 0.778D-01
 Coeff:      0.124D+00 0.267D+00 0.527D+00
 Gap=     0.073 Goal=   None    Shift=    0.000
 RMSDP=3.01D-06 MaxDP=4.90D-04 DE=-8.90D-05 OVMax= 8.77D-04

 Cycle  10  Pass 1  IDiag  1:
 RMSU=  2.33D-06    CP:  9.68D-01  1.77D+00  5.94D-01  5.22D-01  5.46D-01
                    CP:  8.24D-01  4.83D-01  6.28D-01  8.12D-01
 E= -3005.34944196332     Delta-E=       -0.000004459211 Rises=F Damp=F
 DIIS: error= 1.70D-05 at cycle  10 NSaved=  10.
 NSaved=10 IEnMin=10 EnMin= -3005.34944196332     IErMin=10 ErrMin= 1.70D-05
 ErrMax= 1.70D-05  0.00D+00 EMaxC= 1.00D-01 BMatC= 5.44D-07 BMatP= 4.84D-06
 IDIUse=1 WtCom= 1.00D+00 WtEn= 0.00D+00
 Coeff-Com: -0.117D-03 0.265D-03-0.913D-03-0.188D-02-0.559D-04 0.919D-02
 Coeff-Com:  0.306D-01 0.942D-01 0.291D+00 0.578D+00
 Coeff:     -0.117D-03 0.265D-03-0.913D-03-0.188D-02-0.559D-04 0.919D-02
 Coeff:      0.306D-01 0.942D-01 0.291D+00 0.578D+00
 Gap=     0.073 Goal=   None    Shift=    0.000
 RMSDP=1.14D-06 MaxDP=1.29D-04 DE=-4.46D-06 OVMax= 4.27D-04

 Cycle  11  Pass 1  IDiag  1:
 RMSU=  8.44D-07    CP:  9.68D-01  1.77D+00  5.94D-01  5.22D-01  5.47D-01
                    CP:  8.24D-01  4.85D-01  6.42D-01  8.88D-01  7.68D-01
 E= -3005.34944247613     Delta-E=       -0.000000512815 Rises=F Damp=F
 DIIS: error= 9.60D-06 at cycle  11 NSaved=  11.
 NSaved=11 IEnMin=11 EnMin= -3005.34944247613     IErMin=11 ErrMin= 9.60D-06
 ErrMax= 9.60D-06  0.00D+00 EMaxC= 1.00D-01 BMatC= 1.31D-07 BMatP= 5.44D-07
 IDIUse=1 WtCom= 1.00D+00 WtEn= 0.00D+00
 Coeff-Com: -0.473D-04 0.165D-03-0.648D-04-0.550D-03-0.231D-02-0.772D-02
 Coeff-Com: -0.111D-02 0.159D-01 0.836D-01 0.364D+00 0.548D+00
 Coeff:     -0.473D-04 0.165D-03-0.648D-04-0.550D-03-0.231D-02-0.772D-02
 Coeff:     -0.111D-02 0.159D-01 0.836D-01 0.364D+00 0.548D+00
 Gap=     0.073 Goal=   None    Shift=    0.000
 RMSDP=5.36D-07 MaxDP=5.89D-05 DE=-5.13D-07 OVMax= 2.11D-04

 Cycle  12  Pass 1  IDiag  1:
 RMSU=  3.28D-07    CP:  9.68D-01  1.77D+00  5.94D-01  5.22D-01  5.47D-01
                    CP:  8.25D-01  4.88D-01  6.53D-01  8.98D-01  8.64D-01
                    CP:  7.41D-01
 E= -3005.34944260649     Delta-E=       -0.000000130358 Rises=F Damp=F
 DIIS: error= 2.52D-06 at cycle  12 NSaved=  12.
 NSaved=12 IEnMin=12 EnMin= -3005.34944260649     IErMin=12 ErrMin= 2.52D-06
 ErrMax= 2.52D-06  0.00D+00 EMaxC= 1.00D-01 BMatC= 1.73D-08 BMatP= 1.31D-07
 IDIUse=1 WtCom= 1.00D+00 WtEn= 0.00D+00
 Coeff-Com:  0.124D-04 0.191D-04 0.103D-03 0.433D-05-0.141D-02-0.600D-02
 Coeff-Com: -0.523D-02-0.438D-02-0.567D-03 0.122D+00 0.319D+00 0.577D+00
 Coeff:      0.124D-04 0.191D-04 0.103D-03 0.433D-05-0.141D-02-0.600D-02
 Coeff:     -0.523D-02-0.438D-02-0.567D-03 0.122D+00 0.319D+00 0.577D+00
 Gap=     0.073 Goal=   None    Shift=    0.000
 RMSDP=2.09D-07 MaxDP=2.30D-05 DE=-1.30D-07 OVMax= 9.29D-05

 Cycle  13  Pass 1  IDiag  1:
 RMSU=  1.41D-07    CP:  9.68D-01  1.77D+00  5.94D-01  5.22D-01  5.47D-01
                    CP:  8.25D-01  4.88D-01  6.54D-01  9.08D-01  8.81D-01
                    CP:  8.41D-01  6.84D-01
 E= -3005.34944262362     Delta-E=       -0.000000017137 Rises=F Damp=F
 DIIS: error= 9.89D-07 at cycle  13 NSaved=  13.
 NSaved=13 IEnMin=13 EnMin= -3005.34944262362     IErMin=13 ErrMin= 9.89D-07
 ErrMax= 9.89D-07  0.00D+00 EMaxC= 1.00D-01 BMatC= 3.98D-09 BMatP= 1.73D-08
 IDIUse=1 WtCom= 1.00D+00 WtEn= 0.00D+00
 Coeff-Com:  0.178D-04-0.154D-04 0.820D-04 0.953D-04-0.674D-03-0.307D-02
 Coeff-Com: -0.382D-02-0.595D-02-0.166D-01 0.225D-01 0.123D+00 0.380D+00
 Coeff-Com:  0.504D+00
 Coeff:      0.178D-04-0.154D-04 0.820D-04 0.953D-04-0.674D-03-0.307D-02
 Coeff:     -0.382D-02-0.595D-02-0.166D-01 0.225D-01 0.123D+00 0.380D+00
 Coeff:      0.504D+00
 Gap=     0.073 Goal=   None    Shift=    0.000
 RMSDP=8.94D-08 MaxDP=8.08D-06 DE=-1.71D-08 OVMax= 3.65D-05

 Cycle  14  Pass 1  IDiag  1:
 RMSU=  5.65D-08    CP:  9.68D-01  1.77D+00  5.94D-01  5.22D-01  5.47D-01
                    CP:  8.25D-01  4.88D-01  6.56D-01  9.11D-01  8.90D-01
                    CP:  8.41D-01  8.03D-01  7.11D-01
 E= -3005.34944262811     Delta-E=       -0.000000004489 Rises=F Damp=F
 DIIS: error= 4.01D-07 at cycle  14 NSaved=  14.
 NSaved=14 IEnMin=14 EnMin= -3005.34944262811     IErMin=14 ErrMin= 4.01D-07
 ErrMax= 4.01D-07  0.00D+00 EMaxC= 1.00D-01 BMatC= 4.12D-10 BMatP= 3.98D-09
 IDIUse=1 WtCom= 1.00D+00 WtEn= 0.00D+00
 Coeff-Com:  0.969D-05-0.136D-04 0.315D-04 0.560D-04-0.188D-03-0.844D-03
 Coeff-Com: -0.143D-02-0.231D-02-0.896D-02-0.227D-02 0.275D-01 0.133D+00
 Coeff-Com:  0.285D+00 0.571D+00
 Coeff:      0.969D-05-0.136D-04 0.315D-04 0.560D-04-0.188D-03-0.844D-03
 Coeff:     -0.143D-02-0.231D-02-0.896D-02-0.227D-02 0.275D-01 0.133D+00
 Coeff:      0.285D+00 0.571D+00
 Gap=     0.073 Goal=   None    Shift=    0.000
 RMSDP=2.97D-08 MaxDP=2.62D-06 DE=-4.49D-09 OVMax= 1.10D-05

 Cycle  15  Pass 1  IDiag  1:
 RMSU=  2.28D-08    CP:  9.68D-01  1.77D+00  5.94D-01  5.22D-01  5.47D-01
                    CP:  8.25D-01  4.88D-01  6.56D-01  9.11D-01  8.92D-01
                    CP:  8.50D-01  8.22D-01  8.00D-01  9.08D-01
 E= -3005.34944262875     Delta-E=       -0.000000000635 Rises=F Damp=F
 DIIS: error= 1.37D-07 at cycle  15 NSaved=  15.
 NSaved=15 IEnMin=15 EnMin= -3005.34944262875     IErMin=15 ErrMin= 1.37D-07
 ErrMax= 1.37D-07  0.00D+00 EMaxC= 1.00D-01 BMatC= 8.14D-11 BMatP= 4.12D-10
 IDIUse=1 WtCom= 1.00D+00 WtEn= 0.00D+00
 Coeff-Com:  0.143D-05-0.323D-05 0.192D-05 0.130D-04 0.166D-04 0.129D-03
 Coeff-Com: -0.122D-03 0.226D-04-0.177D-02-0.504D-02-0.668D-02 0.118D-02
 Coeff-Com:  0.676D-01 0.323D+00 0.622D+00
 Coeff:      0.143D-05-0.323D-05 0.192D-05 0.130D-04 0.166D-04 0.129D-03
 Coeff:     -0.122D-03 0.226D-04-0.177D-02-0.504D-02-0.668D-02 0.118D-02
 Coeff:      0.676D-01 0.323D+00 0.622D+00
 Gap=     0.073 Goal=   None    Shift=    0.000
 RMSDP=1.37D-08 MaxDP=1.23D-06 DE=-6.35D-10 OVMax= 6.86D-06

 Cycle  16  Pass 1  IDiag  1:
 RMSU=  8.79D-09    CP:  9.68D-01  1.77D+00  5.94D-01  5.22D-01  5.47D-01
                    CP:  8.25D-01  4.88D-01  6.56D-01  9.11D-01  8.92D-01
                    CP:  8.53D-01  8.32D-01  8.30D-01  1.03D+00  8.71D-01
 E= -3005.34944262873     Delta-E=        0.000000000015 Rises=F Damp=F
 DIIS: error= 6.15D-08 at cycle  16 NSaved=  16.
 NSaved=16 IEnMin=15 EnMin= -3005.34944262875     IErMin=16 ErrMin= 6.15D-08
 ErrMax= 6.15D-08  0.00D+00 EMaxC= 1.00D-01 BMatC= 1.54D-11 BMatP= 8.14D-11
 IDIUse=1 WtCom= 1.00D+00 WtEn= 0.00D+00
 Coeff-Com: -0.112D-05 0.847D-06-0.469D-05-0.189D-05 0.431D-04 0.238D-03
 Coeff-Com:  0.160D-03 0.475D-03 0.605D-03-0.261D-02-0.869D-02-0.243D-01
 Coeff-Com: -0.116D-01 0.815D-01 0.347D+00 0.618D+00
 Coeff:     -0.112D-05 0.847D-06-0.469D-05-0.189D-05 0.431D-04 0.238D-03
 Coeff:      0.160D-03 0.475D-03 0.605D-03-0.261D-02-0.869D-02-0.243D-01
 Coeff:     -0.116D-01 0.815D-01 0.347D+00 0.618D+00
 Gap=     0.073 Goal=   None    Shift=    0.000
 RMSDP=6.39D-09 MaxDP=5.01D-07 DE= 1.46D-11 OVMax= 2.76D-06

 SCF Done:  E(RPBE1PBE) =  -3005.34944263     A.U. after   16 cycles
            NFock= 16  Conv=0.64D-08     -V/T= 2.0103
 KE= 2.974854820334D+03 PE=-2.617685280366D+04 EE= 1.060364752355D+04
 Leave Link  502 at Thu May  5 12:44:53 2022, MaxMem= 10066329600 cpu:            9854.0 elap:             412.3
 (Enter /sw/apps/gaussian-16.0/g16/l801.exe)
 DoSCS=F DFT=T ScalE2(SS,OS)=  1.000000  1.000000
 ExpMin= 3.36D-02 ExpMax= 4.95D+03 ExpMxC= 7.45D+02 IAcc=3 IRadAn=         5 AccDes= 0.00D+00
 HarFok:  IExCor=  205 AccDes= 0.00D+00 IRadAn=         5 IDoV=-2 UseB2=F ITyADJ=14
 ICtDFT= 12500011 ScaDFX=  1.000000  1.000000  1.000000  1.000000
 GSVD:  LWork=       -5460 too small for GESVD, short by       25550 words or       25550 for optimal perf.
 Largest valence mixing into a core orbital is  1.53D-04
 Largest core mixing into a valence orbital is  5.54D-05
 Range of M.O.s used for correlation:    71  1298
 NBasis=  1298 NAE=   246 NBE=   246 NFC=    70 NFV=     0
 NROrb=   1228 NOA=   176 NOB=   176 NVA=  1052 NVB=  1052

 **** Warning!!: The smallest alpha delta epsilon is  0.72972477D-01

 Leave Link  801 at Thu May  5 12:44:53 2022, MaxMem= 10066329600 cpu:               7.5 elap:               0.3
 (Enter /sw/apps/gaussian-16.0/g16/l914.exe)
 RHF ground state
 Two-electron integrals replicated using symmetry.
 MDV= 10066329600 DFT=T DoStab=F Mixed=T DoRPA=T DoScal=F NonHer=T
 Making orbital integer symmetry assigments:
 Orbital symmetries:
       Occupied  (A) (A) (A) (A) (A) (A) (A) (A) (A) (A) (A) (A)
                 (A) (A) (A) (A) (A) (A) (A) (A) (A) (A) (A) (A)
                 (A) (A) (A) (A) (A) (A) (A) (A) (A) (A) (A) (A)
                 (A) (A) (A) (A) (A) (A) (A) (A) (A) (A) (A) (A)
                 (A) (A) (A) (A) (A) (A) (A) (A) (A) (A) (A) (A)
                 (A) (A) (A) (A) (A) (A) (A) (A) (A) (A) (A) (A)
                 (A) (A) (A) (A) (A) (A) (A) (A) (A) (A) (A) (A)
                 (A) (A) (A) (A) (A) (A) (A) (A) (A) (A) (A) (A)
                 (A) (A) (A) (A) (A) (A) (A) (A) (A) (A) (A) (A)
                 (A) (A) (A) (A) (A) (A) (A) (A) (A) (A) (A) (A)
                 (A) (A) (A) (A) (A) (A) (A) (A) (A) (A) (A) (A)
                 (A) (A) (A) (A) (A) (A) (A) (A) (A) (A) (A) (A)
                 (A) (A) (A) (A) (A) (A) (A) (A) (A) (A) (A) (A)
                 (A) (A) (A) (A) (A) (A) (A) (A) (A) (A) (A) (A)
                 (A) (A) (A) (A) (A) (A) (A) (A) (A) (A) (A) (A)
                 (A) (A) (A) (A) (A) (A) (A) (A) (A) (A) (A) (A)
                 (A) (A) (A) (A) (A) (A) (A) (A) (A) (A) (A) (A)
                 (A) (A) (A) (A) (A) (A) (A) (A) (A) (A) (A) (A)
                 (A) (A) (A) (A) (A) (A) (A) (A) (A) (A) (A) (A)
                 (A) (A) (A) (A) (A) (A) (A) (A) (A) (A) (A) (A)
                 (A) (A) (A) (A) (A) (A)
       Virtual   (A) (A) (A) (A) (A) (A) (A) (A) (A) (A) (A) (A)
                 (A) (A) (A) (A) (A) (A) (A) (A) (A) (A) (A) (A)
                 (A) (A) (A) (A) (A) (A) (A) (A) (A) (A) (A) (A)
                 (A) (A) (A) (A) (A) (A) (A) (A) (A) (A) (A) (A)
                 (A) (A) (A) (A) (A) (A) (A) (A) (A) (A) (A) (A)
                 (A) (A) (A) (A) (A) (A) (A) (A) (A) (A) (A) (A)
                 (A) (A) (A) (A) (A) (A) (A) (A) (A) (A) (A) (A)
                 (A) (A) (A) (A) (A) (A) (A) (A) (A) (A) (A) (A)
                 (A) (A) (A) (A) (A) (A) (A) (A) (A) (A) (A) (A)
                 (A) (A) (A) (A) (A) (A) (A) (A) (A) (A) (A) (A)
                 (A) (A) (A) (A) (A) (A) (A) (A) (A) (A) (A) (A)
                 (A) (A) (A) (A) (A) (A) (A) (A) (A) (A) (A) (A)
                 (A) (A) (A) (A) (A) (A) (A) (A) (A) (A) (A) (A)
                 (A) (A) (A) (A) (A) (A) (A) (A) (A) (A) (A) (A)
                 (A) (A) (A) (A) (A) (A) (A) (A) (A) (A) (A) (A)
                 (A) (A) (A) (A) (A) (A) (A) (A) (A) (A) (A) (A)
                 (A) (A) (A) (A) (A) (A) (A) (A) (A) (A) (A) (A)
                 (A) (A) (A) (A) (A) (A) (A) (A) (A) (A) (A) (A)
                 (A) (A) (A) (A) (A) (A) (A) (A) (A) (A) (A) (A)
                 (A) (A) (A) (A) (A) (A) (A) (A) (A) (A) (A) (A)
                 (A) (A) (A) (A) (A) (A) (A) (A) (A) (A) (A) (A)
                 (A) (A) (A) (A) (A) (A) (A) (A) (A) (A) (A) (A)
                 (A) (A) (A) (A) (A) (A) (A) (A) (A) (A) (A) (A)
                 (A) (A) (A) (A) (A) (A) (A) (A) (A) (A) (A) (A)
                 (A) (A) (A) (A) (A) (A) (A) (A) (A) (A) (A) (A)
                 (A) (A) (A) (A) (A) (A) (A) (A) (A) (A) (A) (A)
                 (A) (A) (A) (A) (A) (A) (A) (A) (A) (A) (A) (A)
                 (A) (A) (A) (A) (A) (A) (A) (A) (A) (A) (A) (A)
                 (A) (A) (A) (A) (A) (A) (A) (A) (A) (A) (A) (A)
                 (A) (A) (A) (A) (A) (A) (A) (A) (A) (A) (A) (A)
                 (A) (A) (A) (A) (A) (A) (A) (A) (A) (A) (A) (A)
                 (A) (A) (A) (A) (A) (A) (A) (A) (A) (A) (A) (A)
                 (A) (A) (A) (A) (A) (A) (A) (A) (A) (A) (A) (A)
                 (A) (A) (A) (A) (A) (A) (A) (A) (A) (A) (A) (A)
                 (A) (A) (A) (A) (A) (A) (A) (A) (A) (A) (A) (A)
                 (A) (A) (A) (A) (A) (A) (A) (A) (A) (A) (A) (A)
                 (A) (A) (A) (A) (A) (A) (A) (A) (A) (A) (A) (A)
                 (A) (A) (A) (A) (A) (A) (A) (A) (A) (A) (A) (A)
                 (A) (A) (A) (A) (A) (A) (A) (A) (A) (A) (A) (A)
                 (A) (A) (A) (A) (A) (A) (A) (A) (A) (A) (A) (A)
                 (A) (A) (A) (A) (A) (A) (A) (A) (A) (A) (A) (A)
                 (A) (A) (A) (A) (A) (A) (A) (A) (A) (A) (A) (A)
                 (A) (A) (A) (A) (A) (A) (A) (A) (A) (A) (A) (A)
                 (A) (A) (A) (A) (A) (A) (A) (A) (A) (A) (A) (A)
                 (A) (A) (A) (A) (A) (A) (A) (A) (A) (A) (A) (A)
                 (A) (A) (A) (A) (A) (A) (A) (A) (A) (A) (A) (A)
                 (A) (A) (A) (A) (A) (A) (A) (A) (A) (A) (A) (A)
                 (A) (A) (A) (A) (A) (A) (A) (A) (A) (A) (A) (A)
                 (A) (A) (A) (A) (A) (A) (A) (A) (A) (A) (A) (A)
                 (A) (A) (A) (A) (A) (A) (A) (A) (A) (A) (A) (A)
                 (A) (A) (A) (A) (A) (A) (A) (A) (A) (A) (A) (A)
                 (A) (A) (A) (A) (A) (A) (A) (A) (A) (A) (A) (A)
                 (A) (A) (A) (A) (A) (A) (A) (A) (A) (A) (A) (A)
                 (A) (A) (A) (A) (A) (A) (A) (A) (A) (A) (A) (A)
                 (A) (A) (A) (A) (A) (A) (A) (A) (A) (A) (A) (A)
                 (A) (A) (A) (A) (A) (A) (A) (A) (A) (A) (A) (A)
                 (A) (A) (A) (A) (A) (A) (A) (A) (A) (A) (A) (A)
                 (A) (A) (A) (A) (A) (A) (A) (A) (A) (A) (A) (A)
                 (A) (A) (A) (A) (A) (A) (A) (A) (A) (A) (A) (A)
                 (A) (A) (A) (A) (A) (A) (A) (A) (A) (A) (A) (A)
                 (A) (A) (A) (A) (A) (A) (A) (A) (A) (A) (A) (A)
                 (A) (A) (A) (A) (A) (A) (A) (A) (A) (A) (A) (A)
                 (A) (A) (A) (A) (A) (A) (A) (A) (A) (A) (A) (A)
                 (A) (A) (A) (A) (A) (A) (A) (A) (A) (A) (A) (A)
                 (A) (A) (A) (A) (A) (A) (A) (A) (A) (A) (A) (A)
                 (A) (A) (A) (A) (A) (A) (A) (A) (A) (A) (A) (A)
                 (A) (A) (A) (A) (A) (A) (A) (A) (A) (A) (A) (A)
                 (A) (A) (A) (A) (A) (A) (A) (A) (A) (A) (A) (A)
                 (A) (A) (A) (A) (A) (A) (A) (A) (A) (A) (A) (A)
                 (A) (A) (A) (A) (A) (A) (A) (A) (A) (A) (A) (A)
                 (A) (A) (A) (A) (A) (A) (A) (A) (A) (A) (A) (A)
                 (A) (A) (A) (A) (A) (A) (A) (A) (A) (A) (A) (A)
                 (A) (A) (A) (A) (A) (A) (A) (A) (A) (A) (A) (A)
                 (A) (A) (A) (A) (A) (A) (A) (A) (A) (A) (A) (A)
                 (A) (A) (A) (A) (A) (A) (A) (A) (A) (A) (A) (A)
                 (A) (A) (A) (A) (A) (A) (A) (A) (A) (A) (A) (A)
                 (A) (A) (A) (A) (A) (A) (A) (A) (A) (A) (A) (A)
                 (A) (A) (A) (A) (A) (A) (A) (A) (A) (A) (A) (A)
                 (A) (A) (A) (A) (A) (A) (A) (A) (A) (A) (A) (A)
                 (A) (A) (A) (A) (A) (A) (A) (A) (A) (A) (A) (A)
                 (A) (A) (A) (A) (A) (A) (A) (A) (A) (A) (A) (A)
                 (A) (A) (A) (A) (A) (A) (A) (A) (A) (A) (A) (A)
                 (A) (A) (A) (A) (A) (A) (A) (A) (A) (A) (A) (A)
                 (A) (A) (A) (A) (A) (A) (A) (A) (A) (A) (A) (A)
                 (A) (A) (A) (A) (A) (A) (A) (A) (A) (A) (A) (A)
                 (A) (A) (A) (A) (A) (A) (A) (A) (A) (A) (A) (A)
                 (A) (A) (A) (A) (A) (A) (A) (A) (A) (A) (A) (A)
                 (A) (A) (A) (A) (A) (A) (A) (A)
    20 initial guesses have been made.
 Convergence on wavefunction:    0.001000000000000
 Davidson Disk Diagonalization:  ConvIn= 1.00D-03 SkipCon=T Conv= 1.00D-03.
 Max sub-space:  2000 roots to seek:    20 dimension of matrix:       370304
 Iteration     1 Dimension    20 NMult     0 NNew     20
 CISAX will form    20 AO SS matrices at one time.
 NMat=    20 NSing=    20 JSym2X= 0.
 FoFJK:  IHMeth= 1 ICntrl=       0 DoSepK=F KAlg= 0 I1Cent=           0 FoldK=F
 IRaf= 530000000 NMat=      40 IRICut=       1 DoRegI=T DoRafI=F ISym2E= 0 IDoP0=3 IntGTp=3.
 FoFCou: FMM=T IPFlag=           0 FMFlag=      100000 FMFlg1=        2001
         NFxFlg=           0 DoJE=F BraDBF=F KetDBF=F FulRan=T
         wScrn=  0.000000 ICntrl=         0 IOpCl=  0 I1Cent=           0 NGrid=           0
         NMat0=   40 NMatS0=     20 NMatT0=    0 NMatD0=   40 NMtDS0=    0 NMtDT0=    0
 Symmetry not used in FoFCou.
 FMM levels:  10  Number of levels for PrismC:   9
 New state      3 was old state      4
 New state      4 was old state      6
 New state      5 was old state      7
 Excitation Energies [eV] at current iteration:
 Root      1 :     2.185365324573277
 Root      2 :     2.488105992559885
 Root      3 :     2.986404342645808
 Root      4 :     3.037700660696739
 Root      5 :     3.046915468848963
 Root      6 :     3.069227068033398
 Root      7 :     3.493677119530632
 Root      8 :     3.624919130700322
 Root      9 :     3.900036607759363
 Root     10 :     3.925832118864824
 Root     11 :     4.078058032789628
 Root     12 :     4.166535924989982
 Root     13 :     4.311935913136510
 Root     14 :     4.321885385152084
 Root     15 :     4.380253484315442
 Root     16 :     4.445207899584736
 Root     17 :     4.467377184084871
 Root     18 :     4.738058350471904
 Root     19 :     4.747111330677324
 Root     20 :     4.855983078312565
 Iteration     2 Dimension    30 NMult    20 NNew     10
 CISAX will form    10 AO SS matrices at one time.
 NMat=    10 NSing=    10 JSym2X= 0.
 Root      1 not converged, maximum delta is    0.075612695735409
 Root      2 not converged, maximum delta is    0.075195548848730
 Root      3 not converged, maximum delta is    0.118773181016807
 New state      4 was old state      5
 Root      4 not converged, maximum delta is    0.150267938387964
 New state      5 was old state      4
 Root      5 not converged, maximum delta is    0.151470357500015
 Excitation Energies [eV] at current iteration:
 Root      1 :     1.837521744097853   Change is   -0.347843580475423
 Root      2 :     2.202200888674006   Change is   -0.285905103885878
 Root      3 :     2.736485255296247   Change is   -0.249919087349561
 Root      4 :     2.933267521913286   Change is   -0.113647946935677
 Root      5 :     2.950158696226766   Change is   -0.087541964469973
 Iteration     3 Dimension    40 NMult    30 NNew     10
 CISAX will form    10 AO SS matrices at one time.
 NMat=    10 NSing=    10 JSym2X= 0.
 Root      1 not converged, maximum delta is    0.024027982762016
 Root      2 not converged, maximum delta is    0.021598734833671
 Root      3 not converged, maximum delta is    0.012941348714647
 Root      4 not converged, maximum delta is    0.021002168023873
 Root      5 not converged, maximum delta is    0.021091205709098
 Excitation Energies [eV] at current iteration:
 Root      1 :     1.805862140339379   Change is   -0.031659603758474
 Root      2 :     2.181703307772864   Change is   -0.020497580901143
 Root      3 :     2.722592987048658   Change is   -0.013892268247589
 Root      4 :     2.921051977223704   Change is   -0.012215544689582
 Root      5 :     2.941366125605462   Change is   -0.008792570621305
 Iteration     4 Dimension    50 NMult    40 NNew     10
 CISAX will form    10 AO SS matrices at one time.
 NMat=    10 NSing=    10 JSym2X= 0.
 Root      1 not converged, maximum delta is    0.002853224203217
 Root      2 not converged, maximum delta is    0.008025285564525
 Root      3 not converged, maximum delta is    0.006224507145926
 Root      4 not converged, maximum delta is    0.007363927049747
 Root      5 not converged, maximum delta is    0.002982363024502
 Excitation Energies [eV] at current iteration:
 Root      1 :     1.802201964940375   Change is   -0.003660175399004
 Root      2 :     2.178905722843248   Change is   -0.002797584929615
 Root      3 :     2.720549607417381   Change is   -0.002043379631277
 Root      4 :     2.919374345624160   Change is   -0.001677631599544
 Root      5 :     2.940419171624582   Change is   -0.000946953980880
 Iteration     5 Dimension    60 NMult    50 NNew     10
 CISAX will form    10 AO SS matrices at one time.
 NMat=    10 NSing=    10 JSym2X= 0.
 Root      1 has converged.
 Root      2 not converged, maximum delta is    0.001022446180576
 Root      3 not converged, maximum delta is    0.001387856401220
 Root      4 not converged, maximum delta is    0.001849898292121
 Root      5 has converged.
 Excitation Energies [eV] at current iteration:
 Root      1 :     1.801828865539707   Change is   -0.000373099400667
 Root      2 :     2.178687285098456   Change is   -0.000218437744793
 Root      3 :     2.720319063693025   Change is   -0.000230543724356
 Root      4 :     2.919216525438067   Change is   -0.000157820186093
 Root      5 :     2.940305688306719   Change is   -0.000113483317863
 Iteration     6 Dimension    66 NMult    60 NNew      6
 CISAX will form     6 AO SS matrices at one time.
 NMat=     6 NSing=     6 JSym2X= 0.
 Root      1 has converged.
 Root      2 has converged.
 Root      3 has converged.
 Root      4 has converged.
 Root      5 has converged.
 Excitation Energies [eV] at current iteration:
 Root      1 :     1.801826671344604   Change is   -0.000002194195104
 Root      2 :     2.178665530098433   Change is   -0.000021755000023
 Root      3 :     2.720298238799819   Change is   -0.000020824893207
 Root      4 :     2.919194244970632   Change is   -0.000022280467435
 Root      5 :     2.940304260859568   Change is   -0.000001427447151
 Convergence achieved on expansion vectors.
 ***********************************************************************
 Excited states from <AA,BB:AA,BB> singles matrix:
 ***********************************************************************
 
 1PDM for each excited state written to RWF  633
 Ground to excited state transition densities written to RWF  633
 Ground to excited state transition electric dipole moments (Au):
       state          X           Y           Z        Dip. S.      Osc.
         1        -0.1516     -2.8229     -0.5852      8.3341      0.3679
         2         1.4072     -0.2778      0.2548      2.1223      0.1133
         3        -0.3801      0.1512     -0.0746      0.1729      0.0115
         4        -0.0522     -0.0039     -0.0257      0.0034      0.0002
         5        -0.0369      0.0459     -0.0280      0.0042      0.0003
 Ground to excited state transition velocity dipole moments (Au):
       state          X           Y           Z        Dip. S.      Osc.
         1         0.0088      0.1814      0.0385      0.0345      0.3470
         2        -0.1067      0.0216     -0.0192      0.0122      0.1017
         3         0.0395     -0.0130      0.0083      0.0018      0.0120
         4         0.0049      0.0011      0.0004      0.0000      0.0002
         5         0.0034     -0.0056     -0.0010      0.0000      0.0003
 Ground to excited state transition magnetic dipole moments (Au):
       state          X           Y           Z
         1         0.0166      0.4493     -2.0299
         2         0.0050     -0.1528      0.0526
         3        -0.1506      0.0408      0.7362
         4         0.4444      0.0199     -0.2880
         5         0.0724     -0.4017      0.0819
 Ground to excited state transition velocity quadrupole moments (Au):
       state          XX          YY          ZZ          XY          XZ          YZ
         1        -0.2748      0.3218     -0.0435     -2.0111     -0.5065      0.0710
         2         2.0050      0.1162     -0.0015     -0.1718      0.2047      0.0827
         3        -0.6577     -0.0994     -0.0124     -0.1547     -0.0820     -0.1223
         4        -0.0883     -0.0966      0.0083      0.0761      0.0102      0.0004
         5        -0.0596      0.0039      0.0267      0.0208      0.0325     -0.0113
 <0|del|b> * <b|rxdel|0> + <0|del|b> * <b|delr+rdel|0>
 Rotatory Strengths (R) in cgs (10**-40 erg-esu-cm/Gauss)
       state          XX          YY          ZZ    R(velocity)    E-M Angle
         1        95.9768      0.2351    -57.9523     12.7532       89.47
         2       -23.9833    -60.3691     41.5500    -14.2675      105.74
         3        11.3287    -12.1288     -2.0598     -0.9533       90.73
         4        -0.2588      6.6773      7.2844      4.5676       39.01
         5         7.6011      0.4906      7.6927      5.2615       29.23
 1/2[<0|r|b>*<b|rxdel|0> + (<0|rxdel|b>*<b|r|0>)*]
 Rotatory Strengths (R) in cgs (10**-40 erg-esu-cm/Gauss)
       state          XX          YY          ZZ     R(length)
         1         1.7740    896.8421   -840.0584     19.5193
         2        -5.0218    -30.0149     -9.4719    -14.8362
         3       -40.4842     -4.3665     38.8479     -2.0009
         4        16.4005      0.0550     -5.2391      3.7388
         5         1.8902     13.0292      1.6196      5.5130
  1/2[<0|del|b>*<b|r|0> + (<0|r|b>*<b|del|0>)*] (Au)
       state          X           Y           Z        Dip. S.   Osc.(frdel)
         1        -0.0013     -0.5121     -0.0225      0.5359      0.3573
         2        -0.1501     -0.0060     -0.0049      0.1610      0.1073
         3        -0.0150     -0.0020     -0.0006      0.0176      0.0117
         4        -0.0003     -0.0000     -0.0000      0.0003      0.0002
         5        -0.0001     -0.0003      0.0000      0.0004      0.0002

 Excitation energies and oscillator strengths:
 
 Excited State   1:      Singlet-A      1.8018 eV  688.10 nm  f=0.3679  <S**2>=0.000
     245 -> 248        0.15853
     246 -> 247        0.69553
     246 <- 247       -0.11811
 This state for optimization and/or second-order correction.
 Total Energy, E(TD-HF/TD-DFT) =  -3005.28322672    
 Copying the excited state density for this state as the 1-particle RhoCI density.
 
 Excited State   2:      Singlet-A      2.1787 eV  569.08 nm  f=0.1133  <S**2>=0.000
     245 -> 247        0.65260
     246 -> 248       -0.23497
 
 Excited State   3:      Singlet-A      2.7203 eV  455.77 nm  f=0.0115  <S**2>=0.000
     243 -> 247        0.69300
 
 Excited State   4:      Singlet-A      2.9192 eV  424.72 nm  f=0.0002  <S**2>=0.000
     240 -> 247       -0.17356
     241 -> 247        0.65426
     241 -> 248       -0.10449
     241 -> 249        0.12729
 
 Excited State   5:      Singlet-A      2.9403 eV  421.67 nm  f=0.0003  <S**2>=0.000
     242 -> 247        0.68688
     242 -> 249       -0.11576
     242 -> 250       -0.10133
 SavETr:  write IOETrn=   770 NScale= 10 NData=  16 NLR=1 NState=    5 LETran=     100.
 Leave Link  914 at Thu May  5 13:01:25 2022, MaxMem= 10066329600 cpu:           23756.2 elap:             991.4
 (Enter /sw/apps/gaussian-16.0/g16/l601.exe)
 Copying SCF densities to generalized density rwf, IOpCl= 0 IROHF=0.
 Hyperfine terms turned off by default for NAtoms > 100.

 **********************************************************************

            Population analysis using the SCF density.

 **********************************************************************

 Orbital symmetries:
       Occupied  (A) (A) (A) (A) (A) (A) (A) (A) (A) (A) (A) (A)
                 (A) (A) (A) (A) (A) (A) (A) (A) (A) (A) (A) (A)
                 (A) (A) (A) (A) (A) (A) (A) (A) (A) (A) (A) (A)
                 (A) (A) (A) (A) (A) (A) (A) (A) (A) (A) (A) (A)
                 (A) (A) (A) (A) (A) (A) (A) (A) (A) (A) (A) (A)
                 (A) (A) (A) (A) (A) (A) (A) (A) (A) (A) (A) (A)
                 (A) (A) (A) (A) (A) (A) (A) (A) (A) (A) (A) (A)
                 (A) (A) (A) (A) (A) (A) (A) (A) (A) (A) (A) (A)
                 (A) (A) (A) (A) (A) (A) (A) (A) (A) (A) (A) (A)
                 (A) (A) (A) (A) (A) (A) (A) (A) (A) (A) (A) (A)
                 (A) (A) (A) (A) (A) (A) (A) (A) (A) (A) (A) (A)
                 (A) (A) (A) (A) (A) (A) (A) (A) (A) (A) (A) (A)
                 (A) (A) (A) (A) (A) (A) (A) (A) (A) (A) (A) (A)
                 (A) (A) (A) (A) (A) (A) (A) (A) (A) (A) (A) (A)
                 (A) (A) (A) (A) (A) (A) (A) (A) (A) (A) (A) (A)
                 (A) (A) (A) (A) (A) (A) (A) (A) (A) (A) (A) (A)
                 (A) (A) (A) (A) (A) (A) (A) (A) (A) (A) (A) (A)
                 (A) (A) (A) (A) (A) (A) (A) (A) (A) (A) (A) (A)
                 (A) (A) (A) (A) (A) (A) (A) (A) (A) (A) (A) (A)
                 (A) (A) (A) (A) (A) (A) (A) (A) (A) (A) (A) (A)
                 (A) (A) (A) (A) (A) (A)
       Virtual   (A) (A) (A) (A) (A) (A) (A) (A) (A) (A) (A) (A)
                 (A) (A) (A) (A) (A) (A) (A) (A) (A) (A) (A) (A)
                 (A) (A) (A) (A) (A) (A) (A) (A) (A) (A) (A) (A)
                 (A) (A) (A) (A) (A) (A) (A) (A) (A) (A) (A) (A)
                 (A) (A) (A) (A) (A) (A) (A) (A) (A) (A) (A) (A)
                 (A) (A) (A) (A) (A) (A) (A) (A) (A) (A) (A) (A)
                 (A) (A) (A) (A) (A) (A) (A) (A) (A) (A) (A) (A)
                 (A) (A) (A) (A) (A) (A) (A) (A) (A) (A) (A) (A)
                 (A) (A) (A) (A) (A) (A) (A) (A) (A) (A) (A) (A)
                 (A) (A) (A) (A) (A) (A) (A) (A) (A) (A) (A) (A)
                 (A) (A) (A) (A) (A) (A) (A) (A) (A) (A) (A) (A)
                 (A) (A) (A) (A) (A) (A) (A) (A) (A) (A) (A) (A)
                 (A) (A) (A) (A) (A) (A) (A) (A) (A) (A) (A) (A)
                 (A) (A) (A) (A) (A) (A) (A) (A) (A) (A) (A) (A)
                 (A) (A) (A) (A) (A) (A) (A) (A) (A) (A) (A) (A)
                 (A) (A) (A) (A) (A) (A) (A) (A) (A) (A) (A) (A)
                 (A) (A) (A) (A) (A) (A) (A) (A) (A) (A) (A) (A)
                 (A) (A) (A) (A) (A) (A) (A) (A) (A) (A) (A) (A)
                 (A) (A) (A) (A) (A) (A) (A) (A) (A) (A) (A) (A)
                 (A) (A) (A) (A) (A) (A) (A) (A) (A) (A) (A) (A)
                 (A) (A) (A) (A) (A) (A) (A) (A) (A) (A) (A) (A)
                 (A) (A) (A) (A) (A) (A) (A) (A) (A) (A) (A) (A)
                 (A) (A) (A) (A) (A) (A) (A) (A) (A) (A) (A) (A)
                 (A) (A) (A) (A) (A) (A) (A) (A) (A) (A) (A) (A)
                 (A) (A) (A) (A) (A) (A) (A) (A) (A) (A) (A) (A)
                 (A) (A) (A) (A) (A) (A) (A) (A) (A) (A) (A) (A)
                 (A) (A) (A) (A) (A) (A) (A) (A) (A) (A) (A) (A)
                 (A) (A) (A) (A) (A) (A) (A) (A) (A) (A) (A) (A)
                 (A) (A) (A) (A) (A) (A) (A) (A) (A) (A) (A) (A)
                 (A) (A) (A) (A) (A) (A) (A) (A) (A) (A) (A) (A)
                 (A) (A) (A) (A) (A) (A) (A) (A) (A) (A) (A) (A)
                 (A) (A) (A) (A) (A) (A) (A) (A) (A) (A) (A) (A)
                 (A) (A) (A) (A) (A) (A) (A) (A) (A) (A) (A) (A)
                 (A) (A) (A) (A) (A) (A) (A) (A) (A) (A) (A) (A)
                 (A) (A) (A) (A) (A) (A) (A) (A) (A) (A) (A) (A)
                 (A) (A) (A) (A) (A) (A) (A) (A) (A) (A) (A) (A)
                 (A) (A) (A) (A) (A) (A) (A) (A) (A) (A) (A) (A)
                 (A) (A) (A) (A) (A) (A) (A) (A) (A) (A) (A) (A)
                 (A) (A) (A) (A) (A) (A) (A) (A) (A) (A) (A) (A)
                 (A) (A) (A) (A) (A) (A) (A) (A) (A) (A) (A) (A)
                 (A) (A) (A) (A) (A) (A) (A) (A) (A) (A) (A) (A)
                 (A) (A) (A) (A) (A) (A) (A) (A) (A) (A) (A) (A)
                 (A) (A) (A) (A) (A) (A) (A) (A) (A) (A) (A) (A)
                 (A) (A) (A) (A) (A) (A) (A) (A) (A) (A) (A) (A)
[...]
 Alpha virt. eigenvalues --    1.17518   1.17610   1.18150   1.18496   1.19096
 Alpha virt. eigenvalues --    1.19371   1.19858   1.20561   1.20971   1.21424
 Alpha virt. eigenvalues --    1.21634   1.22090   1.22431   1.22876   1.23314
 Alpha virt. eigenvalues --    1.24014   1.24615   1.25102   1.25587   1.25816
 Alpha virt. eigenvalues --    1.27145   1.27654   1.27972   1.28011   1.28497
 Alpha virt. eigenvalues --    1.29020   1.29051   1.29528   1.30007   1.30261
 Alpha virt. eigenvalues --    1.30985   1.31726   1.31873   1.32260   1.32738
 Alpha virt. eigenvalues --    1.33079   1.33475   1.33783   1.34079   1.34224
 Alpha virt. eigenvalues --    1.34972   1.35080   1.35369   1.35659   1.35918
 Alpha virt. eigenvalues --    1.36201   1.36773   1.37014   1.37255   1.37841
 Alpha virt. eigenvalues --    1.38322   1.39053   1.39107   1.39668   1.39769
 Alpha virt. eigenvalues --    1.41129   1.41490   1.41832   1.42476   1.42949
 Alpha virt. eigenvalues --    1.43419   1.43537   1.43813   1.44127   1.44501
 Alpha virt. eigenvalues --    1.44830   1.45605   1.46313   1.46986   1.47344
 Alpha virt. eigenvalues --    1.47524   1.48492   1.49072   1.49327   1.49997
 Alpha virt. eigenvalues --    1.50275   1.50395   1.50460   1.51053   1.51230
 Alpha virt. eigenvalues --    1.51428   1.51774   1.52855   1.52999   1.53442
 Alpha virt. eigenvalues --    1.53460   1.53871   1.54216   1.54483   1.54581
 Alpha virt. eigenvalues --    1.54874   1.55297   1.55418   1.55459   1.55881
 Alpha virt. eigenvalues --    1.55910   1.56169   1.56200   1.56602   1.56651
 Alpha virt. eigenvalues --    1.56829   1.57010   1.57265   1.57583   1.57880
 Alpha virt. eigenvalues --    1.58340   1.58394   1.58646   1.59056   1.59170
 Alpha virt. eigenvalues --    1.59225   1.59682   1.60211   1.60632   1.61199
 Alpha virt. eigenvalues --    1.61723   1.62268   1.62645   1.63022   1.63583
 Alpha virt. eigenvalues --    1.63986   1.64577   1.64677   1.64945   1.65902
 Alpha virt. eigenvalues --    1.66165   1.66232   1.66600   1.67030   1.67301
 Alpha virt. eigenvalues --    1.67693   1.67966   1.68388   1.68751   1.69810
 Alpha virt. eigenvalues --    1.70235   1.70485   1.70595   1.70870   1.71103
 Alpha virt. eigenvalues --    1.71129   1.71583   1.72021   1.72148   1.72585
 Alpha virt. eigenvalues --    1.73000   1.73064   1.73301   1.73961   1.74286
 Alpha virt. eigenvalues --    1.74316   1.74737   1.74754   1.75147   1.75571
 Alpha virt. eigenvalues --    1.75887   1.75970   1.76139   1.76444   1.76560
 Alpha virt. eigenvalues --    1.76805   1.76834   1.77272   1.77488   1.77722
 Alpha virt. eigenvalues --    1.77971   1.78192   1.78394   1.78549   1.78786
 Alpha virt. eigenvalues --    1.78899   1.79212   1.79573   1.79631   1.80095
 Alpha virt. eigenvalues --    1.80338   1.80429   1.80589   1.80903   1.81048
 Alpha virt. eigenvalues --    1.81203   1.81321   1.81652   1.81789   1.82131
 Alpha virt. eigenvalues --    1.82374   1.82582   1.82869   1.82987   1.83296
 Alpha virt. eigenvalues --    1.83490   1.83635   1.83762   1.83845   1.84248
 Alpha virt. eigenvalues --    1.84331   1.84587   1.84617   1.84798   1.85211
 Alpha virt. eigenvalues --    1.85400   1.85627   1.85671   1.85705   1.85917
 Alpha virt. eigenvalues --    1.86312   1.86436   1.86548   1.86604   1.86781
 Alpha virt. eigenvalues --    1.87309   1.87581   1.87809   1.88421   1.88557
 Alpha virt. eigenvalues --    1.88658   1.88774   1.88901   1.89329   1.89392
 Alpha virt. eigenvalues --    1.89528   1.89765   1.89975   1.90024   1.90315
 Alpha virt. eigenvalues --    1.90793   1.90868   1.91272   1.91429   1.91679
 Alpha virt. eigenvalues --    1.91827   1.92000   1.92195   1.92390   1.92639
 Alpha virt. eigenvalues --    1.92792   1.93287   1.93523   1.93775   1.94232
 Alpha virt. eigenvalues --    1.94412   1.94715   1.94910   1.95456   1.95642
 Alpha virt. eigenvalues --    1.96006   1.96162   1.96471   1.96567   1.96716
 Alpha virt. eigenvalues --    1.96880   1.97188   1.97673   1.97953   1.98401
 Alpha virt. eigenvalues --    1.98537   1.98810   1.99103   1.99255   1.99556
 Alpha virt. eigenvalues --    2.00032   2.00526   2.00923   2.01119   2.01407
 Alpha virt. eigenvalues --    2.01779   2.01958   2.02311   2.02932   2.03222
 Alpha virt. eigenvalues --    2.03326   2.03376   2.03738   2.04079   2.04549
 Alpha virt. eigenvalues --    2.04602   2.04820   2.05067   2.05363   2.05689
 Alpha virt. eigenvalues --    2.06067   2.06566   2.06688   2.06988   2.07583
 Alpha virt. eigenvalues --    2.08132   2.08315   2.08514   2.08773   2.09188
 Alpha virt. eigenvalues --    2.09269   2.09488   2.09835   2.10261   2.10288
 Alpha virt. eigenvalues --    2.10701   2.10844   2.11137   2.11209   2.11655
 Alpha virt. eigenvalues --    2.12229   2.12417   2.12567   2.12767   2.13244
 Alpha virt. eigenvalues --    2.13347   2.13525   2.14477   2.14951   2.15030
 Alpha virt. eigenvalues --    2.15902   2.16173   2.16498   2.16752   2.17207
 Alpha virt. eigenvalues --    2.17752   2.18240   2.18693   2.18963   2.19399
 Alpha virt. eigenvalues --    2.19598   2.20183   2.20486   2.20893   2.20994
 Alpha virt. eigenvalues --    2.21228   2.22540   2.23131   2.23581   2.23827
 Alpha virt. eigenvalues --    2.24140   2.24329   2.24382   2.24559   2.25331
 Alpha virt. eigenvalues --    2.26105   2.26646   2.26991   2.27760   2.27867
 Alpha virt. eigenvalues --    2.28042   2.28447   2.28639   2.28979   2.29605
 Alpha virt. eigenvalues --    2.30398   2.30716   2.31341   2.31507   2.31822
 Alpha virt. eigenvalues --    2.32494   2.32578   2.32696   2.33341   2.33426
 Alpha virt. eigenvalues --    2.33494   2.33788   2.34143   2.34171   2.34628
 Alpha virt. eigenvalues --    2.34971   2.35713   2.35862   2.36223   2.36975
 Alpha virt. eigenvalues --    2.37316   2.37562   2.37736   2.38217   2.38688
 Alpha virt. eigenvalues --    2.38943   2.39047   2.39421   2.39598   2.39690
 Alpha virt. eigenvalues --    2.40014   2.40469   2.40814   2.41130   2.42048
 Alpha virt. eigenvalues --    2.42070   2.42420   2.43152   2.43297   2.43646
 Alpha virt. eigenvalues --    2.43988   2.44347   2.44703   2.45271   2.45417
 Alpha virt. eigenvalues --    2.45512   2.46237   2.46499   2.46600   2.46878
 Alpha virt. eigenvalues --    2.46975   2.48138   2.48355   2.48552   2.50056
 Alpha virt. eigenvalues --    2.50110   2.50676   2.50761   2.51177   2.51815
 Alpha virt. eigenvalues --    2.52662   2.53524   2.54156   2.54292   2.54416
 Alpha virt. eigenvalues --    2.54518   2.54538   2.55609   2.55811   2.56295
 Alpha virt. eigenvalues --    2.56592   2.56824   2.57160   2.57770   2.57931
 Alpha virt. eigenvalues --    2.58338   2.58814   2.59363   2.59622   2.59834
 Alpha virt. eigenvalues --    2.60515   2.60790   2.61264   2.61526   2.62104
 Alpha virt. eigenvalues --    2.62330   2.62873   2.63158   2.63471   2.63588
 Alpha virt. eigenvalues --    2.63985   2.64398   2.64725   2.65086   2.65346
 Alpha virt. eigenvalues --    2.65793   2.66113   2.66499   2.66924   2.66998
 Alpha virt. eigenvalues --    2.67561   2.68155   2.68406   2.69186   2.69332
 Alpha virt. eigenvalues --    2.70023   2.70350   2.70423   2.71002   2.71088
 Alpha virt. eigenvalues --    2.71990   2.72457   2.72487   2.73196   2.73960
 Alpha virt. eigenvalues --    2.74008   2.74644   2.74747   2.74979   2.75575
 Alpha virt. eigenvalues --    2.75717   2.76077   2.76776   2.77053   2.77171
 Alpha virt. eigenvalues --    2.77934   2.77958   2.78639   2.78907   2.80227
 Alpha virt. eigenvalues --    2.81863   2.82253   2.82869   2.83057   2.83431
 Alpha virt. eigenvalues --    2.84130   2.84733   2.84883   2.85420   2.86461
 Alpha virt. eigenvalues --    2.86785   2.87151   2.88070   2.88790   2.89299
 Alpha virt. eigenvalues --    2.89449   2.89600   2.89973   2.91171   2.92061
 Alpha virt. eigenvalues --    2.92153   2.92360   2.92455   2.92812   2.92991
 Alpha virt. eigenvalues --    2.93196   2.93591   2.93853   2.94277   2.94482
 Alpha virt. eigenvalues --    2.94994   2.95324   2.95700   2.95795   2.96097
 Alpha virt. eigenvalues --    2.96189   2.96242   2.96898   2.97083   2.97440
 Alpha virt. eigenvalues --    2.97693   2.98121   2.98544   2.98702   2.98901
 Alpha virt. eigenvalues --    2.99145   2.99369   2.99637   2.99910   3.00221
 Alpha virt. eigenvalues --    3.00642   3.00763   3.01078   3.01151   3.01693
 Alpha virt. eigenvalues --    3.02065   3.02099   3.02513   3.02792   3.03180
 Alpha virt. eigenvalues --    3.04034   3.04849   3.04950   3.05495   3.05655
 Alpha virt. eigenvalues --    3.05797   3.06368   3.06575   3.06995   3.07183
 Alpha virt. eigenvalues --    3.07890   3.08052   3.08427   3.08887   3.09666
 Alpha virt. eigenvalues --    3.09807   3.10069   3.10747   3.11620   3.12927
 Alpha virt. eigenvalues --    3.13112   3.14089   3.14514   3.15364   3.15703
 Alpha virt. eigenvalues --    3.15973   3.16030   3.17194   3.17667   3.19514
 Alpha virt. eigenvalues --    3.20756   3.21286   3.21636   3.21990   3.22963
 Alpha virt. eigenvalues --    3.25447   3.27852   3.37449   3.38307   3.42276
 Alpha virt. eigenvalues --    3.43974   3.44924   3.47508   3.49985   3.52251
 Alpha virt. eigenvalues --    3.58138   3.58181   3.60758   3.63797   3.66177
 Alpha virt. eigenvalues --    3.69790   3.71777
          Condensed to atoms (all electrons):
 Mulliken charges:
               1
     1  Mg   0.967518
     2  C   -0.064454
     3  C   -0.089373
     4  C   -0.053383
     5  C   -0.108179
     6  N   -0.390046
     7  C    0.017347
     8  C   -0.109490
     9  C   -0.089918
    10  C    0.092290
    11  C    0.019001
    12  C    0.027556
    13  C   -0.022834
    14  C    0.217667
    15  O   -0.263819
    16  O   -0.369222
    17  N   -0.528150
    18  C    0.198614
    19  C   -0.159709
    20  C   -0.037363
    21  C    0.185856
    22  C    0.041742
    23  C   -0.014294
    24  O   -0.219599
    25  C   -0.055113
    26  N   -0.454211
    27  C    0.064150
    28  C   -0.088320
    29  C   -0.083489
    30  C    0.072884
    31  C    0.024561
    32  C   -0.060745
    33  C   -0.087897
    34  N   -0.486943
    35  C    0.234032
    36  C   -0.164270
    37  C   -0.054168
    38  C    0.209989
    39  C    0.073425
    40  C    0.127625
    41  O   -0.192687
    42  C   -0.123463
    43  C    0.297432
    44  O   -0.244684
    45  O   -0.369576
    46  C    0.120574
    47  C    0.235492
    48  C   -0.158499
    49  C   -0.252208
    50  C    0.047841
    51  C    0.049494
    52  C   -0.094685
    53  C   -0.044625
    54  C   -0.203248
    55  C   -0.014943
    56  C   -0.003495
    57  C   -0.075445
    58  C   -0.013462
    59  C   -0.226400
    60  C   -0.007312
    61  C   -0.006429
    62  C   -0.036622
    63  C    0.014879
    64  C   -0.246646
    65  C   -0.054025
    66  C   -0.045323
    67  H   -0.001758
    68  H    0.031012
    69  H   -0.001904
    70  H    0.059536
    71  H    0.043554
    72  H    0.041047
    73  H    0.048327
    74  H    0.031505
    75  H    0.053943
    76  H    0.038234
    77  H    0.081976
    78  H    0.065711
    79  H    0.076040
    80  H    0.062155
    81  H    0.053500
    82  H    0.065944
    83  H    0.063644
    84  H    0.038454
    85  H    0.042844
    86  H    0.036186
    87  H    0.042755
    88  H    0.041453
    89  H    0.065124
    90  H    0.046278
    91  H    0.035155
    92  H    0.046578
    93  H    0.063729
    94  H    0.048298
    95  H    0.037575
    96  H    0.065026
    97  H    0.062282
    98  H    0.070088
    99  H    0.067630
   100  H    0.045676
   101  H    0.052358
   102  H    0.066449
   103  H    0.049805
   104  H    0.023073
   105  H    0.038034
   106  H    0.063670
   107  H    0.046062
   108  H    0.031293
   109  H    0.015305
   110  H    0.043102
   111  H    0.052662
   112  H    0.043810
   113  H    0.023937
   114  H    0.040397
   115  H    0.034169
   116  H    0.050415
   117  H    0.029878
   118  H    0.035399
   119  H    0.038904
   120  H    0.029204
   121  H    0.016878
   122  H    0.025991
   123  H    0.020152
   124  H    0.040957
   125  H    0.035247
   126  H    0.035479
   127  H    0.033873
   128  H    0.025702
   129  H    0.021530
   130  H    0.035029
   131  H    0.028973
   132  H    0.019757
   133  H    0.020712
   134  H    0.044844
   135  H    0.039236
   136  H    0.037420
   137  H    0.039286
   138  H    0.042866
   139  H    0.045997
   140  H    0.043343
 Sum of Mulliken charges =  -0.00000
 Mulliken charges with hydrogens summed into heavy atoms:
               1
     1  Mg   0.967518
     2  C   -0.064454
     3  C   -0.091131
     4  C   -0.022371
     5  C   -0.110082
     6  N   -0.390046
     7  C    0.017347
     8  C   -0.049954
     9  C   -0.046363
    10  C    0.092290
    11  C    0.139881
    12  C    0.119733
    13  C    0.124853
    14  C    0.217667
    15  O   -0.263819
    16  O   -0.369222
    17  N   -0.528150
    18  C    0.198614
    19  C   -0.159709
    20  C   -0.037363
    21  C    0.185856
    22  C    0.233438
    23  C   -0.014294
    24  O   -0.219599
    25  C    0.112928
    26  N   -0.454211
    27  C    0.064150
    28  C   -0.045475
    29  C   -0.047302
    30  C    0.072884
    31  C    0.173893
    32  C    0.020688
    33  C    0.070708
    34  N   -0.486943
    35  C    0.234032
    36  C   -0.164270
    37  C   -0.054168
    38  C    0.209989
    39  C    0.238308
    40  C    0.127625
    41  O   -0.192687
    42  C   -0.053375
    43  C    0.297432
    44  O   -0.244684
    45  O   -0.369576
    46  C    0.286237
    47  C    0.351746
    48  C   -0.135426
    49  C   -0.252208
    50  C    0.195607
    51  C    0.096092
    52  C    0.001078
    53  C    0.023122
    54  C   -0.162851
    55  C    0.099520
    56  C    0.070808
    57  C   -0.029363
    58  C    0.032680
    59  C   -0.185444
    60  C    0.097287
    61  C    0.040803
    62  C    0.027381
    63  C    0.055348
    64  C   -0.201802
    65  C    0.061917
    66  C    0.086883
 Electronic spatial extent (au):  <R**2>=         122961.8507
 Charge=             -0.0000 electrons
 Dipole moment (field-independent basis, Debye):
    X=              2.2580    Y=              3.5238    Z=             -0.5242  Tot=              4.2179
 Quadrupole moment (field-independent basis, Debye-Ang):
   XX=           -377.0696   YY=           -418.2988   ZZ=           -400.2497
   XY=              3.6483   XZ=             23.8295   YZ=              4.8595
 Traceless Quadrupole moment (field-independent basis, Debye-Ang):
   XX=             21.4698   YY=            -19.7595   ZZ=             -1.7103
   XY=              3.6483   XZ=             23.8295   YZ=              4.8595
 Octapole moment (field-independent basis, Debye-Ang**2):
  XXX=           -191.4938  YYY=            165.6837  ZZZ=             26.2323  XYY=            192.8916
  XXY=           -245.8071  XXZ=           -221.0321  XZZ=            -19.3008  YZZ=            -20.0517
  YYZ=              8.6931  XYZ=            -24.1451
 Hexadecapole moment (field-independent basis, Debye-Ang**3):
 XXXX=        -139124.8220 YYYY=         -19955.2373 ZZZZ=          -6332.0312 XXXY=           2952.6510
 XXXZ=           1708.4070 YYYX=           -317.6480 YYYZ=            -16.8476 ZZZX=            -13.5935
 ZZZY=           -114.0839 XXYY=         -28425.1959 XXZZ=         -25040.2877 YYZZ=          -4171.2698
 XXYZ=             55.9463 YYXZ=            214.2585 ZZXY=           -103.5718
 N-N= 9.593001017148D+03 E-N=-2.617685273618D+04  KE= 2.974854820334D+03
 Leave Link  601 at Thu May  5 13:01:26 2022, MaxMem= 10066329600 cpu:              14.0 elap:               0.7
 (Enter /sw/apps/gaussian-16.0/g16/l9999.exe)
 1\1\GINC-BP1-COMPUTE135\SP\RPBE1PBE TD-FC\def2SVP\C55H74Mg1N4O6\OF1564
 1\05-May-2022\0\\#p PBE1PBE/Def2SVP td=(nstates=5)\\step_901_chromopho
 re_13 TDDFT with PBE1PBE functional\\0,1\Mg,0,46.437,24.635,28.168\C,0
 ,47.199,26.817,31.009\C,0,45.741,22.171,30.48\C,0,46.57,22.43,25.693\C
 ,0,47.434,27.201,26.142\N,0,46.636,24.496,30.466\C,0,46.767,25.542,31.
 389\C,0,46.646,24.996,32.858\C,0,46.261,23.52,32.602\C,0,46.111,23.345
 ,31.111\C,0,47.109,22.484,33.273\C,0,45.568,25.791,33.662\C,0,45.864,2
 6.579,34.905\C,0,44.858,26.497,36.035\O,0,43.679,26.151,35.984\O,0,45.
 466,26.726,37.267\N,0,46.096,22.619,28.09\C,0,45.779,21.772,29.154\C,0
 ,45.582,20.347,28.655\C,0,45.764,20.445,27.181\C,0,46.196,21.863,26.90
 2\C,0,45.192,19.127,29.601\C,0,45.747,19.426,26.205\O,0,46.124,19.517,
 25.071\C,0,45.312,18.071,26.706\N,0,47.128,24.769,26.251\C,0,46.965,23
 .715,25.336\C,0,47.338,24.257,23.941\C,0,47.174,25.759,24.074\C,0,47.2
 23,25.975,25.601\C,0,48.788,23.799,23.644\C,0,45.92,26.351,23.402\C,0,
 44.599,26.259,24.276\N,0,47.033,26.645,28.391\C,0,47.43,27.536,27.418\
 C,0,47.67,28.809,28.035\C,0,47.637,28.555,29.477\C,0,47.279,27.251,29.
 61\C,0,48.038,30.087,27.362\C,0,47.965,29.153,30.713\O,0,48.353,30.249
 ,31.022\C,0,47.67,28.034,31.851\C,0,48.922,27.619,32.55\O,0,49.971,27.
 363,31.975\O,0,48.752,27.681,33.925\C,0,49.893,27.286,34.725\C,0,44.61
 4,26.949,38.388\C,0,44.666,25.692,39.232\C,0,44.048,25.364,40.377\C,0,
 43.169,26.286,41.18\C,0,43.981,23.912,40.751\C,0,42.603,23.245,40.817\
 C,0,42.156,22.953,42.239\C,0,40.627,22.695,42.269\C,0,39.967,21.88,41.
 071\C,0,39.829,24.07,42.473\C,0,38.766,23.872,43.638\C,0,39.077,24.632
 ,44.974\C,0,40.105,23.775,45.84\C,0,39.326,23.343,47.105\C,0,41.326,24
 .667,46.124\C,0,42.327,23.942,46.998\C,0,43.802,24.146,46.611\C,0,44.3
 99,22.961,45.799\C,0,45.445,22.161,46.807\C,0,45.201,23.548,44.593\H,0
 ,45.36,21.43,31.186\H,0,46.669,21.725,24.865\H,0,47.467,27.983,25.38\H
 ,0,47.655,25.073,33.263\H,0,45.291,23.434,33.091\H,0,47.683,21.913,32.
 543\H,0,46.534,21.797,33.895\H,0,47.946,22.916,33.822\H,0,44.652,25.21
 7,33.796\H,0,45.28,26.59,32.98\H,0,45.952,27.643,34.684\H,0,46.82,26.2
 35,35.299\H,0,46.078,18.509,29.745\H,0,44.421,18.551,29.09\H,0,44.781,
 19.49,30.543\H,0,44.244,17.958,26.893\H,0,45.967,17.721,27.504\H,0,45.
 422,17.434,25.829\H,0,46.694,23.889,23.143\H,0,47.96,26.337,23.589\H,0
 ,49.464,24.652,23.584\H,0,48.665,23.441,22.622\H,0,49.235,23.008,24.24
 7\H,0,45.597,25.959,22.437\H,0,46.115,27.415,23.267\H,0,44.603,27.172,
 24.872\H,0,44.702,25.385,24.919\H,0,43.682,26.208,23.688\H,0,47.72,30.
 141,26.32\H,0,49.128,30.091,27.37\H,0,47.745,30.978,27.916\H,0,46.951,
 28.449,32.558\H,0,50.698,28.005,34.876\H,0,50.36,26.411,34.272\H,0,49.
 586,26.897,35.696\H,0,43.593,27.167,38.076\H,0,45.012,27.785,38.963\H,
 0,45.157,24.901,38.665\H,0,42.926,27.072,40.466\H,0,43.81,26.524,42.03
 \H,0,42.269,25.717,41.412\H,0,44.493,23.904,41.714\H,0,44.584,23.346,4
 0.042\H,0,42.709,22.277,40.327\H,0,41.807,23.837,40.365\H,0,42.57,23.7
 44,42.864\H,0,42.682,22.043,42.529\H,0,40.567,22.043,43.141\H,0,39.848
 ,20.851,41.411\H,0,40.418,21.977,40.083\H,0,38.941,22.201,40.89\H,0,39
 .339,24.419,41.564\H,0,40.437,24.919,42.785\H,0,38.646,22.833,43.948\H
 ,0,37.751,24.134,43.339\H,0,38.113,24.847,45.437\H,0,39.528,25.592,44.
 723\H,0,40.418,22.941,45.213\H,0,38.405,22.827,46.832\H,0,39.08,24.249
 ,47.659\H,0,39.856,22.646,47.755\H,0,41.003,25.619,46.546\H,0,41.75,24
 .973,45.168\H,0,42.226,22.857,47.025\H,0,42.091,24.336,47.986\H,0,44.3
 8,24.233,47.531\H,0,43.976,25.052,46.03\H,0,43.635,22.26,45.463\H,0,46
 .101,21.46,46.291\H,0,44.898,21.614,47.575\H,0,46.043,22.9,47.34\H,0,4
 6.121,24.086,44.821\H,0,44.564,24.242,44.046\H,0,45.394,22.681,43.96\\
 Version=ES64L-G16RevA.03\State=1-A\HF=-3005.3494426\RMSD=6.391e-09\PG=
 C01 [X(C55H74Mg1N4O6)]\\@


 ONE OF THE BENEFITS OF A COLLEGE EDUCATION
 IS TO SHOW THE BOY ITS LITTLE AVAIL 
                                    EMERSON IN 'CULTURE'
 Job cpu time:       0 days  9 hours 24 minutes 45.3 seconds.
 Elapsed time:       0 days  0 hours 23 minutes 35.5 seconds.
 File lengths (MBytes):  RWF=   8929 Int=      0 D2E=      0 Chk=    390 Scr=      1
 Normal termination of Gaussian 16 at Thu May  5 13:01:26 2022.
