 Entering Gaussian System, Link 0=g16
 Initial command:
 /sw/apps/gaussian-16.0/g16/l1.exe "/tmp/Gau-208808.inp" -scrdir="/tmp/"
 Entering Link 1 = /sw/apps/gaussian-16.0/g16/l1.exe PID=    208809.
  
 Copyright (c) 1988,1990,1992,1993,1995,1998,2003,2009,2016,
            Gaussian, Inc.  All Rights Reserved.
  
 This is part of the Gaussian(R) 16 program.  It is based on
 the Gaussian(R) 09 system (copyright 2009, Gaussian, Inc.),
 the Gaussian(R) 03 system (copyright 2003, Gaussian, Inc.),
 the Gaussian(R) 98 system (copyright 1998, Gaussian, Inc.),
 the Gaussian(R) 94 system (copyright 1995, Gaussian, Inc.),
 the Gaussian 92(TM) system (copyright 1992, Gaussian, Inc.),
 the Gaussian 90(TM) system (copyright 1990, Gaussian, Inc.),
 the Gaussian 88(TM) system (copyright 1988, Gaussian, Inc.),
 the Gaussian 86(TM) system (copyright 1986, Carnegie Mellon
 University), and the Gaussian 82(TM) system (copyright 1983,
 Carnegie Mellon University). Gaussian is a federally registered
 trademark of Gaussian, Inc.
  
 This software contains proprietary and confidential information,
 including trade secrets, belonging to Gaussian, Inc.
  
 This software is provided under written license and may be
 used, copied, transmitted, or stored only in accord with that
 written license.
  
 The following legend is applicable only to US Government
 contracts under FAR:
  
                    RESTRICTED RIGHTS LEGEND
  
 Use, reproduction and disclosure by the US Government is
 subject to restrictions as set forth in subparagraphs (a)
 and (c) of the Commercial Computer Software - Restricted
 Rights clause in FAR 52.227-19.
  
 Gaussian, Inc.
 340 Quinnipiac St., Bldg. 40, Wallingford CT 06492
  
  
 ---------------------------------------------------------------
 Warning -- This program may not be used in any manner that
 competes with the business of Gaussian, Inc. or will provide
 assistance to any competitor of Gaussian, Inc.  The licensee
 of this program is prohibited from giving any competitor of
 Gaussian, Inc. access to this program.  By using this program,
 the user acknowledges that Gaussian, Inc. is engaged in the
 business of creating and licensing software in the field of
 computational chemistry and represents and warrants to the
 licensee that it is not a competitor of Gaussian, Inc. and that
 it will not use this program in any manner prohibited above.
 ---------------------------------------------------------------
  

 Cite this work as:
 Gaussian 16, Revision A.03,
 M. J. Frisch, G. W. Trucks, H. B. Schlegel, G. E. Scuseria, 
 M. A. Robb, J. R. Cheeseman, G. Scalmani, V. Barone, 
 G. A. Petersson, H. Nakatsuji, X. Li, M. Caricato, A. V. Marenich, 
 J. Bloino, B. G. Janesko, R. Gomperts, B. Mennucci, H. P. Hratchian, 
 J. V. Ortiz, A. F. Izmaylov, J. L. Sonnenberg, D. Williams-Young, 
 F. Ding, F. Lipparini, F. Egidi, J. Goings, B. Peng, A. Petrone, 
 T. Henderson, D. Ranasinghe, V. G. Zakrzewski, J. Gao, N. Rega, 
 G. Zheng, W. Liang, M. Hada, M. Ehara, K. Toyota, R. Fukuda, 
 J. Hasegawa, M. Ishida, T. Nakajima, Y. Honda, O. Kitao, H. Nakai, 
 T. Vreven, K. Throssell, J. A. Montgomery, Jr., J. E. Peralta, 
 F. Ogliaro, M. J. Bearpark, J. J. Heyd, E. N. Brothers, K. N. Kudin, 
 V. N. Staroverov, T. A. Keith, R. Kobayashi, J. Normand, 
 K. Raghavachari, A. P. Rendell, J. C. Burant, S. S. Iyengar, 
 J. Tomasi, M. Cossi, J. M. Millam, M. Klene, C. Adamo, R. Cammi, 
 J. W. Ochterski, R. L. Martin, K. Morokuma, O. Farkas, 
 J. B. Foresman, and D. J. Fox, Gaussian, Inc., Wallingford CT, 2016.
 
 ******************************************
 Gaussian 16:  ES64L-G16RevA.03 25-Dec-2016
                 4-May-2022 
 ******************************************
 %nproc=24
 Will use up to   24 processors via shared memory.
 %mem=50gb
 --------------------
 #p ZINDO=(nstates=5)
 --------------------
 1/38=1,172=1/1;
 2/12=2,17=6,18=5,40=1/2;
 3/5=2,25=1,41=400000/1,2,3,8;
 4/5=3,35=1/1;
 5/5=2,35=1,38=5/2;
 8/6=1,108=5/1;
 9/41=5,42=1,49=10/14;
 6/7=2,8=2,9=2,10=2/1;
 99/5=1,9=1/99;
 Leave Link    1 at Wed May  4 20:51:10 2022, MaxMem=  6710886400 cpu:               0.7 elap:               0.0
 (Enter /sw/apps/gaussian-16.0/g16/l101.exe)
 -----------------------------
 step_401_chromophore_24 ZINDO
 -----------------------------
 Symbolic Z-matrix:
 Charge =  0 Multiplicity = 1
 Mg                   -0.255     43.288    24.611 
 C                     2.028     42.987    27.336 
 C                    -2.733     42.348    26.842 
 C                    -2.339     43.308    22.057 
 C                     2.544     43.583    22.422 
 N                    -0.335     42.835    26.875 
 C                     0.719     42.825    27.75 
 C                     0.28      42.603    29.194 
 C                    -1.273     42.151    29.001 
 C                    -1.494     42.483    27.515 
 C                    -1.661     40.674    29.333 
 C                     0.554     43.912    30.054 
 C                     1.052     43.637    31.441 
 C                     0.801     42.254    32.04 
 O                     1.522     41.27     32.031 
 O                    -0.38      42.283    32.749 
 N                    -2.273     43.076    24.453 
 C                    -3.057     42.654    25.48 
 C                    -4.385     42.617    24.842 
 C                    -4.407     42.832    23.514 
 C                    -2.924     43.065    23.277 
 C                    -5.566     42.195    25.645 
 C                    -5.542     42.904    22.447 
 O                    -5.359     43.208    21.271 
 C                    -6.928     42.638    22.896 
 N                     0.046     43.369    22.552 
 C                    -0.964     43.424    21.68 
 C                    -0.549     43.761    20.196 
 C                     1.01      43.914    20.43 
 C                     1.211     43.657    21.908 
 C                    -1.058     42.727    19.158 
 C                     1.421     45.311    19.902 
 C                     0.972     46.514    20.677 
 N                     1.856     43.221    24.786 
 C                     2.854     43.359    23.803 
 C                     4.089     43.384    24.444 
 C                     3.85      43.13     25.806 
 C                     2.438     42.984    25.975 
 C                     5.394     43.46     23.844 
 C                     4.484     42.957    27.132 
 O                     5.681     43.008    27.468 
 C                     3.268     42.974    28.137 
 C                     3.498     41.763    28.938 
 O                     2.988     40.641    28.719 
 O                     4.281     42.176    30. 
 C                     4.655     41.072    30.852 
 C                    -0.835     41.121    33.502 
 C                    -1.97      41.285    34.452 
 C                    -2.485     40.355    35.308 
 C                    -1.89      38.956    35.434 
 C                    -3.661     40.748    36.23 
 C                    -3.517     42.098    36.997 
 C                    -4.369     43.188    36.371 
 C                    -5.614     43.612    37.209 
 C                    -5.231     44.905    37.998 
 C                    -6.947     43.69     36.366 
 C                    -7.735     42.336    36.502 
 C                    -9.162     42.447    37.206 
 C                    -10.119    41.249    37.006 
 C                    -11.03     41.38     35.712 
 C                    -11.004    41.183    38.223 
 C                    -10.724    39.966    39.052 
 C                    -11.76     38.828    38.679 
 C                    -13.222    39.161    39.128 
 C                    -13.294    39.031    40.636 
 C                    -14.289    38.333    38.408 
 H                    -3.503     42.035    27.55 
 H                    -3.03      43.295    21.212 
 H                     3.408     43.894    21.832 
 H                     0.731     41.666    29.519 
 H                    -1.853     42.937    29.483 
 H                    -2.262     40.708    30.242 
 H                    -0.856     39.994    29.613 
 H                    -2.303     40.244    28.565 
 H                    -0.39      44.452    30.135 
 H                     1.178     44.61     29.495 
 H                     0.535     44.376    32.052 
 H                     2.128     43.782    31.344 
 H                    -6.124     41.44     25.092 
 H                    -6.211     43.062    25.787 
 H                    -5.238     41.826    26.617 
 H                    -7.165     41.575    22.943 
 H                    -7.505     43.106    22.099 
 H                    -7.236     43.23     23.758 
 H                    -0.953     44.754    20.004 
 H                     1.553     43.157    19.864 
 H                    -0.221     42.154    18.76 
 H                    -1.523     43.249    18.321 
 H                    -1.751     41.989    19.563 
 H                     1.012     45.411    18.896 
 H                     2.509     45.339    19.838 
 H                     1.851     46.987    21.113 
 H                     0.434     46.221    21.578 
 H                     0.466     47.238    20.039 
 H                     6.058     43.376    24.704 
 H                     5.555     44.364    23.256 
 H                     5.582     42.707    23.078 
 H                     3.305     43.868    28.759 
 H                     5.692     41.249    31.136 
 H                     4.659     40.039    30.504 
 H                     4.057     41.031    31.763 
 H                    -0.022     40.725    34.111 
 H                    -1.139     40.32     32.828 
 H                    -2.531     42.216    34.37 
 H                    -1.71      38.733    36.485 
 H                    -0.893     38.899    34.997 
 H                    -2.659     38.367    34.934 
 H                    -3.901     39.925    36.903 
 H                    -4.587     40.731    35.654 
 H                    -2.434     42.206    37.059 
 H                    -3.836     41.935    38.027 
 H                    -4.686     42.886    35.372 
 H                    -3.602     43.926    36.134 
 H                    -5.777     42.975    38.078 
 H                    -5.792     45.768    37.637 
 H                    -4.212     45.275    37.885 
 H                    -5.305     44.754    39.075 
 H                    -6.625     43.83     35.334 
 H                    -7.515     44.569    36.67 
 H                    -7.128     41.603    37.034 
 H                    -7.926     41.981    35.489 
 H                    -9.602     43.386    36.87 
 H                    -8.933     42.531    38.268 
 H                    -9.421     40.425    36.858 
 H                    -12.073    41.639    35.893 
 H                    -10.96     40.464    35.125 
 H                    -10.586    42.202    35.151 
 H                    -12.048    41.253    37.918 
 H                    -10.885    42.       38.935 
 H                    -10.79     40.182    40.118 
 H                    -9.709     39.612    38.867 
 H                    -11.365    37.882    39.048 
 H                    -11.803    38.725    37.595 
 H                    -13.463    40.216    38.995 
 H                    -14.128    39.568    41.087 
 H                    -12.348    39.362    41.064 
 H                    -13.501    38.085    41.137 
 H                    -14.633    38.859    37.518 
 H                    -15.136    37.951    38.977 
 H                    -13.787    37.423    38.079 
 
 ITRead=  0  0  0  0  0  0  0  0  0  0  0  0  0  0  0  0  0  0  0  0
 ITRead=  0  0  0  0  0  0  0  0  0  0  0  0  0  0  0  0  0  0  0  0
 ITRead=  0  0  0  0  0  0  0  0  0  0  0  0  0  0  0  0  0  0  0  0
 ITRead=  0  0  0  0  0  0  0  0  0  0  0  0  0  0  0  0  0  0  0  0
 ITRead=  0  0  0  0  0  0  0  0  0  0  0  0  0  0  0  0  0  0  0  0
 ITRead=  0  0  0  0  0  0  0  0  0  0  0  0  0  0  0  0  0  0  0  0
 ITRead=  0  0  0  0  0  0  0  0  0  0  0  0  0  0  0  0  0  0  0  0
 MicOpt= -1 -1 -1 -1 -1 -1 -1 -1 -1 -1 -1 -1 -1 -1 -1 -1 -1 -1 -1 -1
 MicOpt= -1 -1 -1 -1 -1 -1 -1 -1 -1 -1 -1 -1 -1 -1 -1 -1 -1 -1 -1 -1
 MicOpt= -1 -1 -1 -1 -1 -1 -1 -1 -1 -1 -1 -1 -1 -1 -1 -1 -1 -1 -1 -1
 MicOpt= -1 -1 -1 -1 -1 -1 -1 -1 -1 -1 -1 -1 -1 -1 -1 -1 -1 -1 -1 -1
 MicOpt= -1 -1 -1 -1 -1 -1 -1 -1 -1 -1 -1 -1 -1 -1 -1 -1 -1 -1 -1 -1
 MicOpt= -1 -1 -1 -1 -1 -1 -1 -1 -1 -1 -1 -1 -1 -1 -1 -1 -1 -1 -1 -1
 MicOpt= -1 -1 -1 -1 -1 -1 -1 -1 -1 -1 -1 -1 -1 -1 -1 -1 -1 -1 -1 -1
 NAtoms=    140 NQM=      140 NQMF=       0 NMMI=      0 NMMIF=      0
                NMic=       0 NMicF=      0.
                    Isotopes and Nuclear Properties:
 (Nuclear quadrupole moments (NQMom) in fm**2, nuclear magnetic moments (NMagM)
  in nuclear magnetons)

  Atom         1           2           3           4           5           6           7           8           9          10
 IAtWgt=          24          12          12          12          12          14          12          12          12          12
 AtmWgt=  23.9850450  12.0000000  12.0000000  12.0000000  12.0000000  14.0030740  12.0000000  12.0000000  12.0000000  12.0000000
 NucSpn=           0           0           0           0           0           2           0           0           0           0
 AtZEff=  -0.0000000  -0.0000000  -0.0000000  -0.0000000  -0.0000000  -0.0000000  -0.0000000  -0.0000000  -0.0000000  -0.0000000
 NQMom=    0.0000000   0.0000000   0.0000000   0.0000000   0.0000000   2.0440000   0.0000000   0.0000000   0.0000000   0.0000000
 NMagM=    0.0000000   0.0000000   0.0000000   0.0000000   0.0000000   0.4037610   0.0000000   0.0000000   0.0000000   0.0000000
 AtZNuc=  12.0000000   6.0000000   6.0000000   6.0000000   6.0000000   7.0000000   6.0000000   6.0000000   6.0000000   6.0000000

  Atom        11          12          13          14          15          16          17          18          19          20
 IAtWgt=          12          12          12          12          16          16          14          12          12          12
 AtmWgt=  12.0000000  12.0000000  12.0000000  12.0000000  15.9949146  15.9949146  14.0030740  12.0000000  12.0000000  12.0000000
 NucSpn=           0           0           0           0           0           0           2           0           0           0
 AtZEff=  -0.0000000  -0.0000000  -0.0000000  -0.0000000  -0.0000000  -0.0000000  -0.0000000  -0.0000000  -0.0000000  -0.0000000
 NQMom=    0.0000000   0.0000000   0.0000000   0.0000000   0.0000000   0.0000000   2.0440000   0.0000000   0.0000000   0.0000000
 NMagM=    0.0000000   0.0000000   0.0000000   0.0000000   0.0000000   0.0000000   0.4037610   0.0000000   0.0000000   0.0000000
 AtZNuc=   6.0000000   6.0000000   6.0000000   6.0000000   8.0000000   8.0000000   7.0000000   6.0000000   6.0000000   6.0000000

  Atom        21          22          23          24          25          26          27          28          29          30
 IAtWgt=          12          12          12          16          12          14          12          12          12          12
 AtmWgt=  12.0000000  12.0000000  12.0000000  15.9949146  12.0000000  14.0030740  12.0000000  12.0000000  12.0000000  12.0000000
 NucSpn=           0           0           0           0           0           2           0           0           0           0
 AtZEff=  -0.0000000  -0.0000000  -0.0000000  -0.0000000  -0.0000000  -0.0000000  -0.0000000  -0.0000000  -0.0000000  -0.0000000
 NQMom=    0.0000000   0.0000000   0.0000000   0.0000000   0.0000000   2.0440000   0.0000000   0.0000000   0.0000000   0.0000000
 NMagM=    0.0000000   0.0000000   0.0000000   0.0000000   0.0000000   0.4037610   0.0000000   0.0000000   0.0000000   0.0000000
 AtZNuc=   6.0000000   6.0000000   6.0000000   8.0000000   6.0000000   7.0000000   6.0000000   6.0000000   6.0000000   6.0000000

  Atom        31          32          33          34          35          36          37          38          39          40
 IAtWgt=          12          12          12          14          12          12          12          12          12          12
 AtmWgt=  12.0000000  12.0000000  12.0000000  14.0030740  12.0000000  12.0000000  12.0000000  12.0000000  12.0000000  12.0000000
 NucSpn=           0           0           0           2           0           0           0           0           0           0
 AtZEff=  -0.0000000  -0.0000000  -0.0000000  -0.0000000  -0.0000000  -0.0000000  -0.0000000  -0.0000000  -0.0000000  -0.0000000
 NQMom=    0.0000000   0.0000000   0.0000000   2.0440000   0.0000000   0.0000000   0.0000000   0.0000000   0.0000000   0.0000000
 NMagM=    0.0000000   0.0000000   0.0000000   0.4037610   0.0000000   0.0000000   0.0000000   0.0000000   0.0000000   0.0000000
 AtZNuc=   6.0000000   6.0000000   6.0000000   7.0000000   6.0000000   6.0000000   6.0000000   6.0000000   6.0000000   6.0000000

  Atom        41          42          43          44          45          46          47          48          49          50
 IAtWgt=          16          12          12          16          16          12          12          12          12          12
 AtmWgt=  15.9949146  12.0000000  12.0000000  15.9949146  15.9949146  12.0000000  12.0000000  12.0000000  12.0000000  12.0000000
 NucSpn=           0           0           0           0           0           0           0           0           0           0
 AtZEff=  -0.0000000  -0.0000000  -0.0000000  -0.0000000  -0.0000000  -0.0000000  -0.0000000  -0.0000000  -0.0000000  -0.0000000
 NQMom=    0.0000000   0.0000000   0.0000000   0.0000000   0.0000000   0.0000000   0.0000000   0.0000000   0.0000000   0.0000000
 NMagM=    0.0000000   0.0000000   0.0000000   0.0000000   0.0000000   0.0000000   0.0000000   0.0000000   0.0000000   0.0000000
 AtZNuc=   8.0000000   6.0000000   6.0000000   8.0000000   8.0000000   6.0000000   6.0000000   6.0000000   6.0000000   6.0000000

  Atom        51          52          53          54          55          56          57          58          59          60
 IAtWgt=          12          12          12          12          12          12          12          12          12          12
 AtmWgt=  12.0000000  12.0000000  12.0000000  12.0000000  12.0000000  12.0000000  12.0000000  12.0000000  12.0000000  12.0000000
 NucSpn=           0           0           0           0           0           0           0           0           0           0
 AtZEff=  -0.0000000  -0.0000000  -0.0000000  -0.0000000  -0.0000000  -0.0000000  -0.0000000  -0.0000000  -0.0000000  -0.0000000
 NQMom=    0.0000000   0.0000000   0.0000000   0.0000000   0.0000000   0.0000000   0.0000000   0.0000000   0.0000000   0.0000000
 NMagM=    0.0000000   0.0000000   0.0000000   0.0000000   0.0000000   0.0000000   0.0000000   0.0000000   0.0000000   0.0000000
 AtZNuc=   6.0000000   6.0000000   6.0000000   6.0000000   6.0000000   6.0000000   6.0000000   6.0000000   6.0000000   6.0000000

  Atom        61          62          63          64          65          66          67          68          69          70
 IAtWgt=          12          12          12          12          12          12           1           1           1           1
 AtmWgt=  12.0000000  12.0000000  12.0000000  12.0000000  12.0000000  12.0000000   1.0078250   1.0078250   1.0078250   1.0078250
 NucSpn=           0           0           0           0           0           0           1           1           1           1
 AtZEff=  -0.0000000  -0.0000000  -0.0000000  -0.0000000  -0.0000000  -0.0000000  -0.0000000  -0.0000000  -0.0000000  -0.0000000
 NQMom=    0.0000000   0.0000000   0.0000000   0.0000000   0.0000000   0.0000000   0.0000000   0.0000000   0.0000000   0.0000000
 NMagM=    0.0000000   0.0000000   0.0000000   0.0000000   0.0000000   0.0000000   2.7928460   2.7928460   2.7928460   2.7928460
 AtZNuc=   6.0000000   6.0000000   6.0000000   6.0000000   6.0000000   6.0000000   1.0000000   1.0000000   1.0000000   1.0000000

  Atom        71          72          73          74          75          76          77          78          79          80
 IAtWgt=           1           1           1           1           1           1           1           1           1           1
 AtmWgt=   1.0078250   1.0078250   1.0078250   1.0078250   1.0078250   1.0078250   1.0078250   1.0078250   1.0078250   1.0078250
 NucSpn=           1           1           1           1           1           1           1           1           1           1
 AtZEff=  -0.0000000  -0.0000000  -0.0000000  -0.0000000  -0.0000000  -0.0000000  -0.0000000  -0.0000000  -0.0000000  -0.0000000
 NQMom=    0.0000000   0.0000000   0.0000000   0.0000000   0.0000000   0.0000000   0.0000000   0.0000000   0.0000000   0.0000000
 NMagM=    2.7928460   2.7928460   2.7928460   2.7928460   2.7928460   2.7928460   2.7928460   2.7928460   2.7928460   2.7928460
 AtZNuc=   1.0000000   1.0000000   1.0000000   1.0000000   1.0000000   1.0000000   1.0000000   1.0000000   1.0000000   1.0000000

  Atom        81          82          83          84          85          86          87          88          89          90
 IAtWgt=           1           1           1           1           1           1           1           1           1           1
 AtmWgt=   1.0078250   1.0078250   1.0078250   1.0078250   1.0078250   1.0078250   1.0078250   1.0078250   1.0078250   1.0078250
 NucSpn=           1           1           1           1           1           1           1           1           1           1
 AtZEff=  -0.0000000  -0.0000000  -0.0000000  -0.0000000  -0.0000000  -0.0000000  -0.0000000  -0.0000000  -0.0000000  -0.0000000
 NQMom=    0.0000000   0.0000000   0.0000000   0.0000000   0.0000000   0.0000000   0.0000000   0.0000000   0.0000000   0.0000000
 NMagM=    2.7928460   2.7928460   2.7928460   2.7928460   2.7928460   2.7928460   2.7928460   2.7928460   2.7928460   2.7928460
 AtZNuc=   1.0000000   1.0000000   1.0000000   1.0000000   1.0000000   1.0000000   1.0000000   1.0000000   1.0000000   1.0000000

  Atom        91          92          93          94          95          96          97          98          99         100
 IAtWgt=           1           1           1           1           1           1           1           1           1           1
 AtmWgt=   1.0078250   1.0078250   1.0078250   1.0078250   1.0078250   1.0078250   1.0078250   1.0078250   1.0078250   1.0078250
 NucSpn=           1           1           1           1           1           1           1           1           1           1
 AtZEff=  -0.0000000  -0.0000000  -0.0000000  -0.0000000  -0.0000000  -0.0000000  -0.0000000  -0.0000000  -0.0000000  -0.0000000
 NQMom=    0.0000000   0.0000000   0.0000000   0.0000000   0.0000000   0.0000000   0.0000000   0.0000000   0.0000000   0.0000000
 NMagM=    2.7928460   2.7928460   2.7928460   2.7928460   2.7928460   2.7928460   2.7928460   2.7928460   2.7928460   2.7928460
 AtZNuc=   1.0000000   1.0000000   1.0000000   1.0000000   1.0000000   1.0000000   1.0000000   1.0000000   1.0000000   1.0000000

  Atom       101         102         103         104         105         106         107         108         109         110
 IAtWgt=           1           1           1           1           1           1           1           1           1           1
 AtmWgt=   1.0078250   1.0078250   1.0078250   1.0078250   1.0078250   1.0078250   1.0078250   1.0078250   1.0078250   1.0078250
 NucSpn=           1           1           1           1           1           1           1           1           1           1
 AtZEff=  -0.0000000  -0.0000000  -0.0000000  -0.0000000  -0.0000000  -0.0000000  -0.0000000  -0.0000000  -0.0000000  -0.0000000
 NQMom=    0.0000000   0.0000000   0.0000000   0.0000000   0.0000000   0.0000000   0.0000000   0.0000000   0.0000000   0.0000000
 NMagM=    2.7928460   2.7928460   2.7928460   2.7928460   2.7928460   2.7928460   2.7928460   2.7928460   2.7928460   2.7928460
 AtZNuc=   1.0000000   1.0000000   1.0000000   1.0000000   1.0000000   1.0000000   1.0000000   1.0000000   1.0000000   1.0000000

  Atom       111         112         113         114         115         116         117         118         119         120
 IAtWgt=           1           1           1           1           1           1           1           1           1           1
 AtmWgt=   1.0078250   1.0078250   1.0078250   1.0078250   1.0078250   1.0078250   1.0078250   1.0078250   1.0078250   1.0078250
 NucSpn=           1           1           1           1           1           1           1           1           1           1
 AtZEff=  -0.0000000  -0.0000000  -0.0000000  -0.0000000  -0.0000000  -0.0000000  -0.0000000  -0.0000000  -0.0000000  -0.0000000
 NQMom=    0.0000000   0.0000000   0.0000000   0.0000000   0.0000000   0.0000000   0.0000000   0.0000000   0.0000000   0.0000000
 NMagM=    2.7928460   2.7928460   2.7928460   2.7928460   2.7928460   2.7928460   2.7928460   2.7928460   2.7928460   2.7928460
 AtZNuc=   1.0000000   1.0000000   1.0000000   1.0000000   1.0000000   1.0000000   1.0000000   1.0000000   1.0000000   1.0000000

  Atom       121         122         123         124         125         126         127         128         129         130
 IAtWgt=           1           1           1           1           1           1           1           1           1           1
 AtmWgt=   1.0078250   1.0078250   1.0078250   1.0078250   1.0078250   1.0078250   1.0078250   1.0078250   1.0078250   1.0078250
 NucSpn=           1           1           1           1           1           1           1           1           1           1
 AtZEff=  -0.0000000  -0.0000000  -0.0000000  -0.0000000  -0.0000000  -0.0000000  -0.0000000  -0.0000000  -0.0000000  -0.0000000
 NQMom=    0.0000000   0.0000000   0.0000000   0.0000000   0.0000000   0.0000000   0.0000000   0.0000000   0.0000000   0.0000000
 NMagM=    2.7928460   2.7928460   2.7928460   2.7928460   2.7928460   2.7928460   2.7928460   2.7928460   2.7928460   2.7928460
 AtZNuc=   1.0000000   1.0000000   1.0000000   1.0000000   1.0000000   1.0000000   1.0000000   1.0000000   1.0000000   1.0000000

  Atom       131         132         133         134         135         136         137         138         139         140
 IAtWgt=           1           1           1           1           1           1           1           1           1           1
 AtmWgt=   1.0078250   1.0078250   1.0078250   1.0078250   1.0078250   1.0078250   1.0078250   1.0078250   1.0078250   1.0078250
 NucSpn=           1           1           1           1           1           1           1           1           1           1
 AtZEff=  -0.0000000  -0.0000000  -0.0000000  -0.0000000  -0.0000000  -0.0000000  -0.0000000  -0.0000000  -0.0000000  -0.0000000
 NQMom=    0.0000000   0.0000000   0.0000000   0.0000000   0.0000000   0.0000000   0.0000000   0.0000000   0.0000000   0.0000000
 NMagM=    2.7928460   2.7928460   2.7928460   2.7928460   2.7928460   2.7928460   2.7928460   2.7928460   2.7928460   2.7928460
 AtZNuc=   1.0000000   1.0000000   1.0000000   1.0000000   1.0000000   1.0000000   1.0000000   1.0000000   1.0000000   1.0000000
 Leave Link  101 at Wed May  4 20:51:11 2022, MaxMem=  6710886400 cpu:               3.4 elap:               0.2
 (Enter /sw/apps/gaussian-16.0/g16/l202.exe)
 Stoichiometry    C55H74MgN4O6
 Framework group  C1[X(C55H74MgN4O6)]
 Deg. of freedom   414
 Full point group                 C1      NOp   1
 Largest Abelian subgroup         C1      NOp   1
 Largest concise Abelian subgroup C1      NOp   1
                         Standard orientation:                         
 ---------------------------------------------------------------------
 Center     Atomic      Atomic             Coordinates (Angstroms)
 Number     Number       Type             X           Y           Z
 ---------------------------------------------------------------------
      1         12           0        5.146505    1.113681    0.147708
      2          6           0        4.225620   -2.332457    0.081260
      3          6           0        1.787551    1.815815   -0.327565
      4          6           0        6.003423    4.290463   -0.052600
      5          6           0        8.562355    0.106705   -0.028682
      6          7           0        3.213255   -0.143905    0.012329
      7          6           0        3.115050   -1.509552    0.057117
      8          6           0        1.668327   -1.993412    0.060599
      9          6           0        0.863104   -0.628974   -0.317933
     10          6           0        1.979549    0.420437   -0.178123
     11          6           0        0.156885   -0.547912   -1.709687
     12          6           0        1.325585   -2.675936    1.455176
     13          6           0        0.456631   -3.892230    1.341393
     14          6           0       -0.371712   -4.074542    0.070527
     15          8           0       -0.092926   -4.685886   -0.947665
     16          8           0       -1.617944   -3.521032    0.267543
     17          7           0        4.080366    2.843968    0.039597
     18          6           0        2.741139    2.876708   -0.190335
     19          6           0        2.484043    4.327261   -0.232688
     20          6           0        3.570929    5.119633   -0.199229
     21          6           0        4.649716    4.054576   -0.091427
     22          6           0        1.096336    4.813208   -0.468865
     23          6           0        3.785970    6.664182   -0.203866
     24          8           0        4.881664    7.204118   -0.074236
     25          6           0        2.587712    7.526572   -0.321399
     26          7           0        6.987821    2.061648   -0.070373
     27          6           0        7.115527    3.391006   -0.072937
     28          6           0        8.597396    3.920933    0.033324
     29          6           0        9.329429    2.519142    0.121398
     30          6           0        8.218853    1.492856    0.055883
     31          6           0        8.988125    4.906035   -1.099189
     32          6           0       10.194861    2.530361    1.406005
     33          6           0        9.488596    2.483300    2.728280
     34          7           0        6.211786   -0.710414   -0.023428
     35          6           0        7.597398   -0.951367   -0.081392
     36          6           0        7.796765   -2.328192   -0.044828
     37          6           0        6.526513   -2.928600   -0.096323
     38          6           0        5.556020   -1.879546   -0.131665
     39          6           0        9.042077   -3.042765   -0.130760
     40          6           0        5.799850   -4.217495   -0.125824
     41          8           0        6.226451   -5.386162   -0.102686
     42          6           0        4.293624   -3.807017    0.101688
     43          6           0        3.604956   -4.493256   -1.000961
     44          8           0        3.323507   -3.983642   -2.109124
     45          8           0        3.262037   -5.733773   -0.495960
     46          6           0        2.630911   -6.563772   -1.494648
     47          6           0       -2.655371   -3.619653   -0.751425
     48          6           0       -4.049238   -3.239094   -0.390965
     49          6           0       -5.170186   -3.341594   -1.162865
     50          6           0       -5.133164   -3.940448   -2.565401
     51          6           0       -6.531700   -2.904718   -0.577266
     52          6           0       -6.868524   -3.426271    0.853139
     53          6           0       -6.696526   -2.337735    1.897832
     54          6           0       -8.025689   -1.795114    2.506875
     55          6           0       -8.250882   -2.525896    3.869338
     56          6           0       -8.103981   -0.218544    2.550683
     57          6           0       -8.864965    0.305572    1.278299
     58          6           0      -10.236883    1.064915    1.570715
     59          6           0      -10.802163    1.925715    0.417227
     60          6           0      -10.266909    3.420685    0.426429
     61          6           0      -12.300391    1.941304    0.571302
     62          6           0      -12.983659    1.197933   -0.536522
     63          6           0      -13.446526    2.224958   -1.649376
     64          6           0      -14.601074    3.166825   -1.169959
     65          6           0      -15.874465    2.349453   -1.089174
     66          6           0      -14.757416    4.428901   -2.021541
     67          1           0        0.728890    2.024848   -0.493920
     68          1           0        6.283208    5.342162   -0.138179
     69          1           0        9.579952   -0.247271    0.146002
     70          1           0        1.529824   -2.576468   -0.849268
     71          1           0        0.256159   -0.411961    0.560158
     72          1           0       -0.915434   -0.582763   -1.515896
     73          1           0        0.295996   -1.386006   -2.393113
     74          1           0        0.342056    0.407106   -2.200137
     75          1           0        0.795606   -1.937434    2.057698
     76          1           0        2.236541   -2.840872    2.031385
     77          1           0       -0.224653   -3.802567    2.186699
     78          1           0        1.175548   -4.709049    1.406010
     79          1           0        1.109489    5.565880   -1.256589
     80          1           0        0.737258    5.282243    0.447075
     81          1           0        0.449542    3.972796   -0.721640
     82          1           0        2.258160    7.661498   -1.351708
     83          1           0        2.964795    8.471643    0.068231
     84          1           0        1.803443    7.296372    0.399921
     85          1           0        8.664171    4.390381    1.013777
     86          1           0        9.986864    2.381728   -0.737177
     87          1           0        9.706633    4.437155   -1.770903
     88          1           0        9.469775    5.784518   -0.668423
     89          1           0        8.155455    5.215128   -1.731676
     90          1           0       10.783064    3.448602    1.393096
     91          1           0       10.877058    1.681249    1.358681
     92          1           0        9.713244    1.528372    3.201683
     93          1           0        8.411238    2.392153    2.593791
     94          1           0        9.816071    3.286009    3.388336
     95          1           0        8.720510   -4.083968   -0.137415
     96          1           0        9.739781   -2.807458    0.673430
     97          1           0        9.656502   -2.774977   -0.990924
     98          1           0        3.945204   -4.170810    1.067994
     99          1           0        3.025588   -7.568242   -1.344231
    100          1           0        2.762256   -6.395957   -2.563664
    101          1           0        1.547757   -6.604420   -1.374932
    102          1           0       -2.734801   -4.646263   -1.109793
    103          1           0       -2.405322   -3.005400   -1.616562
    104          1           0       -4.170419   -2.707097    0.552699
    105          1           0       -5.907418   -4.701633   -2.654046
    106          1           0       -4.215775   -4.502109   -2.741923
    107          1           0       -5.259922   -3.041566   -3.168913
    108          1           0       -7.331442   -3.122419   -1.284992
    109          1           0       -6.604213   -1.817157   -0.615918
    110          1           0       -6.278869   -4.341849    0.902351
    111          1           0       -7.904522   -3.766764    0.851384
    112          1           0       -6.119677   -1.510300    1.482752
    113          1           0       -5.956364   -2.804329    2.548641
    114          1           0       -8.911568   -2.183518    2.005018
    115          1           0       -8.157584   -1.834508    4.707842
    116          1           0       -7.519064   -3.280412    4.157745
    117          1           0       -9.181824   -3.092950    3.870904
    118          1           0       -7.068005    0.119987    2.529240
    119          1           0       -8.547261    0.094366    3.495813
    120          1           0       -9.050324   -0.518424    0.588781
    121          1           0       -8.212027    1.036837    0.801227
    122          1           0      -10.082904    1.645424    2.480394
    123          1           0      -10.946927    0.266402    1.784153
    124          1           0      -10.401453    1.418202   -0.460239
    125          1           0      -10.975380    4.173832    0.770710
    126          1           0       -9.888228    3.676362   -0.563397
    127          1           0       -9.439905    3.407271    1.135954
    128          1           0      -12.646134    2.970852    0.662702
    129          1           0      -12.685219    1.456353    1.468701
    130          1           0      -13.847546    0.641455   -0.174032
    131          1           0      -12.301971    0.467148   -0.973580
    132          1           0      -13.653987    1.661840   -2.558749
    133          1           0      -12.614436    2.884011   -1.895929
    134          1           0      -14.478820    3.471080   -0.130114
    135          1           0      -16.639133    2.784178   -0.446037
    136          1           0      -15.625532    1.340379   -0.761357
    137          1           0      -16.534819    2.200740   -1.943915
    138          1           0      -14.162863    5.239517   -1.601398
    139          1           0      -15.758700    4.779088   -2.270324
    140          1           0      -14.336567    4.183349   -2.996701
 ---------------------------------------------------------------------
 Rotational constants (GHZ):           0.0405949           0.0105419           0.0087364
 Leave Link  202 at Wed May  4 20:51:11 2022, MaxMem=  6710886400 cpu:               0.2 elap:               0.0
 (Enter /sw/apps/gaussian-16.0/g16/l301.exe)
 Standard basis: VSTO-6G (5D, 7F)
 Ernie: Thresh=  0.10000D-02 Tol=  0.10000D-05 Strict=F.
 There are   338 symmetry adapted cartesian basis functions of A   symmetry.
 There are   338 symmetry adapted basis functions of A   symmetry.
   338 basis functions,  2028 primitive gaussians,   338 cartesian basis functions
   176 alpha electrons      176 beta electrons
       nuclear repulsion energy      4820.6663201939 Hartrees.
 IExCor=    0 DFT=F Ex=HF Corr=None ExCW=0 ScaHFX=  1.000000
 ScaDFX=  1.000000  1.000000  1.000000  1.000000 ScalE2=  1.000000  1.000000
 IRadAn=      5 IRanWt=     -1 IRanGd=            0 ICorTp=0 IEmpDi=  4
 Integral buffers will be    131072 words long.
 Regular integral format.
 Two-electron integral symmetry is turned off.
 Leave Link  301 at Wed May  4 20:51:11 2022, MaxMem=  6710886400 cpu:               1.4 elap:               0.1
 (Enter /sw/apps/gaussian-16.0/g16/l302.exe)
 Do NDO integrals.
 NPDir=0 NMtPBC=     1 NCelOv=     1 NCel=       1 NClECP=     1 NCelD=      1
         NCelK=      1 NCelE2=     1 NClLst=     1 CellRange=     0.0.
 One-electron integrals computed using PRISM.
 Generate ZINDO/S integrals.
 NDO Nuclear repulsion=  4331.537583082788 Hartrees.
 NBasis=   338 RedAO= F EigKep=  0.00D+00  NBF=   338
 NBsUse=   338 1.00D-04 EigRej=  0.00D+00 NBFU=   338
 Leave Link  302 at Wed May  4 20:51:11 2022, MaxMem=  6710886400 cpu:              10.8 elap:               0.5
 (Enter /sw/apps/gaussian-16.0/g16/l303.exe)
 DipDrv:  MaxL=1.
 DipDrv:  will hold  3 matrices at once.
 Leave Link  303 at Wed May  4 20:51:11 2022, MaxMem=  6710886400 cpu:               1.2 elap:               0.1
 (Enter /sw/apps/gaussian-16.0/g16/l308.exe)
 Leave Link  308 at Wed May  4 20:51:12 2022, MaxMem=  6710886400 cpu:               6.1 elap:               0.3
 (Enter /sw/apps/gaussian-16.0/g16/l401.exe)
 Simple Huckel Guess.
 JPrj=0 DoOrth=F DoCkMO=F.
 Leave Link  401 at Wed May  4 20:51:12 2022, MaxMem=  6710886400 cpu:               3.0 elap:               0.1
 (Enter /sw/apps/gaussian-16.0/g16/l502.exe)
 Two-electron integral symmetry not used.
 Closed shell SCF:
 Using DIIS extrapolation, IDIIS=  1040.
 Overlap will be assumed to be unity.
 NGot=  6710886400 LenX=  6710643598 LenY=  6710528913
 Requested convergence on RMS density matrix=1.00D-08 within 128 cycles.
 Requested convergence on MAX density matrix=1.00D-06.
 Requested convergence on             energy=1.00D-06.
 No special actions if energy rises.
 Fock matrices will be formed incrementally for  20 cycles.

 Cycle   1  Pass 1  IDiag  1:
 E= -472.402659467580    
 DIIS: error= 5.60D-02 at cycle   1 NSaved=   1.
 NSaved= 1 IEnMin= 1 EnMin= -472.402659467580     IErMin= 1 ErrMin= 5.60D-02
 ErrMax= 5.60D-02  0.00D+00 EMaxC= 1.00D-01 BMatC= 8.34D-01 BMatP= 8.34D-01
 IDIUse=3 WtCom= 4.40D-01 WtEn= 5.60D-01
 Coeff-Com:  0.100D+01
 Coeff-En:   0.100D+01
 Coeff:      0.100D+01
 GapD=    2.000 DampG=2.000 DampE=0.500 DampFc=1.0000 IDamp=-1.
 RMSDP=4.04D-03 MaxDP=1.62D-01              OVMax= 0.00D+00

 Cycle   2  Pass 1  IDiag  1:
 RMSU=  4.04D-03    CP:  9.95D-01
 E= -474.239548131879     Delta-E=       -1.836888664299 Rises=F Damp=F
 DIIS: error= 2.00D-02 at cycle   2 NSaved=   2.
 NSaved= 2 IEnMin= 2 EnMin= -474.239548131879     IErMin= 2 ErrMin= 2.00D-02
 ErrMax= 2.00D-02  0.00D+00 EMaxC= 1.00D-01 BMatC= 5.43D-02 BMatP= 8.34D-01
 IDIUse=3 WtCom= 8.00D-01 WtEn= 2.00D-01
 Coeff-Com: -0.634D-01 0.106D+01
 Coeff-En:   0.000D+00 0.100D+01
 Coeff:     -0.507D-01 0.105D+01
 RMSDP=1.19D-03 MaxDP=5.90D-02 DE=-1.84D+00 OVMax= 0.00D+00

 Cycle   3  Pass 1  IDiag  1:
 RMSU=  1.14D-03    CP:  9.93D-01  1.08D+00
 E= -474.344232940030     Delta-E=       -0.104684808151 Rises=F Damp=F
 DIIS: error= 8.63D-03 at cycle   3 NSaved=   3.
 NSaved= 3 IEnMin= 3 EnMin= -474.344232940030     IErMin= 3 ErrMin= 8.63D-03
 ErrMax= 8.63D-03  0.00D+00 EMaxC= 1.00D-01 BMatC= 8.68D-03 BMatP= 5.43D-02
 IDIUse=3 WtCom= 9.14D-01 WtEn= 8.63D-02
 Coeff-Com: -0.708D-01 0.258D+00 0.813D+00
 Coeff-En:   0.000D+00 0.000D+00 0.100D+01
 Coeff:     -0.647D-01 0.236D+00 0.829D+00
 RMSDP=4.23D-04 MaxDP=2.61D-02 DE=-1.05D-01 OVMax= 0.00D+00

 Cycle   4  Pass 1  IDiag  1:
 RMSU=  2.76D-04    CP:  9.93D-01  1.15D+00  8.92D-01
 E= -474.359499881426     Delta-E=       -0.015266941396 Rises=F Damp=F
 DIIS: error= 1.99D-03 at cycle   4 NSaved=   4.
 NSaved= 4 IEnMin= 4 EnMin= -474.359499881426     IErMin= 4 ErrMin= 1.99D-03
 ErrMax= 1.99D-03  0.00D+00 EMaxC= 1.00D-01 BMatC= 3.99D-04 BMatP= 8.68D-03
 IDIUse=3 WtCom= 9.80D-01 WtEn= 1.99D-02
 Coeff-Com: -0.459D-02-0.187D-01 0.746D-01 0.949D+00
 Coeff-En:   0.000D+00 0.000D+00 0.000D+00 0.100D+01
 Coeff:     -0.450D-02-0.184D-01 0.731D-01 0.950D+00
 RMSDP=1.76D-04 MaxDP=9.69D-03 DE=-1.53D-02 OVMax= 0.00D+00

 Cycle   5  Pass 1  IDiag  1:
 RMSU=  1.22D-04    CP:  9.92D-01  1.16D+00  1.00D+00  9.93D-01
 E= -474.360884605679     Delta-E=       -0.001384724253 Rises=F Damp=F
 DIIS: error= 8.22D-04 at cycle   5 NSaved=   5.
 NSaved= 5 IEnMin= 5 EnMin= -474.360884605679     IErMin= 5 ErrMin= 8.22D-04
 ErrMax= 8.22D-04  0.00D+00 EMaxC= 1.00D-01 BMatC= 1.04D-04 BMatP= 3.99D-04
 IDIUse=3 WtCom= 9.92D-01 WtEn= 8.22D-03
 Coeff-Com:  0.735D-02-0.312D-01-0.108D+00 0.223D+00 0.909D+00
 Coeff-En:   0.000D+00 0.000D+00 0.000D+00 0.000D+00 0.100D+01
 Coeff:      0.729D-02-0.309D-01-0.107D+00 0.221D+00 0.910D+00
 RMSDP=8.17D-05 MaxDP=3.86D-03 DE=-1.38D-03 OVMax= 0.00D+00

 Cycle   6  Pass 1  IDiag  1:
 RMSU=  4.30D-05    CP:  9.92D-01  1.16D+00  1.03D+00  1.19D+00  1.27D+00
 E= -474.361291951554     Delta-E=       -0.000407345876 Rises=F Damp=F
 DIIS: error= 3.02D-04 at cycle   6 NSaved=   6.
 NSaved= 6 IEnMin= 6 EnMin= -474.361291951554     IErMin= 6 ErrMin= 3.02D-04
 ErrMax= 3.02D-04  0.00D+00 EMaxC= 1.00D-01 BMatC= 1.42D-05 BMatP= 1.04D-04
 IDIUse=3 WtCom= 9.97D-01 WtEn= 3.02D-03
 Coeff-Com: -0.713D-03 0.869D-02-0.846D-02-0.101D+00-0.169D+00 0.127D+01
 Coeff-En:   0.000D+00 0.000D+00 0.000D+00 0.000D+00 0.000D+00 0.100D+01
 Coeff:     -0.711D-03 0.866D-02-0.843D-02-0.101D+00-0.169D+00 0.127D+01
 RMSDP=7.69D-05 MaxDP=4.01D-03 DE=-4.07D-04 OVMax= 0.00D+00

 Cycle   7  Pass 1  IDiag  1:
 RMSU=  2.42D-05    CP:  9.92D-01  1.16D+00  1.05D+00  1.24D+00  1.74D+00
                    CP:  1.83D+00
 E= -474.361459467798     Delta-E=       -0.000167516244 Rises=F Damp=F
 DIIS: error= 1.72D-04 at cycle   7 NSaved=   7.
 NSaved= 7 IEnMin= 7 EnMin= -474.361459467798     IErMin= 7 ErrMin= 1.72D-04
 ErrMax= 1.72D-04  0.00D+00 EMaxC= 1.00D-01 BMatC= 6.23D-06 BMatP= 1.42D-05
 IDIUse=3 WtCom= 9.98D-01 WtEn= 1.72D-03
 Coeff-Com: -0.131D-02 0.439D-02 0.201D-01 0.116D-01-0.240D+00-0.136D+00
 Coeff-Com:  0.134D+01
 Coeff-En:   0.000D+00 0.000D+00 0.000D+00 0.000D+00 0.000D+00 0.000D+00
 Coeff-En:   0.100D+01
 Coeff:     -0.131D-02 0.439D-02 0.200D-01 0.116D-01-0.240D+00-0.135D+00
 Coeff:      0.134D+01
 RMSDP=6.55D-05 MaxDP=3.14D-03 DE=-1.68D-04 OVMax= 0.00D+00

 Cycle   8  Pass 1  IDiag  1:
 RMSU=  8.76D-06    CP:  9.92D-01  1.16D+00  1.06D+00  1.27D+00  2.08D+00
                    CP:  2.73D+00  2.04D+00
 E= -474.361558230352     Delta-E=       -0.000098762554 Rises=F Damp=F
 DIIS: error= 1.12D-04 at cycle   8 NSaved=   8.
 NSaved= 8 IEnMin= 8 EnMin= -474.361558230352     IErMin= 8 ErrMin= 1.12D-04
 ErrMax= 1.12D-04  0.00D+00 EMaxC= 1.00D-01 BMatC= 2.45D-06 BMatP= 6.23D-06
 IDIUse=3 WtCom= 9.99D-01 WtEn= 1.12D-03
 Coeff-Com:  0.609D-03-0.492D-02-0.598D-03 0.591D-01 0.549D-01-0.360D+00
 Coeff-Com: -0.641D+00 0.189D+01
 Coeff-En:   0.000D+00 0.000D+00 0.000D+00 0.000D+00 0.000D+00 0.000D+00
 Coeff-En:   0.000D+00 0.100D+01
 Coeff:      0.608D-03-0.492D-02-0.597D-03 0.590D-01 0.548D-01-0.359D+00
 Coeff:     -0.640D+00 0.189D+01
 RMSDP=8.11D-05 MaxDP=3.58D-03 DE=-9.88D-05 OVMax= 0.00D+00

 Cycle   9  Pass 1  IDiag  1:
 RMSU=  3.73D-05    CP:  9.92D-01  1.16D+00  1.08D+00  1.29D+00  2.50D+00
                    CP:  3.00D+00  3.00D+00  2.36D+00
 E= -474.361628050127     Delta-E=       -0.000069819775 Rises=F Damp=F
 DIIS: error= 7.28D-05 at cycle   9 NSaved=   9.
 NSaved= 9 IEnMin= 9 EnMin= -474.361628050127     IErMin= 9 ErrMin= 7.28D-05
 ErrMax= 7.28D-05  0.00D+00 EMaxC= 1.00D-01 BMatC= 5.86D-07 BMatP= 2.45D-06
 IDIUse=1 WtCom= 1.00D+00 WtEn= 0.00D+00
 Coeff-Com:  0.396D-03-0.132D-02-0.622D-02-0.432D-02 0.671D-01 0.888D-01
 Coeff-Com: -0.627D+00 0.144D+00 0.134D+01
 Coeff:      0.396D-03-0.132D-02-0.622D-02-0.432D-02 0.671D-01 0.888D-01
 Coeff:     -0.627D+00 0.144D+00 0.134D+01
 RMSDP=4.98D-05 MaxDP=2.24D-03 DE=-6.98D-05 OVMax= 0.00D+00

 Cycle  10  Pass 1  IDiag  1:
 RMSU=  1.26D-05    CP:  9.92D-01  1.16D+00  1.09D+00  1.30D+00  2.74D+00
                    CP:  3.00D+00  3.00D+00  3.00D+00  1.94D+00
 E= -474.361644413107     Delta-E=       -0.000016362979 Rises=F Damp=F
 DIIS: error= 2.22D-05 at cycle  10 NSaved=  10.
 NSaved=10 IEnMin=10 EnMin= -474.361644413107     IErMin=10 ErrMin= 2.22D-05
 ErrMax= 2.22D-05  0.00D+00 EMaxC= 1.00D-01 BMatC= 7.07D-08 BMatP= 5.86D-07
 IDIUse=1 WtCom= 1.00D+00 WtEn= 0.00D+00
 Coeff-Com: -0.129D-03 0.105D-02 0.448D-05-0.137D-01-0.806D-02 0.900D-01
 Coeff-Com:  0.115D+00-0.362D+00 0.328D-01 0.115D+01
 Coeff:     -0.129D-03 0.105D-02 0.448D-05-0.137D-01-0.806D-02 0.900D-01
 Coeff:      0.115D+00-0.362D+00 0.328D-01 0.115D+01
 RMSDP=8.86D-06 MaxDP=3.61D-04 DE=-1.64D-05 OVMax= 0.00D+00

 Cycle  11  Pass 1  IDiag  1:
 RMSU=  2.89D-06    CP:  9.92D-01  1.16D+00  1.09D+00  1.30D+00  2.78D+00
                    CP:  3.00D+00  3.00D+00  3.00D+00  2.10D+00  1.29D+00
 E= -474.361645400852     Delta-E=       -0.000000987746 Rises=F Damp=F
 DIIS: error= 1.32D-05 at cycle  11 NSaved=  11.
 NSaved=11 IEnMin=11 EnMin= -474.361645400852     IErMin=11 ErrMin= 1.32D-05
 ErrMax= 1.32D-05  0.00D+00 EMaxC= 1.00D-01 BMatC= 1.29D-08 BMatP= 7.07D-08
 IDIUse=1 WtCom= 1.00D+00 WtEn= 0.00D+00
 Coeff-Com: -0.555D-04 0.217D-03 0.877D-03-0.523D-03-0.911D-02-0.758D-02
 Coeff-Com:  0.755D-01-0.403D-01-0.169D+00-0.209D-01 0.117D+01
 Coeff:     -0.555D-04 0.217D-03 0.877D-03-0.523D-03-0.911D-02-0.758D-02
 Coeff:      0.755D-01-0.403D-01-0.169D+00-0.209D-01 0.117D+01
 RMSDP=5.38D-06 MaxDP=2.25D-04 DE=-9.88D-07 OVMax= 0.00D+00

 Cycle  12  Pass 1  IDiag  1:
 RMSU=  9.05D-07    CP:  9.92D-01  1.16D+00  1.09D+00  1.30D+00  2.80D+00
                    CP:  3.00D+00  3.00D+00  3.00D+00  2.19D+00  1.45D+00
                    CP:  1.56D+00
 E= -474.361645627109     Delta-E=       -0.000000226257 Rises=F Damp=F
 DIIS: error= 5.36D-06 at cycle  12 NSaved=  12.
 NSaved=12 IEnMin=12 EnMin= -474.361645627109     IErMin=12 ErrMin= 5.36D-06
 ErrMax= 5.36D-06  0.00D+00 EMaxC= 1.00D-01 BMatC= 4.06D-09 BMatP= 1.29D-08
 IDIUse=1 WtCom= 1.00D+00 WtEn= 0.00D+00
 Coeff-Com:  0.297D-04-0.226D-03-0.280D-04 0.292D-02 0.148D-02-0.161D-01
 Coeff-Com: -0.301D-01 0.812D-01 0.222D-01-0.305D+00 0.423D-01 0.120D+01
 Coeff:      0.297D-04-0.226D-03-0.280D-04 0.292D-02 0.148D-02-0.161D-01
 Coeff:     -0.301D-01 0.812D-01 0.222D-01-0.305D+00 0.423D-01 0.120D+01
 RMSDP=1.37D-06 MaxDP=8.63D-05 DE=-2.26D-07 OVMax= 0.00D+00

 Cycle  13  Pass 1  IDiag  1:
 RMSU=  5.09D-07    CP:  9.92D-01  1.16D+00  1.09D+00  1.30D+00  2.80D+00
                    CP:  3.00D+00  3.00D+00  3.00D+00  2.19D+00  1.48D+00
                    CP:  1.90D+00  1.81D+00
 E= -474.361645674700     Delta-E=       -0.000000047590 Rises=F Damp=F
 DIIS: error= 2.42D-06 at cycle  13 NSaved=  13.
 NSaved=13 IEnMin=13 EnMin= -474.361645674700     IErMin=13 ErrMin= 2.42D-06
 ErrMax= 2.42D-06  0.00D+00 EMaxC= 1.00D-01 BMatC= 1.15D-09 BMatP= 4.06D-09
 IDIUse=1 WtCom= 1.00D+00 WtEn= 0.00D+00
 Coeff-Com:  0.622D-05-0.877D-05-0.205D-03-0.108D-03 0.114D-02 0.436D-02
 Coeff-Com: -0.141D-01-0.716D-02 0.429D-01 0.159D-01-0.168D+00-0.361D+00
 Coeff-Com:  0.149D+01
 Coeff:      0.622D-05-0.877D-05-0.205D-03-0.108D-03 0.114D-02 0.436D-02
 Coeff:     -0.141D-01-0.716D-02 0.429D-01 0.159D-01-0.168D+00-0.361D+00
 Coeff:      0.149D+01
 RMSDP=1.13D-06 MaxDP=5.56D-05 DE=-4.76D-08 OVMax= 0.00D+00

 Cycle  14  Pass 1  IDiag  1:
 RMSU=  2.25D-07    CP:  9.92D-01  1.16D+00  1.09D+00  1.30D+00  2.81D+00
                    CP:  3.00D+00  3.00D+00  3.00D+00  2.20D+00  1.50D+00
                    CP:  2.10D+00  2.57D+00  1.82D+00
 E= -474.361645695829     Delta-E=       -0.000000021129 Rises=F Damp=F
 DIIS: error= 2.50D-06 at cycle  14 NSaved=  14.
 NSaved=14 IEnMin=14 EnMin= -474.361645695829     IErMin=13 ErrMin= 2.42D-06
 ErrMax= 2.50D-06  0.00D+00 EMaxC= 1.00D-01 BMatC= 4.53D-10 BMatP= 1.15D-09
 IDIUse=1 WtCom= 1.00D+00 WtEn= 0.00D+00
 Coeff-Com: -0.163D-04 0.107D-03 0.612D-04-0.102D-02-0.202D-02 0.700D-02
 Coeff-Com:  0.161D-01-0.361D-01-0.130D-01 0.107D+00 0.103D+00-0.544D+00
 Coeff-Com: -0.200D+00 0.156D+01
 Coeff:     -0.163D-04 0.107D-03 0.612D-04-0.102D-02-0.202D-02 0.700D-02
 Coeff:      0.161D-01-0.361D-01-0.130D-01 0.107D+00 0.103D+00-0.544D+00
 Coeff:     -0.200D+00 0.156D+01
 RMSDP=7.98D-07 MaxDP=4.20D-05 DE=-2.11D-08 OVMax= 0.00D+00

 Cycle  15  Pass 1  IDiag  1:
 RMSU=  1.67D-07    CP:  9.92D-01  1.16D+00  1.09D+00  1.30D+00  2.81D+00
                    CP:  3.00D+00  3.00D+00  3.00D+00  2.20D+00  1.51D+00
                    CP:  2.22D+00  3.00D+00  2.58D+00  2.04D+00
 E= -474.361645703773     Delta-E=       -0.000000007944 Rises=F Damp=F
 DIIS: error= 7.22D-07 at cycle  15 NSaved=  15.
 NSaved=15 IEnMin=15 EnMin= -474.361645703773     IErMin=15 ErrMin= 7.22D-07
 ErrMax= 7.22D-07  0.00D+00 EMaxC= 1.00D-01 BMatC= 8.56D-11 BMatP= 4.53D-10
 IDIUse=1 WtCom= 1.00D+00 WtEn= 0.00D+00
 Coeff-Com: -0.296D-05 0.118D-04 0.620D-04 0.306D-04-0.957D-03 0.387D-03
 Coeff-Com:  0.480D-02-0.213D-02-0.107D-01-0.194D-02 0.611D-01 0.130D-01
 Coeff-Com: -0.350D+00 0.965D-01 0.119D+01
 Coeff:     -0.296D-05 0.118D-04 0.620D-04 0.306D-04-0.957D-03 0.387D-03
 Coeff:      0.480D-02-0.213D-02-0.107D-01-0.194D-02 0.611D-01 0.130D-01
 Coeff:     -0.350D+00 0.965D-01 0.119D+01
 RMSDP=3.48D-07 MaxDP=1.74D-05 DE=-7.94D-09 OVMax= 0.00D+00

 Cycle  16  Pass 1  IDiag  1:
 RMSU=  1.14D-07    CP:  9.92D-01  1.16D+00  1.09D+00  1.30D+00  2.81D+00
                    CP:  3.00D+00  3.00D+00  3.00D+00  2.20D+00  1.52D+00
                    CP:  2.27D+00  3.00D+00  2.89D+00  2.59D+00  2.20D+00
 E= -474.361645704950     Delta-E=       -0.000000001177 Rises=F Damp=F
 DIIS: error= 4.34D-07 at cycle  16 NSaved=  16.
 NSaved=16 IEnMin=16 EnMin= -474.361645704950     IErMin=16 ErrMin= 4.34D-07
 ErrMax= 4.34D-07  0.00D+00 EMaxC= 1.00D-01 BMatC= 1.28D-11 BMatP= 8.56D-11
 IDIUse=1 WtCom= 1.00D+00 WtEn= 0.00D+00
 Coeff-Com:  0.376D-05-0.244D-04-0.107D-04 0.257D-03 0.273D-03-0.127D-02
 Coeff-Com: -0.401D-02 0.749D-02 0.376D-02-0.246D-01-0.130D-01 0.108D+00
 Coeff-Com:  0.479D-01-0.332D+00 0.342D-01 0.117D+01
 Coeff:      0.376D-05-0.244D-04-0.107D-04 0.257D-03 0.273D-03-0.127D-02
 Coeff:     -0.401D-02 0.749D-02 0.376D-02-0.246D-01-0.130D-01 0.108D+00
 Coeff:      0.479D-01-0.332D+00 0.342D-01 0.117D+01
 RMSDP=9.25D-08 MaxDP=4.82D-06 DE=-1.18D-09 OVMax= 0.00D+00

 Cycle  17  Pass 1  IDiag  1:
 RMSU=  2.39D-08    CP:  9.92D-01  1.16D+00  1.09D+00  1.30D+00  2.81D+00
                    CP:  3.00D+00  3.00D+00  3.00D+00  2.20D+00  1.52D+00
                    CP:  2.28D+00  3.00D+00  2.95D+00  2.76D+00  2.52D+00
                    CP:  1.11D+00
 E= -474.361645705089     Delta-E=       -0.000000000139 Rises=F Damp=F
 DIIS: error= 2.23D-07 at cycle  17 NSaved=  17.
 NSaved=17 IEnMin=17 EnMin= -474.361645705089     IErMin=17 ErrMin= 2.23D-07
 ErrMax= 2.23D-07  0.00D+00 EMaxC= 1.00D-01 BMatC= 1.49D-12 BMatP= 1.28D-11
 IDIUse=1 WtCom= 1.00D+00 WtEn= 0.00D+00
 Coeff-Com:  0.600D-07 0.176D-06-0.632D-05-0.164D-04 0.785D-04 0.321D-04
 Coeff-Com: -0.232D-03-0.200D-03 0.117D-02 0.443D-03-0.281D-02-0.123D-01
 Coeff-Com:  0.359D-01 0.174D-02-0.123D+00-0.496D-01 0.115D+01
 Coeff:      0.600D-07 0.176D-06-0.632D-05-0.164D-04 0.785D-04 0.321D-04
 Coeff:     -0.232D-03-0.200D-03 0.117D-02 0.443D-03-0.281D-02-0.123D-01
 Coeff:      0.359D-01 0.174D-02-0.123D+00-0.496D-01 0.115D+01
 RMSDP=3.06D-08 MaxDP=1.88D-06 DE=-1.39D-10 OVMax= 0.00D+00

 Cycle  18  Pass 1  IDiag  1:
 RMSU=  6.50D-09    CP:  9.92D-01  1.16D+00  1.09D+00  1.30D+00  2.81D+00
                    CP:  3.00D+00  3.00D+00  3.00D+00  2.20D+00  1.52D+00
                    CP:  2.28D+00  3.00D+00  2.97D+00  2.79D+00  2.61D+00
                    CP:  1.16D+00  1.53D+00
 E= -474.361645705068     Delta-E=        0.000000000021 Rises=F Damp=F
 DIIS: error= 1.29D-07 at cycle  18 NSaved=  18.
 NSaved=18 IEnMin=17 EnMin= -474.361645705089     IErMin=18 ErrMin= 1.29D-07
 ErrMax= 1.29D-07  0.00D+00 EMaxC= 1.00D-01 BMatC= 3.39D-13 BMatP= 1.49D-12
 IDIUse=1 WtCom= 1.00D+00 WtEn= 0.00D+00
 Coeff-Com: -0.843D-06 0.557D-05 0.138D-05-0.595D-04-0.482D-04 0.281D-03
 Coeff-Com:  0.824D-03-0.173D-02-0.646D-03 0.500D-02 0.361D-02-0.265D-01
 Coeff-Com: -0.546D-02 0.760D-01-0.136D-01-0.287D+00 0.338D-01 0.122D+01
 Coeff:     -0.843D-06 0.557D-05 0.138D-05-0.595D-04-0.482D-04 0.281D-03
 Coeff:      0.824D-03-0.173D-02-0.646D-03 0.500D-02 0.361D-02-0.265D-01
 Coeff:     -0.546D-02 0.760D-01-0.136D-01-0.287D+00 0.338D-01 0.122D+01
 RMSDP=1.33D-08 MaxDP=1.22D-06 DE= 2.09D-11 OVMax= 0.00D+00

 Cycle  19  Pass 1  IDiag  1:
 RMSU=  3.20D-09    CP:  9.92D-01  1.16D+00  1.09D+00  1.30D+00  2.81D+00
                    CP:  3.00D+00  3.00D+00  3.00D+00  2.20D+00  1.52D+00
                    CP:  2.28D+00  3.00D+00  2.97D+00  2.80D+00  2.63D+00
                    CP:  1.17D+00  1.90D+00  1.50D+00
 E= -474.361645705075     Delta-E=       -0.000000000006 Rises=F Damp=F
 DIIS: error= 5.17D-08 at cycle  19 NSaved=  19.
 NSaved=19 IEnMin=17 EnMin= -474.361645705089     IErMin=19 ErrMin= 5.17D-08
 ErrMax= 5.17D-08  0.00D+00 EMaxC= 1.00D-01 BMatC= 3.91D-14 BMatP= 3.39D-13
 IDIUse=1 WtCom= 1.00D+00 WtEn= 0.00D+00
 Coeff-Com:  0.636D-07-0.457D-06 0.101D-05 0.720D-05-0.840D-05-0.244D-04
 Coeff-Com: -0.616D-04 0.195D-03-0.718D-04-0.575D-03 0.190D-03 0.464D-02
 Coeff-Com: -0.532D-02-0.101D-01 0.237D-01 0.401D-01-0.184D+00-0.140D+00
 Coeff-Com:  0.127D+01
 Coeff:      0.636D-07-0.457D-06 0.101D-05 0.720D-05-0.840D-05-0.244D-04
 Coeff:     -0.616D-04 0.195D-03-0.718D-04-0.575D-03 0.190D-03 0.464D-02
 Coeff:     -0.532D-02-0.101D-01 0.237D-01 0.401D-01-0.184D+00-0.140D+00
 Coeff:      0.127D+01
 RMSDP=4.30D-09 MaxDP=5.29D-07 DE=-6.37D-12 OVMax= 0.00D+00

 SCF Done:  E(RZINDO/S) =  -474.361645705     A.U. after   19 cycles
            NFock= 19  Conv=0.43D-08     -V/T= 0.9492
 KE=-9.337802274788D+03 PE=-5.231577233644D-07 EE= 4.531903046524D+03
 Leave Link  502 at Wed May  4 20:51:13 2022, MaxMem=  6710886400 cpu:              25.8 elap:               1.1
 (Enter /sw/apps/gaussian-16.0/g16/l801.exe)
 Range of M.O.s used for correlation:     1   338
 NBasis=   338 NAE=   176 NBE=   176 NFC=     0 NFV=     0
 NROrb=    338 NOA=   176 NOB=   176 NVA=   162 NVB=   162
 Leave Link  801 at Wed May  4 20:51:13 2022, MaxMem=  6710886400 cpu:               0.6 elap:               0.0
 (Enter /sw/apps/gaussian-16.0/g16/l914.exe)
 RHF ground state
 Two-electron integral symmetry not used.
 MDV=  6710886400 DFT=F DoStab=F Mixed=F DoRPA=F DoScal=F NonHer=F
 Making orbital integer symmetry assigments:
 Orbital symmetries:
       Occupied  (A) (A) (A) (A) (A) (A) (A) (A) (A) (A) (A) (A)
                 (A) (A) (A) (A) (A) (A) (A) (A) (A) (A) (A) (A)
                 (A) (A) (A) (A) (A) (A) (A) (A) (A) (A) (A) (A)
                 (A) (A) (A) (A) (A) (A) (A) (A) (A) (A) (A) (A)
                 (A) (A) (A) (A) (A) (A) (A) (A) (A) (A) (A) (A)
                 (A) (A) (A) (A) (A) (A) (A) (A) (A) (A) (A) (A)
                 (A) (A) (A) (A) (A) (A) (A) (A) (A) (A) (A) (A)
                 (A) (A) (A) (A) (A) (A) (A) (A) (A) (A) (A) (A)
                 (A) (A) (A) (A) (A) (A) (A) (A) (A) (A) (A) (A)
                 (A) (A) (A) (A) (A) (A) (A) (A) (A) (A) (A) (A)
                 (A) (A) (A) (A) (A) (A) (A) (A) (A) (A) (A) (A)
                 (A) (A) (A) (A) (A) (A) (A) (A) (A) (A) (A) (A)
                 (A) (A) (A) (A) (A) (A) (A) (A) (A) (A) (A) (A)
                 (A) (A) (A) (A) (A) (A) (A) (A) (A) (A) (A) (A)
                 (A) (A) (A) (A) (A) (A) (A) (A)
       Virtual   (A) (A) (A) (A) (A) (A) (A) (A) (A) (A) (A) (A)
                 (A) (A) (A) (A) (A) (A) (A) (A) (A) (A) (A) (A)
                 (A) (A) (A) (A) (A) (A) (A) (A) (A) (A) (A) (A)
                 (A) (A) (A) (A) (A) (A) (A) (A) (A) (A) (A) (A)
                 (A) (A) (A) (A) (A) (A) (A) (A) (A) (A) (A) (A)
                 (A) (A) (A) (A) (A) (A) (A) (A) (A) (A) (A) (A)
                 (A) (A) (A) (A) (A) (A) (A) (A) (A) (A) (A) (A)
                 (A) (A) (A) (A) (A) (A) (A) (A) (A) (A) (A) (A)
                 (A) (A) (A) (A) (A) (A) (A) (A) (A) (A) (A) (A)
                 (A) (A) (A) (A) (A) (A) (A) (A) (A) (A) (A) (A)
                 (A) (A) (A) (A) (A) (A) (A) (A) (A) (A) (A) (A)
                 (A) (A) (A) (A) (A) (A) (A) (A) (A) (A) (A) (A)
                 (A) (A) (A) (A) (A) (A) (A) (A) (A) (A) (A) (A)
                 (A) (A) (A) (A) (A) (A)
    20 initial guesses have been made.
 Convergence on wavefunction:    0.001000000000000
 Davidson Disk Diagonalization:  ConvIn= 1.00D-03 SkipCon=T Conv= 1.00D-03.
 Max sub-space:  2000 roots to seek:    20 dimension of matrix:        57024
 Iteration     1 Dimension    20 NMult     0 NNew     20
 CISAX will form    20 AO SS matrices at one time.
 NMat=    20 NSing=    20 JSym2X= 0.
 New state      3 was old state      4
 New state      4 was old state      3
 New state      5 was old state      9
 Excitation Energies [eV] at current iteration:
 Root      1 :     1.700485746792374
 Root      2 :     2.205417330459950
 Root      3 :     3.260805977616104
 Root      4 :     3.348957779946650
 Root      5 :     3.509717816858697
 Root      6 :     3.612149753373990
 Root      7 :     3.651104970622788
 Root      8 :     3.909328842969359
 Root      9 :     3.950617370807304
 Root     10 :     4.081540263236056
 Root     11 :     4.260096373720067
 Root     12 :     4.320897804032607
 Root     13 :     4.458834112399693
 Root     14 :     4.471601022729769
 Root     15 :     4.582622234162050
 Root     16 :     4.650252852767773
 Root     17 :     4.796091132876969
 Root     18 :     4.965108911881938
 Root     19 :     5.064770231181038
 Root     20 :     5.775981757449530
 Iteration     2 Dimension    40 NMult    20 NNew     20
 CISAX will form    20 AO SS matrices at one time.
 NMat=    20 NSing=    20 JSym2X= 0.
 Root      1 not converged, maximum delta is    0.035881198594448
 Root      2 not converged, maximum delta is    0.028448834586159
 New state      3 was old state      4
 Root      3 not converged, maximum delta is    0.224672557137953
 New state      4 was old state      3
 Root      4 not converged, maximum delta is    0.197770748334784
 New state      5 was old state      6
 Root      5 not converged, maximum delta is    0.287621843668443
 Excitation Energies [eV] at current iteration:
 Root      1 :     1.419490836290104   Change is   -0.280994910502269
 Root      2 :     2.010069012916917   Change is   -0.195348317543033
 Root      3 :     3.023659346657512   Change is   -0.325298433289138
 Root      4 :     3.042217911882829   Change is   -0.218588065733275
 Root      5 :     3.446670955092949   Change is   -0.165478798281041
 Root      6 :     3.474194006919109   Change is   -0.035523809939588
 Root      7 :     3.482257416496035   Change is   -0.168847554126753
 Root      8 :     3.608130492709086   Change is   -0.342486878098218
 Root      9 :     3.709584687199336   Change is   -0.199744155770023
 Root     10 :     3.748867864805949   Change is   -0.332672398430107
 Root     11 :     3.913418052546040   Change is   -0.882673080330929
 Root     12 :     4.001582316921353   Change is   -0.319315487111254
 Root     13 :     4.047545620816633   Change is   -0.212550752903434
 Root     14 :     4.153807173668238   Change is   -0.317793849061531
 Root     15 :     4.358964079766829   Change is   -0.223658154395221
 Root     16 :     4.368007598492619   Change is   -0.090826513907074
 Root     17 :     4.450303011310099   Change is   -0.199949841457674
 Root     18 :     4.780661215345888   Change is   -0.184447696536050
 Root     19 :     5.051619804238186   Change is   -0.013150426942853
 Root     20 :     5.645405776276066
 Iteration     3 Dimension    45 NMult    40 NNew      5
 CISAX will form     5 AO SS matrices at one time.
 NMat=     5 NSing=     5 JSym2X= 0.
 Root      1 not converged, maximum delta is    0.011207945787558
 Root      2 not converged, maximum delta is    0.018741090840705
 Root      3 not converged, maximum delta is    0.244403462482322
 Root      4 not converged, maximum delta is    0.247876182705933
 Root      5 not converged, maximum delta is    0.078085684204624
 Excitation Energies [eV] at current iteration:
 Root      1 :     1.405335853772740   Change is   -0.014154982517364
 Root      2 :     1.983338536273045   Change is   -0.026730476643872
 Root      3 :     3.006311053971706   Change is   -0.017348292685806
 Root      4 :     3.007058168805637   Change is   -0.035159743077192
 Root      5 :     3.417049535350785   Change is   -0.029621419742164
 Iteration     4 Dimension    50 NMult    45 NNew      5
 CISAX will form     5 AO SS matrices at one time.
 NMat=     5 NSing=     5 JSym2X= 0.
 Root      1 not converged, maximum delta is    0.002249767622085
 Root      2 not converged, maximum delta is    0.001594921695725
 New state      3 was old state      4
 Root      3 not converged, maximum delta is    0.203580693652785
 New state      4 was old state      3
 Root      4 not converged, maximum delta is    0.197051966126636
 Root      5 not converged, maximum delta is    0.014886363038137
 Excitation Energies [eV] at current iteration:
 Root      1 :     1.404598063154094   Change is   -0.000737790618646
 Root      2 :     1.982636704768985   Change is   -0.000701831504060
 Root      3 :     3.002642216644659   Change is   -0.004415952160978
 Root      4 :     3.004152751773499   Change is   -0.002158302198207
 Root      5 :     3.412277466416162   Change is   -0.004772068934623
 Iteration     5 Dimension    55 NMult    50 NNew      5
 CISAX will form     5 AO SS matrices at one time.
 NMat=     5 NSing=     5 JSym2X= 0.
 Root      1 has converged.
 Root      2 has converged.
 Root      3 not converged, maximum delta is    0.041094029420352
 Root      4 not converged, maximum delta is    0.042065256859951
 Root      5 not converged, maximum delta is    0.024209079879887
 Excitation Energies [eV] at current iteration:
 Root      1 :     1.404550449578336   Change is   -0.000047613575758
 Root      2 :     1.982593701461461   Change is   -0.000043003307525
 Root      3 :     3.000999320507342   Change is   -0.001642896137317
 Root      4 :     3.003653391777842   Change is   -0.000499359995657
 Root      5 :     3.410381519521624   Change is   -0.001895946894538
 Iteration     6 Dimension    58 NMult    55 NNew      3
 CISAX will form     3 AO SS matrices at one time.
 NMat=     3 NSing=     3 JSym2X= 0.
 Root      1 has converged.
 Root      2 has converged.
 Root      3 not converged, maximum delta is    0.060719390693791
 Root      4 not converged, maximum delta is    0.065097209889343
 Root      5 not converged, maximum delta is    0.536117467140027
 Excitation Energies [eV] at current iteration:
 Root      1 :     1.404550091173683   Change is   -0.000000358404653
 Root      2 :     1.982590918447629   Change is   -0.000002783013832
 Root      3 :     2.998147509292350   Change is   -0.002851811214992
 Root      4 :     3.003432096195238   Change is   -0.000221295582604
 Root      5 :     3.167981733207580   Change is   -0.242399786314044
 Iteration     7 Dimension    61 NMult    58 NNew      3
 CISAX will form     3 AO SS matrices at one time.
 NMat=     3 NSing=     3 JSym2X= 0.
 Root      1 has converged.
 Root      2 has converged.
 Root      3 not converged, maximum delta is    0.071544641546568
 Root      4 not converged, maximum delta is    0.036948319111484
 Root      5 not converged, maximum delta is    0.080317354853825
 Excitation Energies [eV] at current iteration:
 Root      1 :     1.404549857609789   Change is   -0.000000233563894
 Root      2 :     1.982590074296536   Change is   -0.000000844151093
 Root      3 :     2.994244532100856   Change is   -0.003902977191494
 Root      4 :     3.003271911138524   Change is   -0.000160185056713
 Root      5 :     3.071561584230500   Change is   -0.096420148977080
 Iteration     8 Dimension    64 NMult    61 NNew      3
 CISAX will form     3 AO SS matrices at one time.
 NMat=     3 NSing=     3 JSym2X= 0.
 Root      1 has converged.
 Root      2 has converged.
 Root      3 not converged, maximum delta is    0.020575735998177
 Root      4 not converged, maximum delta is    0.010863932113779
 Root      5 not converged, maximum delta is    0.023030223151693
 Excitation Energies [eV] at current iteration:
 Root      1 :     1.404549718579551   Change is   -0.000000139030238
 Root      2 :     1.982589587023373   Change is   -0.000000487273163
 Root      3 :     2.993053084766182   Change is   -0.001191447334674
 Root      4 :     3.003141966234030   Change is   -0.000129944904494
 Root      5 :     3.058580349254308   Change is   -0.012981234976192
 Iteration     9 Dimension    67 NMult    64 NNew      3
 CISAX will form     3 AO SS matrices at one time.
 NMat=     3 NSing=     3 JSym2X= 0.
 Root      1 has converged.
 Root      2 has converged.
 Root      3 not converged, maximum delta is    0.002986610086975
 Root      4 not converged, maximum delta is    0.019137641959501
 Root      5 not converged, maximum delta is    0.008918333355919
 Excitation Energies [eV] at current iteration:
 Root      1 :     1.404549635266623   Change is   -0.000000083312928
 Root      2 :     1.982589220999248   Change is   -0.000000366024125
 Root      3 :     2.992871707722188   Change is   -0.000181377043994
 Root      4 :     3.002826552426755   Change is   -0.000315413807275
 Root      5 :     3.056722897591530   Change is   -0.001857451662779
 Iteration    10 Dimension    70 NMult    67 NNew      3
 CISAX will form     3 AO SS matrices at one time.
 NMat=     3 NSing=     3 JSym2X= 0.
 Root      1 has converged.
 Root      2 has converged.
 Root      3 not converged, maximum delta is    0.002412882601100
 Root      4 not converged, maximum delta is    0.035925266363526
 Root      5 not converged, maximum delta is    0.369541359242058
 Excitation Energies [eV] at current iteration:
 Root      1 :     1.404549527429664   Change is   -0.000000107836959
 Root      2 :     1.982589126019609   Change is   -0.000000094979639
 Root      3 :     2.992847527197164   Change is   -0.000024180525024
 Root      4 :     3.002256625238326   Change is   -0.000569927188430
 Root      5 :     3.049763676716433   Change is   -0.006959220875097
 Iteration    11 Dimension    73 NMult    70 NNew      3
 CISAX will form     3 AO SS matrices at one time.
 NMat=     3 NSing=     3 JSym2X= 0.
 Root      1 has converged.
 Root      2 has converged.
 Root      3 has converged.
 Root      4 not converged, maximum delta is    0.014390421556425
 Root      5 not converged, maximum delta is    0.064811154226979
 Excitation Energies [eV] at current iteration:
 Root      1 :     1.404549430917418   Change is   -0.000000096512246
 Root      2 :     1.982588996772535   Change is   -0.000000129247075
 Root      3 :     2.992844126567551   Change is   -0.000003400629612
 Root      4 :     3.002026480659866   Change is   -0.000230144578460
 Root      5 :     3.040635283756594   Change is   -0.009128392959838
 Iteration    12 Dimension    75 NMult    73 NNew      2
 CISAX will form     2 AO SS matrices at one time.
 NMat=     2 NSing=     2 JSym2X= 0.
 Root      1 has converged.
 Root      2 has converged.
 Root      3 has converged.
 Root      4 not converged, maximum delta is    0.002238534081986
 Root      5 not converged, maximum delta is    0.003345546673374
 Excitation Energies [eV] at current iteration:
 Root      1 :     1.404549383404370   Change is   -0.000000047513048
 Root      2 :     1.982588973504623   Change is   -0.000000023267911
 Root      3 :     2.992843962320818   Change is   -0.000000164246734
 Root      4 :     3.001990546476629   Change is   -0.000035934183237
 Root      5 :     3.039483134986925   Change is   -0.001152148769669
 Iteration    13 Dimension    77 NMult    75 NNew      2
 CISAX will form     2 AO SS matrices at one time.
 NMat=     2 NSing=     2 JSym2X= 0.
 Root      1 has converged.
 Root      2 has converged.
 Root      3 has converged.
 Root      4 has converged.
 Root      5 not converged, maximum delta is    0.001084242460716
 Excitation Energies [eV] at current iteration:
 Root      1 :     1.404549357051801   Change is   -0.000000026352569
 Root      2 :     1.982588971258790   Change is   -0.000000002245834
 Root      3 :     2.992843962118702   Change is   -0.000000000202116
 Root      4 :     3.001986020468755   Change is   -0.000004526007873
 Root      5 :     3.039340765639655   Change is   -0.000142369347270
 Iteration    14 Dimension    78 NMult    77 NNew      1
 CISAX will form     1 AO SS matrices at one time.
 NMat=     1 NSing=     1 JSym2X= 0.
 Root      1 has converged.
 Root      2 has converged.
 Root      3 has converged.
 Root      4 has converged.
 Root      5 has converged.
 Excitation Energies [eV] at current iteration:
 Root      1 :     1.404549350620437   Change is   -0.000000006431364
 Root      2 :     1.982588966566541   Change is   -0.000000004692248
 Root      3 :     2.992843961137519   Change is   -0.000000000981183
 Root      4 :     3.001985595779808   Change is   -0.000000424688948
 Root      5 :     3.039326081837592   Change is   -0.000014683802063
 Convergence achieved on expansion vectors.
 ***********************************************************************
 Excited states from <AA,BB:AA,BB> singles matrix:
 ***********************************************************************
 
 1PDM for each excited state written to RWF  633
 Ground to excited state transition densities written to RWF  633
 Ground to excited state transition electric dipole moments (Au):
       state          X           Y           Z        Dip. S.      Osc.
         1         2.0543     -3.2693      0.0946     14.9171      0.5133
         2        -0.3047     -0.5746      0.0213      0.4235      0.0206
         3         0.3557     -1.5395     -0.0879      2.5044      0.1836
         4        -2.8923     -2.1632     -0.0616     13.0487      0.9597
         5         0.6022      0.4836      0.0307      0.5974      0.0445
 Ground to excited state transition velocity dipole moments (Au):
       state          X           Y           Z        Dip. S.      Osc.
         1         0.0386     -0.0088     -0.0041      0.0016      0.0204
         2         0.0116      0.0153      0.0002      0.0004      0.0034
         3        -0.0091      0.0613      0.0015      0.0038      0.0233
         4         0.1087      0.0842      0.0100      0.0190      0.1149
         5        -0.0243     -0.0204      0.0006      0.0010      0.0060
 Ground to excited state transition magnetic dipole moments (Au):
       state          X           Y           Z
         1        -0.0367      0.0736      0.2931
         2         0.0216      0.0002     -1.2969
         3        -0.1167      0.2813      1.0158
         4        -0.1218     -0.1324      0.5253
         5        -0.6359     -0.3946     -0.1684
 Ground to excited state transition velocity quadrupole moments (Au):
       state          XX          YY          ZZ          XY          XZ          YZ
         1         0.7324      0.0995     -0.0192     -0.1706     -0.0455     -0.0772
         2         0.1662      0.1084     -0.0186      0.0988     -0.0081      0.0011
         3         0.3567     -0.2921      0.0346      0.9103      0.0415     -0.0437
         4         1.6865     -0.0212     -0.0047      0.8286      0.1169     -0.0223
         5        -0.4410     -0.0026     -0.0109     -0.2400     -0.0339      0.0616
 <0|del|b> * <b|rxdel|0> + <0|del|b> * <b|delr+rdel|0>
 Rotatory Strengths (R) in cgs (10**-40 erg-esu-cm/Gauss)
       state          XX          YY          ZZ    R(velocity)    E-M Angle
         1       -10.5835    -43.1270      9.0037    -14.9023      105.64
         2        -0.6922     -0.2381      0.5666     -0.1212       90.00
         3        56.7896      5.2345     65.7596     42.5946       72.40
         4       -24.0296    -59.9110    -38.8558    -40.9321      104.49
         5        22.4922     44.2240     81.1731     49.2964       15.97
 1/2[<0|r|b>*<b|rxdel|0> + (<0|rxdel|b>*<b|r|0>)*]
 Rotatory Strengths (R) in cgs (10**-40 erg-esu-cm/Gauss)
       state          XX          YY          ZZ     R(length)
         1        53.3558    170.0511    -19.6185     67.9295
         2         4.6593      0.0724     19.5500      8.0939
         3        29.3404    306.2224     63.1224    132.8951
         4      -249.1666   -202.4638     22.8976   -142.9110
         5       270.8021    134.9248      3.6588    136.4619
  1/2[<0|del|b>*<b|r|0> + (<0|r|b>*<b|del|0>)*] (Au)
       state          X           Y           Z        Dip. S.   Osc.(frdel)
         1         0.0792      0.0286     -0.0004     -0.1075     -0.0716
         2        -0.0035     -0.0088      0.0000      0.0123      0.0082
         3        -0.0033     -0.0944     -0.0001      0.0978      0.0652
         4        -0.3145     -0.1822     -0.0006      0.4973      0.3316
         5        -0.0146     -0.0098      0.0000      0.0244      0.0163

 Excitation energies and oscillator strengths:
 
 Excited State   1:      Singlet-A      1.4045 eV  882.73 nm  f=0.5133  <S**2>=0.000
     175 ->178         0.14185
     176 ->177         0.67377
 This state for optimization and/or second-order correction.
 Total Energy, E(CIS/TDA) =  -474.310029466    
 Copying the excited state density for this state as the 1-particle RhoCI density.
 
 Excited State   2:      Singlet-A      1.9826 eV  625.37 nm  f=0.0206  <S**2>=0.000
     175 ->177         0.51107
     176 ->178        -0.44135
 
 Excited State   3:      Singlet-A      2.9928 eV  414.27 nm  f=0.1836  <S**2>=0.000
     171 ->177         0.10576
     171 ->179         0.11190
     171 ->180         0.19398
     176 ->178         0.12054
     176 ->179         0.47696
     176 ->180         0.34732
 
 Excited State   4:      Singlet-A      3.0020 eV  413.01 nm  f=0.9597  <S**2>=0.000
     175 ->177         0.41586
     176 ->178         0.49541
     176 ->180        -0.12808
 
 Excited State   5:      Singlet-A      3.0393 eV  407.93 nm  f=0.0445  <S**2>=0.000
     166 ->177        -0.25906
     166 ->178         0.17560
     166 ->179         0.41495
     166 ->180        -0.20407
     166 ->184        -0.13007
     166 ->186         0.14608
     167 ->177         0.12864
     167 ->179        -0.20084
     176 ->178        -0.10738
 SavETr:  write IOETrn=   770 NScale= 10 NData=  16 NLR=1 NState=    5 LETran=     100.
 Leave Link  914 at Wed May  4 20:51:20 2022, MaxMem=  6710886400 cpu:             161.8 elap:               6.8
 (Enter /sw/apps/gaussian-16.0/g16/l601.exe)
 Copying SCF densities to generalized density rwf, IOpCl= 0 IROHF=0.

 **********************************************************************

            Population analysis using the SCF density.

 **********************************************************************

 Orbital symmetries:
       Occupied  (A) (A) (A) (A) (A) (A) (A) (A) (A) (A) (A) (A)
                 (A) (A) (A) (A) (A) (A) (A) (A) (A) (A) (A) (A)
                 (A) (A) (A) (A) (A) (A) (A) (A) (A) (A) (A) (A)
                 (A) (A) (A) (A) (A) (A) (A) (A) (A) (A) (A) (A)
                 (A) (A) (A) (A) (A) (A) (A) (A) (A) (A) (A) (A)
                 (A) (A) (A) (A) (A) (A) (A) (A) (A) (A) (A) (A)
                 (A) (A) (A) (A) (A) (A) (A) (A) (A) (A) (A) (A)
                 (A) (A) (A) (A) (A) (A) (A) (A) (A) (A) (A) (A)
                 (A) (A) (A) (A) (A) (A) (A) (A) (A) (A) (A) (A)
                 (A) (A) (A) (A) (A) (A) (A) (A) (A) (A) (A) (A)
                 (A) (A) (A) (A) (A) (A) (A) (A) (A) (A) (A) (A)
                 (A) (A) (A) (A) (A) (A) (A) (A) (A) (A) (A) (A)
                 (A) (A) (A) (A) (A) (A) (A) (A) (A) (A) (A) (A)
                 (A) (A) (A) (A) (A) (A) (A) (A) (A) (A) (A) (A)
                 (A) (A) (A) (A) (A) (A) (A) (A)
       Virtual   (A) (A) (A) (A) (A) (A) (A) (A) (A) (A) (A) (A)
                 (A) (A) (A) (A) (A) (A) (A) (A) (A) (A) (A) (A)
                 (A) (A) (A) (A) (A) (A) (A) (A) (A) (A) (A) (A)
                 (A) (A) (A) (A) (A) (A) (A) (A) (A) (A) (A) (A)
                 (A) (A) (A) (A) (A) (A) (A) (A) (A) (A) (A) (A)
                 (A) (A) (A) (A) (A) (A) (A) (A) (A) (A) (A) (A)
                 (A) (A) (A) (A) (A) (A) (A) (A) (A) (A) (A) (A)
                 (A) (A) (A) (A) (A) (A) (A) (A) (A) (A) (A) (A)
                 (A) (A) (A) (A) (A) (A) (A) (A) (A) (A) (A) (A)
                 (A) (A) (A) (A) (A) (A) (A) (A) (A) (A) (A) (A)
                 (A) (A) (A) (A) (A) (A) (A) (A) (A) (A) (A) (A)
                 (A) (A) (A) (A) (A) (A) (A) (A) (A) (A) (A) (A)
                 (A) (A) (A) (A) (A) (A) (A) (A) (A) (A) (A) (A)
                 (A) (A) (A) (A) (A) (A)
 The electronic state is 1-A.
 Alpha  occ. eigenvalues --   -1.83578  -1.82501  -1.79774  -1.72860  -1.71234
 Alpha  occ. eigenvalues --   -1.70041  -1.66334  -1.61741  -1.60658  -1.55815
 Alpha  occ. eigenvalues --   -1.54734  -1.51165  -1.48656  -1.47935  -1.46952
 Alpha  occ. eigenvalues --   -1.43931  -1.42652  -1.41651  -1.38466  -1.37930
 Alpha  occ. eigenvalues --   -1.35809  -1.33822  -1.33531  -1.32668  -1.28892
 Alpha  occ. eigenvalues --   -1.27326  -1.24699  -1.23030  -1.21330  -1.18252
 Alpha  occ. eigenvalues --   -1.17291  -1.17051  -1.15207  -1.14668  -1.12951
 Alpha  occ. eigenvalues --   -1.11952  -1.11111  -1.10437  -1.04312  -1.03293
 Alpha  occ. eigenvalues --   -1.01976  -1.00932  -0.98418  -0.97683  -0.97220
 Alpha  occ. eigenvalues --   -0.96839  -0.95674  -0.94707  -0.93019  -0.92638
 Alpha  occ. eigenvalues --   -0.92103  -0.90573  -0.89857  -0.88124  -0.86027
 Alpha  occ. eigenvalues --   -0.85613  -0.85385  -0.83654  -0.80864  -0.80160
 Alpha  occ. eigenvalues --   -0.78766  -0.77812  -0.77492  -0.76403  -0.76225
 Alpha  occ. eigenvalues --   -0.75538  -0.75420  -0.74592  -0.73868  -0.73325
 Alpha  occ. eigenvalues --   -0.72763  -0.72612  -0.72062  -0.71529  -0.71117
 Alpha  occ. eigenvalues --   -0.69962  -0.69749  -0.69056  -0.68803  -0.68568
 Alpha  occ. eigenvalues --   -0.68178  -0.67181  -0.66979  -0.66298  -0.66235
 Alpha  occ. eigenvalues --   -0.65391  -0.64648  -0.64554  -0.64258  -0.63522
 Alpha  occ. eigenvalues --   -0.63192  -0.63100  -0.62632  -0.62537  -0.61902
 Alpha  occ. eigenvalues --   -0.61583  -0.61234  -0.60826  -0.60597  -0.60480
 Alpha  occ. eigenvalues --   -0.59966  -0.59700  -0.59188  -0.59120  -0.59002
 Alpha  occ. eigenvalues --   -0.58616  -0.57377  -0.56734  -0.56449  -0.56377
 Alpha  occ. eigenvalues --   -0.55819  -0.55403  -0.55055  -0.54556  -0.54101
 Alpha  occ. eigenvalues --   -0.53806  -0.53487  -0.53410  -0.52673  -0.52010
 Alpha  occ. eigenvalues --   -0.51876  -0.51746  -0.51199  -0.50959  -0.50679
 Alpha  occ. eigenvalues --   -0.50439  -0.50384  -0.50229  -0.50199  -0.50071
 Alpha  occ. eigenvalues --   -0.49692  -0.49473  -0.49407  -0.49233  -0.49087
 Alpha  occ. eigenvalues --   -0.48534  -0.48415  -0.47882  -0.47639  -0.47459
 Alpha  occ. eigenvalues --   -0.47257  -0.47082  -0.46906  -0.46587  -0.46342
 Alpha  occ. eigenvalues --   -0.46090  -0.45784  -0.45531  -0.45342  -0.45226
 Alpha  occ. eigenvalues --   -0.45012  -0.44797  -0.44739  -0.44149  -0.43959
 Alpha  occ. eigenvalues --   -0.43455  -0.42861  -0.42420  -0.42051  -0.41803
 Alpha  occ. eigenvalues --   -0.41638  -0.41016  -0.40032  -0.38929  -0.38601
 Alpha  occ. eigenvalues --   -0.37440  -0.37237  -0.36110  -0.35229  -0.34200
 Alpha  occ. eigenvalues --   -0.33378  -0.32235  -0.31469  -0.30525  -0.26611
 Alpha  occ. eigenvalues --   -0.21613
 Alpha virt. eigenvalues --   -0.07582  -0.01934  -0.00799   0.01053   0.01871
 Alpha virt. eigenvalues --    0.02678   0.03337   0.03670   0.04656   0.04781
 Alpha virt. eigenvalues --    0.05680   0.06916   0.07010   0.07925   0.08043
 Alpha virt. eigenvalues --    0.08621   0.08685   0.09018   0.09223   0.09564
 Alpha virt. eigenvalues --    0.09876   0.10171   0.10190   0.10529   0.10727
 Alpha virt. eigenvalues --    0.10939   0.11311   0.11815   0.12183   0.12402
 Alpha virt. eigenvalues --    0.12557   0.12686   0.12865   0.13190   0.13511
 Alpha virt. eigenvalues --    0.13541   0.14008   0.14289   0.15199   0.15307
 Alpha virt. eigenvalues --    0.15396   0.15415   0.15446   0.15646   0.15655
 Alpha virt. eigenvalues --    0.16186   0.16527   0.16587   0.16946   0.17052
 Alpha virt. eigenvalues --    0.17395   0.17649   0.17756   0.17897   0.17907
 Alpha virt. eigenvalues --    0.18257   0.18321   0.19009   0.19290   0.19414
 Alpha virt. eigenvalues --    0.19687   0.19781   0.19927   0.20870   0.21508
 Alpha virt. eigenvalues --    0.21731   0.22504   0.22700   0.23046   0.23360
 Alpha virt. eigenvalues --    0.23743   0.23745   0.23841   0.24057   0.24211
 Alpha virt. eigenvalues --    0.24227   0.24364   0.24394   0.24448   0.24551
 Alpha virt. eigenvalues --    0.24789   0.24862   0.24898   0.24950   0.24971
 Alpha virt. eigenvalues --    0.25034   0.25043   0.25064   0.25180   0.25277
 Alpha virt. eigenvalues --    0.25363   0.25523   0.25614   0.25626   0.25652
 Alpha virt. eigenvalues --    0.25679   0.25766   0.25784   0.25942   0.25962
 Alpha virt. eigenvalues --    0.25980   0.26219   0.26600   0.26622   0.26701
 Alpha virt. eigenvalues --    0.26854   0.26900   0.26956   0.27031   0.27170
 Alpha virt. eigenvalues --    0.27338   0.27571   0.27761   0.28110   0.28112
 Alpha virt. eigenvalues --    0.28317   0.28640   0.28654   0.29542   0.29583
 Alpha virt. eigenvalues --    0.29858   0.30318   0.30630   0.31063   0.31675
 Alpha virt. eigenvalues --    0.32325   0.32619   0.33155   0.33341   0.33742
 Alpha virt. eigenvalues --    0.35457   0.35833   0.36088   0.36365   0.36625
 Alpha virt. eigenvalues --    0.37099   0.37518   0.37558   0.38279   0.38314
 Alpha virt. eigenvalues --    0.38762   0.39069   0.39558   0.39864   0.40129
 Alpha virt. eigenvalues --    0.40534   0.40897   0.41765   0.41844   0.43589
 Alpha virt. eigenvalues --    0.44510   0.44907   0.45324   0.46360   0.47364
 Alpha virt. eigenvalues --    0.48150   0.48620   0.48734   0.51172   0.53734
 Alpha virt. eigenvalues --    0.54648   0.57808
          Condensed to atoms (all electrons):
 Mulliken charges:
               1
     1  Mg   0.423867
     2  C   -0.033752
     3  C   -0.106892
     4  C   -0.082307
     5  C   -0.063034
     6  N   -0.298274
     7  C    0.102398
     8  C   -0.011559
     9  C    0.000750
    10  C    0.174476
    11  C   -0.043077
    12  C   -0.012881
    13  C    0.011543
    14  C    0.474655
    15  O   -0.508298
    16  O   -0.284457
    17  N   -0.313396
    18  C    0.148371
    19  C    0.046048
    20  C   -0.041951
    21  C    0.152658
    22  C   -0.055727
    23  C    0.346190
    24  O   -0.501352
    25  C   -0.033320
    26  N   -0.243260
    27  C    0.171074
    28  C   -0.003013
    29  C    0.002897
    30  C    0.076234
    31  C   -0.046533
    32  C   -0.022821
    33  C   -0.054503
    34  N   -0.325407
    35  C    0.044190
    36  C    0.023806
    37  C   -0.083111
    38  C    0.092517
    39  C   -0.042609
    40  C    0.322917
    41  O   -0.538532
    42  C    0.063819
    43  C    0.492799
    44  O   -0.540092
    45  O   -0.249627
    46  C    0.071000
    47  C    0.111302
    48  C   -0.090460
    49  C   -0.020892
    50  C   -0.045896
    51  C   -0.026053
    52  C   -0.030716
    53  C   -0.025268
    54  C   -0.013965
    55  C   -0.065600
    56  C   -0.034275
    57  C   -0.045060
    58  C   -0.039444
    59  C   -0.008677
    60  C   -0.063840
    61  C   -0.025254
    62  C   -0.037346
    63  C   -0.031986
    64  C    0.000660
    65  C   -0.062536
    66  C   -0.056694
    67  H    0.027693
    68  H    0.038703
    69  H    0.035855
    70  H    0.059964
    71  H    0.032992
    72  H    0.010834
    73  H    0.042779
    74  H    0.026893
    75  H    0.015498
    76  H    0.031639
    77  H    0.037819
    78  H    0.045854
    79  H    0.028498
    80  H    0.031027
    81  H    0.026553
    82  H    0.053039
    83  H    0.031428
    84  H    0.037246
    85  H    0.039311
    86  H    0.027967
    87  H    0.020035
    88  H    0.022740
    89  H    0.029416
    90  H    0.012328
    91  H    0.014584
    92  H    0.013495
    93  H    0.024479
    94  H    0.024327
    95  H    0.035607
    96  H    0.020750
    97  H    0.025872
    98  H    0.056233
    99  H    0.022733
   100  H    0.051560
   101  H    0.039201
   102  H    0.049529
   103  H    0.045711
   104  H    0.025920
   105  H    0.027416
   106  H    0.027661
   107  H    0.040393
   108  H    0.009988
   109  H    0.020239
   110  H    0.026163
   111  H    0.012991
   112  H    0.013692
   113  H    0.020686
   114  H    0.025667
   115  H    0.015525
   116  H    0.013068
   117  H    0.018170
   118  H    0.019773
   119  H    0.026111
   120  H    0.025027
   121  H    0.013211
   122  H    0.020525
   123  H    0.014420
   124  H    0.028610
   125  H    0.027204
   126  H    0.019302
   127  H    0.014048
   128  H    0.019838
   129  H    0.012216
   130  H    0.018289
   131  H    0.016008
   132  H    0.020119
   133  H    0.010365
   134  H    0.024384
   135  H    0.008358
   136  H    0.015048
   137  H    0.016072
   138  H    0.016860
   139  H    0.024347
   140  H    0.011667
 Sum of Mulliken charges =  -0.00000
 Mulliken charges with hydrogens summed into heavy atoms:
               1
     1  Mg   0.423867
     2  C   -0.033752
     3  C   -0.079199
     4  C   -0.043603
     5  C   -0.027179
     6  N   -0.298274
     7  C    0.102398
     8  C    0.048405
     9  C    0.033742
    10  C    0.174476
    11  C    0.037429
    12  C    0.034256
    13  C    0.095217
    14  C    0.474655
    15  O   -0.508298
    16  O   -0.284457
    17  N   -0.313396
    18  C    0.148371
    19  C    0.046048
    20  C   -0.041951
    21  C    0.152658
    22  C    0.030351
    23  C    0.346190
    24  O   -0.501352
    25  C    0.088393
    26  N   -0.243260
    27  C    0.171074
    28  C    0.036299
    29  C    0.030864
    30  C    0.076234
    31  C    0.025658
    32  C    0.004091
    33  C    0.007797
    34  N   -0.325407
    35  C    0.044190
    36  C    0.023806
    37  C   -0.083111
    38  C    0.092517
    39  C    0.039620
    40  C    0.322917
    41  O   -0.538532
    42  C    0.120053
    43  C    0.492799
    44  O   -0.540092
    45  O   -0.249627
    46  C    0.184494
    47  C    0.206543
    48  C   -0.064540
    49  C   -0.020892
    50  C    0.049574
    51  C    0.004174
    52  C    0.008438
    53  C    0.009110
    54  C    0.011702
    55  C   -0.018836
    56  C    0.011609
    57  C   -0.006821
    58  C   -0.004500
    59  C    0.019933
    60  C   -0.003287
    61  C    0.006799
    62  C   -0.003049
    63  C   -0.001503
    64  C    0.025044
    65  C   -0.023058
    66  C   -0.003820
 Charge=              0.0000 electrons
 Dipole moment (field-independent basis, Debye):
    X=             -8.9147    Y=              9.1905    Z=              3.2392  Tot=             13.2072
 N-N= 4.331537583083D+03 E-N= 0.000000000000D+00  KE=-9.337802274788D+03
 Leave Link  601 at Wed May  4 20:51:20 2022, MaxMem=  6710886400 cpu:               0.9 elap:               0.1
 (Enter /sw/apps/gaussian-16.0/g16/l9999.exe)
 1\1\GINC-BP1-COMPUTE216\SP\RZINDO CIS\STO-3G\C55H74Mg1N4O6\OF15641\04-
 May-2022\0\\#p ZINDO=(nstates=5)\\step_401_chromophore_24 ZINDO\\0,1\M
 g,0,-0.255,43.288,24.611\C,0,2.028,42.987,27.336\C,0,-2.733,42.348,26.
 842\C,0,-2.339,43.308,22.057\C,0,2.544,43.583,22.422\N,0,-0.335,42.835
 ,26.875\C,0,0.719,42.825,27.75\C,0,0.28,42.603,29.194\C,0,-1.273,42.15
 1,29.001\C,0,-1.494,42.483,27.515\C,0,-1.661,40.674,29.333\C,0,0.554,4
 3.912,30.054\C,0,1.052,43.637,31.441\C,0,0.801,42.254,32.04\O,0,1.522,
 41.27,32.031\O,0,-0.38,42.283,32.749\N,0,-2.273,43.076,24.453\C,0,-3.0
 57,42.654,25.48\C,0,-4.385,42.617,24.842\C,0,-4.407,42.832,23.514\C,0,
 -2.924,43.065,23.277\C,0,-5.566,42.195,25.645\C,0,-5.542,42.904,22.447
 \O,0,-5.359,43.208,21.271\C,0,-6.928,42.638,22.896\N,0,0.046,43.369,22
 .552\C,0,-0.964,43.424,21.68\C,0,-0.549,43.761,20.196\C,0,1.01,43.914,
 20.43\C,0,1.211,43.657,21.908\C,0,-1.058,42.727,19.158\C,0,1.421,45.31
 1,19.902\C,0,0.972,46.514,20.677\N,0,1.856,43.221,24.786\C,0,2.854,43.
 359,23.803\C,0,4.089,43.384,24.444\C,0,3.85,43.13,25.806\C,0,2.438,42.
 984,25.975\C,0,5.394,43.46,23.844\C,0,4.484,42.957,27.132\O,0,5.681,43
 .008,27.468\C,0,3.268,42.974,28.137\C,0,3.498,41.763,28.938\O,0,2.988,
 40.641,28.719\O,0,4.281,42.176,30.\C,0,4.655,41.072,30.852\C,0,-0.835,
 41.121,33.502\C,0,-1.97,41.285,34.452\C,0,-2.485,40.355,35.308\C,0,-1.
 89,38.956,35.434\C,0,-3.661,40.748,36.23\C,0,-3.517,42.098,36.997\C,0,
 -4.369,43.188,36.371\C,0,-5.614,43.612,37.209\C,0,-5.231,44.905,37.998
 \C,0,-6.947,43.69,36.366\C,0,-7.735,42.336,36.502\C,0,-9.162,42.447,37
 .206\C,0,-10.119,41.249,37.006\C,0,-11.03,41.38,35.712\C,0,-11.004,41.
 183,38.223\C,0,-10.724,39.966,39.052\C,0,-11.76,38.828,38.679\C,0,-13.
 222,39.161,39.128\C,0,-13.294,39.031,40.636\C,0,-14.289,38.333,38.408\
 H,0,-3.503,42.035,27.55\H,0,-3.03,43.295,21.212\H,0,3.408,43.894,21.83
 2\H,0,0.731,41.666,29.519\H,0,-1.853,42.937,29.483\H,0,-2.262,40.708,3
 0.242\H,0,-0.856,39.994,29.613\H,0,-2.303,40.244,28.565\H,0,-0.39,44.4
 52,30.135\H,0,1.178,44.61,29.495\H,0,0.535,44.376,32.052\H,0,2.128,43.
 782,31.344\H,0,-6.124,41.44,25.092\H,0,-6.211,43.062,25.787\H,0,-5.238
 ,41.826,26.617\H,0,-7.165,41.575,22.943\H,0,-7.505,43.106,22.099\H,0,-
 7.236,43.23,23.758\H,0,-0.953,44.754,20.004\H,0,1.553,43.157,19.864\H,
 0,-0.221,42.154,18.76\H,0,-1.523,43.249,18.321\H,0,-1.751,41.989,19.56
 3\H,0,1.012,45.411,18.896\H,0,2.509,45.339,19.838\H,0,1.851,46.987,21.
 113\H,0,0.434,46.221,21.578\H,0,0.466,47.238,20.039\H,0,6.058,43.376,2
 4.704\H,0,5.555,44.364,23.256\H,0,5.582,42.707,23.078\H,0,3.305,43.868
 ,28.759\H,0,5.692,41.249,31.136\H,0,4.659,40.039,30.504\H,0,4.057,41.0
 31,31.763\H,0,-0.022,40.725,34.111\H,0,-1.139,40.32,32.828\H,0,-2.531,
 42.216,34.37\H,0,-1.71,38.733,36.485\H,0,-0.893,38.899,34.997\H,0,-2.6
 59,38.367,34.934\H,0,-3.901,39.925,36.903\H,0,-4.587,40.731,35.654\H,0
 ,-2.434,42.206,37.059\H,0,-3.836,41.935,38.027\H,0,-4.686,42.886,35.37
 2\H,0,-3.602,43.926,36.134\H,0,-5.777,42.975,38.078\H,0,-5.792,45.768,
 37.637\H,0,-4.212,45.275,37.885\H,0,-5.305,44.754,39.075\H,0,-6.625,43
 .83,35.334\H,0,-7.515,44.569,36.67\H,0,-7.128,41.603,37.034\H,0,-7.926
 ,41.981,35.489\H,0,-9.602,43.386,36.87\H,0,-8.933,42.531,38.268\H,0,-9
 .421,40.425,36.858\H,0,-12.073,41.639,35.893\H,0,-10.96,40.464,35.125\
 H,0,-10.586,42.202,35.151\H,0,-12.048,41.253,37.918\H,0,-10.885,42.,38
 .935\H,0,-10.79,40.182,40.118\H,0,-9.709,39.612,38.867\H,0,-11.365,37.
 882,39.048\H,0,-11.803,38.725,37.595\H,0,-13.463,40.216,38.995\H,0,-14
 .128,39.568,41.087\H,0,-12.348,39.362,41.064\H,0,-13.501,38.085,41.137
 \H,0,-14.633,38.859,37.518\H,0,-15.136,37.951,38.977\H,0,-13.787,37.42
 3,38.079\\Version=ES64L-G16RevA.03\State=1-A\HF=-474.3616457\RMSD=4.29
 7e-09\PG=C01 [X(C55H74Mg1N4O6)]\\@


 THEREFORE SHALL EVIL COME UPON THEE...
 THOU SHALT NOT KNOW FROM WHENCE IT RISETH...
 AND MISCHIEF SHALL FALL UPON THEE...
 THOU SHALT NOT BE ABLE TO PUT IT OFF...
 AND DESOLATION SHALL COME UPON THEE SUDDENLY...
 WHICH THOU SHALT NOT KNOW...

                                         ISAIAH 47.11
 Job cpu time:       0 days  0 hours  3 minutes 37.7 seconds.
 Elapsed time:       0 days  0 hours  0 minutes  9.4 seconds.
 File lengths (MBytes):  RWF=   1274 Int=      0 D2E=      0 Chk=     38 Scr=      1
 Normal termination of Gaussian 16 at Wed May  4 20:51:20 2022.
