 Entering Gaussian System, Link 0=g16
 Initial command:
 /sw/apps/gaussian-16.0/g16/l1.exe "/tmp/Gau-123103.inp" -scrdir="/tmp/"
 Entering Link 1 = /sw/apps/gaussian-16.0/g16/l1.exe PID=    123104.
  
 Copyright (c) 1988,1990,1992,1993,1995,1998,2003,2009,2016,
            Gaussian, Inc.  All Rights Reserved.
  
 This is part of the Gaussian(R) 16 program.  It is based on
 the Gaussian(R) 09 system (copyright 2009, Gaussian, Inc.),
 the Gaussian(R) 03 system (copyright 2003, Gaussian, Inc.),
 the Gaussian(R) 98 system (copyright 1998, Gaussian, Inc.),
 the Gaussian(R) 94 system (copyright 1995, Gaussian, Inc.),
 the Gaussian 92(TM) system (copyright 1992, Gaussian, Inc.),
 the Gaussian 90(TM) system (copyright 1990, Gaussian, Inc.),
 the Gaussian 88(TM) system (copyright 1988, Gaussian, Inc.),
 the Gaussian 86(TM) system (copyright 1986, Carnegie Mellon
 University), and the Gaussian 82(TM) system (copyright 1983,
 Carnegie Mellon University). Gaussian is a federally registered
 trademark of Gaussian, Inc.
  
 This software contains proprietary and confidential information,
 including trade secrets, belonging to Gaussian, Inc.
  
 This software is provided under written license and may be
 used, copied, transmitted, or stored only in accord with that
 written license.
  
 The following legend is applicable only to US Government
 contracts under FAR:
  
                    RESTRICTED RIGHTS LEGEND
  
 Use, reproduction and disclosure by the US Government is
 subject to restrictions as set forth in subparagraphs (a)
 and (c) of the Commercial Computer Software - Restricted
 Rights clause in FAR 52.227-19.
  
 Gaussian, Inc.
 340 Quinnipiac St., Bldg. 40, Wallingford CT 06492
  
  
 ---------------------------------------------------------------
 Warning -- This program may not be used in any manner that
 competes with the business of Gaussian, Inc. or will provide
 assistance to any competitor of Gaussian, Inc.  The licensee
 of this program is prohibited from giving any competitor of
 Gaussian, Inc. access to this program.  By using this program,
 the user acknowledges that Gaussian, Inc. is engaged in the
 business of creating and licensing software in the field of
 computational chemistry and represents and warrants to the
 licensee that it is not a competitor of Gaussian, Inc. and that
 it will not use this program in any manner prohibited above.
 ---------------------------------------------------------------
  

 Cite this work as:
 Gaussian 16, Revision A.03,
 M. J. Frisch, G. W. Trucks, H. B. Schlegel, G. E. Scuseria, 
 M. A. Robb, J. R. Cheeseman, G. Scalmani, V. Barone, 
 G. A. Petersson, H. Nakatsuji, X. Li, M. Caricato, A. V. Marenich, 
 J. Bloino, B. G. Janesko, R. Gomperts, B. Mennucci, H. P. Hratchian, 
 J. V. Ortiz, A. F. Izmaylov, J. L. Sonnenberg, D. Williams-Young, 
 F. Ding, F. Lipparini, F. Egidi, J. Goings, B. Peng, A. Petrone, 
 T. Henderson, D. Ranasinghe, V. G. Zakrzewski, J. Gao, N. Rega, 
 G. Zheng, W. Liang, M. Hada, M. Ehara, K. Toyota, R. Fukuda, 
 J. Hasegawa, M. Ishida, T. Nakajima, Y. Honda, O. Kitao, H. Nakai, 
 T. Vreven, K. Throssell, J. A. Montgomery, Jr., J. E. Peralta, 
 F. Ogliaro, M. J. Bearpark, J. J. Heyd, E. N. Brothers, K. N. Kudin, 
 V. N. Staroverov, T. A. Keith, R. Kobayashi, J. Normand, 
 K. Raghavachari, A. P. Rendell, J. C. Burant, S. S. Iyengar, 
 J. Tomasi, M. Cossi, J. M. Millam, M. Klene, C. Adamo, R. Cammi, 
 J. W. Ochterski, R. L. Martin, K. Morokuma, O. Farkas, 
 J. B. Foresman, and D. J. Fox, Gaussian, Inc., Wallingford CT, 2016.
 
 ******************************************
 Gaussian 16:  ES64L-G16RevA.03 25-Dec-2016
                27-Apr-2022 
 ******************************************
 %nproc=24
 Will use up to   24 processors via shared memory.
 %mem=75GB
 ------------------------------
 #p blyp/Def2SVP td=(nstates=5)
 ------------------------------
 1/38=1,172=1/1;
 2/12=2,17=6,18=5,40=1/2;
 3/5=43,7=101,11=9,25=1,30=1,74=402/1,2,3,8;
 4//1;
 5/5=2,38=5/2;
 8/6=1,10=1,108=5/1;
 9/41=5,42=1,70=2/14;
 6/7=2,8=2,9=2,10=2/1;
 99/5=1,9=1/99;
 Leave Link    1 at Wed Apr 27 23:39:39 2022, MaxMem= 10066329600 cpu:               0.9 elap:               0.0
 (Enter /sw/apps/gaussian-16.0/g16/l101.exe)
 ---------------------------------------------------
 step_1351_chromophore_16 TDDFT with blyp functional
 ---------------------------------------------------
 Symbolic Z-matrix:
 Charge =  0 Multiplicity = 1
 Mg                    40.463    41.583    26.886 
 C                     39.327    43.935    29.328 
 C                     41.222    39.433    29.531 
 C                     41.725    39.592    24.715 
 C                     40.071    44.106    24.438 
 N                     40.298    41.681    29.191 
 C                     39.759    42.776    29.93 
 C                     39.758    42.355    31.402 
 C                     40.218    40.873    31.484 
 C                     40.707    40.635    30.006 
 C                     41.172    40.547    32.62 
 C                     38.361    42.697    32.124 
 C                     37.956    41.848    33.361 
 C                     37.286    42.589    34.546 
 O                     36.363    43.424    34.447 
 O                     37.743    42.098    35.737 
 N                     41.299    39.669    27.106 
 C                     41.578    38.968    28.233 
 C                     42.072    37.636    27.89 
 C                     42.149    37.649    26.438 
 C                     41.742    38.99     26.015 
 C                     42.475    36.595    28.877 
 C                     42.449    36.538    25.445 
 O                     42.574    36.806    24.258 
 C                     42.724    35.039    25.954 
 N                     40.767    41.809    24.831 
 C                     41.316    40.782    24.132 
 C                     41.462    41.097    22.661 
 C                     40.72     42.464    22.557 
 C                     40.476    42.832    24.012 
 C                     42.872    41.052    21.923 
 C                     39.454    42.523    21.646 
 C                     38.202    41.807    22.186 
 N                     39.931    43.602    26.861 
 C                     39.781    44.425    25.773 
 C                     39.221    45.669    26.283 
 C                     39.09     45.52     27.647 
 C                     39.457    44.2      27.989 
 C                     38.961    46.919    25.499 
 C                     38.707    46.261    28.809 
 O                     38.4      47.434    28.973 
 C                     38.809    45.248    29.973 
 C                     39.657    45.754    30.975 
 O                     40.859    46.025    30.827 
 O                     38.84     46.036    32.045 
 C                     39.542    46.642    33.196 
 C                     37.327    42.998    36.854 
 C                     37.979    42.369    38.115 
 C                     37.641    42.687    39.4 
 C                     36.579    43.611    39.877 
 C                     38.394    42.033    40.557 
 C                     37.527    41.36     41.656 
 C                     38.238    40.007    42.034 
 C                     38.215    39.739    43.57 
 C                     39.558    40.096    44.25 
 C                     37.76     38.293    43.987 
 C                     36.215    38.332    44.309 
 C                     35.423    37.269    43.482 
 C                     34.678    36.174    44.235 
 C                     34.322    34.924    43.476 
 C                     33.478    36.758    44.925 
 C                     33.348    36.217    46.409 
 C                     32.032    35.511    46.733 
 C                     31.427    36.146    48.013 
 C                     30.152    36.948    47.749 
 C                     31.16     35.053    49.038 
 H                     41.159    38.583    30.213 
 H                     42.265    39.035    23.946 
 H                     39.966    44.899    23.696 
 H                     40.543    43.012    31.773 
 H                     39.251    40.37     31.484 
 H                     42.141    40.259    32.213 
 H                     40.727    39.734    33.194 
 H                     41.305    41.395    33.292 
 H                     37.639    42.566    31.318 
 H                     38.403    43.724    32.488 
 H                     38.792    41.361    33.862 
 H                     37.175    41.197    32.967 
 H                     41.636    35.905    28.79 
 H                     42.49     37.035    29.874 
 H                     43.455    36.182    28.636 
 H                     42.83     34.329    25.134 
 H                     42.014    34.767    26.736 
 H                     43.704    35.113    26.425 
 H                     40.872    40.36     22.116 
 H                     41.352    43.244    22.134 
 H                     43.72     41.036    22.607 
 H                     43.007    41.846    21.188 
 H                     42.865    40.063    21.464 
 H                     39.645    42.069    20.673 
 H                     39.114    43.55     21.51 
 H                     37.353    42.452    21.959 
 H                     38.313    41.502    23.227 
 H                     38.025    40.91     21.591 
 H                     39.384    46.823    24.499 
 H                     39.317    47.725    26.142 
 H                     37.925    47.192    25.299 
 H                     37.849    44.948    30.394 
 H                     38.987    47.521    33.525 
 H                     40.557    46.963    32.962 
 H                     39.409    45.936    34.015 
 H                     36.242    42.937    36.937 
 H                     37.661    44.032    36.765 
 H                     38.661    41.545    37.909 
 H                     36.994    44.483    40.382 
 H                     35.872    43.121    40.547 
 H                     36.054    43.995    39.003 
 H                     39.096    42.726    41.02 
 H                     38.972    41.228    40.103 
 H                     36.497    41.065    41.456 
 H                     37.529    42.033    42.514 
 H                     39.278    40.066    41.71 
 H                     37.776    39.215    41.444 
 H                     37.544    40.431    44.078 
 H                     40.087    39.171    44.481 
 H                     39.426    40.664    45.171 
 H                     40.176    40.71     43.595 
 H                     38.312    37.897    44.839 
 H                     37.951    37.631    43.143 
 H                     35.684    39.233    44.001 
 H                     36.011    38.119    45.358 
 H                     36.164    36.671    42.951 
 H                     34.715    37.794    42.841 
 H                     35.383    35.794    44.974 
 H                     33.382    34.983    42.927 
 H                     34.116    34.04     44.081 
 H                     35.105    34.665    42.764 
 H                     32.563    36.403    44.452 
 H                     33.437    37.844    44.846 
 H                     33.612    37.029    47.086 
 H                     34.172    35.509    46.496 
 H                     32.19     34.433    46.719 
 H                     31.329    35.568    45.903 
 H                     32.072    36.859    48.527 
 H                     29.323    36.718    48.419 
 H                     29.797    36.795    46.73 
 H                     30.278    37.999    48.008 
 H                     30.968    35.624    49.947 
 H                     32.004    34.394    49.241 
 H                     30.375    34.415    48.633 
 
 ITRead=  0  0  0  0  0  0  0  0  0  0  0  0  0  0  0  0  0  0  0  0
 ITRead=  0  0  0  0  0  0  0  0  0  0  0  0  0  0  0  0  0  0  0  0
 ITRead=  0  0  0  0  0  0  0  0  0  0  0  0  0  0  0  0  0  0  0  0
 ITRead=  0  0  0  0  0  0  0  0  0  0  0  0  0  0  0  0  0  0  0  0
 ITRead=  0  0  0  0  0  0  0  0  0  0  0  0  0  0  0  0  0  0  0  0
 ITRead=  0  0  0  0  0  0  0  0  0  0  0  0  0  0  0  0  0  0  0  0
 ITRead=  0  0  0  0  0  0  0  0  0  0  0  0  0  0  0  0  0  0  0  0
 MicOpt= -1 -1 -1 -1 -1 -1 -1 -1 -1 -1 -1 -1 -1 -1 -1 -1 -1 -1 -1 -1
 MicOpt= -1 -1 -1 -1 -1 -1 -1 -1 -1 -1 -1 -1 -1 -1 -1 -1 -1 -1 -1 -1
 MicOpt= -1 -1 -1 -1 -1 -1 -1 -1 -1 -1 -1 -1 -1 -1 -1 -1 -1 -1 -1 -1
 MicOpt= -1 -1 -1 -1 -1 -1 -1 -1 -1 -1 -1 -1 -1 -1 -1 -1 -1 -1 -1 -1
 MicOpt= -1 -1 -1 -1 -1 -1 -1 -1 -1 -1 -1 -1 -1 -1 -1 -1 -1 -1 -1 -1
 MicOpt= -1 -1 -1 -1 -1 -1 -1 -1 -1 -1 -1 -1 -1 -1 -1 -1 -1 -1 -1 -1
 MicOpt= -1 -1 -1 -1 -1 -1 -1 -1 -1 -1 -1 -1 -1 -1 -1 -1 -1 -1 -1 -1
 NAtoms=    140 NQM=      140 NQMF=       0 NMMI=      0 NMMIF=      0
                NMic=       0 NMicF=      0.
                    Isotopes and Nuclear Properties:
 (Nuclear quadrupole moments (NQMom) in fm**2, nuclear magnetic moments (NMagM)
  in nuclear magnetons)

  Atom         1           2           3           4           5           6           7           8           9          10
 IAtWgt=          24          12          12          12          12          14          12          12          12          12
 AtmWgt=  23.9850450  12.0000000  12.0000000  12.0000000  12.0000000  14.0030740  12.0000000  12.0000000  12.0000000  12.0000000
 NucSpn=           0           0           0           0           0           2           0           0           0           0
 AtZEff=  -0.0000000  -0.0000000  -0.0000000  -0.0000000  -0.0000000  -0.0000000  -0.0000000  -0.0000000  -0.0000000  -0.0000000
 NQMom=    0.0000000   0.0000000   0.0000000   0.0000000   0.0000000   2.0440000   0.0000000   0.0000000   0.0000000   0.0000000
 NMagM=    0.0000000   0.0000000   0.0000000   0.0000000   0.0000000   0.4037610   0.0000000   0.0000000   0.0000000   0.0000000
 AtZNuc=  12.0000000   6.0000000   6.0000000   6.0000000   6.0000000   7.0000000   6.0000000   6.0000000   6.0000000   6.0000000

  Atom        11          12          13          14          15          16          17          18          19          20
 IAtWgt=          12          12          12          12          16          16          14          12          12          12
 AtmWgt=  12.0000000  12.0000000  12.0000000  12.0000000  15.9949146  15.9949146  14.0030740  12.0000000  12.0000000  12.0000000
 NucSpn=           0           0           0           0           0           0           2           0           0           0
 AtZEff=  -0.0000000  -0.0000000  -0.0000000  -0.0000000  -0.0000000  -0.0000000  -0.0000000  -0.0000000  -0.0000000  -0.0000000
 NQMom=    0.0000000   0.0000000   0.0000000   0.0000000   0.0000000   0.0000000   2.0440000   0.0000000   0.0000000   0.0000000
 NMagM=    0.0000000   0.0000000   0.0000000   0.0000000   0.0000000   0.0000000   0.4037610   0.0000000   0.0000000   0.0000000
 AtZNuc=   6.0000000   6.0000000   6.0000000   6.0000000   8.0000000   8.0000000   7.0000000   6.0000000   6.0000000   6.0000000

  Atom        21          22          23          24          25          26          27          28          29          30
 IAtWgt=          12          12          12          16          12          14          12          12          12          12
 AtmWgt=  12.0000000  12.0000000  12.0000000  15.9949146  12.0000000  14.0030740  12.0000000  12.0000000  12.0000000  12.0000000
 NucSpn=           0           0           0           0           0           2           0           0           0           0
 AtZEff=  -0.0000000  -0.0000000  -0.0000000  -0.0000000  -0.0000000  -0.0000000  -0.0000000  -0.0000000  -0.0000000  -0.0000000
 NQMom=    0.0000000   0.0000000   0.0000000   0.0000000   0.0000000   2.0440000   0.0000000   0.0000000   0.0000000   0.0000000
 NMagM=    0.0000000   0.0000000   0.0000000   0.0000000   0.0000000   0.4037610   0.0000000   0.0000000   0.0000000   0.0000000
 AtZNuc=   6.0000000   6.0000000   6.0000000   8.0000000   6.0000000   7.0000000   6.0000000   6.0000000   6.0000000   6.0000000

  Atom        31          32          33          34          35          36          37          38          39          40
 IAtWgt=          12          12          12          14          12          12          12          12          12          12
 AtmWgt=  12.0000000  12.0000000  12.0000000  14.0030740  12.0000000  12.0000000  12.0000000  12.0000000  12.0000000  12.0000000
 NucSpn=           0           0           0           2           0           0           0           0           0           0
 AtZEff=  -0.0000000  -0.0000000  -0.0000000  -0.0000000  -0.0000000  -0.0000000  -0.0000000  -0.0000000  -0.0000000  -0.0000000
 NQMom=    0.0000000   0.0000000   0.0000000   2.0440000   0.0000000   0.0000000   0.0000000   0.0000000   0.0000000   0.0000000
 NMagM=    0.0000000   0.0000000   0.0000000   0.4037610   0.0000000   0.0000000   0.0000000   0.0000000   0.0000000   0.0000000
 AtZNuc=   6.0000000   6.0000000   6.0000000   7.0000000   6.0000000   6.0000000   6.0000000   6.0000000   6.0000000   6.0000000

  Atom        41          42          43          44          45          46          47          48          49          50
 IAtWgt=          16          12          12          16          16          12          12          12          12          12
 AtmWgt=  15.9949146  12.0000000  12.0000000  15.9949146  15.9949146  12.0000000  12.0000000  12.0000000  12.0000000  12.0000000
 NucSpn=           0           0           0           0           0           0           0           0           0           0
 AtZEff=  -0.0000000  -0.0000000  -0.0000000  -0.0000000  -0.0000000  -0.0000000  -0.0000000  -0.0000000  -0.0000000  -0.0000000
 NQMom=    0.0000000   0.0000000   0.0000000   0.0000000   0.0000000   0.0000000   0.0000000   0.0000000   0.0000000   0.0000000
 NMagM=    0.0000000   0.0000000   0.0000000   0.0000000   0.0000000   0.0000000   0.0000000   0.0000000   0.0000000   0.0000000
 AtZNuc=   8.0000000   6.0000000   6.0000000   8.0000000   8.0000000   6.0000000   6.0000000   6.0000000   6.0000000   6.0000000

  Atom        51          52          53          54          55          56          57          58          59          60
 IAtWgt=          12          12          12          12          12          12          12          12          12          12
 AtmWgt=  12.0000000  12.0000000  12.0000000  12.0000000  12.0000000  12.0000000  12.0000000  12.0000000  12.0000000  12.0000000
 NucSpn=           0           0           0           0           0           0           0           0           0           0
 AtZEff=  -0.0000000  -0.0000000  -0.0000000  -0.0000000  -0.0000000  -0.0000000  -0.0000000  -0.0000000  -0.0000000  -0.0000000
 NQMom=    0.0000000   0.0000000   0.0000000   0.0000000   0.0000000   0.0000000   0.0000000   0.0000000   0.0000000   0.0000000
 NMagM=    0.0000000   0.0000000   0.0000000   0.0000000   0.0000000   0.0000000   0.0000000   0.0000000   0.0000000   0.0000000
 AtZNuc=   6.0000000   6.0000000   6.0000000   6.0000000   6.0000000   6.0000000   6.0000000   6.0000000   6.0000000   6.0000000

  Atom        61          62          63          64          65          66          67          68          69          70
 IAtWgt=          12          12          12          12          12          12           1           1           1           1
 AtmWgt=  12.0000000  12.0000000  12.0000000  12.0000000  12.0000000  12.0000000   1.0078250   1.0078250   1.0078250   1.0078250
 NucSpn=           0           0           0           0           0           0           1           1           1           1
 AtZEff=  -0.0000000  -0.0000000  -0.0000000  -0.0000000  -0.0000000  -0.0000000  -0.0000000  -0.0000000  -0.0000000  -0.0000000
 NQMom=    0.0000000   0.0000000   0.0000000   0.0000000   0.0000000   0.0000000   0.0000000   0.0000000   0.0000000   0.0000000
 NMagM=    0.0000000   0.0000000   0.0000000   0.0000000   0.0000000   0.0000000   2.7928460   2.7928460   2.7928460   2.7928460
 AtZNuc=   6.0000000   6.0000000   6.0000000   6.0000000   6.0000000   6.0000000   1.0000000   1.0000000   1.0000000   1.0000000

  Atom        71          72          73          74          75          76          77          78          79          80
 IAtWgt=           1           1           1           1           1           1           1           1           1           1
 AtmWgt=   1.0078250   1.0078250   1.0078250   1.0078250   1.0078250   1.0078250   1.0078250   1.0078250   1.0078250   1.0078250
 NucSpn=           1           1           1           1           1           1           1           1           1           1
 AtZEff=  -0.0000000  -0.0000000  -0.0000000  -0.0000000  -0.0000000  -0.0000000  -0.0000000  -0.0000000  -0.0000000  -0.0000000
 NQMom=    0.0000000   0.0000000   0.0000000   0.0000000   0.0000000   0.0000000   0.0000000   0.0000000   0.0000000   0.0000000
 NMagM=    2.7928460   2.7928460   2.7928460   2.7928460   2.7928460   2.7928460   2.7928460   2.7928460   2.7928460   2.7928460
 AtZNuc=   1.0000000   1.0000000   1.0000000   1.0000000   1.0000000   1.0000000   1.0000000   1.0000000   1.0000000   1.0000000

  Atom        81          82          83          84          85          86          87          88          89          90
 IAtWgt=           1           1           1           1           1           1           1           1           1           1
 AtmWgt=   1.0078250   1.0078250   1.0078250   1.0078250   1.0078250   1.0078250   1.0078250   1.0078250   1.0078250   1.0078250
 NucSpn=           1           1           1           1           1           1           1           1           1           1
 AtZEff=  -0.0000000  -0.0000000  -0.0000000  -0.0000000  -0.0000000  -0.0000000  -0.0000000  -0.0000000  -0.0000000  -0.0000000
 NQMom=    0.0000000   0.0000000   0.0000000   0.0000000   0.0000000   0.0000000   0.0000000   0.0000000   0.0000000   0.0000000
 NMagM=    2.7928460   2.7928460   2.7928460   2.7928460   2.7928460   2.7928460   2.7928460   2.7928460   2.7928460   2.7928460
 AtZNuc=   1.0000000   1.0000000   1.0000000   1.0000000   1.0000000   1.0000000   1.0000000   1.0000000   1.0000000   1.0000000

  Atom        91          92          93          94          95          96          97          98          99         100
 IAtWgt=           1           1           1           1           1           1           1           1           1           1
 AtmWgt=   1.0078250   1.0078250   1.0078250   1.0078250   1.0078250   1.0078250   1.0078250   1.0078250   1.0078250   1.0078250
 NucSpn=           1           1           1           1           1           1           1           1           1           1
 AtZEff=  -0.0000000  -0.0000000  -0.0000000  -0.0000000  -0.0000000  -0.0000000  -0.0000000  -0.0000000  -0.0000000  -0.0000000
 NQMom=    0.0000000   0.0000000   0.0000000   0.0000000   0.0000000   0.0000000   0.0000000   0.0000000   0.0000000   0.0000000
 NMagM=    2.7928460   2.7928460   2.7928460   2.7928460   2.7928460   2.7928460   2.7928460   2.7928460   2.7928460   2.7928460
 AtZNuc=   1.0000000   1.0000000   1.0000000   1.0000000   1.0000000   1.0000000   1.0000000   1.0000000   1.0000000   1.0000000

  Atom       101         102         103         104         105         106         107         108         109         110
 IAtWgt=           1           1           1           1           1           1           1           1           1           1
 AtmWgt=   1.0078250   1.0078250   1.0078250   1.0078250   1.0078250   1.0078250   1.0078250   1.0078250   1.0078250   1.0078250
 NucSpn=           1           1           1           1           1           1           1           1           1           1
 AtZEff=  -0.0000000  -0.0000000  -0.0000000  -0.0000000  -0.0000000  -0.0000000  -0.0000000  -0.0000000  -0.0000000  -0.0000000
 NQMom=    0.0000000   0.0000000   0.0000000   0.0000000   0.0000000   0.0000000   0.0000000   0.0000000   0.0000000   0.0000000
 NMagM=    2.7928460   2.7928460   2.7928460   2.7928460   2.7928460   2.7928460   2.7928460   2.7928460   2.7928460   2.7928460
 AtZNuc=   1.0000000   1.0000000   1.0000000   1.0000000   1.0000000   1.0000000   1.0000000   1.0000000   1.0000000   1.0000000

  Atom       111         112         113         114         115         116         117         118         119         120
 IAtWgt=           1           1           1           1           1           1           1           1           1           1
 AtmWgt=   1.0078250   1.0078250   1.0078250   1.0078250   1.0078250   1.0078250   1.0078250   1.0078250   1.0078250   1.0078250
 NucSpn=           1           1           1           1           1           1           1           1           1           1
 AtZEff=  -0.0000000  -0.0000000  -0.0000000  -0.0000000  -0.0000000  -0.0000000  -0.0000000  -0.0000000  -0.0000000  -0.0000000
 NQMom=    0.0000000   0.0000000   0.0000000   0.0000000   0.0000000   0.0000000   0.0000000   0.0000000   0.0000000   0.0000000
 NMagM=    2.7928460   2.7928460   2.7928460   2.7928460   2.7928460   2.7928460   2.7928460   2.7928460   2.7928460   2.7928460
 AtZNuc=   1.0000000   1.0000000   1.0000000   1.0000000   1.0000000   1.0000000   1.0000000   1.0000000   1.0000000   1.0000000

  Atom       121         122         123         124         125         126         127         128         129         130
 IAtWgt=           1           1           1           1           1           1           1           1           1           1
 AtmWgt=   1.0078250   1.0078250   1.0078250   1.0078250   1.0078250   1.0078250   1.0078250   1.0078250   1.0078250   1.0078250
 NucSpn=           1           1           1           1           1           1           1           1           1           1
 AtZEff=  -0.0000000  -0.0000000  -0.0000000  -0.0000000  -0.0000000  -0.0000000  -0.0000000  -0.0000000  -0.0000000  -0.0000000
 NQMom=    0.0000000   0.0000000   0.0000000   0.0000000   0.0000000   0.0000000   0.0000000   0.0000000   0.0000000   0.0000000
 NMagM=    2.7928460   2.7928460   2.7928460   2.7928460   2.7928460   2.7928460   2.7928460   2.7928460   2.7928460   2.7928460
 AtZNuc=   1.0000000   1.0000000   1.0000000   1.0000000   1.0000000   1.0000000   1.0000000   1.0000000   1.0000000   1.0000000

  Atom       131         132         133         134         135         136         137         138         139         140
 IAtWgt=           1           1           1           1           1           1           1           1           1           1
 AtmWgt=   1.0078250   1.0078250   1.0078250   1.0078250   1.0078250   1.0078250   1.0078250   1.0078250   1.0078250   1.0078250
 NucSpn=           1           1           1           1           1           1           1           1           1           1
 AtZEff=  -0.0000000  -0.0000000  -0.0000000  -0.0000000  -0.0000000  -0.0000000  -0.0000000  -0.0000000  -0.0000000  -0.0000000
 NQMom=    0.0000000   0.0000000   0.0000000   0.0000000   0.0000000   0.0000000   0.0000000   0.0000000   0.0000000   0.0000000
 NMagM=    2.7928460   2.7928460   2.7928460   2.7928460   2.7928460   2.7928460   2.7928460   2.7928460   2.7928460   2.7928460
 AtZNuc=   1.0000000   1.0000000   1.0000000   1.0000000   1.0000000   1.0000000   1.0000000   1.0000000   1.0000000   1.0000000
 Leave Link  101 at Wed Apr 27 23:39:39 2022, MaxMem= 10066329600 cpu:               3.0 elap:               0.1
 (Enter /sw/apps/gaussian-16.0/g16/l202.exe)
 Stoichiometry    C55H74MgN4O6
 Framework group  C1[X(C55H74MgN4O6)]
 Deg. of freedom   414
 Full point group                 C1      NOp   1
 Largest Abelian subgroup         C1      NOp   1
 Largest concise Abelian subgroup C1      NOp   1
                         Standard orientation:                         
 ---------------------------------------------------------------------
 Center     Atomic      Atomic             Coordinates (Angstroms)
 Number     Number       Type             X           Y           Z
 ---------------------------------------------------------------------
      1         12           0        6.406429    0.646559    0.215296
      2          6           0        4.238638   -2.197000    0.240094
      3          6           0        3.742510    2.475935   -1.108155
      4          6           0        8.427555    3.118801   -0.054961
      5          6           0        9.066587   -1.514955    1.088973
      6          7           0        4.220076    0.181672   -0.379342
      7          6           0        3.580083   -1.084813   -0.230708
      8          6           0        2.121591   -0.892934   -0.654983
      9          6           0        1.895569    0.615965   -0.949579
     10          6           0        3.377216    1.148274   -0.909331
     11          6           0        1.052504    0.923180   -2.175037
     12          6           0        1.098363   -1.564785    0.389755
     13          6           0       -0.342370   -0.987631    0.468344
     14          6           0       -1.506597   -1.996841    0.636495
     15          8           0       -1.526423   -2.949060    1.443862
     16          8           0       -2.580074   -1.619196   -0.120765
     17          7           0        6.079416    2.618418   -0.429319
     18          6           0        4.972645    3.180836   -0.975319
     19          6           0        5.183187    4.612180   -1.182285
     20          6           0        6.566868    4.827706   -0.790652
     21          6           0        7.100431    3.515651   -0.420946
     22          6           0        4.178603    5.547392   -1.762328
     23          6           0        7.370630    6.107912   -0.631252
     24          8           0        8.569740    6.043444   -0.398020
     25          6           0        6.687084    7.539399   -0.886829
     26          7           0        8.462484    0.781471    0.563082
     27          6           0        9.081118    1.977378    0.384674
     28          6           0       10.561189    1.912703    0.683987
     29          6           0       10.702132    0.472505    1.263671
     30          6           0        9.339597   -0.142578    0.985904
     31          6           0       11.660454    2.299513   -0.400800
     32          6           0       11.190878    0.340569    2.740112
     33          6           0       10.177018    0.751251    3.824173
     34          7           0        6.661264   -1.406278    0.499774
     35          6           0        7.793252   -2.072074    0.898386
     36          6           0        7.389981   -3.453327    1.123661
     37          6           0        6.046434   -3.532138    0.826126
     38          6           0        5.580849   -2.235161    0.517686
     39          6           0        8.287264   -4.598756    1.480917
     40          6           0        4.988708   -4.490422    0.731670
     41          8           0        4.970365   -5.709226    0.837753
     42          6           0        3.734802   -3.658604    0.374924
     43          6           0        3.146000   -4.160232   -0.800162
     44          8           0        3.692597   -4.203495   -1.913494
     45          8           0        1.957398   -4.729202   -0.405939
     46          6           0        1.205238   -5.374607   -1.502546
     47          6           0       -3.574840   -2.731287   -0.187390
     48          6           0       -4.682649   -2.197198   -1.135218
     49          6           0       -5.923613   -2.753870   -1.264511
     50          6           0       -6.506312   -3.901342   -0.520926
     51          6           0       -6.909036   -2.163254   -2.271233
     52          6           0       -8.323564   -1.813704   -1.733325
     53          6           0       -8.727322   -0.432945   -2.373245
     54          6           0      -10.222725   -0.403376   -2.814317
     55          6           0      -10.392419   -0.630005   -4.335284
     56          6           0      -11.026155    0.869234   -2.359571
     57          6           0      -11.777375    0.527652   -1.013755
     58          6           0      -11.443018    1.555644    0.114340
     59          6           0      -12.579033    2.388171    0.695227
     60          6           0      -12.215213    3.660575    1.412124
     61          6           0      -13.467365    1.517739    1.538060
     62          6           0      -14.998402    1.803477    1.244600
     63          6           0      -15.827214    2.225865    2.457006
     64          6           0      -17.081490    1.316667    2.545314
     65          6           0      -17.057545    0.362831    3.740365
     66          6           0      -18.330038    2.186018    2.589123
     67          1           0        2.922069    3.193036   -1.173241
     68          1           0        9.199561    3.865366   -0.254603
     69          1           0        9.882430   -2.195393    1.337655
     70          1           0        2.133540   -1.458583   -1.585259
     71          1           0        1.512319    0.946287    0.015876
     72          1           0        1.664709    1.424786   -2.924137
     73          1           0        0.227112    1.556992   -1.850257
     74          1           0        0.626592    0.018707   -2.609669
     75          1           0        1.613360   -1.436996    1.341874
     76          1           0        0.968132   -2.613142    0.119613
     77          1           0       -0.657339   -0.448756   -0.424670
     78          1           0       -0.330461   -0.423757    1.401566
     79          1           0        3.878619    6.094135   -0.868644
     80          1           0        3.335101    4.972949   -2.144889
     81          1           0        4.614687    6.148059   -2.561128
     82          1           0        7.348811    8.370853   -0.644885
     83          1           0        5.692863    7.571013   -0.439468
     84          1           0        6.550903    7.559604   -1.967923
     85          1           0       10.754351    2.614452    1.495487
     86          1           0       11.435276   -0.120579    0.718232
     87          1           0       11.268580    2.354008   -1.416024
     88          1           0       12.541009    1.656795   -0.380240
     89          1           0       11.897245    3.330712   -0.137340
     90          1           0       12.070230    0.959204    2.922749
     91          1           0       11.415292   -0.696838    2.989615
     92          1           0       10.262246    0.015521    4.624044
     93          1           0        9.177249    0.912528    3.419849
     94          1           0       10.508425    1.684788    4.280946
     95          1           0        9.329546   -4.286746    1.414251
     96          1           0        7.946425   -5.421059    0.850466
     97          1           0        8.220191   -5.006760    2.489311
     98          1           0        2.998880   -3.587512    1.176302
     99          1           0        0.902456   -6.372309   -1.183453
    100          1           0        1.786549   -5.484816   -2.417944
    101          1           0        0.263645   -4.829820   -1.561680
    102          1           0       -3.985525   -2.863754    0.813422
    103          1           0       -3.193467   -3.670909   -0.587761
    104          1           0       -4.446733   -1.250346   -1.619315
    105          1           0       -6.687864   -4.757748   -1.169957
    106          1           0       -7.436867   -3.640067   -0.016295
    107          1           0       -5.770146   -4.232960    0.210542
    108          1           0       -7.000797   -2.791395   -3.156920
    109          1           0       -6.468247   -1.215345   -2.580097
    110          1           0       -8.498292   -1.666930   -0.667561
    111          1           0       -8.995989   -2.596844   -2.084943
    112          1           0       -8.104888   -0.270217   -3.254240
    113          1           0       -8.464756    0.350295   -1.661626
    114          1           0      -10.763342   -1.264523   -2.422744
    115          1           0      -10.630090    0.325147   -4.804351
    116          1           0      -11.183690   -1.342304   -4.569397
    117          1           0       -9.478361   -1.029136   -4.774759
    118          1           0      -11.736057    1.220287   -3.108053
    119          1           0      -10.307558    1.671523   -2.195216
    120          1           0      -11.472885   -0.393007   -0.515458
    121          1           0      -12.860180    0.545894   -1.134531
    122          1           0      -10.842047    2.340145   -0.346135
    123          1           0      -10.951852    1.021685    0.927614
    124          1           0      -13.134833    2.765721   -0.162729
    125          1           0      -11.968593    3.528894    2.465842
    126          1           0      -13.012514    4.398577    1.510016
    127          1           0      -11.367164    4.148370    0.932559
    128          1           0      -13.364202    1.782559    2.589824
    129          1           0      -13.196372    0.463851    1.481475
    130          1           0      -15.397135    0.955049    0.689128
    131          1           0      -14.972197    2.617265    0.520120
    132          1           0      -15.975017    3.305122    2.432457
    133          1           0      -15.247918    2.177066    3.378088
    134          1           0      -17.233988    0.652023    1.694677
    135          1           0      -17.974134    0.350415    4.330917
    136          1           0      -16.238847    0.604433    4.417976
    137          1           0      -17.060050   -0.679439    3.422205
    138          1           0      -19.127272    1.462641    2.414966
    139          1           0      -18.396991    2.938131    1.803203
    140          1           0      -18.306519    2.738188    3.528191
 ---------------------------------------------------------------------
 Rotational constants (GHZ):           0.0479387           0.0074979           0.0068727
 Leave Link  202 at Wed Apr 27 23:39:39 2022, MaxMem= 10066329600 cpu:               0.2 elap:               0.0
 (Enter /sw/apps/gaussian-16.0/g16/l301.exe)
 Standard basis: def2SVP (5D, 7F)
 Ernie: Thresh=  0.10000D-02 Tol=  0.10000D-05 Strict=F.
 There are  1364 symmetry adapted cartesian basis functions of A   symmetry.
 There are  1298 symmetry adapted basis functions of A   symmetry.
  1298 basis functions,  2180 primitive gaussians,  1364 cartesian basis functions
   246 alpha electrons      246 beta electrons
       nuclear repulsion energy      9219.7729286504 Hartrees.
 IExCor=  402 DFT=T Ex=B Corr=LYP ExCW=0 ScaHFX=  0.000000
 ScaDFX=  1.000000  1.000000  1.000000  1.000000 ScalE2=  1.000000  1.000000
 IRadAn=      5 IRanWt=     -1 IRanGd=            0 ICorTp=0 IEmpDi=  4
 NAtoms=  140 NActive=  140 NUniq=  140 SFac= 1.00D+00 NAtFMM=   60 NAOKFM=T Big=T
 Integral buffers will be    131072 words long.
 Regular integral format.
 Two-electron integral symmetry is turned on.
 Leave Link  301 at Wed Apr 27 23:39:39 2022, MaxMem= 10066329600 cpu:               1.3 elap:               0.1
 (Enter /sw/apps/gaussian-16.0/g16/l302.exe)
 NPDir=0 NMtPBC=     1 NCelOv=     1 NCel=       1 NClECP=     1 NCelD=      1
         NCelK=      1 NCelE2=     1 NClLst=     1 CellRange=     0.0.
 One-electron integrals computed using PRISM.
 One-electron integral symmetry used in STVInt
   1 Symmetry operations used in ECPInt.
 ECPInt:  NShTT=  192510 NPrTT=  683786 LenC2=   87137 LenP2D=  193943.
 LDataN:  DoStor=T MaxTD1= 4 Len=   56
 NBasis=  1298 RedAO= T EigKep=  2.42D-04  NBF=  1298
 NBsUse=  1298 1.00D-06 EigRej= -1.00D+00 NBFU=  1298
 Precomputing XC quadrature grid using
 IXCGrd= 4 IRadAn=           5 IRanWt=          -1 IRanGd=           0 AccXCQ= 0.00D+00.
 Generated NRdTot=       0 NPtTot=           0 NUsed=           0 NTot=          32
 NSgBfM=   986   965   970   984   986 MxSgAt=   140 MxSgA2=   139.
 Leave Link  302 at Wed Apr 27 23:39:43 2022, MaxMem= 10066329600 cpu:              92.2 elap:               3.9
 (Enter /sw/apps/gaussian-16.0/g16/l303.exe)
 DipDrv:  MaxL=1.
 Leave Link  303 at Wed Apr 27 23:39:44 2022, MaxMem= 10066329600 cpu:               5.4 elap:               0.3
 (Enter /sw/apps/gaussian-16.0/g16/l308.exe)
 Leave Link  308 at Wed Apr 27 23:39:44 2022, MaxMem= 10066329600 cpu:               8.2 elap:               0.4
 (Enter /sw/apps/gaussian-16.0/g16/l401.exe)
 ExpMin= 3.36D-02 ExpMax= 4.95D+03 ExpMxC= 7.45D+02 IAcc=3 IRadAn=         5 AccDes= 0.00D+00
 Harris functional with IExCor=  402 and IRadAn=       5 diagonalized for initial guess.
 HarFok:  IExCor=  402 AccDes= 0.00D+00 IRadAn=         5 IDoV= 1 UseB2=F ITyADJ=14
 ICtDFT=  3500011 ScaDFX=  1.000000  1.000000  1.000000  1.000000
 FoFCou: FMM=F IPFlag=           0 FMFlag=      100000 FMFlg1=        2001
         NFxFlg=           0 DoJE=T BraDBF=F KetDBF=T FulRan=T
         wScrn=  0.000000 ICntrl=       500 IOpCl=  0 I1Cent=   200000004 NGrid=           0
         NMat0=    1 NMatS0=      1 NMatT0=    0 NMatD0=    1 NMtDS0=    0 NMtDT0=    0
 Petite list used in FoFCou.
 Harris En= -3008.76847770179    
 JPrj=0 DoOrth=F DoCkMO=F.
 Leave Link  401 at Wed Apr 27 23:39:50 2022, MaxMem= 10066329600 cpu:             136.1 elap:               5.7
 (Enter /sw/apps/gaussian-16.0/g16/l502.exe)
 Integral symmetry usage will be decided dynamically.
 Closed shell SCF:
 Using DIIS extrapolation, IDIIS=  1040.
 NGot= 10066329600 LenX= 10062561258 LenY= 10060699398
 Requested convergence on RMS density matrix=1.00D-08 within 128 cycles.
 Requested convergence on MAX density matrix=1.00D-06.
 Requested convergence on             energy=1.00D-06.
 No special actions if energy rises.
 Fock matrices will be formed incrementally for  20 cycles.

 Cycle   1  Pass 1  IDiag  1:
 FoFJK:  IHMeth= 1 ICntrl=     500 DoSepK=F KAlg= 0 I1Cent=           0 FoldK=F
 IRaf= 480000000 NMat=       1 IRICut=       1 DoRegI=T DoRafI=F ISym2E= 0 IDoP0=0 IntGTp=1.
 FoFCou: FMM=T IPFlag=           0 FMFlag=      100000 FMFlg1=        2001
         NFxFlg=           0 DoJE=T BraDBF=F KetDBF=F FulRan=T
         wScrn=  0.000000 ICntrl=       500 IOpCl=  0 I1Cent=           0 NGrid=           0
         NMat0=    1 NMatS0=      1 NMatT0=    0 NMatD0=    1 NMtDS0=    0 NMtDT0=    0
 Symmetry not used in FoFCou.
 FMM levels:  10  Number of levels for PrismC:   9
 E= -3005.67840724568    
 DIIS: error= 2.22D-02 at cycle   1 NSaved=   1.
 NSaved= 1 IEnMin= 1 EnMin= -3005.67840724568     IErMin= 1 ErrMin= 2.22D-02
 ErrMax= 2.22D-02  0.00D+00 EMaxC= 1.00D-01 BMatC= 1.54D+00 BMatP= 1.54D+00
 IDIUse=3 WtCom= 7.78D-01 WtEn= 2.22D-01
 Coeff-Com:  0.100D+01
 Coeff-En:   0.100D+01
 Coeff:      0.100D+01
 Gap=     0.054 Goal=   None    Shift=    0.000
 GapD=    0.054 DampG=0.500 DampE=0.500 DampFc=0.2500 IDamp=-1.
 Damping current iteration by 2.50D-01
 RMSDP=3.86D-03 MaxDP=4.47D-01              OVMax= 9.27D-01

 Cycle   2  Pass 1  IDiag  1:
 RMSU=  9.58D-04    CP:  9.89D-01
 E= -3006.16634773623     Delta-E=       -0.487940490542 Rises=F Damp=T
 DIIS: error= 8.18D-03 at cycle   2 NSaved=   2.
 NSaved= 2 IEnMin= 2 EnMin= -3006.16634773623     IErMin= 2 ErrMin= 8.18D-03
 ErrMax= 8.18D-03  0.00D+00 EMaxC= 1.00D-01 BMatC= 2.58D-01 BMatP= 1.54D+00
 IDIUse=3 WtCom= 9.18D-01 WtEn= 8.18D-02
 Coeff-Com: -0.279D+00 0.128D+01
 Coeff-En:   0.978D-01 0.902D+00
 Coeff:     -0.248D+00 0.125D+01
 Gap=    -0.257 Goal=   None    Shift=    0.000
 RMSDP=1.63D-03 MaxDP=2.42D-01 DE=-4.88D-01 OVMax= 4.93D-01

 Cycle   3  Pass 1  IDiag  1:
 RMSU=  1.60D-03    CP:  9.64D-01  1.18D+00
 E= -3005.27480367905     Delta-E=        0.891544057176 Rises=F Damp=F
 DIIS: error= 4.56D-02 at cycle   3 NSaved=   3.
 NSaved= 3 IEnMin= 2 EnMin= -3006.16634773623     IErMin= 2 ErrMin= 8.18D-03
 ErrMax= 4.56D-02  0.00D+00 EMaxC= 1.00D-01 BMatC= 1.61D+00 BMatP= 2.58D-01
 IDIUse=2 WtCom= 0.00D+00 WtEn= 1.00D+00
 Coeff-En:   0.000D+00 0.671D+00 0.329D+00
 Coeff:      0.000D+00 0.671D+00 0.329D+00
 Gap=     0.061 Goal=   None    Shift=    0.000
 RMSDP=2.23D-03 MaxDP=4.86D-01 DE= 8.92D-01 OVMax= 8.03D-01

 Cycle   4  Pass 1  IDiag  1:
 RMSU=  1.13D-03    CP:  9.66D-01  1.96D+00 -1.00D-01
 E= -3004.26225440267     Delta-E=        1.012549276378 Rises=F Damp=F
 DIIS: error= 5.42D-02 at cycle   4 NSaved=   4.
 NSaved= 4 IEnMin= 2 EnMin= -3006.16634773623     IErMin= 2 ErrMin= 8.18D-03
 ErrMax= 5.42D-02  0.00D+00 EMaxC= 1.00D-01 BMatC= 2.06D+00 BMatP= 2.58D-01
 IDIUse=2 WtCom= 0.00D+00 WtEn= 1.00D+00
 EnCoef did     1 forward-backward iterations
 Coeff-En:   0.107D+00 0.000D+00 0.495D+00 0.397D+00
 Coeff:      0.107D+00 0.000D+00 0.495D+00 0.397D+00
 Gap=     0.123 Goal=   None    Shift=    0.000
 RMSDP=1.53D-03 MaxDP=3.78D-01 DE= 1.01D+00 OVMax= 5.90D-01

 Cycle   5  Pass 1  IDiag  1:
 RMSU=  7.49D-04    CP:  9.78D-01  1.18D+00  1.20D-01  7.51D-02
 E= -3007.04989877837     Delta-E=       -2.787644375696 Rises=F Damp=F
 DIIS: error= 3.04D-02 at cycle   5 NSaved=   5.
 NSaved= 5 IEnMin= 5 EnMin= -3007.04989877837     IErMin= 2 ErrMin= 8.18D-03
 ErrMax= 3.04D-02  0.00D+00 EMaxC= 1.00D-01 BMatC= 3.49D-01 BMatP= 2.58D-01
 IDIUse=2 WtCom= 0.00D+00 WtEn= 1.00D+00
 EnCoef did     5 forward-backward iterations
 Coeff-En:   0.000D+00 0.000D+00 0.172D+00 0.137D+00 0.691D+00
 Coeff:      0.000D+00 0.000D+00 0.172D+00 0.137D+00 0.691D+00
 Gap=     0.145 Goal=   None    Shift=    0.000
 RMSDP=1.50D-03 MaxDP=1.91D-01 DE=-2.79D+00 OVMax= 5.53D-01

 Cycle   6  Pass 1  IDiag  1:
 RMSU=  1.30D-03    CP:  9.73D-01  9.72D-01  3.17D-01  1.82D-01  1.62D-01
 E= -3006.35875840133     Delta-E=        0.691140377043 Rises=F Damp=F
 DIIS: error= 5.28D-02 at cycle   6 NSaved=   6.
 NSaved= 6 IEnMin= 5 EnMin= -3007.04989877837     IErMin= 2 ErrMin= 8.18D-03
 ErrMax= 5.28D-02  0.00D+00 EMaxC= 1.00D-01 BMatC= 1.05D+00 BMatP= 2.58D-01
 IDIUse=2 WtCom= 0.00D+00 WtEn= 1.00D+00
 Coeff-En:   0.000D+00 0.000D+00 0.000D+00 0.000D+00 0.688D+00 0.312D+00
 Coeff:      0.000D+00 0.000D+00 0.000D+00 0.000D+00 0.688D+00 0.312D+00
 Gap=     0.076 Goal=   None    Shift=    0.000
 RMSDP=9.25D-04 MaxDP=9.49D-02 DE= 6.91D-01 OVMax= 4.33D-01

 Cycle   7  Pass 1  IDiag  1:
 RMSU=  4.02D-04    CP:  9.74D-01  1.23D+00  2.47D-01  4.94D-02  6.79D-01
                    CP:  4.86D-01
 E= -3007.27386122908     Delta-E=       -0.915102827756 Rises=F Damp=F
 DIIS: error= 1.14D-02 at cycle   7 NSaved=   7.
 NSaved= 7 IEnMin= 7 EnMin= -3007.27386122908     IErMin= 2 ErrMin= 8.18D-03
 ErrMax= 1.14D-02  0.00D+00 EMaxC= 1.00D-01 BMatC= 9.98D-02 BMatP= 2.58D-01
 IDIUse=3 WtCom= 8.86D-01 WtEn= 1.14D-01
 Coeff-Com: -0.278D-01 0.529D-01 0.172D-01 0.390D-02 0.436D+00 0.179D+00
 Coeff-Com:  0.338D+00
 Coeff-En:   0.000D+00 0.000D+00 0.000D+00 0.000D+00 0.262D+00 0.000D+00
 Coeff-En:   0.738D+00
 Coeff:     -0.246D-01 0.468D-01 0.152D-01 0.346D-02 0.416D+00 0.159D+00
 Coeff:      0.384D+00
 Gap=     0.041 Goal=   None    Shift=    0.000
 RMSDP=5.11D-04 MaxDP=5.48D-02 DE=-9.15D-01 OVMax= 2.89D-01

 Cycle   8  Pass 1  IDiag  1:
 RMSU=  2.60D-04    CP:  9.76D-01  1.15D+00  2.09D-01  1.14D-01  6.67D-01
                    CP:  4.49D-01 -4.66D-02
 E= -3007.31272726997     Delta-E=       -0.038866040886 Rises=F Damp=F
 DIIS: error= 7.72D-03 at cycle   8 NSaved=   8.
 NSaved= 8 IEnMin= 8 EnMin= -3007.31272726997     IErMin= 8 ErrMin= 7.72D-03
 ErrMax= 7.72D-03  0.00D+00 EMaxC= 1.00D-01 BMatC= 4.20D-02 BMatP= 9.98D-02
 IDIUse=3 WtCom= 9.23D-01 WtEn= 7.72D-02
 EnCoef did     3 forward-backward iterations
 Coeff-Com: -0.211D-02 0.350D-01-0.281D-02-0.345D-02 0.230D+00 0.503D-01
 Coeff-Com:  0.379D+00 0.314D+00
 Coeff-En:   0.000D+00 0.000D+00 0.000D+00 0.000D+00 0.780D-01 0.000D+00
 Coeff-En:   0.387D+00 0.535D+00
 Coeff:     -0.194D-02 0.323D-01-0.260D-02-0.318D-02 0.218D+00 0.464D-01
 Coeff:      0.380D+00 0.331D+00
 Gap=     0.039 Goal=   None    Shift=    0.000
 RMSDP=3.54D-04 MaxDP=3.39D-02 DE=-3.89D-02 OVMax= 2.37D-01

 Cycle   9  Pass 1  IDiag  1:
 RMSU=  1.24D-04    CP:  9.77D-01  1.16D+00  2.03D-01  6.03D-02  8.03D-01
                    CP:  3.95D-01  4.73D-01  1.69D-01
 E= -3007.36713121155     Delta-E=       -0.054403941578 Rises=F Damp=F
 DIIS: error= 4.02D-03 at cycle   9 NSaved=   9.
 NSaved= 9 IEnMin= 9 EnMin= -3007.36713121155     IErMin= 9 ErrMin= 4.02D-03
 ErrMax= 4.02D-03  0.00D+00 EMaxC= 1.00D-01 BMatC= 6.95D-03 BMatP= 4.20D-02
 IDIUse=3 WtCom= 9.60D-01 WtEn= 4.02D-02
 Coeff-Com:  0.156D-01-0.519D-02-0.662D-02 0.281D-02 0.809D-01-0.780D-02
 Coeff-Com:  0.248D+00 0.302D+00 0.370D+00
 Coeff-En:   0.000D+00 0.000D+00 0.000D+00 0.000D+00 0.000D+00 0.000D+00
 Coeff-En:   0.000D+00 0.193D+00 0.807D+00
 Coeff:      0.150D-01-0.498D-02-0.635D-02 0.269D-02 0.777D-01-0.749D-02
 Coeff:      0.238D+00 0.298D+00 0.388D+00
 Gap=     0.041 Goal=   None    Shift=    0.000
 RMSDP=1.65D-04 MaxDP=1.92D-02 DE=-5.44D-02 OVMax= 1.43D-01

 Cycle  10  Pass 1  IDiag  1:
 RMSU=  7.56D-05    CP:  9.76D-01  1.16D+00  1.95D-01  8.36D-02  7.58D-01
                    CP:  4.04D-01  4.11D-01  4.57D-01  7.49D-02
 E= -3007.37263065741     Delta-E=       -0.005499445861 Rises=F Damp=F
 DIIS: error= 2.42D-03 at cycle  10 NSaved=  10.
 NSaved=10 IEnMin=10 EnMin= -3007.37263065741     IErMin=10 ErrMin= 2.42D-03
 ErrMax= 2.42D-03  0.00D+00 EMaxC= 1.00D-01 BMatC= 2.50D-03 BMatP= 6.95D-03
 IDIUse=3 WtCom= 9.76D-01 WtEn= 2.42D-02
 Coeff-Com:  0.126D-01-0.548D-02-0.442D-02 0.212D-02 0.363D-01-0.139D-01
 Coeff-Com:  0.161D+00 0.221D+00 0.347D+00 0.244D+00
 Coeff-En:   0.000D+00 0.000D+00 0.000D+00 0.000D+00 0.000D+00 0.000D+00
 Coeff-En:   0.000D+00 0.000D+00 0.345D+00 0.655D+00
 Coeff:      0.123D-01-0.535D-02-0.431D-02 0.207D-02 0.354D-01-0.136D-01
 Coeff:      0.157D+00 0.216D+00 0.346D+00 0.254D+00
 Gap=     0.042 Goal=   None    Shift=    0.000
 RMSDP=9.14D-05 MaxDP=9.89D-03 DE=-5.50D-03 OVMax= 7.89D-02

 Cycle  11  Pass 1  IDiag  1:
 RMSU=  2.73D-05    CP:  9.76D-01  1.16D+00  2.00D-01  7.52D-02  7.63D-01
                    CP:  3.99D-01  4.08D-01  4.10D-01  4.72D-01  8.19D-02
 E= -3007.37613283098     Delta-E=       -0.003502173573 Rises=F Damp=F
 DIIS: error= 6.81D-04 at cycle  11 NSaved=  11.
 NSaved=11 IEnMin=11 EnMin= -3007.37613283098     IErMin=11 ErrMin= 6.81D-04
 ErrMax= 6.81D-04  0.00D+00 EMaxC= 1.00D-01 BMatC= 3.83D-04 BMatP= 2.50D-03
 IDIUse=3 WtCom= 9.93D-01 WtEn= 6.81D-03
 Coeff-Com:  0.584D-02-0.342D-02-0.185D-02 0.116D-02 0.716D-02-0.775D-02
 Coeff-Com:  0.595D-01 0.906D-01 0.188D+00 0.252D+00 0.409D+00
 Coeff-En:   0.000D+00 0.000D+00 0.000D+00 0.000D+00 0.000D+00 0.000D+00
 Coeff-En:   0.000D+00 0.000D+00 0.000D+00 0.207D+00 0.793D+00
 Coeff:      0.580D-02-0.340D-02-0.184D-02 0.115D-02 0.711D-02-0.769D-02
 Coeff:      0.591D-01 0.900D-01 0.187D+00 0.251D+00 0.412D+00
 Gap=     0.042 Goal=   None    Shift=    0.000
 RMSDP=3.05D-05 MaxDP=3.21D-03 DE=-3.50D-03 OVMax= 2.08D-02

 Cycle  12  Pass 1  IDiag  1:
 RMSU=  1.42D-05    CP:  9.76D-01  1.16D+00  1.99D-01  7.64D-02  7.65D-01
                    CP:  4.01D-01  4.14D-01  4.12D-01  4.02D-01  3.43D-01
                    CP:  4.26D-01
 E= -3007.37660441474     Delta-E=       -0.000471583760 Rises=F Damp=F
 DIIS: error= 1.74D-04 at cycle  12 NSaved=  12.
 NSaved=12 IEnMin=12 EnMin= -3007.37660441474     IErMin=12 ErrMin= 1.74D-04
 ErrMax= 1.74D-04  0.00D+00 EMaxC= 1.00D-01 BMatC= 7.53D-05 BMatP= 3.83D-04
 IDIUse=3 WtCom= 9.98D-01 WtEn= 1.74D-03
 Coeff-Com:  0.135D-02-0.258D-03-0.321D-03 0.269D-03-0.729D-03-0.217D-02
 Coeff-Com:  0.140D-01 0.264D-01 0.832D-01 0.164D+00 0.349D+00 0.366D+00
 Coeff-En:   0.000D+00 0.000D+00 0.000D+00 0.000D+00 0.000D+00 0.000D+00
 Coeff-En:   0.000D+00 0.000D+00 0.000D+00 0.000D+00 0.170D+00 0.830D+00
 Coeff:      0.135D-02-0.258D-03-0.321D-03 0.268D-03-0.727D-03-0.217D-02
 Coeff:      0.140D-01 0.264D-01 0.831D-01 0.163D+00 0.349D+00 0.366D+00
 Gap=     0.042 Goal=   None    Shift=    0.000
 RMSDP=1.16D-05 MaxDP=1.41D-03 DE=-4.72D-04 OVMax= 6.11D-03

 Cycle  13  Pass 1  IDiag  1:
 RMSU=  5.65D-06    CP:  9.76D-01  1.16D+00  1.99D-01  7.66D-02  7.63D-01
                    CP:  4.02D-01  4.13D-01  4.15D-01  4.00D-01  3.17D-01
                    CP:  5.43D-01  3.55D-01
 E= -3007.37668061756     Delta-E=       -0.000076202821 Rises=F Damp=F
 DIIS: error= 6.08D-05 at cycle  13 NSaved=  13.
 NSaved=13 IEnMin=13 EnMin= -3007.37668061756     IErMin=13 ErrMin= 6.08D-05
 ErrMax= 6.08D-05  0.00D+00 EMaxC= 1.00D-01 BMatC= 1.07D-05 BMatP= 7.53D-05
 IDIUse=1 WtCom= 1.00D+00 WtEn= 0.00D+00
 Coeff-Com: -0.112D-03 0.855D-03 0.707D-04-0.177D-04-0.117D-02-0.266D-03
 Coeff-Com:  0.201D-02 0.635D-02 0.366D-01 0.885D-01 0.209D+00 0.293D+00
 Coeff-Com:  0.365D+00
 Coeff:     -0.112D-03 0.855D-03 0.707D-04-0.177D-04-0.117D-02-0.266D-03
 Coeff:      0.201D-02 0.635D-02 0.366D-01 0.885D-01 0.209D+00 0.293D+00
 Coeff:      0.365D+00
 Gap=     0.042 Goal=   None    Shift=    0.000
 RMSDP=3.87D-06 MaxDP=4.15D-04 DE=-7.62D-05 OVMax= 1.76D-03

 Cycle  14  Pass 1  IDiag  1:
 RMSU=  1.56D-06    CP:  9.76D-01  1.16D+00  1.99D-01  7.63D-02  7.63D-01
                    CP:  4.02D-01  4.14D-01  4.12D-01  4.03D-01  3.23D-01
                    CP:  5.42D-01  4.53D-01  4.60D-01
 E= -3007.37669266786     Delta-E=       -0.000012050299 Rises=F Damp=F
 DIIS: error= 2.10D-05 at cycle  14 NSaved=  14.
 NSaved=14 IEnMin=14 EnMin= -3007.37669266786     IErMin=14 ErrMin= 2.10D-05
 ErrMax= 2.10D-05  0.00D+00 EMaxC= 1.00D-01 BMatC= 6.77D-07 BMatP= 1.07D-05
 IDIUse=1 WtCom= 1.00D+00 WtEn= 0.00D+00
 Coeff-Com: -0.289D-03 0.819D-03 0.733D-04-0.492D-04-0.635D-03 0.130D-04
 Coeff-Com:  0.216D-03 0.216D-02 0.180D-01 0.456D-01 0.113D+00 0.172D+00
 Coeff-Com:  0.251D+00 0.399D+00
 Coeff:     -0.289D-03 0.819D-03 0.733D-04-0.492D-04-0.635D-03 0.130D-04
 Coeff:      0.216D-03 0.216D-02 0.180D-01 0.456D-01 0.113D+00 0.172D+00
 Coeff:      0.251D+00 0.399D+00
 Gap=     0.042 Goal=   None    Shift=    0.000
 RMSDP=1.05D-06 MaxDP=1.03D-04 DE=-1.21D-05 OVMax= 2.53D-04

 Cycle  15  Pass 1  IDiag  1:
 RMSU=  6.38D-07    CP:  9.76D-01  1.16D+00  1.99D-01  7.62D-02  7.63D-01
                    CP:  4.02D-01  4.14D-01  4.12D-01  4.04D-01  3.23D-01
                    CP:  5.41D-01  4.43D-01  4.72D-01  4.98D-01
 E= -3007.37669328613     Delta-E=       -0.000000618265 Rises=F Damp=F
 DIIS: error= 6.86D-06 at cycle  15 NSaved=  15.
 NSaved=15 IEnMin=15 EnMin= -3007.37669328613     IErMin=15 ErrMin= 6.86D-06
 ErrMax= 6.86D-06  0.00D+00 EMaxC= 1.00D-01 BMatC= 9.20D-08 BMatP= 6.77D-07
 IDIUse=1 WtCom= 1.00D+00 WtEn= 0.00D+00
 Coeff-Com: -0.201D-03 0.440D-03 0.263D-04-0.172D-04-0.260D-03 0.452D-04
 Coeff-Com: -0.247D-03 0.438D-03 0.687D-02 0.180D-01 0.473D-01 0.775D-01
 Coeff-Com:  0.120D+00 0.273D+00 0.457D+00
 Coeff:     -0.201D-03 0.440D-03 0.263D-04-0.172D-04-0.260D-03 0.452D-04
 Coeff:     -0.247D-03 0.438D-03 0.687D-02 0.180D-01 0.473D-01 0.775D-01
 Coeff:      0.120D+00 0.273D+00 0.457D+00
 Gap=     0.042 Goal=   None    Shift=    0.000
 RMSDP=3.84D-07 MaxDP=3.07D-05 DE=-6.18D-07 OVMax= 1.16D-04

 Cycle  16  Pass 1  IDiag  1:
 RMSU=  2.36D-07    CP:  9.76D-01  1.16D+00  1.99D-01  7.62D-02  7.63D-01
                    CP:  4.02D-01  4.14D-01  4.12D-01  4.04D-01  3.23D-01
                    CP:  5.43D-01  4.49D-01  4.62D-01  5.49D-01  6.16D-01
 E= -3007.37669336569     Delta-E=       -0.000000079564 Rises=F Damp=F
 DIIS: error= 7.33D-06 at cycle  16 NSaved=  16.
 NSaved=16 IEnMin=16 EnMin= -3007.37669336569     IErMin=15 ErrMin= 6.86D-06
 ErrMax= 7.33D-06  0.00D+00 EMaxC= 1.00D-01 BMatC= 2.30D-08 BMatP= 9.20D-08
 IDIUse=1 WtCom= 1.00D+00 WtEn= 0.00D+00
 Coeff-Com: -0.130D-03 0.234D-03-0.538D-06-0.554D-05-0.102D-03 0.506D-04
 Coeff-Com: -0.302D-03-0.948D-04 0.218D-02 0.606D-02 0.178D-01 0.317D-01
 Coeff-Com:  0.523D-01 0.140D+00 0.348D+00 0.402D+00
 Coeff:     -0.130D-03 0.234D-03-0.538D-06-0.554D-05-0.102D-03 0.506D-04
 Coeff:     -0.302D-03-0.948D-04 0.218D-02 0.606D-02 0.178D-01 0.317D-01
 Coeff:      0.523D-01 0.140D+00 0.348D+00 0.402D+00
 Gap=     0.042 Goal=   None    Shift=    0.000
 RMSDP=1.67D-07 MaxDP=2.93D-05 DE=-7.96D-08 OVMax= 4.61D-05

 Cycle  17  Pass 1  IDiag  1:
 RMSU=  8.24D-08    CP:  9.76D-01  1.16D+00  1.99D-01  7.62D-02  7.64D-01
                    CP:  4.02D-01  4.14D-01  4.12D-01  4.04D-01  3.23D-01
                    CP:  5.43D-01  4.49D-01  4.68D-01  5.34D-01  6.26D-01
                    CP:  4.61D-01
 E= -3007.37669338580     Delta-E=       -0.000000020105 Rises=F Damp=F
 DIIS: error= 2.33D-06 at cycle  17 NSaved=  17.
 NSaved=17 IEnMin=17 EnMin= -3007.37669338580     IErMin=17 ErrMin= 2.33D-06
 ErrMax= 2.33D-06  0.00D+00 EMaxC= 1.00D-01 BMatC= 4.05D-09 BMatP= 2.30D-08
 IDIUse=1 WtCom= 1.00D+00 WtEn= 0.00D+00
 Coeff-Com: -0.839D-04 0.135D-03-0.776D-05-0.847D-06-0.600D-04 0.429D-04
 Coeff-Com: -0.251D-03-0.186D-03 0.737D-03 0.228D-02 0.761D-02 0.146D-01
 Coeff-Com:  0.251D-01 0.700D-01 0.199D+00 0.288D+00 0.393D+00
 Coeff:     -0.839D-04 0.135D-03-0.776D-05-0.847D-06-0.600D-04 0.429D-04
 Coeff:     -0.251D-03-0.186D-03 0.737D-03 0.228D-02 0.761D-02 0.146D-01
 Coeff:      0.251D-01 0.700D-01 0.199D+00 0.288D+00 0.393D+00
 Gap=     0.042 Goal=   None    Shift=    0.000
 RMSDP=5.90D-08 MaxDP=6.48D-06 DE=-2.01D-08 OVMax= 1.50D-05

 Cycle  18  Pass 1  IDiag  1:
 RMSU=  4.26D-08    CP:  9.76D-01  1.16D+00  1.99D-01  7.62D-02  7.64D-01
                    CP:  4.02D-01  4.14D-01  4.12D-01  4.04D-01  3.23D-01
                    CP:  5.43D-01  4.49D-01  4.68D-01  5.38D-01  6.29D-01
                    CP:  4.94D-01  6.11D-01
 E= -3007.37669338874     Delta-E=       -0.000000002945 Rises=F Damp=F
 DIIS: error= 1.26D-06 at cycle  18 NSaved=  18.
 NSaved=18 IEnMin=18 EnMin= -3007.37669338874     IErMin=18 ErrMin= 1.26D-06
 ErrMax= 1.26D-06  0.00D+00 EMaxC= 1.00D-01 BMatC= 1.01D-09 BMatP= 4.05D-09
 IDIUse=1 WtCom= 1.00D+00 WtEn= 0.00D+00
 Coeff-Com: -0.439D-04 0.681D-04-0.622D-05-0.128D-06-0.368D-04 0.272D-04
 Coeff-Com: -0.150D-03-0.140D-03 0.706D-04 0.383D-03 0.172D-02 0.375D-02
 Coeff-Com:  0.678D-02 0.165D-01 0.477D-01 0.779D-01 0.257D+00 0.589D+00
 Coeff:     -0.439D-04 0.681D-04-0.622D-05-0.128D-06-0.368D-04 0.272D-04
 Coeff:     -0.150D-03-0.140D-03 0.706D-04 0.383D-03 0.172D-02 0.375D-02
 Coeff:      0.678D-02 0.165D-01 0.477D-01 0.779D-01 0.257D+00 0.589D+00
 Gap=     0.042 Goal=   None    Shift=    0.000
 RMSDP=3.72D-08 MaxDP=9.12D-06 DE=-2.94D-09 OVMax= 1.40D-05

 Cycle  19  Pass 1  IDiag  1:
 RMSU=  2.59D-08    CP:  9.76D-01  1.16D+00  1.99D-01  7.62D-02  7.64D-01
                    CP:  4.02D-01  4.14D-01  4.12D-01  4.04D-01  3.23D-01
                    CP:  5.43D-01  4.49D-01  4.69D-01  5.37D-01  6.25D-01
                    CP:  4.91D-01  7.19D-01  7.79D-01
 E= -3007.37669338941     Delta-E=       -0.000000000675 Rises=F Damp=F
 DIIS: error= 7.32D-07 at cycle  19 NSaved=  19.
 NSaved=19 IEnMin=19 EnMin= -3007.37669338941     IErMin=19 ErrMin= 7.32D-07
 ErrMax= 7.32D-07  0.00D+00 EMaxC= 1.00D-01 BMatC= 4.03D-10 BMatP= 1.01D-09
 IDIUse=1 WtCom= 1.00D+00 WtEn= 0.00D+00
 Coeff-Com: -0.196D-04 0.325D-04-0.308D-05-0.130D-06-0.193D-04 0.128D-04
 Coeff-Com: -0.643D-04-0.693D-04-0.117D-03-0.281D-03-0.576D-03-0.732D-03
 Coeff-Com: -0.111D-02-0.561D-02-0.196D-01-0.300D-01 0.707D-01 0.463D+00
 Coeff-Com:  0.525D+00
 Coeff:     -0.196D-04 0.325D-04-0.308D-05-0.130D-06-0.193D-04 0.128D-04
 Coeff:     -0.643D-04-0.693D-04-0.117D-03-0.281D-03-0.576D-03-0.732D-03
 Coeff:     -0.111D-02-0.561D-02-0.196D-01-0.300D-01 0.707D-01 0.463D+00
 Coeff:      0.525D+00
 Gap=     0.042 Goal=   None    Shift=    0.000
 RMSDP=1.85D-08 MaxDP=3.44D-06 DE=-6.75D-10 OVMax= 3.57D-06

 Cycle  20  Pass 1  IDiag  1:
 RMSU=  1.27D-08    CP:  9.76D-01  1.16D+00  1.99D-01  7.62D-02  7.64D-01
                    CP:  4.02D-01  4.14D-01  4.12D-01  4.05D-01  3.23D-01
                    CP:  5.43D-01  4.49D-01  4.69D-01  5.35D-01  6.23D-01
                    CP:  4.82D-01  7.69D-01  8.72D-01  7.92D-01
 E= -3007.37669338988     Delta-E=       -0.000000000469 Rises=F Damp=F
 DIIS: error= 3.44D-07 at cycle  20 NSaved=  20.
 NSaved=20 IEnMin=20 EnMin= -3007.37669338988     IErMin=20 ErrMin= 3.44D-07
 ErrMax= 3.44D-07  0.00D+00 EMaxC= 1.00D-01 BMatC= 1.05D-10 BMatP= 4.03D-10
 IDIUse=1 WtCom= 1.00D+00 WtEn= 0.00D+00
 Coeff-Com: -0.708D-05 0.130D-04-0.125D-05-0.154D-06-0.882D-05 0.471D-05
 Coeff-Com: -0.204D-04-0.257D-04-0.940D-04-0.285D-03-0.762D-03-0.131D-02
 Coeff-Com: -0.235D-02-0.824D-02-0.280D-01-0.480D-01-0.245D-01 0.196D+00
 Coeff-Com:  0.409D+00 0.508D+00
 Coeff:     -0.708D-05 0.130D-04-0.125D-05-0.154D-06-0.882D-05 0.471D-05
 Coeff:     -0.204D-04-0.257D-04-0.940D-04-0.285D-03-0.762D-03-0.131D-02
 Coeff:     -0.235D-02-0.824D-02-0.280D-01-0.480D-01-0.245D-01 0.196D+00
 Coeff:      0.409D+00 0.508D+00
 Gap=     0.042 Goal=   None    Shift=    0.000
 RMSDP=1.17D-08 MaxDP=2.05D-06 DE=-4.69D-10 OVMax= 2.88D-06

 Cycle  21  Pass 1  IDiag  1:
 Restarting incremental Fock formation.
 E= -3007.37669339001     Delta-E=       -0.000000000126 Rises=F Damp=F
 DIIS: error= 1.46D-07 at cycle  21 NSaved=  20.
 NSaved=20 IEnMin=20 EnMin= -3007.37669339001     IErMin=20 ErrMin= 1.46D-07
 ErrMax= 1.46D-07  0.00D+00 EMaxC= 1.00D-01 BMatC= 2.09D-11 BMatP= 1.05D-10
 IDIUse=1 WtCom= 1.00D+00 WtEn= 0.00D+00
 Coeff-Com: -0.169D-05 0.364D-05-0.188D-06-0.344D-05 0.120D-05-0.342D-05
 Coeff-Com: -0.455D-05-0.283D-04-0.108D-03-0.331D-03-0.645D-03-0.129D-02
 Coeff-Com: -0.460D-02-0.165D-01-0.317D-01-0.428D-01 0.274D-01 0.180D+00
 Coeff-Com:  0.395D+00 0.495D+00
 Coeff:     -0.169D-05 0.364D-05-0.188D-06-0.344D-05 0.120D-05-0.342D-05
 Coeff:     -0.455D-05-0.283D-04-0.108D-03-0.331D-03-0.645D-03-0.129D-02
 Coeff:     -0.460D-02-0.165D-01-0.317D-01-0.428D-01 0.274D-01 0.180D+00
 Coeff:      0.395D+00 0.495D+00
 Gap=     0.042 Goal=   None    Shift=    0.000
 RMSDP=5.70D-09 MaxDP=7.43D-07 DE=-1.26D-10 OVMax= 1.46D-06

 SCF Done:  E(RB-LYP) =  -3007.37669339     A.U. after   21 cycles
            NFock= 21  Conv=0.57D-08     -V/T= 2.0099
 KE= 2.977934113223D+03 PE=-2.543530135456D+04 EE= 1.023021761930D+04
 Leave Link  502 at Wed Apr 27 23:44:47 2022, MaxMem= 10066329600 cpu:            7110.9 elap:             297.1
 (Enter /sw/apps/gaussian-16.0/g16/l801.exe)
 DoSCS=F DFT=T ScalE2(SS,OS)=  1.000000  1.000000
 ExpMin= 3.36D-02 ExpMax= 4.95D+03 ExpMxC= 7.45D+02 IAcc=3 IRadAn=         5 AccDes= 0.00D+00
 HarFok:  IExCor=  205 AccDes= 0.00D+00 IRadAn=         5 IDoV=-2 UseB2=F ITyADJ=14
 ICtDFT= 12500011 ScaDFX=  1.000000  1.000000  1.000000  1.000000
 GSVD:  LWork=       -5460 too small for GESVD, short by       25550 words or       25550 for optimal perf.
 Largest valence mixing into a core orbital is  1.41D-04
 Largest core mixing into a valence orbital is  4.66D-05
 Range of M.O.s used for correlation:    71  1298
 NBasis=  1298 NAE=   246 NBE=   246 NFC=    70 NFV=     0
 NROrb=   1228 NOA=   176 NOB=   176 NVA=  1052 NVB=  1052

 **** Warning!!: The smallest alpha delta epsilon is  0.42255775D-01

 Leave Link  801 at Wed Apr 27 23:44:47 2022, MaxMem= 10066329600 cpu:               7.6 elap:               0.3
 (Enter /sw/apps/gaussian-16.0/g16/l914.exe)
 RHF ground state
 Two-electron integrals replicated using symmetry.
 MDV= 10066329600 DFT=T DoStab=F Mixed=F DoRPA=T DoScal=T NonHer=F
 Making orbital integer symmetry assigments:
 Orbital symmetries:
       Occupied  (A) (A) (A) (A) (A) (A) (A) (A) (A) (A) (A) (A)
                 (A) (A) (A) (A) (A) (A) (A) (A) (A) (A) (A) (A)
                 (A) (A) (A) (A) (A) (A) (A) (A) (A) (A) (A) (A)
                 (A) (A) (A) (A) (A) (A) (A) (A) (A) (A) (A) (A)
                 (A) (A) (A) (A) (A) (A) (A) (A) (A) (A) (A) (A)
                 (A) (A) (A) (A) (A) (A) (A) (A) (A) (A) (A) (A)
                 (A) (A) (A) (A) (A) (A) (A) (A) (A) (A) (A) (A)
                 (A) (A) (A) (A) (A) (A) (A) (A) (A) (A) (A) (A)
                 (A) (A) (A) (A) (A) (A) (A) (A) (A) (A) (A) (A)
                 (A) (A) (A) (A) (A) (A) (A) (A) (A) (A) (A) (A)
                 (A) (A) (A) (A) (A) (A) (A) (A) (A) (A) (A) (A)
                 (A) (A) (A) (A) (A) (A) (A) (A) (A) (A) (A) (A)
                 (A) (A) (A) (A) (A) (A) (A) (A) (A) (A) (A) (A)
                 (A) (A) (A) (A) (A) (A) (A) (A) (A) (A) (A) (A)
                 (A) (A) (A) (A) (A) (A) (A) (A) (A) (A) (A) (A)
                 (A) (A) (A) (A) (A) (A) (A) (A) (A) (A) (A) (A)
                 (A) (A) (A) (A) (A) (A) (A) (A) (A) (A) (A) (A)
                 (A) (A) (A) (A) (A) (A) (A) (A) (A) (A) (A) (A)
                 (A) (A) (A) (A) (A) (A) (A) (A) (A) (A) (A) (A)
                 (A) (A) (A) (A) (A) (A) (A) (A) (A) (A) (A) (A)
                 (A) (A) (A) (A) (A) (A)
       Virtual   (A) (A) (A) (A) (A) (A) (A) (A) (A) (A) (A) (A)
                 (A) (A) (A) (A) (A) (A) (A) (A) (A) (A) (A) (A)
                 (A) (A) (A) (A) (A) (A) (A) (A) (A) (A) (A) (A)
                 (A) (A) (A) (A) (A) (A) (A) (A) (A) (A) (A) (A)
                 (A) (A) (A) (A) (A) (A) (A) (A) (A) (A) (A) (A)
                 (A) (A) (A) (A) (A) (A) (A) (A) (A) (A) (A) (A)
                 (A) (A) (A) (A) (A) (A) (A) (A) (A) (A) (A) (A)
                 (A) (A) (A) (A) (A) (A) (A) (A) (A) (A) (A) (A)
                 (A) (A) (A) (A) (A) (A) (A) (A) (A) (A) (A) (A)
                 (A) (A) (A) (A) (A) (A) (A) (A) (A) (A) (A) (A)
                 (A) (A) (A) (A) (A) (A) (A) (A) (A) (A) (A) (A)
                 (A) (A) (A) (A) (A) (A) (A) (A) (A) (A) (A) (A)
                 (A) (A) (A) (A) (A) (A) (A) (A) (A) (A) (A) (A)
                 (A) (A) (A) (A) (A) (A) (A) (A) (A) (A) (A) (A)
                 (A) (A) (A) (A) (A) (A) (A) (A) (A) (A) (A) (A)
                 (A) (A) (A) (A) (A) (A) (A) (A) (A) (A) (A) (A)
                 (A) (A) (A) (A) (A) (A) (A) (A) (A) (A) (A) (A)
                 (A) (A) (A) (A) (A) (A) (A) (A) (A) (A) (A) (A)
                 (A) (A) (A) (A) (A) (A) (A) (A) (A) (A) (A) (A)
                 (A) (A) (A) (A) (A) (A) (A) (A) (A) (A) (A) (A)
                 (A) (A) (A) (A) (A) (A) (A) (A) (A) (A) (A) (A)
                 (A) (A) (A) (A) (A) (A) (A) (A) (A) (A) (A) (A)
                 (A) (A) (A) (A) (A) (A) (A) (A) (A) (A) (A) (A)
                 (A) (A) (A) (A) (A) (A) (A) (A) (A) (A) (A) (A)
                 (A) (A) (A) (A) (A) (A) (A) (A) (A) (A) (A) (A)
                 (A) (A) (A) (A) (A) (A) (A) (A) (A) (A) (A) (A)
                 (A) (A) (A) (A) (A) (A) (A) (A) (A) (A) (A) (A)
                 (A) (A) (A) (A) (A) (A) (A) (A) (A) (A) (A) (A)
                 (A) (A) (A) (A) (A) (A) (A) (A) (A) (A) (A) (A)
                 (A) (A) (A) (A) (A) (A) (A) (A) (A) (A) (A) (A)
                 (A) (A) (A) (A) (A) (A) (A) (A) (A) (A) (A) (A)
                 (A) (A) (A) (A) (A) (A) (A) (A) (A) (A) (A) (A)
                 (A) (A) (A) (A) (A) (A) (A) (A) (A) (A) (A) (A)
                 (A) (A) (A) (A) (A) (A) (A) (A) (A) (A) (A) (A)
                 (A) (A) (A) (A) (A) (A) (A) (A) (A) (A) (A) (A)
                 (A) (A) (A) (A) (A) (A) (A) (A) (A) (A) (A) (A)
                 (A) (A) (A) (A) (A) (A) (A) (A) (A) (A) (A) (A)
                 (A) (A) (A) (A) (A) (A) (A) (A) (A) (A) (A) (A)
                 (A) (A) (A) (A) (A) (A) (A) (A) (A) (A) (A) (A)
                 (A) (A) (A) (A) (A) (A) (A) (A) (A) (A) (A) (A)
                 (A) (A) (A) (A) (A) (A) (A) (A) (A) (A) (A) (A)
                 (A) (A) (A) (A) (A) (A) (A) (A) (A) (A) (A) (A)
                 (A) (A) (A) (A) (A) (A) (A) (A) (A) (A) (A) (A)
                 (A) (A) (A) (A) (A) (A) (A) (A) (A) (A) (A) (A)
                 (A) (A) (A) (A) (A) (A) (A) (A) (A) (A) (A) (A)
                 (A) (A) (A) (A) (A) (A) (A) (A) (A) (A) (A) (A)
                 (A) (A) (A) (A) (A) (A) (A) (A) (A) (A) (A) (A)
                 (A) (A) (A) (A) (A) (A) (A) (A) (A) (A) (A) (A)
                 (A) (A) (A) (A) (A) (A) (A) (A) (A) (A) (A) (A)
                 (A) (A) (A) (A) (A) (A) (A) (A) (A) (A) (A) (A)
                 (A) (A) (A) (A) (A) (A) (A) (A) (A) (A) (A) (A)
                 (A) (A) (A) (A) (A) (A) (A) (A) (A) (A) (A) (A)
                 (A) (A) (A) (A) (A) (A) (A) (A) (A) (A) (A) (A)
                 (A) (A) (A) (A) (A) (A) (A) (A) (A) (A) (A) (A)
                 (A) (A) (A) (A) (A) (A) (A) (A) (A) (A) (A) (A)
                 (A) (A) (A) (A) (A) (A) (A) (A) (A) (A) (A) (A)
                 (A) (A) (A) (A) (A) (A) (A) (A) (A) (A) (A) (A)
                 (A) (A) (A) (A) (A) (A) (A) (A) (A) (A) (A) (A)
                 (A) (A) (A) (A) (A) (A) (A) (A) (A) (A) (A) (A)
                 (A) (A) (A) (A) (A) (A) (A) (A) (A) (A) (A) (A)
                 (A) (A) (A) (A) (A) (A) (A) (A) (A) (A) (A) (A)
                 (A) (A) (A) (A) (A) (A) (A) (A) (A) (A) (A) (A)
                 (A) (A) (A) (A) (A) (A) (A) (A) (A) (A) (A) (A)
                 (A) (A) (A) (A) (A) (A) (A) (A) (A) (A) (A) (A)
                 (A) (A) (A) (A) (A) (A) (A) (A) (A) (A) (A) (A)
                 (A) (A) (A) (A) (A) (A) (A) (A) (A) (A) (A) (A)
                 (A) (A) (A) (A) (A) (A) (A) (A) (A) (A) (A) (A)
                 (A) (A) (A) (A) (A) (A) (A) (A) (A) (A) (A) (A)
                 (A) (A) (A) (A) (A) (A) (A) (A) (A) (A) (A) (A)
                 (A) (A) (A) (A) (A) (A) (A) (A) (A) (A) (A) (A)
                 (A) (A) (A) (A) (A) (A) (A) (A) (A) (A) (A) (A)
                 (A) (A) (A) (A) (A) (A) (A) (A) (A) (A) (A) (A)
                 (A) (A) (A) (A) (A) (A) (A) (A) (A) (A) (A) (A)
                 (A) (A) (A) (A) (A) (A) (A) (A) (A) (A) (A) (A)
                 (A) (A) (A) (A) (A) (A) (A) (A) (A) (A) (A) (A)
                 (A) (A) (A) (A) (A) (A) (A) (A) (A) (A) (A) (A)
                 (A) (A) (A) (A) (A) (A) (A) (A) (A) (A) (A) (A)
                 (A) (A) (A) (A) (A) (A) (A) (A) (A) (A) (A) (A)
                 (A) (A) (A) (A) (A) (A) (A) (A) (A) (A) (A) (A)
                 (A) (A) (A) (A) (A) (A) (A) (A) (A) (A) (A) (A)
                 (A) (A) (A) (A) (A) (A) (A) (A) (A) (A) (A) (A)
                 (A) (A) (A) (A) (A) (A) (A) (A) (A) (A) (A) (A)
                 (A) (A) (A) (A) (A) (A) (A) (A) (A) (A) (A) (A)
                 (A) (A) (A) (A) (A) (A) (A) (A) (A) (A) (A) (A)
                 (A) (A) (A) (A) (A) (A) (A) (A) (A) (A) (A) (A)
                 (A) (A) (A) (A) (A) (A) (A) (A) (A) (A) (A) (A)
                 (A) (A) (A) (A) (A) (A) (A) (A) (A) (A) (A) (A)
                 (A) (A) (A) (A) (A) (A) (A) (A)
    20 initial guesses have been made.
 Convergence on wavefunction:    0.001000000000000
 Davidson Disk Diagonalization:  ConvIn= 1.00D-03 SkipCon=T Conv= 1.00D-03.
 Max sub-space:  2000 roots to seek:    20 dimension of matrix:       370304
 Iteration     1 Dimension    20 NMult     0 NNew     20
 CISAX will form    20 AO SS matrices at one time.
 NMat=    20 NSing=    20 JSym2X= 0.
 FoFJK:  IHMeth= 1 ICntrl=     500 DoSepK=F KAlg= 0 I1Cent=           0 FoldK=F
 IRaf= 480000000 NMat=      20 IRICut=       1 DoRegI=T DoRafI=F ISym2E= 0 IDoP0=0 IntGTp=1.
 FoFCou: FMM=T IPFlag=           0 FMFlag=      100000 FMFlg1=        2001
         NFxFlg=           0 DoJE=F BraDBF=F KetDBF=F FulRan=T
         wScrn=  0.000000 ICntrl=       500 IOpCl=  0 I1Cent=           0 NGrid=           0
         NMat0=   20 NMatS0=     20 NMatT0=    0 NMatD0=   20 NMtDS0=    0 NMtDT0=    0
 Symmetry not used in FoFCou.
 FMM levels:  10  Number of levels for PrismC:   9
 New state      1 was old state      3
 New state      2 was old state      4
 New state      3 was old state      1
 New state      4 was old state      2
 New state      5 was old state      6
 Excitation Energies [eV] at current iteration:
 Root      1 :     1.915115606463204
 Root      2 :     2.030526504013754
 Root      3 :     2.128989226262056
 Root      4 :     2.339514823266310
 Root      5 :     2.377269831461868
 Root      6 :     2.709312804266985
 Root      7 :     2.780894858931593
 Root      8 :     2.864539568323315
 Root      9 :     3.000108589794722
 Root     10 :     3.000519266653611
 Root     11 :     3.041058683900803
 Root     12 :     3.122230464836722
 Root     13 :     3.193081328243730
 Root     14 :     3.264690775506424
 Root     15 :     3.298906328344066
 Root     16 :     3.494707218141365
 Root     17 :     3.909025202039984
 Root     18 :     4.031228462487603
 Root     19 :     4.318895655083616
 Root     20 :     4.423343094393229
 Iteration     2 Dimension    40 NMult    20 NNew     20
 CISAX will form    20 AO SS matrices at one time.
 NMat=    20 NSing=    20 JSym2X= 0.
 New state      1 was old state      3
 Root      1 not converged, maximum delta is    0.049461587699114
 New state      2 was old state      1
 Root      2 not converged, maximum delta is    0.090742359913608
 New state      3 was old state      2
 Root      3 not converged, maximum delta is    0.052610275809594
 Root      4 not converged, maximum delta is    0.096176747099085
 Root      5 not converged, maximum delta is    0.008360883478545
 Excitation Energies [eV] at current iteration:
 Root      1 :     1.881262595511797   Change is   -0.247726630750260
 Root      2 :     1.899526632652736   Change is   -0.015588973810468
 Root      3 :     2.024284093939361   Change is   -0.006242410074394
 Root      4 :     2.090633519277397   Change is   -0.248881303988912
 Root      5 :     2.377223013744683   Change is   -0.000046817717184
 Root      6 :     2.548758093628946   Change is   -0.315781474694369
 Root      7 :     2.653105259489950   Change is   -0.347414007163661
 Root      8 :     2.708044780222264   Change is   -0.001268024044721
 Root      9 :     2.798572058011276   Change is    0.017677199079684
 Root     10 :     2.888211966258567   Change is   -0.152846717642236
 Root     11 :     3.000108591044834   Change is    0.000000001250112
 Root     12 :     3.020465665044251   Change is   -0.101764799792471
 Root     13 :     3.089230990237440   Change is   -0.103850338006290
 Root     14 :     3.113643624625993   Change is   -0.381063593515371
 Root     15 :     3.257955563824743   Change is   -0.040950764519323
 Root     16 :     3.276149017853629   Change is    0.011458242347205
 Root     17 :     3.373545906757448   Change is   -0.535479295282536
 Root     18 :     3.516449817567370   Change is   -0.514778644920234
 Root     19 :     3.755147073991938   Change is   -0.563748581091678
 Root     20 :     4.133496645233024   Change is   -0.289846449160205
 Iteration     3 Dimension    45 NMult    40 NNew      5
 CISAX will form     5 AO SS matrices at one time.
 NMat=     5 NSing=     5 JSym2X= 0.
 Root      1 not converged, maximum delta is    0.025277263988047
 Root      2 not converged, maximum delta is    0.037727457597345
 Root      3 not converged, maximum delta is    0.055606930776919
 Root      4 not converged, maximum delta is    0.072944013584941
 Root      5 has converged.
 Excitation Energies [eV] at current iteration:
 Root      1 :     1.831369852279345   Change is   -0.049892743232452
 Root      2 :     1.894059340189941   Change is   -0.005467292462795
 Root      3 :     2.021823793859678   Change is   -0.002460300079683
 Root      4 :     2.057458593314317   Change is   -0.033174925963081
 Root      5 :     2.377217938884844   Change is   -0.000005074859839
 Iteration     4 Dimension    49 NMult    45 NNew      4
 CISAX will form     4 AO SS matrices at one time.
 NMat=     4 NSing=     4 JSym2X= 0.
 Root      1 not converged, maximum delta is    0.010699437964773
 Root      2 not converged, maximum delta is    0.016332713629694
 Root      3 not converged, maximum delta is    0.044636504451108
 Root      4 not converged, maximum delta is    0.058239406741796
 Root      5 has converged.
 Excitation Energies [eV] at current iteration:
 Root      1 :     1.814664382224105   Change is   -0.016705470055240
 Root      2 :     1.892023328808430   Change is   -0.002036011381511
 Root      3 :     2.020207007304066   Change is   -0.001616786555612
 Root      4 :     2.046320710305938   Change is   -0.011137883008379
 Root      5 :     2.377217295856072   Change is   -0.000000643028773
 Iteration     5 Dimension    53 NMult    49 NNew      4
 CISAX will form     4 AO SS matrices at one time.
 NMat=     4 NSing=     4 JSym2X= 0.
 Root      1 not converged, maximum delta is    0.003948407642068
 Root      2 not converged, maximum delta is    0.005390666430612
 Root      3 not converged, maximum delta is    0.020313708180331
 Root      4 not converged, maximum delta is    0.026725604568668
 Root      5 has converged.
 Excitation Energies [eV] at current iteration:
 Root      1 :     1.809067812503916   Change is   -0.005596569720188
 Root      2 :     1.891332258367823   Change is   -0.000691070440607
 Root      3 :     2.019396676400766   Change is   -0.000810330903300
 Root      4 :     2.042831324369038   Change is   -0.003489385936900
 Root      5 :     2.377217208649684   Change is   -0.000000087206388
 Iteration     6 Dimension    57 NMult    53 NNew      4
 CISAX will form     4 AO SS matrices at one time.
 NMat=     4 NSing=     4 JSym2X= 0.
 Root      1 not converged, maximum delta is    0.003081461691470
 Root      2 not converged, maximum delta is    0.002064242142297
 Root      3 not converged, maximum delta is    0.008188790024299
 Root      4 not converged, maximum delta is    0.011018587208290
 Root      5 has converged.
 Excitation Energies [eV] at current iteration:
 Root      1 :     1.806516433480027   Change is   -0.002551379023889
 Root      2 :     1.891001064386361   Change is   -0.000331193981462
 Root      3 :     2.018990409779353   Change is   -0.000406266621414
 Root      4 :     2.041472727463326   Change is   -0.001358596905712
 Root      5 :     2.377217186534597   Change is   -0.000000022115087
 Iteration     7 Dimension    61 NMult    57 NNew      4
 CISAX will form     4 AO SS matrices at one time.
 NMat=     4 NSing=     4 JSym2X= 0.
 Root      1 not converged, maximum delta is    0.001400496829212
 Root      2 has converged.
 Root      3 not converged, maximum delta is    0.003269777734035
 Root      4 not converged, maximum delta is    0.004451009555335
 Root      5 has converged.
 Excitation Energies [eV] at current iteration:
 Root      1 :     1.805415976646058   Change is   -0.001100456833968
 Root      2 :     1.890856227077518   Change is   -0.000144837308843
 Root      3 :     2.018818675031118   Change is   -0.000171734748235
 Root      4 :     2.040959948544662   Change is   -0.000512778918665
 Root      5 :     2.377217171589032   Change is   -0.000000014945566
 Iteration     8 Dimension    64 NMult    61 NNew      3
 CISAX will form     3 AO SS matrices at one time.
 NMat=     3 NSing=     3 JSym2X= 0.
 Root      1 not converged, maximum delta is    0.001105492510167
 Root      2 has converged.
 Root      3 not converged, maximum delta is    0.001373518688336
 Root      4 not converged, maximum delta is    0.001882780431590
 Root      5 has converged.
 Excitation Energies [eV] at current iteration:
 Root      1 :     1.804914583385465   Change is   -0.000501393260593
 Root      2 :     1.890823245155701   Change is   -0.000032981921817
 Root      3 :     2.018757456037235   Change is   -0.000061218993883
 Root      4 :     2.040761146855498   Change is   -0.000198801689164
 Root      5 :     2.377217163210925   Change is   -0.000000008378107
 Iteration     9 Dimension    67 NMult    64 NNew      3
 CISAX will form     3 AO SS matrices at one time.
 NMat=     3 NSing=     3 JSym2X= 0.
 Root      1 has converged.
 Root      2 has converged.
 Root      3 has converged.
 Root      4 has converged.
 Root      5 has converged.
 Excitation Energies [eV] at current iteration:
 Root      1 :     1.804705855365742   Change is   -0.000208728019723
 Root      2 :     1.890809636456862   Change is   -0.000013608698839
 Root      3 :     2.018732354945772   Change is   -0.000025101091463
 Root      4 :     2.040675260341444   Change is   -0.000085886514054
 Root      5 :     2.377217157957110   Change is   -0.000000005253815
 Convergence achieved on expansion vectors.
[...]
 Alpha virt. eigenvalues --    1.19343   1.20117   1.20395   1.20906   1.21363
 Alpha virt. eigenvalues --    1.21915   1.22662   1.23238   1.23626   1.23860
 Alpha virt. eigenvalues --    1.24507   1.24904   1.25206   1.25829   1.25859
 Alpha virt. eigenvalues --    1.26147   1.26970   1.27781   1.27905   1.28540
 Alpha virt. eigenvalues --    1.28644   1.29277   1.29950   1.30466   1.30949
 Alpha virt. eigenvalues --    1.31005   1.31336   1.31356   1.32404   1.32609
 Alpha virt. eigenvalues --    1.32936   1.33646   1.33907   1.34121   1.34425
 Alpha virt. eigenvalues --    1.34918   1.34974   1.35381   1.36280   1.36435
 Alpha virt. eigenvalues --    1.36857   1.37158   1.37176   1.37849   1.38311
 Alpha virt. eigenvalues --    1.38519   1.38802   1.39261   1.39419   1.40135
 Alpha virt. eigenvalues --    1.40565   1.41185   1.41226   1.41654   1.42055
 Alpha virt. eigenvalues --    1.43565   1.43664   1.44205   1.44316   1.45160
 Alpha virt. eigenvalues --    1.45214   1.45411   1.45785   1.45927   1.46244
 Alpha virt. eigenvalues --    1.46472   1.46567   1.46823   1.46977   1.46994
 Alpha virt. eigenvalues --    1.47362   1.47664   1.47775   1.48316   1.48485
 Alpha virt. eigenvalues --    1.48617   1.49048   1.49079   1.49352   1.49387
 Alpha virt. eigenvalues --    1.49756   1.50111   1.50389   1.50862   1.51006
 Alpha virt. eigenvalues --    1.51075   1.51477   1.51767   1.52493   1.52666
 Alpha virt. eigenvalues --    1.52819   1.53015   1.53353   1.53986   1.54413
 Alpha virt. eigenvalues --    1.55042   1.55384   1.56291   1.56373   1.56820
 Alpha virt. eigenvalues --    1.57316   1.58249   1.58602   1.59291   1.59376
 Alpha virt. eigenvalues --    1.59491   1.59983   1.60395   1.60655   1.61330
 Alpha virt. eigenvalues --    1.61631   1.62198   1.62442   1.62558   1.62970
 Alpha virt. eigenvalues --    1.63049   1.63566   1.64063   1.64283   1.64337
 Alpha virt. eigenvalues --    1.64686   1.64974   1.65085   1.65684   1.65760
 Alpha virt. eigenvalues --    1.65989   1.66163   1.66558   1.66659   1.66913
 Alpha virt. eigenvalues --    1.67137   1.67281   1.67922   1.68041   1.68499
 Alpha virt. eigenvalues --    1.68614   1.69022   1.69100   1.69374   1.69584
 Alpha virt. eigenvalues --    1.69747   1.69956   1.70106   1.70134   1.70440
 Alpha virt. eigenvalues --    1.70815   1.70965   1.71226   1.71408   1.71424
 Alpha virt. eigenvalues --    1.71516   1.71713   1.72230   1.72305   1.72311
 Alpha virt. eigenvalues --    1.72566   1.73027   1.73075   1.73166   1.73305
 Alpha virt. eigenvalues --    1.73406   1.73920   1.74094   1.74241   1.74542
 Alpha virt. eigenvalues --    1.74629   1.74766   1.75154   1.75374   1.75541
 Alpha virt. eigenvalues --    1.75596   1.75820   1.76051   1.76227   1.76477
 Alpha virt. eigenvalues --    1.76582   1.76775   1.76931   1.77220   1.77283
 Alpha virt. eigenvalues --    1.77419   1.77853   1.78062   1.78092   1.78475
 Alpha virt. eigenvalues --    1.78516   1.78726   1.79210   1.79456   1.79895
 Alpha virt. eigenvalues --    1.80140   1.80498   1.80559   1.80713   1.80814
 Alpha virt. eigenvalues --    1.81098   1.81129   1.81520   1.81774   1.81888
 Alpha virt. eigenvalues --    1.82111   1.82385   1.82700   1.82807   1.83471
 Alpha virt. eigenvalues --    1.83624   1.83694   1.83823   1.84254   1.84528
 Alpha virt. eigenvalues --    1.84821   1.85062   1.85424   1.85526   1.86010
 Alpha virt. eigenvalues --    1.86054   1.86198   1.86222   1.86365   1.86429
 Alpha virt. eigenvalues --    1.86817   1.86885   1.87194   1.87364   1.87948
 Alpha virt. eigenvalues --    1.88266   1.88658   1.88846   1.89099   1.89372
 Alpha virt. eigenvalues --    1.89480   1.90325   1.90414   1.90676   1.90862
 Alpha virt. eigenvalues --    1.90913   1.91592   1.91784   1.92165   1.92527
 Alpha virt. eigenvalues --    1.92790   1.93085   1.93652   1.93664   1.94048
 Alpha virt. eigenvalues --    1.94338   1.94544   1.95247   1.95613   1.95795
 Alpha virt. eigenvalues --    1.95921   1.96152   1.96556   1.96826   1.97424
 Alpha virt. eigenvalues --    1.98095   1.98203   1.98392   1.98624   1.98692
 Alpha virt. eigenvalues --    1.99468   1.99600   1.99771   1.99971   2.00762
 Alpha virt. eigenvalues --    2.00805   2.01274   2.01496   2.01738   2.02081
 Alpha virt. eigenvalues --    2.02548   2.02949   2.03135   2.03487   2.03736
 Alpha virt. eigenvalues --    2.03852   2.04007   2.04173   2.04505   2.04571
 Alpha virt. eigenvalues --    2.04908   2.05249   2.05356   2.05618   2.06067
 Alpha virt. eigenvalues --    2.06292   2.06703   2.07015   2.07242   2.07298
 Alpha virt. eigenvalues --    2.08047   2.08240   2.08591   2.08902   2.09083
 Alpha virt. eigenvalues --    2.09323   2.09649   2.10313   2.10972   2.11407
 Alpha virt. eigenvalues --    2.11504   2.11740   2.12161   2.12412   2.12545
 Alpha virt. eigenvalues --    2.13309   2.13526   2.14040   2.14692   2.15274
 Alpha virt. eigenvalues --    2.15410   2.15862   2.16121   2.16200   2.16755
 Alpha virt. eigenvalues --    2.17239   2.17907   2.18330   2.18506   2.19242
 Alpha virt. eigenvalues --    2.19962   2.20348   2.20517   2.20757   2.21268
 Alpha virt. eigenvalues --    2.22552   2.22848   2.23192   2.23410   2.23539
 Alpha virt. eigenvalues --    2.23618   2.24201   2.24535   2.24674   2.25250
 Alpha virt. eigenvalues --    2.25386   2.25893   2.25969   2.26342   2.26482
 Alpha virt. eigenvalues --    2.26675   2.27351   2.27882   2.28490   2.28624
 Alpha virt. eigenvalues --    2.28748   2.28885   2.29376   2.29566   2.29672
 Alpha virt. eigenvalues --    2.30185   2.31162   2.31273   2.31672   2.32063
 Alpha virt. eigenvalues --    2.32142   2.32398   2.32560   2.32778   2.33099
 Alpha virt. eigenvalues --    2.33210   2.33698   2.33922   2.34257   2.34757
 Alpha virt. eigenvalues --    2.35074   2.35459   2.35818   2.36473   2.36702
 Alpha virt. eigenvalues --    2.36788   2.37359   2.37458   2.37751   2.37791
 Alpha virt. eigenvalues --    2.38115   2.38969   2.39252   2.39359   2.40417
 Alpha virt. eigenvalues --    2.40947   2.41605   2.42782   2.43051   2.43369
 Alpha virt. eigenvalues --    2.43755   2.43951   2.44904   2.46053   2.46160
 Alpha virt. eigenvalues --    2.46216   2.46329   2.46730   2.47732   2.47886
 Alpha virt. eigenvalues --    2.48207   2.49041   2.49117   2.49403   2.50025
 Alpha virt. eigenvalues --    2.50452   2.50603   2.51122   2.51482   2.52111
 Alpha virt. eigenvalues --    2.52504   2.52730   2.52862   2.52966   2.53633
 Alpha virt. eigenvalues --    2.53913   2.54268   2.54424   2.54647   2.54920
 Alpha virt. eigenvalues --    2.55647   2.55696   2.56685   2.57304   2.57566
 Alpha virt. eigenvalues --    2.57692   2.58616   2.58707   2.59232   2.59338
 Alpha virt. eigenvalues --    2.59386   2.60254   2.60713   2.61035   2.61454
 Alpha virt. eigenvalues --    2.61898   2.61975   2.62398   2.63149   2.63476
 Alpha virt. eigenvalues --    2.63619   2.64131   2.65423   2.65867   2.65962
 Alpha virt. eigenvalues --    2.66142   2.66208   2.66875   2.67068   2.67607
 Alpha virt. eigenvalues --    2.67803   2.68410   2.68764   2.69045   2.69626
 Alpha virt. eigenvalues --    2.69978   2.70941   2.72395   2.72709   2.73261
 Alpha virt. eigenvalues --    2.73654   2.73723   2.74052   2.74518   2.74734
 Alpha virt. eigenvalues --    2.74893   2.75316   2.75640   2.75804   2.76816
 Alpha virt. eigenvalues --    2.76875   2.77398   2.77930   2.78249   2.78812
 Alpha virt. eigenvalues --    2.79366   2.79395   2.80122   2.80815   2.80960
 Alpha virt. eigenvalues --    2.81528   2.81673   2.81735   2.81976   2.82287
 Alpha virt. eigenvalues --    2.82476   2.82977   2.83062   2.83355   2.83455
 Alpha virt. eigenvalues --    2.83925   2.84315   2.84396   2.84973   2.85024
 Alpha virt. eigenvalues --    2.85538   2.85738   2.86102   2.86574   2.86778
 Alpha virt. eigenvalues --    2.86999   2.87155   2.87404   2.87625   2.88170
 Alpha virt. eigenvalues --    2.88467   2.88742   2.88900   2.89611   2.89756
 Alpha virt. eigenvalues --    2.90074   2.90305   2.90723   2.91140   2.91370
 Alpha virt. eigenvalues --    2.91382   2.92003   2.92407   2.92469   2.92715
 Alpha virt. eigenvalues --    2.93202   2.93331   2.93525   2.94532   2.95153
 Alpha virt. eigenvalues --    2.95528   2.95886   2.96808   2.96935   2.97097
 Alpha virt. eigenvalues --    2.97698   2.98340   2.99114   2.99275   2.99869
 Alpha virt. eigenvalues --    3.00255   3.00750   3.01466   3.01674   3.02101
 Alpha virt. eigenvalues --    3.02741   3.03235   3.04543   3.04808   3.05590
 Alpha virt. eigenvalues --    3.06137   3.06694   3.07036   3.08000   3.09813
 Alpha virt. eigenvalues --    3.10097   3.10529   3.11526   3.12437   3.13278
 Alpha virt. eigenvalues --    3.15451   3.20185   3.25425   3.25552   3.27678
 Alpha virt. eigenvalues --    3.32281   3.34207   3.36262   3.38969   3.41778
 Alpha virt. eigenvalues --    3.47921   3.48075   3.51531   3.53560   3.54291
 Alpha virt. eigenvalues --    3.56234   3.60441
          Condensed to atoms (all electrons):
 Mulliken charges:
               1
     1  Mg   0.683372
     2  C   -0.062246
     3  C   -0.068543
     4  C   -0.003488
     5  C   -0.093862
     6  N   -0.232548
     7  C   -0.108476
     8  C    0.000886
     9  C    0.021418
    10  C    0.006973
    11  C    0.167998
    12  C    0.087659
    13  C    0.146249
    14  C    0.061324
    15  O   -0.218196
    16  O   -0.266623
    17  N   -0.272491
    18  C    0.101591
    19  C   -0.168876
    20  C    0.038286
    21  C    0.097561
    22  C    0.180327
    23  C   -0.077077
    24  O   -0.162630
    25  C    0.108697
    26  N   -0.220851
    27  C   -0.022644
    28  C    0.056223
    29  C    0.046360
    30  C    0.019194
    31  C    0.114376
    32  C    0.060660
    33  C    0.049351
    34  N   -0.263669
    35  C    0.135303
    36  C   -0.180332
    37  C    0.090533
    38  C    0.138365
    39  C    0.165067
    40  C   -0.033607
    41  O   -0.126051
    42  C    0.139015
    43  C    0.106574
    44  O   -0.197241
    45  O   -0.270714
    46  C    0.202588
    47  C    0.287442
    48  C   -0.113969
    49  C   -0.146580
    50  C    0.167005
    51  C    0.114984
    52  C    0.041037
    53  C    0.097291
    54  C   -0.094906
    55  C    0.097292
    56  C    0.120379
    57  C    0.075113
    58  C    0.068796
    59  C   -0.061946
    60  C    0.105669
    61  C    0.113522
    62  C    0.052778
    63  C    0.131751
    64  C   -0.077487
    65  C    0.107784
    66  C    0.095947
    67  H   -0.052127
    68  H   -0.047336
    69  H   -0.060869
    70  H   -0.023897
    71  H   -0.018867
    72  H   -0.004521
    73  H   -0.003563
    74  H   -0.001463
    75  H   -0.015100
    76  H    0.011458
    77  H   -0.010948
    78  H    0.007032
    79  H    0.014932
    80  H   -0.009187
    81  H    0.015589
    82  H    0.000204
    83  H   -0.000983
    84  H    0.005042
    85  H   -0.019473
    86  H   -0.035195
    87  H   -0.001179
    88  H    0.001999
    89  H    0.003597
    90  H   -0.017437
    91  H   -0.019986
    92  H   -0.010100
    93  H    0.012428
    94  H   -0.016917
    95  H   -0.021793
    96  H    0.018988
    97  H   -0.001983
    98  H   -0.002009
    99  H    0.014091
   100  H    0.037386
   101  H    0.008837
   102  H    0.022575
   103  H    0.020112
   104  H   -0.024217
   105  H   -0.005289
   106  H    0.008729
   107  H   -0.027511
   108  H   -0.010089
   109  H   -0.028321
   110  H   -0.009784
   111  H   -0.023675
   112  H   -0.027562
   113  H   -0.025663
   114  H   -0.028483
   115  H   -0.017049
   116  H   -0.016667
   117  H   -0.026733
   118  H   -0.032749
   119  H   -0.026555
   120  H   -0.019369
   121  H   -0.028037
   122  H   -0.043832
   123  H   -0.033297
   124  H   -0.042594
   125  H   -0.030220
   126  H   -0.025730
   127  H   -0.024185
   128  H   -0.047404
   129  H   -0.039458
   130  H   -0.024620
   131  H   -0.035931
   132  H   -0.040126
   133  H   -0.042271
   134  H   -0.031798
   135  H   -0.032518
   136  H   -0.014693
   137  H   -0.023437
   138  H   -0.018991
   139  H   -0.023584
   140  H   -0.013310
 Sum of Mulliken charges =  -0.00000
 Mulliken charges with hydrogens summed into heavy atoms:
               1
     1  Mg   0.683372
     2  C   -0.062246
     3  C   -0.120670
     4  C   -0.050824
     5  C   -0.154731
     6  N   -0.232548
     7  C   -0.108476
     8  C   -0.023011
     9  C    0.002551
    10  C    0.006973
    11  C    0.158452
    12  C    0.084017
    13  C    0.142333
    14  C    0.061324
    15  O   -0.218196
    16  O   -0.266623
    17  N   -0.272491
    18  C    0.101591
    19  C   -0.168876
    20  C    0.038286
    21  C    0.097561
    22  C    0.201662
    23  C   -0.077077
    24  O   -0.162630
    25  C    0.112961
    26  N   -0.220851
    27  C   -0.022644
    28  C    0.036750
    29  C    0.011165
    30  C    0.019194
    31  C    0.118793
    32  C    0.023237
    33  C    0.034762
    34  N   -0.263669
    35  C    0.135303
    36  C   -0.180332
    37  C    0.090533
    38  C    0.138365
    39  C    0.160278
    40  C   -0.033607
    41  O   -0.126051
    42  C    0.137006
    43  C    0.106574
    44  O   -0.197241
    45  O   -0.270714
    46  C    0.262903
    47  C    0.330128
    48  C   -0.138186
    49  C   -0.146580
    50  C    0.142934
    51  C    0.076574
    52  C    0.007578
    53  C    0.044065
    54  C   -0.123389
    55  C    0.036843
    56  C    0.061074
    57  C    0.027707
    58  C   -0.008334
    59  C   -0.104540
    60  C    0.025535
    61  C    0.026660
    62  C   -0.007773
    63  C    0.049354
    64  C   -0.109285
    65  C    0.037136
    66  C    0.040062
 Electronic spatial extent (au):  <R**2>=         152043.7909
 Charge=              0.0000 electrons
 Dipole moment (field-independent basis, Debye):
    X=             -3.1486    Y=              3.1912    Z=             -0.3642  Tot=              4.4978
 Quadrupole moment (field-independent basis, Debye-Ang):
   XX=           -378.2536   YY=           -428.4220   ZZ=           -407.0121
   XY=             12.9792   XZ=             24.0627   YZ=              3.0684
 Traceless Quadrupole moment (field-independent basis, Debye-Ang):
   XX=             26.3090   YY=            -23.8594   ZZ=             -2.4495
   XY=             12.9792   XZ=             24.0627   YZ=              3.0684
 Octapole moment (field-independent basis, Debye-Ang**2):
  XXX=            428.5182  YYY=             69.6097  ZZZ=             10.6489  XYY=           -250.4377
  XXY=           -253.3172  XXZ=            103.1371  XZZ=             66.0416  YZZ=              9.7270
  YYZ=            -77.4827  XYZ=            -50.5034
 Hexadecapole moment (field-independent basis, Debye-Ang**3):
 XXXX=        -179402.0801 YYYY=         -22830.5461 ZZZZ=          -6938.8500 XXXY=           -404.4098
 XXXZ=           3115.9002 YYYX=            487.3729 YYYZ=            104.8213 ZZZX=             75.6341
 ZZZY=            -30.9952 XXYY=         -35925.6194 XXZZ=         -31759.6468 YYZZ=          -4825.0662
 XXYZ=           -244.0598 YYXZ=            -21.9558 ZZXY=            105.5001
 N-N= 9.219772928650D+03 E-N=-2.543530130233D+04  KE= 2.977934113223D+03
 Leave Link  601 at Wed Apr 27 23:57:54 2022, MaxMem= 10066329600 cpu:              10.7 elap:               0.5
 (Enter /sw/apps/gaussian-16.0/g16/l9999.exe)
 1\1\GINC-BP1-COMPUTE183\SP\RBLYP TD-FC\def2SVP\C55H74Mg1N4O6\OF15641\2
 7-Apr-2022\0\\#p blyp/Def2SVP td=(nstates=5)\\step_1351_chromophore_16
  TDDFT with blyp functional\\0,1\Mg,0,40.463,41.583,26.886\C,0,39.327,
 43.935,29.328\C,0,41.222,39.433,29.531\C,0,41.725,39.592,24.715\C,0,40
 .071,44.106,24.438\N,0,40.298,41.681,29.191\C,0,39.759,42.776,29.93\C,
 0,39.758,42.355,31.402\C,0,40.218,40.873,31.484\C,0,40.707,40.635,30.0
 06\C,0,41.172,40.547,32.62\C,0,38.361,42.697,32.124\C,0,37.956,41.848,
 33.361\C,0,37.286,42.589,34.546\O,0,36.363,43.424,34.447\O,0,37.743,42
 .098,35.737\N,0,41.299,39.669,27.106\C,0,41.578,38.968,28.233\C,0,42.0
 72,37.636,27.89\C,0,42.149,37.649,26.438\C,0,41.742,38.99,26.015\C,0,4
 2.475,36.595,28.877\C,0,42.449,36.538,25.445\O,0,42.574,36.806,24.258\
 C,0,42.724,35.039,25.954\N,0,40.767,41.809,24.831\C,0,41.316,40.782,24
 .132\C,0,41.462,41.097,22.661\C,0,40.72,42.464,22.557\C,0,40.476,42.83
 2,24.012\C,0,42.872,41.052,21.923\C,0,39.454,42.523,21.646\C,0,38.202,
 41.807,22.186\N,0,39.931,43.602,26.861\C,0,39.781,44.425,25.773\C,0,39
 .221,45.669,26.283\C,0,39.09,45.52,27.647\C,0,39.457,44.2,27.989\C,0,3
 8.961,46.919,25.499\C,0,38.707,46.261,28.809\O,0,38.4,47.434,28.973\C,
 0,38.809,45.248,29.973\C,0,39.657,45.754,30.975\O,0,40.859,46.025,30.8
 27\O,0,38.84,46.036,32.045\C,0,39.542,46.642,33.196\C,0,37.327,42.998,
 36.854\C,0,37.979,42.369,38.115\C,0,37.641,42.687,39.4\C,0,36.579,43.6
 11,39.877\C,0,38.394,42.033,40.557\C,0,37.527,41.36,41.656\C,0,38.238,
 40.007,42.034\C,0,38.215,39.739,43.57\C,0,39.558,40.096,44.25\C,0,37.7
 6,38.293,43.987\C,0,36.215,38.332,44.309\C,0,35.423,37.269,43.482\C,0,
 34.678,36.174,44.235\C,0,34.322,34.924,43.476\C,0,33.478,36.758,44.925
 \C,0,33.348,36.217,46.409\C,0,32.032,35.511,46.733\C,0,31.427,36.146,4
 8.013\C,0,30.152,36.948,47.749\C,0,31.16,35.053,49.038\H,0,41.159,38.5
 83,30.213\H,0,42.265,39.035,23.946\H,0,39.966,44.899,23.696\H,0,40.543
 ,43.012,31.773\H,0,39.251,40.37,31.484\H,0,42.141,40.259,32.213\H,0,40
 .727,39.734,33.194\H,0,41.305,41.395,33.292\H,0,37.639,42.566,31.318\H
 ,0,38.403,43.724,32.488\H,0,38.792,41.361,33.862\H,0,37.175,41.197,32.
 967\H,0,41.636,35.905,28.79\H,0,42.49,37.035,29.874\H,0,43.455,36.182,
 28.636\H,0,42.83,34.329,25.134\H,0,42.014,34.767,26.736\H,0,43.704,35.
 113,26.425\H,0,40.872,40.36,22.116\H,0,41.352,43.244,22.134\H,0,43.72,
 41.036,22.607\H,0,43.007,41.846,21.188\H,0,42.865,40.063,21.464\H,0,39
 .645,42.069,20.673\H,0,39.114,43.55,21.51\H,0,37.353,42.452,21.959\H,0
 ,38.313,41.502,23.227\H,0,38.025,40.91,21.591\H,0,39.384,46.823,24.499
 \H,0,39.317,47.725,26.142\H,0,37.925,47.192,25.299\H,0,37.849,44.948,3
 0.394\H,0,38.987,47.521,33.525\H,0,40.557,46.963,32.962\H,0,39.409,45.
 936,34.015\H,0,36.242,42.937,36.937\H,0,37.661,44.032,36.765\H,0,38.66
 1,41.545,37.909\H,0,36.994,44.483,40.382\H,0,35.872,43.121,40.547\H,0,
 36.054,43.995,39.003\H,0,39.096,42.726,41.02\H,0,38.972,41.228,40.103\
 H,0,36.497,41.065,41.456\H,0,37.529,42.033,42.514\H,0,39.278,40.066,41
 .71\H,0,37.776,39.215,41.444\H,0,37.544,40.431,44.078\H,0,40.087,39.17
 1,44.481\H,0,39.426,40.664,45.171\H,0,40.176,40.71,43.595\H,0,38.312,3
 7.897,44.839\H,0,37.951,37.631,43.143\H,0,35.684,39.233,44.001\H,0,36.
 011,38.119,45.358\H,0,36.164,36.671,42.951\H,0,34.715,37.794,42.841\H,
 0,35.383,35.794,44.974\H,0,33.382,34.983,42.927\H,0,34.116,34.04,44.08
 1\H,0,35.105,34.665,42.764\H,0,32.563,36.403,44.452\H,0,33.437,37.844,
 44.846\H,0,33.612,37.029,47.086\H,0,34.172,35.509,46.496\H,0,32.19,34.
 433,46.719\H,0,31.329,35.568,45.903\H,0,32.072,36.859,48.527\H,0,29.32
 3,36.718,48.419\H,0,29.797,36.795,46.73\H,0,30.278,37.999,48.008\H,0,3
 0.968,35.624,49.947\H,0,32.004,34.394,49.241\H,0,30.375,34.415,48.633\
 \Version=ES64L-G16RevA.03\State=1-A\HF=-3007.3766934\RMSD=5.704e-09\PG
 =C01 [X(C55H74Mg1N4O6)]\\@


 THE SCIENTIFIC THEORIST IS NOT TO BE ENVIED. FOR NATURE, OR MORE
 PRECISELY EXPERIMENT, IS AN INEXORABLE AND NOT VERY FRIENDLY JUDGE OF HIS
 WORK.  IT NEVER SAYS "YES" TO A THEORY. IN THE MOST FAVORABLE CASES
 IT SAYS "MAYBE", AND IN THE GREAT MAJORITY OF CASES SIMPLY "NO"...
 PROBABLY EVERY THEORY WILL SOME DAY EXPERIENCE ITS "NO" - MOST
 THEORIES, SOON AFTER CONCEPTION.  -- A.EINSTEIN, NOV 11, 1922.
 Job cpu time:       0 days  7 hours 16 minutes 41.6 seconds.
 Elapsed time:       0 days  0 hours 18 minutes 14.7 seconds.
 File lengths (MBytes):  RWF=   8014 Int=      0 D2E=      0 Chk=    390 Scr=      1
 Normal termination of Gaussian 16 at Wed Apr 27 23:57:54 2022.
