 Entering Gaussian System, Link 0=g16
 Initial command:
 /sw/apps/gaussian-16.0/g16/l1.exe "/tmp/Gau-117281.inp" -scrdir="/tmp/"
 Entering Link 1 = /sw/apps/gaussian-16.0/g16/l1.exe PID=    117282.
  
 Copyright (c) 1988,1990,1992,1993,1995,1998,2003,2009,2016,
            Gaussian, Inc.  All Rights Reserved.
  
 This is part of the Gaussian(R) 16 program.  It is based on
 the Gaussian(R) 09 system (copyright 2009, Gaussian, Inc.),
 the Gaussian(R) 03 system (copyright 2003, Gaussian, Inc.),
 the Gaussian(R) 98 system (copyright 1998, Gaussian, Inc.),
 the Gaussian(R) 94 system (copyright 1995, Gaussian, Inc.),
 the Gaussian 92(TM) system (copyright 1992, Gaussian, Inc.),
 the Gaussian 90(TM) system (copyright 1990, Gaussian, Inc.),
 the Gaussian 88(TM) system (copyright 1988, Gaussian, Inc.),
 the Gaussian 86(TM) system (copyright 1986, Carnegie Mellon
 University), and the Gaussian 82(TM) system (copyright 1983,
 Carnegie Mellon University). Gaussian is a federally registered
 trademark of Gaussian, Inc.
  
 This software contains proprietary and confidential information,
 including trade secrets, belonging to Gaussian, Inc.
  
 This software is provided under written license and may be
 used, copied, transmitted, or stored only in accord with that
 written license.
  
 The following legend is applicable only to US Government
 contracts under FAR:
  
                    RESTRICTED RIGHTS LEGEND
  
 Use, reproduction and disclosure by the US Government is
 subject to restrictions as set forth in subparagraphs (a)
 and (c) of the Commercial Computer Software - Restricted
 Rights clause in FAR 52.227-19.
  
 Gaussian, Inc.
 340 Quinnipiac St., Bldg. 40, Wallingford CT 06492
  
  
 ---------------------------------------------------------------
 Warning -- This program may not be used in any manner that
 competes with the business of Gaussian, Inc. or will provide
 assistance to any competitor of Gaussian, Inc.  The licensee
 of this program is prohibited from giving any competitor of
 Gaussian, Inc. access to this program.  By using this program,
 the user acknowledges that Gaussian, Inc. is engaged in the
 business of creating and licensing software in the field of
 computational chemistry and represents and warrants to the
 licensee that it is not a competitor of Gaussian, Inc. and that
 it will not use this program in any manner prohibited above.
 ---------------------------------------------------------------
  

 Cite this work as:
 Gaussian 16, Revision A.03,
 M. J. Frisch, G. W. Trucks, H. B. Schlegel, G. E. Scuseria, 
 M. A. Robb, J. R. Cheeseman, G. Scalmani, V. Barone, 
 G. A. Petersson, H. Nakatsuji, X. Li, M. Caricato, A. V. Marenich, 
 J. Bloino, B. G. Janesko, R. Gomperts, B. Mennucci, H. P. Hratchian, 
 J. V. Ortiz, A. F. Izmaylov, J. L. Sonnenberg, D. Williams-Young, 
 F. Ding, F. Lipparini, F. Egidi, J. Goings, B. Peng, A. Petrone, 
 T. Henderson, D. Ranasinghe, V. G. Zakrzewski, J. Gao, N. Rega, 
 G. Zheng, W. Liang, M. Hada, M. Ehara, K. Toyota, R. Fukuda, 
 J. Hasegawa, M. Ishida, T. Nakajima, Y. Honda, O. Kitao, H. Nakai, 
 T. Vreven, K. Throssell, J. A. Montgomery, Jr., J. E. Peralta, 
 F. Ogliaro, M. J. Bearpark, J. J. Heyd, E. N. Brothers, K. N. Kudin, 
 V. N. Staroverov, T. A. Keith, R. Kobayashi, J. Normand, 
 K. Raghavachari, A. P. Rendell, J. C. Burant, S. S. Iyengar, 
 J. Tomasi, M. Cossi, J. M. Millam, M. Klene, C. Adamo, R. Cammi, 
 J. W. Ochterski, R. L. Martin, K. Morokuma, O. Farkas, 
 J. B. Foresman, and D. J. Fox, Gaussian, Inc., Wallingford CT, 2016.
 
 ******************************************
 Gaussian 16:  ES64L-G16RevA.03 25-Dec-2016
                27-Apr-2022 
 ******************************************
 %nproc=24
 Will use up to   24 processors via shared memory.
 %mem=75GB
 ---------------------------------
 #p PBE1PBE/Def2SVP td=(nstates=5)
 ---------------------------------
 1/38=1,172=1/1;
 2/12=2,17=6,18=5,40=1/2;
 3/5=43,7=101,11=9,25=1,30=1,74=-13/1,2,3,8;
 4//1;
 5/5=2,38=5/2;
 8/6=1,10=1,108=5/1;
 9/41=5,42=1,70=2/14;
 6/7=2,8=2,9=2,10=2/1;
 99/5=1,9=1/99;
 Leave Link    1 at Wed Apr 27 22:35:55 2022, MaxMem= 10066329600 cpu:               0.7 elap:               0.0
 (Enter /sw/apps/gaussian-16.0/g16/l101.exe)
 ------------------------------------------------------
 step_1351_chromophore_16 TDDFT with PBE1PBE functional
 ------------------------------------------------------
 Symbolic Z-matrix:
 Charge =  0 Multiplicity = 1
 Mg                    40.463    41.583    26.886 
 C                     39.327    43.935    29.328 
 C                     41.222    39.433    29.531 
 C                     41.725    39.592    24.715 
 C                     40.071    44.106    24.438 
 N                     40.298    41.681    29.191 
 C                     39.759    42.776    29.93 
 C                     39.758    42.355    31.402 
 C                     40.218    40.873    31.484 
 C                     40.707    40.635    30.006 
 C                     41.172    40.547    32.62 
 C                     38.361    42.697    32.124 
 C                     37.956    41.848    33.361 
 C                     37.286    42.589    34.546 
 O                     36.363    43.424    34.447 
 O                     37.743    42.098    35.737 
 N                     41.299    39.669    27.106 
 C                     41.578    38.968    28.233 
 C                     42.072    37.636    27.89 
 C                     42.149    37.649    26.438 
 C                     41.742    38.99     26.015 
 C                     42.475    36.595    28.877 
 C                     42.449    36.538    25.445 
 O                     42.574    36.806    24.258 
 C                     42.724    35.039    25.954 
 N                     40.767    41.809    24.831 
 C                     41.316    40.782    24.132 
 C                     41.462    41.097    22.661 
 C                     40.72     42.464    22.557 
 C                     40.476    42.832    24.012 
 C                     42.872    41.052    21.923 
 C                     39.454    42.523    21.646 
 C                     38.202    41.807    22.186 
 N                     39.931    43.602    26.861 
 C                     39.781    44.425    25.773 
 C                     39.221    45.669    26.283 
 C                     39.09     45.52     27.647 
 C                     39.457    44.2      27.989 
 C                     38.961    46.919    25.499 
 C                     38.707    46.261    28.809 
 O                     38.4      47.434    28.973 
 C                     38.809    45.248    29.973 
 C                     39.657    45.754    30.975 
 O                     40.859    46.025    30.827 
 O                     38.84     46.036    32.045 
 C                     39.542    46.642    33.196 
 C                     37.327    42.998    36.854 
 C                     37.979    42.369    38.115 
 C                     37.641    42.687    39.4 
 C                     36.579    43.611    39.877 
 C                     38.394    42.033    40.557 
 C                     37.527    41.36     41.656 
 C                     38.238    40.007    42.034 
 C                     38.215    39.739    43.57 
 C                     39.558    40.096    44.25 
 C                     37.76     38.293    43.987 
 C                     36.215    38.332    44.309 
 C                     35.423    37.269    43.482 
 C                     34.678    36.174    44.235 
 C                     34.322    34.924    43.476 
 C                     33.478    36.758    44.925 
 C                     33.348    36.217    46.409 
 C                     32.032    35.511    46.733 
 C                     31.427    36.146    48.013 
 C                     30.152    36.948    47.749 
 C                     31.16     35.053    49.038 
 H                     41.159    38.583    30.213 
 H                     42.265    39.035    23.946 
 H                     39.966    44.899    23.696 
 H                     40.543    43.012    31.773 
 H                     39.251    40.37     31.484 
 H                     42.141    40.259    32.213 
 H                     40.727    39.734    33.194 
 H                     41.305    41.395    33.292 
 H                     37.639    42.566    31.318 
 H                     38.403    43.724    32.488 
 H                     38.792    41.361    33.862 
 H                     37.175    41.197    32.967 
 H                     41.636    35.905    28.79 
 H                     42.49     37.035    29.874 
 H                     43.455    36.182    28.636 
 H                     42.83     34.329    25.134 
 H                     42.014    34.767    26.736 
 H                     43.704    35.113    26.425 
 H                     40.872    40.36     22.116 
 H                     41.352    43.244    22.134 
 H                     43.72     41.036    22.607 
 H                     43.007    41.846    21.188 
 H                     42.865    40.063    21.464 
 H                     39.645    42.069    20.673 
 H                     39.114    43.55     21.51 
 H                     37.353    42.452    21.959 
 H                     38.313    41.502    23.227 
 H                     38.025    40.91     21.591 
 H                     39.384    46.823    24.499 
 H                     39.317    47.725    26.142 
 H                     37.925    47.192    25.299 
 H                     37.849    44.948    30.394 
 H                     38.987    47.521    33.525 
 H                     40.557    46.963    32.962 
 H                     39.409    45.936    34.015 
 H                     36.242    42.937    36.937 
 H                     37.661    44.032    36.765 
 H                     38.661    41.545    37.909 
 H                     36.994    44.483    40.382 
 H                     35.872    43.121    40.547 
 H                     36.054    43.995    39.003 
 H                     39.096    42.726    41.02 
 H                     38.972    41.228    40.103 
 H                     36.497    41.065    41.456 
 H                     37.529    42.033    42.514 
 H                     39.278    40.066    41.71 
 H                     37.776    39.215    41.444 
 H                     37.544    40.431    44.078 
 H                     40.087    39.171    44.481 
 H                     39.426    40.664    45.171 
 H                     40.176    40.71     43.595 
 H                     38.312    37.897    44.839 
 H                     37.951    37.631    43.143 
 H                     35.684    39.233    44.001 
 H                     36.011    38.119    45.358 
 H                     36.164    36.671    42.951 
 H                     34.715    37.794    42.841 
 H                     35.383    35.794    44.974 
 H                     33.382    34.983    42.927 
 H                     34.116    34.04     44.081 
 H                     35.105    34.665    42.764 
 H                     32.563    36.403    44.452 
 H                     33.437    37.844    44.846 
 H                     33.612    37.029    47.086 
 H                     34.172    35.509    46.496 
 H                     32.19     34.433    46.719 
 H                     31.329    35.568    45.903 
 H                     32.072    36.859    48.527 
 H                     29.323    36.718    48.419 
 H                     29.797    36.795    46.73 
 H                     30.278    37.999    48.008 
 H                     30.968    35.624    49.947 
 H                     32.004    34.394    49.241 
 H                     30.375    34.415    48.633 
 
 ITRead=  0  0  0  0  0  0  0  0  0  0  0  0  0  0  0  0  0  0  0  0
 ITRead=  0  0  0  0  0  0  0  0  0  0  0  0  0  0  0  0  0  0  0  0
 ITRead=  0  0  0  0  0  0  0  0  0  0  0  0  0  0  0  0  0  0  0  0
 ITRead=  0  0  0  0  0  0  0  0  0  0  0  0  0  0  0  0  0  0  0  0
 ITRead=  0  0  0  0  0  0  0  0  0  0  0  0  0  0  0  0  0  0  0  0
 ITRead=  0  0  0  0  0  0  0  0  0  0  0  0  0  0  0  0  0  0  0  0
 ITRead=  0  0  0  0  0  0  0  0  0  0  0  0  0  0  0  0  0  0  0  0
 MicOpt= -1 -1 -1 -1 -1 -1 -1 -1 -1 -1 -1 -1 -1 -1 -1 -1 -1 -1 -1 -1
 MicOpt= -1 -1 -1 -1 -1 -1 -1 -1 -1 -1 -1 -1 -1 -1 -1 -1 -1 -1 -1 -1
 MicOpt= -1 -1 -1 -1 -1 -1 -1 -1 -1 -1 -1 -1 -1 -1 -1 -1 -1 -1 -1 -1
 MicOpt= -1 -1 -1 -1 -1 -1 -1 -1 -1 -1 -1 -1 -1 -1 -1 -1 -1 -1 -1 -1
 MicOpt= -1 -1 -1 -1 -1 -1 -1 -1 -1 -1 -1 -1 -1 -1 -1 -1 -1 -1 -1 -1
 MicOpt= -1 -1 -1 -1 -1 -1 -1 -1 -1 -1 -1 -1 -1 -1 -1 -1 -1 -1 -1 -1
 MicOpt= -1 -1 -1 -1 -1 -1 -1 -1 -1 -1 -1 -1 -1 -1 -1 -1 -1 -1 -1 -1
 NAtoms=    140 NQM=      140 NQMF=       0 NMMI=      0 NMMIF=      0
                NMic=       0 NMicF=      0.
                    Isotopes and Nuclear Properties:
 (Nuclear quadrupole moments (NQMom) in fm**2, nuclear magnetic moments (NMagM)
  in nuclear magnetons)

  Atom         1           2           3           4           5           6           7           8           9          10
 IAtWgt=          24          12          12          12          12          14          12          12          12          12
 AtmWgt=  23.9850450  12.0000000  12.0000000  12.0000000  12.0000000  14.0030740  12.0000000  12.0000000  12.0000000  12.0000000
 NucSpn=           0           0           0           0           0           2           0           0           0           0
 AtZEff=  -0.0000000  -0.0000000  -0.0000000  -0.0000000  -0.0000000  -0.0000000  -0.0000000  -0.0000000  -0.0000000  -0.0000000
 NQMom=    0.0000000   0.0000000   0.0000000   0.0000000   0.0000000   2.0440000   0.0000000   0.0000000   0.0000000   0.0000000
 NMagM=    0.0000000   0.0000000   0.0000000   0.0000000   0.0000000   0.4037610   0.0000000   0.0000000   0.0000000   0.0000000
 AtZNuc=  12.0000000   6.0000000   6.0000000   6.0000000   6.0000000   7.0000000   6.0000000   6.0000000   6.0000000   6.0000000

  Atom        11          12          13          14          15          16          17          18          19          20
 IAtWgt=          12          12          12          12          16          16          14          12          12          12
 AtmWgt=  12.0000000  12.0000000  12.0000000  12.0000000  15.9949146  15.9949146  14.0030740  12.0000000  12.0000000  12.0000000
 NucSpn=           0           0           0           0           0           0           2           0           0           0
 AtZEff=  -0.0000000  -0.0000000  -0.0000000  -0.0000000  -0.0000000  -0.0000000  -0.0000000  -0.0000000  -0.0000000  -0.0000000
 NQMom=    0.0000000   0.0000000   0.0000000   0.0000000   0.0000000   0.0000000   2.0440000   0.0000000   0.0000000   0.0000000
 NMagM=    0.0000000   0.0000000   0.0000000   0.0000000   0.0000000   0.0000000   0.4037610   0.0000000   0.0000000   0.0000000
 AtZNuc=   6.0000000   6.0000000   6.0000000   6.0000000   8.0000000   8.0000000   7.0000000   6.0000000   6.0000000   6.0000000

  Atom        21          22          23          24          25          26          27          28          29          30
 IAtWgt=          12          12          12          16          12          14          12          12          12          12
 AtmWgt=  12.0000000  12.0000000  12.0000000  15.9949146  12.0000000  14.0030740  12.0000000  12.0000000  12.0000000  12.0000000
 NucSpn=           0           0           0           0           0           2           0           0           0           0
 AtZEff=  -0.0000000  -0.0000000  -0.0000000  -0.0000000  -0.0000000  -0.0000000  -0.0000000  -0.0000000  -0.0000000  -0.0000000
 NQMom=    0.0000000   0.0000000   0.0000000   0.0000000   0.0000000   2.0440000   0.0000000   0.0000000   0.0000000   0.0000000
 NMagM=    0.0000000   0.0000000   0.0000000   0.0000000   0.0000000   0.4037610   0.0000000   0.0000000   0.0000000   0.0000000
 AtZNuc=   6.0000000   6.0000000   6.0000000   8.0000000   6.0000000   7.0000000   6.0000000   6.0000000   6.0000000   6.0000000

  Atom        31          32          33          34          35          36          37          38          39          40
 IAtWgt=          12          12          12          14          12          12          12          12          12          12
 AtmWgt=  12.0000000  12.0000000  12.0000000  14.0030740  12.0000000  12.0000000  12.0000000  12.0000000  12.0000000  12.0000000
 NucSpn=           0           0           0           2           0           0           0           0           0           0
 AtZEff=  -0.0000000  -0.0000000  -0.0000000  -0.0000000  -0.0000000  -0.0000000  -0.0000000  -0.0000000  -0.0000000  -0.0000000
 NQMom=    0.0000000   0.0000000   0.0000000   2.0440000   0.0000000   0.0000000   0.0000000   0.0000000   0.0000000   0.0000000
 NMagM=    0.0000000   0.0000000   0.0000000   0.4037610   0.0000000   0.0000000   0.0000000   0.0000000   0.0000000   0.0000000
 AtZNuc=   6.0000000   6.0000000   6.0000000   7.0000000   6.0000000   6.0000000   6.0000000   6.0000000   6.0000000   6.0000000

  Atom        41          42          43          44          45          46          47          48          49          50
 IAtWgt=          16          12          12          16          16          12          12          12          12          12
 AtmWgt=  15.9949146  12.0000000  12.0000000  15.9949146  15.9949146  12.0000000  12.0000000  12.0000000  12.0000000  12.0000000
 NucSpn=           0           0           0           0           0           0           0           0           0           0
 AtZEff=  -0.0000000  -0.0000000  -0.0000000  -0.0000000  -0.0000000  -0.0000000  -0.0000000  -0.0000000  -0.0000000  -0.0000000
 NQMom=    0.0000000   0.0000000   0.0000000   0.0000000   0.0000000   0.0000000   0.0000000   0.0000000   0.0000000   0.0000000
 NMagM=    0.0000000   0.0000000   0.0000000   0.0000000   0.0000000   0.0000000   0.0000000   0.0000000   0.0000000   0.0000000
 AtZNuc=   8.0000000   6.0000000   6.0000000   8.0000000   8.0000000   6.0000000   6.0000000   6.0000000   6.0000000   6.0000000

  Atom        51          52          53          54          55          56          57          58          59          60
 IAtWgt=          12          12          12          12          12          12          12          12          12          12
 AtmWgt=  12.0000000  12.0000000  12.0000000  12.0000000  12.0000000  12.0000000  12.0000000  12.0000000  12.0000000  12.0000000
 NucSpn=           0           0           0           0           0           0           0           0           0           0
 AtZEff=  -0.0000000  -0.0000000  -0.0000000  -0.0000000  -0.0000000  -0.0000000  -0.0000000  -0.0000000  -0.0000000  -0.0000000
 NQMom=    0.0000000   0.0000000   0.0000000   0.0000000   0.0000000   0.0000000   0.0000000   0.0000000   0.0000000   0.0000000
 NMagM=    0.0000000   0.0000000   0.0000000   0.0000000   0.0000000   0.0000000   0.0000000   0.0000000   0.0000000   0.0000000
 AtZNuc=   6.0000000   6.0000000   6.0000000   6.0000000   6.0000000   6.0000000   6.0000000   6.0000000   6.0000000   6.0000000

  Atom        61          62          63          64          65          66          67          68          69          70
 IAtWgt=          12          12          12          12          12          12           1           1           1           1
 AtmWgt=  12.0000000  12.0000000  12.0000000  12.0000000  12.0000000  12.0000000   1.0078250   1.0078250   1.0078250   1.0078250
 NucSpn=           0           0           0           0           0           0           1           1           1           1
 AtZEff=  -0.0000000  -0.0000000  -0.0000000  -0.0000000  -0.0000000  -0.0000000  -0.0000000  -0.0000000  -0.0000000  -0.0000000
 NQMom=    0.0000000   0.0000000   0.0000000   0.0000000   0.0000000   0.0000000   0.0000000   0.0000000   0.0000000   0.0000000
 NMagM=    0.0000000   0.0000000   0.0000000   0.0000000   0.0000000   0.0000000   2.7928460   2.7928460   2.7928460   2.7928460
 AtZNuc=   6.0000000   6.0000000   6.0000000   6.0000000   6.0000000   6.0000000   1.0000000   1.0000000   1.0000000   1.0000000

  Atom        71          72          73          74          75          76          77          78          79          80
 IAtWgt=           1           1           1           1           1           1           1           1           1           1
 AtmWgt=   1.0078250   1.0078250   1.0078250   1.0078250   1.0078250   1.0078250   1.0078250   1.0078250   1.0078250   1.0078250
 NucSpn=           1           1           1           1           1           1           1           1           1           1
 AtZEff=  -0.0000000  -0.0000000  -0.0000000  -0.0000000  -0.0000000  -0.0000000  -0.0000000  -0.0000000  -0.0000000  -0.0000000
 NQMom=    0.0000000   0.0000000   0.0000000   0.0000000   0.0000000   0.0000000   0.0000000   0.0000000   0.0000000   0.0000000
 NMagM=    2.7928460   2.7928460   2.7928460   2.7928460   2.7928460   2.7928460   2.7928460   2.7928460   2.7928460   2.7928460
 AtZNuc=   1.0000000   1.0000000   1.0000000   1.0000000   1.0000000   1.0000000   1.0000000   1.0000000   1.0000000   1.0000000

  Atom        81          82          83          84          85          86          87          88          89          90
 IAtWgt=           1           1           1           1           1           1           1           1           1           1
 AtmWgt=   1.0078250   1.0078250   1.0078250   1.0078250   1.0078250   1.0078250   1.0078250   1.0078250   1.0078250   1.0078250
 NucSpn=           1           1           1           1           1           1           1           1           1           1
 AtZEff=  -0.0000000  -0.0000000  -0.0000000  -0.0000000  -0.0000000  -0.0000000  -0.0000000  -0.0000000  -0.0000000  -0.0000000
 NQMom=    0.0000000   0.0000000   0.0000000   0.0000000   0.0000000   0.0000000   0.0000000   0.0000000   0.0000000   0.0000000
 NMagM=    2.7928460   2.7928460   2.7928460   2.7928460   2.7928460   2.7928460   2.7928460   2.7928460   2.7928460   2.7928460
 AtZNuc=   1.0000000   1.0000000   1.0000000   1.0000000   1.0000000   1.0000000   1.0000000   1.0000000   1.0000000   1.0000000

  Atom        91          92          93          94          95          96          97          98          99         100
 IAtWgt=           1           1           1           1           1           1           1           1           1           1
 AtmWgt=   1.0078250   1.0078250   1.0078250   1.0078250   1.0078250   1.0078250   1.0078250   1.0078250   1.0078250   1.0078250
 NucSpn=           1           1           1           1           1           1           1           1           1           1
 AtZEff=  -0.0000000  -0.0000000  -0.0000000  -0.0000000  -0.0000000  -0.0000000  -0.0000000  -0.0000000  -0.0000000  -0.0000000
 NQMom=    0.0000000   0.0000000   0.0000000   0.0000000   0.0000000   0.0000000   0.0000000   0.0000000   0.0000000   0.0000000
 NMagM=    2.7928460   2.7928460   2.7928460   2.7928460   2.7928460   2.7928460   2.7928460   2.7928460   2.7928460   2.7928460
 AtZNuc=   1.0000000   1.0000000   1.0000000   1.0000000   1.0000000   1.0000000   1.0000000   1.0000000   1.0000000   1.0000000

  Atom       101         102         103         104         105         106         107         108         109         110
 IAtWgt=           1           1           1           1           1           1           1           1           1           1
 AtmWgt=   1.0078250   1.0078250   1.0078250   1.0078250   1.0078250   1.0078250   1.0078250   1.0078250   1.0078250   1.0078250
 NucSpn=           1           1           1           1           1           1           1           1           1           1
 AtZEff=  -0.0000000  -0.0000000  -0.0000000  -0.0000000  -0.0000000  -0.0000000  -0.0000000  -0.0000000  -0.0000000  -0.0000000
 NQMom=    0.0000000   0.0000000   0.0000000   0.0000000   0.0000000   0.0000000   0.0000000   0.0000000   0.0000000   0.0000000
 NMagM=    2.7928460   2.7928460   2.7928460   2.7928460   2.7928460   2.7928460   2.7928460   2.7928460   2.7928460   2.7928460
 AtZNuc=   1.0000000   1.0000000   1.0000000   1.0000000   1.0000000   1.0000000   1.0000000   1.0000000   1.0000000   1.0000000

  Atom       111         112         113         114         115         116         117         118         119         120
 IAtWgt=           1           1           1           1           1           1           1           1           1           1
 AtmWgt=   1.0078250   1.0078250   1.0078250   1.0078250   1.0078250   1.0078250   1.0078250   1.0078250   1.0078250   1.0078250
 NucSpn=           1           1           1           1           1           1           1           1           1           1
 AtZEff=  -0.0000000  -0.0000000  -0.0000000  -0.0000000  -0.0000000  -0.0000000  -0.0000000  -0.0000000  -0.0000000  -0.0000000
 NQMom=    0.0000000   0.0000000   0.0000000   0.0000000   0.0000000   0.0000000   0.0000000   0.0000000   0.0000000   0.0000000
 NMagM=    2.7928460   2.7928460   2.7928460   2.7928460   2.7928460   2.7928460   2.7928460   2.7928460   2.7928460   2.7928460
 AtZNuc=   1.0000000   1.0000000   1.0000000   1.0000000   1.0000000   1.0000000   1.0000000   1.0000000   1.0000000   1.0000000

  Atom       121         122         123         124         125         126         127         128         129         130
 IAtWgt=           1           1           1           1           1           1           1           1           1           1
 AtmWgt=   1.0078250   1.0078250   1.0078250   1.0078250   1.0078250   1.0078250   1.0078250   1.0078250   1.0078250   1.0078250
 NucSpn=           1           1           1           1           1           1           1           1           1           1
 AtZEff=  -0.0000000  -0.0000000  -0.0000000  -0.0000000  -0.0000000  -0.0000000  -0.0000000  -0.0000000  -0.0000000  -0.0000000
 NQMom=    0.0000000   0.0000000   0.0000000   0.0000000   0.0000000   0.0000000   0.0000000   0.0000000   0.0000000   0.0000000
 NMagM=    2.7928460   2.7928460   2.7928460   2.7928460   2.7928460   2.7928460   2.7928460   2.7928460   2.7928460   2.7928460
 AtZNuc=   1.0000000   1.0000000   1.0000000   1.0000000   1.0000000   1.0000000   1.0000000   1.0000000   1.0000000   1.0000000

  Atom       131         132         133         134         135         136         137         138         139         140
 IAtWgt=           1           1           1           1           1           1           1           1           1           1
 AtmWgt=   1.0078250   1.0078250   1.0078250   1.0078250   1.0078250   1.0078250   1.0078250   1.0078250   1.0078250   1.0078250
 NucSpn=           1           1           1           1           1           1           1           1           1           1
 AtZEff=  -0.0000000  -0.0000000  -0.0000000  -0.0000000  -0.0000000  -0.0000000  -0.0000000  -0.0000000  -0.0000000  -0.0000000
 NQMom=    0.0000000   0.0000000   0.0000000   0.0000000   0.0000000   0.0000000   0.0000000   0.0000000   0.0000000   0.0000000
 NMagM=    2.7928460   2.7928460   2.7928460   2.7928460   2.7928460   2.7928460   2.7928460   2.7928460   2.7928460   2.7928460
 AtZNuc=   1.0000000   1.0000000   1.0000000   1.0000000   1.0000000   1.0000000   1.0000000   1.0000000   1.0000000   1.0000000
 Leave Link  101 at Wed Apr 27 22:35:55 2022, MaxMem= 10066329600 cpu:               3.4 elap:               0.2
 (Enter /sw/apps/gaussian-16.0/g16/l202.exe)
 Stoichiometry    C55H74MgN4O6
 Framework group  C1[X(C55H74MgN4O6)]
 Deg. of freedom   414
 Full point group                 C1      NOp   1
 Largest Abelian subgroup         C1      NOp   1
 Largest concise Abelian subgroup C1      NOp   1
                         Standard orientation:                         
 ---------------------------------------------------------------------
 Center     Atomic      Atomic             Coordinates (Angstroms)
 Number     Number       Type             X           Y           Z
 ---------------------------------------------------------------------
      1         12           0        6.406429    0.646559    0.215296
      2          6           0        4.238638   -2.197000    0.240094
      3          6           0        3.742510    2.475935   -1.108155
      4          6           0        8.427555    3.118801   -0.054961
      5          6           0        9.066587   -1.514955    1.088973
      6          7           0        4.220076    0.181672   -0.379342
      7          6           0        3.580083   -1.084813   -0.230708
      8          6           0        2.121591   -0.892934   -0.654983
      9          6           0        1.895569    0.615965   -0.949579
     10          6           0        3.377216    1.148274   -0.909331
     11          6           0        1.052504    0.923180   -2.175037
     12          6           0        1.098363   -1.564785    0.389755
     13          6           0       -0.342370   -0.987631    0.468344
     14          6           0       -1.506597   -1.996841    0.636495
     15          8           0       -1.526423   -2.949060    1.443862
     16          8           0       -2.580074   -1.619196   -0.120765
     17          7           0        6.079416    2.618418   -0.429319
     18          6           0        4.972645    3.180836   -0.975319
     19          6           0        5.183187    4.612180   -1.182285
     20          6           0        6.566868    4.827706   -0.790652
     21          6           0        7.100431    3.515651   -0.420946
     22          6           0        4.178603    5.547392   -1.762328
     23          6           0        7.370630    6.107912   -0.631252
     24          8           0        8.569740    6.043444   -0.398020
     25          6           0        6.687084    7.539399   -0.886829
     26          7           0        8.462484    0.781471    0.563082
     27          6           0        9.081118    1.977378    0.384674
     28          6           0       10.561189    1.912703    0.683987
     29          6           0       10.702132    0.472505    1.263671
     30          6           0        9.339597   -0.142578    0.985904
     31          6           0       11.660454    2.299513   -0.400800
     32          6           0       11.190878    0.340569    2.740112
     33          6           0       10.177018    0.751251    3.824173
     34          7           0        6.661264   -1.406278    0.499774
     35          6           0        7.793252   -2.072074    0.898386
     36          6           0        7.389981   -3.453327    1.123661
     37          6           0        6.046434   -3.532138    0.826126
     38          6           0        5.580849   -2.235161    0.517686
     39          6           0        8.287264   -4.598756    1.480917
     40          6           0        4.988708   -4.490422    0.731670
     41          8           0        4.970365   -5.709226    0.837753
     42          6           0        3.734802   -3.658604    0.374924
     43          6           0        3.146000   -4.160232   -0.800162
     44          8           0        3.692597   -4.203495   -1.913494
     45          8           0        1.957398   -4.729202   -0.405939
     46          6           0        1.205238   -5.374607   -1.502546
     47          6           0       -3.574840   -2.731287   -0.187390
     48          6           0       -4.682649   -2.197198   -1.135218
     49          6           0       -5.923613   -2.753870   -1.264511
     50          6           0       -6.506312   -3.901342   -0.520926
     51          6           0       -6.909036   -2.163254   -2.271233
     52          6           0       -8.323564   -1.813704   -1.733325
     53          6           0       -8.727322   -0.432945   -2.373245
     54          6           0      -10.222725   -0.403376   -2.814317
     55          6           0      -10.392419   -0.630005   -4.335284
     56          6           0      -11.026155    0.869234   -2.359571
     57          6           0      -11.777375    0.527652   -1.013755
     58          6           0      -11.443018    1.555644    0.114340
     59          6           0      -12.579033    2.388171    0.695227
     60          6           0      -12.215213    3.660575    1.412124
     61          6           0      -13.467365    1.517739    1.538060
     62          6           0      -14.998402    1.803477    1.244600
     63          6           0      -15.827214    2.225865    2.457006
     64          6           0      -17.081490    1.316667    2.545314
     65          6           0      -17.057545    0.362831    3.740365
     66          6           0      -18.330038    2.186018    2.589123
     67          1           0        2.922069    3.193036   -1.173241
     68          1           0        9.199561    3.865366   -0.254603
     69          1           0        9.882430   -2.195393    1.337655
     70          1           0        2.133540   -1.458583   -1.585259
     71          1           0        1.512319    0.946287    0.015876
     72          1           0        1.664709    1.424786   -2.924137
     73          1           0        0.227112    1.556992   -1.850257
     74          1           0        0.626592    0.018707   -2.609669
     75          1           0        1.613360   -1.436996    1.341874
     76          1           0        0.968132   -2.613142    0.119613
     77          1           0       -0.657339   -0.448756   -0.424670
     78          1           0       -0.330461   -0.423757    1.401566
     79          1           0        3.878619    6.094135   -0.868644
     80          1           0        3.335101    4.972949   -2.144889
     81          1           0        4.614687    6.148059   -2.561128
     82          1           0        7.348811    8.370853   -0.644885
     83          1           0        5.692863    7.571013   -0.439468
     84          1           0        6.550903    7.559604   -1.967923
     85          1           0       10.754351    2.614452    1.495487
     86          1           0       11.435276   -0.120579    0.718232
     87          1           0       11.268580    2.354008   -1.416024
     88          1           0       12.541009    1.656795   -0.380240
     89          1           0       11.897245    3.330712   -0.137340
     90          1           0       12.070230    0.959204    2.922749
     91          1           0       11.415292   -0.696838    2.989615
     92          1           0       10.262246    0.015521    4.624044
     93          1           0        9.177249    0.912528    3.419849
     94          1           0       10.508425    1.684788    4.280946
     95          1           0        9.329546   -4.286746    1.414251
     96          1           0        7.946425   -5.421059    0.850466
     97          1           0        8.220191   -5.006760    2.489311
     98          1           0        2.998880   -3.587512    1.176302
     99          1           0        0.902456   -6.372309   -1.183453
    100          1           0        1.786549   -5.484816   -2.417944
    101          1           0        0.263645   -4.829820   -1.561680
    102          1           0       -3.985525   -2.863754    0.813422
    103          1           0       -3.193467   -3.670909   -0.587761
    104          1           0       -4.446733   -1.250346   -1.619315
    105          1           0       -6.687864   -4.757748   -1.169957
    106          1           0       -7.436867   -3.640067   -0.016295
    107          1           0       -5.770146   -4.232960    0.210542
    108          1           0       -7.000797   -2.791395   -3.156920
    109          1           0       -6.468247   -1.215345   -2.580097
    110          1           0       -8.498292   -1.666930   -0.667561
    111          1           0       -8.995989   -2.596844   -2.084943
    112          1           0       -8.104888   -0.270217   -3.254240
    113          1           0       -8.464756    0.350295   -1.661626
    114          1           0      -10.763342   -1.264523   -2.422744
    115          1           0      -10.630090    0.325147   -4.804351
    116          1           0      -11.183690   -1.342304   -4.569397
    117          1           0       -9.478361   -1.029136   -4.774759
    118          1           0      -11.736057    1.220287   -3.108053
    119          1           0      -10.307558    1.671523   -2.195216
    120          1           0      -11.472885   -0.393007   -0.515458
    121          1           0      -12.860180    0.545894   -1.134531
    122          1           0      -10.842047    2.340145   -0.346135
    123          1           0      -10.951852    1.021685    0.927614
    124          1           0      -13.134833    2.765721   -0.162729
    125          1           0      -11.968593    3.528894    2.465842
    126          1           0      -13.012514    4.398577    1.510016
    127          1           0      -11.367164    4.148370    0.932559
    128          1           0      -13.364202    1.782559    2.589824
    129          1           0      -13.196372    0.463851    1.481475
    130          1           0      -15.397135    0.955049    0.689128
    131          1           0      -14.972197    2.617265    0.520120
    132          1           0      -15.975017    3.305122    2.432457
    133          1           0      -15.247918    2.177066    3.378088
    134          1           0      -17.233988    0.652023    1.694677
    135          1           0      -17.974134    0.350415    4.330917
    136          1           0      -16.238847    0.604433    4.417976
    137          1           0      -17.060050   -0.679439    3.422205
    138          1           0      -19.127272    1.462641    2.414966
    139          1           0      -18.396991    2.938131    1.803203
    140          1           0      -18.306519    2.738188    3.528191
 ---------------------------------------------------------------------
 Rotational constants (GHZ):           0.0479387           0.0074979           0.0068727
 Leave Link  202 at Wed Apr 27 22:35:55 2022, MaxMem= 10066329600 cpu:               0.2 elap:               0.0
 (Enter /sw/apps/gaussian-16.0/g16/l301.exe)
 Standard basis: def2SVP (5D, 7F)
 Ernie: Thresh=  0.10000D-02 Tol=  0.10000D-05 Strict=F.
 There are  1364 symmetry adapted cartesian basis functions of A   symmetry.
 There are  1298 symmetry adapted basis functions of A   symmetry.
  1298 basis functions,  2180 primitive gaussians,  1364 cartesian basis functions
   246 alpha electrons      246 beta electrons
       nuclear repulsion energy      9219.7729286504 Hartrees.
 IExCor= 1009 DFT=T Ex+Corr=PBE1PBE ExCW=0 ScaHFX=  0.250000
 ScaDFX=  0.750000  0.750000  1.000000  1.000000 ScalE2=  1.000000  1.000000
 IRadAn=      5 IRanWt=     -1 IRanGd=            0 ICorTp=0 IEmpDi=  4
 NAtoms=  140 NActive=  140 NUniq=  140 SFac= 1.00D+00 NAtFMM=   60 NAOKFM=T Big=T
 Integral buffers will be    131072 words long.
 Regular integral format.
 Two-electron integral symmetry is turned on.
 Leave Link  301 at Wed Apr 27 22:35:55 2022, MaxMem= 10066329600 cpu:               1.3 elap:               0.1
 (Enter /sw/apps/gaussian-16.0/g16/l302.exe)
 NPDir=0 NMtPBC=     1 NCelOv=     1 NCel=       1 NClECP=     1 NCelD=      1
         NCelK=      1 NCelE2=     1 NClLst=     1 CellRange=     0.0.
 One-electron integrals computed using PRISM.
 One-electron integral symmetry used in STVInt
   1 Symmetry operations used in ECPInt.
 ECPInt:  NShTT=  192510 NPrTT=  683786 LenC2=   87137 LenP2D=  193943.
 LDataN:  DoStor=T MaxTD1= 4 Len=   56
 NBasis=  1298 RedAO= T EigKep=  2.42D-04  NBF=  1298
 NBsUse=  1298 1.00D-06 EigRej= -1.00D+00 NBFU=  1298
 Precomputing XC quadrature grid using
 IXCGrd= 4 IRadAn=           5 IRanWt=          -1 IRanGd=           0 AccXCQ= 0.00D+00.
 Generated NRdTot=       0 NPtTot=           0 NUsed=           0 NTot=          32
 NSgBfM=   986   965   970   984   986 MxSgAt=   140 MxSgA2=   139.
 Leave Link  302 at Wed Apr 27 22:35:59 2022, MaxMem= 10066329600 cpu:              87.1 elap:               3.7
 (Enter /sw/apps/gaussian-16.0/g16/l303.exe)
 DipDrv:  MaxL=1.
 Leave Link  303 at Wed Apr 27 22:35:59 2022, MaxMem= 10066329600 cpu:               5.7 elap:               0.3
 (Enter /sw/apps/gaussian-16.0/g16/l308.exe)
 Leave Link  308 at Wed Apr 27 22:36:00 2022, MaxMem= 10066329600 cpu:               9.0 elap:               0.4
 (Enter /sw/apps/gaussian-16.0/g16/l401.exe)
 ExpMin= 3.36D-02 ExpMax= 4.95D+03 ExpMxC= 7.45D+02 IAcc=3 IRadAn=         5 AccDes= 0.00D+00
 Harris functional with IExCor= 1009 and IRadAn=       5 diagonalized for initial guess.
 HarFok:  IExCor= 1009 AccDes= 0.00D+00 IRadAn=         5 IDoV= 1 UseB2=F ITyADJ=14
 ICtDFT=  3500011 ScaDFX=  1.000000  1.000000  1.000000  1.000000
 FoFCou: FMM=F IPFlag=           0 FMFlag=      100000 FMFlg1=        2001
         NFxFlg=           0 DoJE=T BraDBF=F KetDBF=T FulRan=T
         wScrn=  0.000000 ICntrl=       500 IOpCl=  0 I1Cent=   200000004 NGrid=           0
         NMat0=    1 NMatS0=      1 NMatT0=    0 NMatD0=    1 NMtDS0=    0 NMtDT0=    0
 Petite list used in FoFCou.
 Harris En= -3006.15741334966    
 JPrj=0 DoOrth=F DoCkMO=F.
 Leave Link  401 at Wed Apr 27 22:36:05 2022, MaxMem= 10066329600 cpu:             137.2 elap:               5.8
 (Enter /sw/apps/gaussian-16.0/g16/l502.exe)
 Integral symmetry usage will be decided dynamically.
 Closed shell SCF:
 Using DIIS extrapolation, IDIIS=  1040.
 NGot= 10066329600 LenX= 10062561258 LenY= 10060699398
 Requested convergence on RMS density matrix=1.00D-08 within 128 cycles.
 Requested convergence on MAX density matrix=1.00D-06.
 Requested convergence on             energy=1.00D-06.
 No special actions if energy rises.
 Fock matrices will be formed incrementally for  20 cycles.

 Cycle   1  Pass 1  IDiag  1:
 FoFJK:  IHMeth= 1 ICntrl=       0 DoSepK=F KAlg= 0 I1Cent=           0 FoldK=F
 IRaf= 480000000 NMat=       1 IRICut=       1 DoRegI=T DoRafI=F ISym2E= 0 IDoP0=0 IntGTp=1.
 FoFCou: FMM=T IPFlag=           0 FMFlag=      100000 FMFlg1=        2001
         NFxFlg=           0 DoJE=F BraDBF=F KetDBF=F FulRan=T
         wScrn=  0.000000 ICntrl=         0 IOpCl=  0 I1Cent=           0 NGrid=           0
         NMat0=    1 NMatS0=      1 NMatT0=    0 NMatD0=    1 NMtDS0=    0 NMtDT0=    0
 Symmetry not used in FoFCou.
 FMM levels:  10  Number of levels for PrismC:   9
 E= -3003.82569319741    
 DIIS: error= 2.10D-02 at cycle   1 NSaved=   1.
 NSaved= 1 IEnMin= 1 EnMin= -3003.82569319741     IErMin= 1 ErrMin= 2.10D-02
 ErrMax= 2.10D-02  0.00D+00 EMaxC= 1.00D-01 BMatC= 1.45D+00 BMatP= 1.45D+00
 IDIUse=3 WtCom= 7.90D-01 WtEn= 2.10D-01
 Coeff-Com:  0.100D+01
 Coeff-En:   0.100D+01
 Coeff:      0.100D+01
 Gap=     0.082 Goal=   None    Shift=    0.000
 GapD=    0.082 DampG=0.500 DampE=0.500 DampFc=0.2500 IDamp=-1.
 Damping current iteration by 2.50D-01
 RMSDP=2.75D-03 MaxDP=6.67D-01              OVMax= 2.63D-01

 Cycle   2  Pass 1  IDiag  1:
 RMSU=  6.81D-04    CP:  9.89D-01
 E= -3004.37186620579     Delta-E=       -0.546173008375 Rises=F Damp=T
 DIIS: error= 1.07D-02 at cycle   2 NSaved=   2.
 NSaved= 2 IEnMin= 2 EnMin= -3004.37186620579     IErMin= 2 ErrMin= 1.07D-02
 ErrMax= 1.07D-02  0.00D+00 EMaxC= 1.00D-01 BMatC= 3.62D-01 BMatP= 1.45D+00
 IDIUse=3 WtCom= 8.93D-01 WtEn= 1.07D-01
 Coeff-Com: -0.766D+00 0.177D+01
 Coeff-En:   0.000D+00 0.100D+01
 Coeff:     -0.684D+00 0.168D+01
 Gap=     0.176 Goal=   None    Shift=    0.000
 RMSDP=1.03D-03 MaxDP=7.71D-02 DE=-5.46D-01 OVMax= 2.68D-01

 Cycle   3  Pass 1  IDiag  1:
 RMSU=  8.54D-04    CP:  9.62D-01  1.75D+00
 E= -3005.18580386326     Delta-E=       -0.813937657469 Rises=F Damp=F
 DIIS: error= 1.60D-02 at cycle   3 NSaved=   3.
 NSaved= 3 IEnMin= 3 EnMin= -3005.18580386326     IErMin= 2 ErrMin= 1.07D-02
 ErrMax= 1.60D-02  0.00D+00 EMaxC= 1.00D-01 BMatC= 1.81D-01 BMatP= 3.62D-01
 IDIUse=3 WtCom= 8.40D-01 WtEn= 1.60D-01
 Coeff-Com: -0.496D+00 0.106D+01 0.436D+00
 Coeff-En:   0.000D+00 0.000D+00 0.100D+01
 Coeff:     -0.416D+00 0.890D+00 0.527D+00
 Gap=     0.074 Goal=   None    Shift=    0.000
 RMSDP=6.32D-04 MaxDP=9.35D-02 DE=-8.14D-01 OVMax= 2.27D-01

 Cycle   4  Pass 1  IDiag  1:
 RMSU=  4.30D-04    CP:  9.68D-01  1.99D+00  4.96D-01
 E= -3005.28995358832     Delta-E=       -0.104149725064 Rises=F Damp=F
 DIIS: error= 9.00D-03 at cycle   4 NSaved=   4.
 NSaved= 4 IEnMin= 4 EnMin= -3005.28995358832     IErMin= 4 ErrMin= 9.00D-03
 ErrMax= 9.00D-03  0.00D+00 EMaxC= 1.00D-01 BMatC= 6.40D-02 BMatP= 1.81D-01
 IDIUse=3 WtCom= 9.10D-01 WtEn= 9.00D-02
 Coeff-Com: -0.111D+00 0.251D+00 0.363D+00 0.498D+00
 Coeff-En:   0.000D+00 0.000D+00 0.325D+00 0.675D+00
 Coeff:     -0.101D+00 0.228D+00 0.359D+00 0.514D+00
 Gap=     0.073 Goal=   None    Shift=    0.000
 RMSDP=3.61D-04 MaxDP=4.35D-02 DE=-1.04D-01 OVMax= 1.97D-01

 Cycle   5  Pass 1  IDiag  1:
 RMSU=  1.76D-04    CP:  9.67D-01  1.85D+00  7.08D-01  4.40D-01
 E= -3005.34138492729     Delta-E=       -0.051431338970 Rises=F Damp=F
 DIIS: error= 3.34D-03 at cycle   5 NSaved=   5.
 NSaved= 5 IEnMin= 5 EnMin= -3005.34138492729     IErMin= 5 ErrMin= 3.34D-03
 ErrMax= 3.34D-03  0.00D+00 EMaxC= 1.00D-01 BMatC= 1.11D-02 BMatP= 6.40D-02
 IDIUse=3 WtCom= 9.67D-01 WtEn= 3.34D-02
 Coeff-Com: -0.232D-01 0.601D-01 0.223D+00 0.391D+00 0.349D+00
 Coeff-En:   0.000D+00 0.000D+00 0.000D+00 0.213D+00 0.787D+00
 Coeff:     -0.224D-01 0.581D-01 0.216D+00 0.385D+00 0.363D+00
 Gap=     0.074 Goal=   None    Shift=    0.000
 RMSDP=1.67D-04 MaxDP=1.46D-02 DE=-5.14D-02 OVMax= 1.13D-01

 Cycle   6  Pass 1  IDiag  1:
 RMSU=  6.20D-05    CP:  9.66D-01  1.86D+00  6.74D-01  6.11D-01  2.46D-01
 E= -3005.35594261204     Delta-E=       -0.014557684748 Rises=F Damp=F
 DIIS: error= 1.20D-03 at cycle   6 NSaved=   6.
 NSaved= 6 IEnMin= 6 EnMin= -3005.35594261204     IErMin= 6 ErrMin= 1.20D-03
 ErrMax= 1.20D-03  0.00D+00 EMaxC= 1.00D-01 BMatC= 9.66D-04 BMatP= 1.11D-02
 IDIUse=3 WtCom= 9.88D-01 WtEn= 1.20D-02
 Coeff-Com:  0.313D-02-0.259D-02 0.753D-01 0.157D+00 0.250D+00 0.518D+00
 Coeff-En:   0.000D+00 0.000D+00 0.000D+00 0.000D+00 0.105D+00 0.895D+00
 Coeff:      0.309D-02-0.256D-02 0.744D-01 0.155D+00 0.248D+00 0.522D+00
 Gap=     0.075 Goal=   None    Shift=    0.000
 RMSDP=5.07D-05 MaxDP=4.25D-03 DE=-1.46D-02 OVMax= 3.70D-02

 Cycle   7  Pass 1  IDiag  1:
 RMSU=  2.73D-05    CP:  9.66D-01  1.86D+00  6.83D-01  5.85D-01  4.09D-01
                    CP:  5.39D-01
 E= -3005.35702282990     Delta-E=       -0.001080217862 Rises=F Damp=F
 DIIS: error= 5.81D-04 at cycle   7 NSaved=   7.
 NSaved= 7 IEnMin= 7 EnMin= -3005.35702282990     IErMin= 7 ErrMin= 5.81D-04
 ErrMax= 5.81D-04  0.00D+00 EMaxC= 1.00D-01 BMatC= 1.72D-04 BMatP= 9.66D-04
 IDIUse=3 WtCom= 9.94D-01 WtEn= 5.81D-03
 Coeff-Com:  0.419D-02-0.762D-02 0.229D-01 0.541D-01 0.125D+00 0.365D+00
 Coeff-Com:  0.436D+00
 Coeff-En:   0.000D+00 0.000D+00 0.000D+00 0.000D+00 0.000D+00 0.160D+00
 Coeff-En:   0.840D+00
 Coeff:      0.416D-02-0.758D-02 0.227D-01 0.538D-01 0.124D+00 0.364D+00
 Coeff:      0.439D+00
 Gap=     0.075 Goal=   None    Shift=    0.000
 RMSDP=2.30D-05 MaxDP=1.81D-03 DE=-1.08D-03 OVMax= 1.57D-02

 Cycle   8  Pass 1  IDiag  1:
 RMSU=  1.18D-05    CP:  9.66D-01  1.86D+00  6.84D-01  5.88D-01  3.89D-01
                    CP:  6.79D-01  3.67D-01
 E= -3005.35720597673     Delta-E=       -0.000183146825 Rises=F Damp=F
 DIIS: error= 2.29D-04 at cycle   8 NSaved=   8.
 NSaved= 8 IEnMin= 8 EnMin= -3005.35720597673     IErMin= 8 ErrMin= 2.29D-04
 ErrMax= 2.29D-04  0.00D+00 EMaxC= 1.00D-01 BMatC= 3.30D-05 BMatP= 1.72D-04
 IDIUse=3 WtCom= 9.98D-01 WtEn= 2.29D-03
 Coeff-Com:  0.213D-02-0.435D-02 0.391D-02 0.117D-01 0.472D-01 0.175D+00
 Coeff-Com:  0.328D+00 0.436D+00
 Coeff-En:   0.000D+00 0.000D+00 0.000D+00 0.000D+00 0.000D+00 0.000D+00
 Coeff-En:   0.207D+00 0.793D+00
 Coeff:      0.212D-02-0.434D-02 0.391D-02 0.117D-01 0.471D-01 0.175D+00
 Coeff:      0.328D+00 0.437D+00
 Gap=     0.075 Goal=   None    Shift=    0.000
 RMSDP=8.47D-06 MaxDP=7.64D-04 DE=-1.83D-04 OVMax= 4.63D-03

 Cycle   9  Pass 1  IDiag  1:
 RMSU=  3.46D-06    CP:  9.66D-01  1.86D+00  6.84D-01  5.90D-01  3.93D-01
                    CP:  6.52D-01  5.30D-01  4.92D-01
 E= -3005.35724803836     Delta-E=       -0.000042061627 Rises=F Damp=F
 DIIS: error= 5.35D-05 at cycle   9 NSaved=   9.
 NSaved= 9 IEnMin= 9 EnMin= -3005.35724803836     IErMin= 9 ErrMin= 5.35D-05
 ErrMax= 5.35D-05  0.00D+00 EMaxC= 1.00D-01 BMatC= 2.69D-06 BMatP= 3.30D-05
 IDIUse=1 WtCom= 1.00D+00 WtEn= 0.00D+00
 Coeff-Com:  0.677D-03-0.147D-02-0.401D-03-0.679D-04 0.139D-01 0.627D-01
 Coeff-Com:  0.156D+00 0.274D+00 0.495D+00
 Coeff:      0.677D-03-0.147D-02-0.401D-03-0.679D-04 0.139D-01 0.627D-01
 Coeff:      0.156D+00 0.274D+00 0.495D+00
 Gap=     0.075 Goal=   None    Shift=    0.000
 RMSDP=2.30D-06 MaxDP=4.68D-04 DE=-4.21D-05 OVMax= 8.77D-04

 Cycle  10  Pass 1  IDiag  1:
 RMSU=  1.51D-06    CP:  9.66D-01  1.86D+00  6.84D-01  5.89D-01  3.94D-01
                    CP:  6.64D-01  5.22D-01  5.59D-01  6.79D-01
 E= -3005.35725055671     Delta-E=       -0.000002518351 Rises=F Damp=F
 DIIS: error= 1.78D-05 at cycle  10 NSaved=  10.
 NSaved=10 IEnMin=10 EnMin= -3005.35725055671     IErMin=10 ErrMin= 1.78D-05
 ErrMax= 1.78D-05  0.00D+00 EMaxC= 1.00D-01 BMatC= 3.35D-07 BMatP= 2.69D-06
 IDIUse=1 WtCom= 1.00D+00 WtEn= 0.00D+00
 Coeff-Com:  0.532D-04-0.147D-03-0.713D-03-0.187D-02 0.153D-02 0.101D-01
 Coeff-Com:  0.454D-01 0.952D-01 0.296D+00 0.555D+00
 Coeff:      0.532D-04-0.147D-03-0.713D-03-0.187D-02 0.153D-02 0.101D-01
 Coeff:      0.454D-01 0.952D-01 0.296D+00 0.555D+00
 Gap=     0.075 Goal=   None    Shift=    0.000
 RMSDP=7.21D-07 MaxDP=7.47D-05 DE=-2.52D-06 OVMax= 2.60D-04

 Cycle  11  Pass 1  IDiag  1:
 RMSU=  5.01D-07    CP:  9.66D-01  1.86D+00  6.84D-01  5.89D-01  3.94D-01
                    CP:  6.64D-01  5.27D-01  5.61D-01  7.68D-01  7.43D-01
 E= -3005.35725087277     Delta-E=       -0.000000316066 Rises=F Damp=F
 DIIS: error= 5.22D-06 at cycle  11 NSaved=  11.
 NSaved=11 IEnMin=11 EnMin= -3005.35725087277     IErMin=11 ErrMin= 5.22D-06
 ErrMax= 5.22D-06  0.00D+00 EMaxC= 1.00D-01 BMatC= 5.54D-08 BMatP= 3.35D-07
 IDIUse=1 WtCom= 1.00D+00 WtEn= 0.00D+00
 Coeff-Com: -0.425D-04 0.778D-04-0.422D-03-0.128D-02-0.775D-03-0.255D-02
 Coeff-Com:  0.867D-02 0.225D-01 0.119D+00 0.342D+00 0.512D+00
 Coeff:     -0.425D-04 0.778D-04-0.422D-03-0.128D-02-0.775D-03-0.255D-02
 Coeff:      0.867D-02 0.225D-01 0.119D+00 0.342D+00 0.512D+00
 Gap=     0.075 Goal=   None    Shift=    0.000
 RMSDP=2.81D-07 MaxDP=2.53D-05 DE=-3.16D-07 OVMax= 9.62D-05

 Cycle  12  Pass 1  IDiag  1:
 RMSU=  1.99D-07    CP:  9.66D-01  1.86D+00  6.84D-01  5.89D-01  3.94D-01
                    CP:  6.65D-01  5.29D-01  5.68D-01  7.77D-01  8.27D-01
                    CP:  8.37D-01
 E= -3005.35725092337     Delta-E=       -0.000000050593 Rises=F Damp=F
 DIIS: error= 2.19D-06 at cycle  12 NSaved=  12.
 NSaved=12 IEnMin=12 EnMin= -3005.35725092337     IErMin=12 ErrMin= 2.19D-06
 ErrMax= 2.19D-06  0.00D+00 EMaxC= 1.00D-01 BMatC= 6.89D-09 BMatP= 5.54D-08
 IDIUse=1 WtCom= 1.00D+00 WtEn= 0.00D+00
 Coeff-Com: -0.190D-04 0.449D-04-0.917D-04-0.368D-03-0.438D-03-0.315D-02
 Coeff-Com: -0.187D-02-0.453D-02 0.136D-01 0.838D-01 0.248D+00 0.666D+00
 Coeff:     -0.190D-04 0.449D-04-0.917D-04-0.368D-03-0.438D-03-0.315D-02
 Coeff:     -0.187D-02-0.453D-02 0.136D-01 0.838D-01 0.248D+00 0.666D+00
 Gap=     0.075 Goal=   None    Shift=    0.000
 RMSDP=1.34D-07 MaxDP=2.69D-05 DE=-5.06D-08 OVMax= 6.05D-05

 Cycle  13  Pass 1  IDiag  1:
 RMSU=  9.26D-08    CP:  9.66D-01  1.86D+00  6.84D-01  5.89D-01  3.94D-01
                    CP:  6.65D-01  5.29D-01  5.69D-01  7.92D-01  8.48D-01
                    CP:  9.48D-01  8.95D-01
 E= -3005.35725093216     Delta-E=       -0.000000008793 Rises=F Damp=F
 DIIS: error= 7.67D-07 at cycle  13 NSaved=  13.
 NSaved=13 IEnMin=13 EnMin= -3005.35725093216     IErMin=13 ErrMin= 7.67D-07
 ErrMax= 7.67D-07  0.00D+00 EMaxC= 1.00D-01 BMatC= 1.89D-09 BMatP= 6.89D-09
 IDIUse=1 WtCom= 1.00D+00 WtEn= 0.00D+00
 Coeff-Com: -0.214D-05 0.110D-04 0.226D-04 0.127D-05-0.987D-04-0.175D-02
 Coeff-Com: -0.284D-02-0.811D-02-0.158D-01-0.161D-01 0.488D-01 0.411D+00
 Coeff-Com:  0.585D+00
 Coeff:     -0.214D-05 0.110D-04 0.226D-04 0.127D-05-0.987D-04-0.175D-02
 Coeff:     -0.284D-02-0.811D-02-0.158D-01-0.161D-01 0.488D-01 0.411D+00
 Coeff:      0.585D+00
 Gap=     0.075 Goal=   None    Shift=    0.000
 RMSDP=6.65D-08 MaxDP=4.22D-06 DE=-8.79D-09 OVMax= 2.77D-05

 Cycle  14  Pass 1  IDiag  1:
 RMSU=  3.88D-08    CP:  9.66D-01  1.86D+00  6.84D-01  5.89D-01  3.94D-01
                    CP:  6.65D-01  5.29D-01  5.70D-01  7.98D-01  8.67D-01
                    CP:  9.81D-01  1.04D+00  7.95D-01
 E= -3005.35725093421     Delta-E=       -0.000000002052 Rises=F Damp=F
 DIIS: error= 5.21D-07 at cycle  14 NSaved=  14.
 NSaved=14 IEnMin=14 EnMin= -3005.35725093421     IErMin=14 ErrMin= 5.21D-07
 ErrMax= 5.21D-07  0.00D+00 EMaxC= 1.00D-01 BMatC= 4.00D-10 BMatP= 1.89D-09
 IDIUse=1 WtCom= 1.00D+00 WtEn= 0.00D+00
 Coeff-Com:  0.376D-05-0.392D-05 0.318D-04 0.630D-04 0.447D-04-0.632D-03
 Coeff-Com: -0.136D-02-0.466D-02-0.125D-01-0.253D-01-0.119D-01 0.144D+00
 Coeff-Com:  0.377D+00 0.535D+00
 Coeff:      0.376D-05-0.392D-05 0.318D-04 0.630D-04 0.447D-04-0.632D-03
 Coeff:     -0.136D-02-0.466D-02-0.125D-01-0.253D-01-0.119D-01 0.144D+00
 Coeff:      0.377D+00 0.535D+00
 Gap=     0.075 Goal=   None    Shift=    0.000
 RMSDP=2.74D-08 MaxDP=4.50D-06 DE=-2.05D-09 OVMax= 1.36D-05

 Cycle  15  Pass 1  IDiag  1:
 RMSU=  1.66D-08    CP:  9.66D-01  1.86D+00  6.84D-01  5.89D-01  3.94D-01
                    CP:  6.65D-01  5.30D-01  5.70D-01  7.99D-01  8.69D-01
                    CP:  1.00D+00  1.08D+00  9.21D-01  8.69D-01
 E= -3005.35725093484     Delta-E=       -0.000000000633 Rises=F Damp=F
 DIIS: error= 1.58D-07 at cycle  15 NSaved=  15.
 NSaved=15 IEnMin=15 EnMin= -3005.35725093484     IErMin=15 ErrMin= 1.58D-07
 ErrMax= 1.58D-07  0.00D+00 EMaxC= 1.00D-01 BMatC= 5.69D-11 BMatP= 4.00D-10
 IDIUse=1 WtCom= 1.00D+00 WtEn= 0.00D+00
 Coeff-Com:  0.245D-05-0.401D-05 0.131D-04 0.298D-04 0.586D-04-0.241D-04
 Coeff-Com: -0.589D-04-0.947D-03-0.322D-02-0.102D-01-0.148D-01-0.694D-02
 Coeff-Com:  0.923D-01 0.296D+00 0.648D+00
 Coeff:      0.245D-05-0.401D-05 0.131D-04 0.298D-04 0.586D-04-0.241D-04
 Coeff:     -0.589D-04-0.947D-03-0.322D-02-0.102D-01-0.148D-01-0.694D-02
 Coeff:      0.923D-01 0.296D+00 0.648D+00
 Gap=     0.075 Goal=   None    Shift=    0.000
 RMSDP=1.14D-08 MaxDP=9.34D-07 DE=-6.33D-10 OVMax= 5.91D-06

 Cycle  16  Pass 1  IDiag  1:
 RMSU=  6.32D-09    CP:  9.66D-01  1.86D+00  6.84D-01  5.89D-01  3.94D-01
                    CP:  6.65D-01  5.30D-01  5.70D-01  7.99D-01  8.71D-01
                    CP:  1.01D+00  1.09D+00  9.63D-01  9.95D-01  8.79D-01
 E= -3005.35725093493     Delta-E=       -0.000000000091 Rises=F Damp=F
 DIIS: error= 5.77D-08 at cycle  16 NSaved=  16.
 NSaved=16 IEnMin=16 EnMin= -3005.35725093493     IErMin=16 ErrMin= 5.77D-08
 ErrMax= 5.77D-08  0.00D+00 EMaxC= 1.00D-01 BMatC= 7.30D-12 BMatP= 5.69D-11
 IDIUse=1 WtCom= 1.00D+00 WtEn= 0.00D+00
 Coeff-Com:  0.743D-06-0.156D-05 0.237D-05 0.603D-05 0.293D-04 0.777D-04
 Coeff-Com:  0.201D-03 0.171D-03 0.291D-03-0.163D-02-0.545D-02-0.266D-01
 Coeff-Com: -0.750D-02 0.658D-01 0.321D+00 0.654D+00
 Coeff:      0.743D-06-0.156D-05 0.237D-05 0.603D-05 0.293D-04 0.777D-04
 Coeff:      0.201D-03 0.171D-03 0.291D-03-0.163D-02-0.545D-02-0.266D-01
 Coeff:     -0.750D-02 0.658D-01 0.321D+00 0.654D+00
 Gap=     0.075 Goal=   None    Shift=    0.000
 RMSDP=4.54D-09 MaxDP=3.35D-07 DE=-9.09D-11 OVMax= 2.02D-06

 SCF Done:  E(RPBE1PBE) =  -3005.35725093     A.U. after   16 cycles
            NFock= 16  Conv=0.45D-08     -V/T= 2.0102
 KE= 2.975009114382D+03 PE=-2.543067570475D+04 EE= 1.023053641078D+04
 Leave Link  502 at Wed Apr 27 22:42:01 2022, MaxMem= 10066329600 cpu:            8507.2 elap:             356.1
 (Enter /sw/apps/gaussian-16.0/g16/l801.exe)
 DoSCS=F DFT=T ScalE2(SS,OS)=  1.000000  1.000000
 ExpMin= 3.36D-02 ExpMax= 4.95D+03 ExpMxC= 7.45D+02 IAcc=3 IRadAn=         5 AccDes= 0.00D+00
 HarFok:  IExCor=  205 AccDes= 0.00D+00 IRadAn=         5 IDoV=-2 UseB2=F ITyADJ=14
 ICtDFT= 12500011 ScaDFX=  1.000000  1.000000  1.000000  1.000000
 GSVD:  LWork=       -5460 too small for GESVD, short by       25550 words or       25550 for optimal perf.
 Largest valence mixing into a core orbital is  1.37D-04
 Largest core mixing into a valence orbital is  5.63D-05
 Range of M.O.s used for correlation:    71  1298
 NBasis=  1298 NAE=   246 NBE=   246 NFC=    70 NFV=     0
 NROrb=   1228 NOA=   176 NOB=   176 NVA=  1052 NVB=  1052

 **** Warning!!: The smallest alpha delta epsilon is  0.75449319D-01

 Leave Link  801 at Wed Apr 27 22:42:02 2022, MaxMem= 10066329600 cpu:               7.6 elap:               0.3
 (Enter /sw/apps/gaussian-16.0/g16/l914.exe)
 RHF ground state
 Two-electron integrals replicated using symmetry.
 MDV= 10066329600 DFT=T DoStab=F Mixed=T DoRPA=T DoScal=F NonHer=T
 Making orbital integer symmetry assigments:
 Orbital symmetries:
       Occupied  (A) (A) (A) (A) (A) (A) (A) (A) (A) (A) (A) (A)
                 (A) (A) (A) (A) (A) (A) (A) (A) (A) (A) (A) (A)
                 (A) (A) (A) (A) (A) (A) (A) (A) (A) (A) (A) (A)
                 (A) (A) (A) (A) (A) (A) (A) (A) (A) (A) (A) (A)
                 (A) (A) (A) (A) (A) (A) (A) (A) (A) (A) (A) (A)
                 (A) (A) (A) (A) (A) (A) (A) (A) (A) (A) (A) (A)
                 (A) (A) (A) (A) (A) (A) (A) (A) (A) (A) (A) (A)
                 (A) (A) (A) (A) (A) (A) (A) (A) (A) (A) (A) (A)
                 (A) (A) (A) (A) (A) (A) (A) (A) (A) (A) (A) (A)
                 (A) (A) (A) (A) (A) (A) (A) (A) (A) (A) (A) (A)
                 (A) (A) (A) (A) (A) (A) (A) (A) (A) (A) (A) (A)
                 (A) (A) (A) (A) (A) (A) (A) (A) (A) (A) (A) (A)
                 (A) (A) (A) (A) (A) (A) (A) (A) (A) (A) (A) (A)
                 (A) (A) (A) (A) (A) (A) (A) (A) (A) (A) (A) (A)
                 (A) (A) (A) (A) (A) (A) (A) (A) (A) (A) (A) (A)
                 (A) (A) (A) (A) (A) (A) (A) (A) (A) (A) (A) (A)
                 (A) (A) (A) (A) (A) (A) (A) (A) (A) (A) (A) (A)
                 (A) (A) (A) (A) (A) (A) (A) (A) (A) (A) (A) (A)
                 (A) (A) (A) (A) (A) (A) (A) (A) (A) (A) (A) (A)
                 (A) (A) (A) (A) (A) (A) (A) (A) (A) (A) (A) (A)
                 (A) (A) (A) (A) (A) (A)
       Virtual   (A) (A) (A) (A) (A) (A) (A) (A) (A) (A) (A) (A)
                 (A) (A) (A) (A) (A) (A) (A) (A) (A) (A) (A) (A)
                 (A) (A) (A) (A) (A) (A) (A) (A) (A) (A) (A) (A)
                 (A) (A) (A) (A) (A) (A) (A) (A) (A) (A) (A) (A)
                 (A) (A) (A) (A) (A) (A) (A) (A) (A) (A) (A) (A)
                 (A) (A) (A) (A) (A) (A) (A) (A) (A) (A) (A) (A)
                 (A) (A) (A) (A) (A) (A) (A) (A) (A) (A) (A) (A)
                 (A) (A) (A) (A) (A) (A) (A) (A) (A) (A) (A) (A)
                 (A) (A) (A) (A) (A) (A) (A) (A) (A) (A) (A) (A)
                 (A) (A) (A) (A) (A) (A) (A) (A) (A) (A) (A) (A)
                 (A) (A) (A) (A) (A) (A) (A) (A) (A) (A) (A) (A)
                 (A) (A) (A) (A) (A) (A) (A) (A) (A) (A) (A) (A)
                 (A) (A) (A) (A) (A) (A) (A) (A) (A) (A) (A) (A)
                 (A) (A) (A) (A) (A) (A) (A) (A) (A) (A) (A) (A)
                 (A) (A) (A) (A) (A) (A) (A) (A) (A) (A) (A) (A)
                 (A) (A) (A) (A) (A) (A) (A) (A) (A) (A) (A) (A)
                 (A) (A) (A) (A) (A) (A) (A) (A) (A) (A) (A) (A)
                 (A) (A) (A) (A) (A) (A) (A) (A) (A) (A) (A) (A)
                 (A) (A) (A) (A) (A) (A) (A) (A) (A) (A) (A) (A)
                 (A) (A) (A) (A) (A) (A) (A) (A) (A) (A) (A) (A)
                 (A) (A) (A) (A) (A) (A) (A) (A) (A) (A) (A) (A)
                 (A) (A) (A) (A) (A) (A) (A) (A) (A) (A) (A) (A)
                 (A) (A) (A) (A) (A) (A) (A) (A) (A) (A) (A) (A)
                 (A) (A) (A) (A) (A) (A) (A) (A) (A) (A) (A) (A)
                 (A) (A) (A) (A) (A) (A) (A) (A) (A) (A) (A) (A)
                 (A) (A) (A) (A) (A) (A) (A) (A) (A) (A) (A) (A)
                 (A) (A) (A) (A) (A) (A) (A) (A) (A) (A) (A) (A)
                 (A) (A) (A) (A) (A) (A) (A) (A) (A) (A) (A) (A)
                 (A) (A) (A) (A) (A) (A) (A) (A) (A) (A) (A) (A)
                 (A) (A) (A) (A) (A) (A) (A) (A) (A) (A) (A) (A)
                 (A) (A) (A) (A) (A) (A) (A) (A) (A) (A) (A) (A)
                 (A) (A) (A) (A) (A) (A) (A) (A) (A) (A) (A) (A)
                 (A) (A) (A) (A) (A) (A) (A) (A) (A) (A) (A) (A)
                 (A) (A) (A) (A) (A) (A) (A) (A) (A) (A) (A) (A)
                 (A) (A) (A) (A) (A) (A) (A) (A) (A) (A) (A) (A)
                 (A) (A) (A) (A) (A) (A) (A) (A) (A) (A) (A) (A)
                 (A) (A) (A) (A) (A) (A) (A) (A) (A) (A) (A) (A)
                 (A) (A) (A) (A) (A) (A) (A) (A) (A) (A) (A) (A)
                 (A) (A) (A) (A) (A) (A) (A) (A) (A) (A) (A) (A)
                 (A) (A) (A) (A) (A) (A) (A) (A) (A) (A) (A) (A)
                 (A) (A) (A) (A) (A) (A) (A) (A) (A) (A) (A) (A)
                 (A) (A) (A) (A) (A) (A) (A) (A) (A) (A) (A) (A)
                 (A) (A) (A) (A) (A) (A) (A) (A) (A) (A) (A) (A)
                 (A) (A) (A) (A) (A) (A) (A) (A) (A) (A) (A) (A)
                 (A) (A) (A) (A) (A) (A) (A) (A) (A) (A) (A) (A)
                 (A) (A) (A) (A) (A) (A) (A) (A) (A) (A) (A) (A)
                 (A) (A) (A) (A) (A) (A) (A) (A) (A) (A) (A) (A)
                 (A) (A) (A) (A) (A) (A) (A) (A) (A) (A) (A) (A)
                 (A) (A) (A) (A) (A) (A) (A) (A) (A) (A) (A) (A)
                 (A) (A) (A) (A) (A) (A) (A) (A) (A) (A) (A) (A)
                 (A) (A) (A) (A) (A) (A) (A) (A) (A) (A) (A) (A)
                 (A) (A) (A) (A) (A) (A) (A) (A) (A) (A) (A) (A)
                 (A) (A) (A) (A) (A) (A) (A) (A) (A) (A) (A) (A)
                 (A) (A) (A) (A) (A) (A) (A) (A) (A) (A) (A) (A)
                 (A) (A) (A) (A) (A) (A) (A) (A) (A) (A) (A) (A)
                 (A) (A) (A) (A) (A) (A) (A) (A) (A) (A) (A) (A)
                 (A) (A) (A) (A) (A) (A) (A) (A) (A) (A) (A) (A)
                 (A) (A) (A) (A) (A) (A) (A) (A) (A) (A) (A) (A)
                 (A) (A) (A) (A) (A) (A) (A) (A) (A) (A) (A) (A)
                 (A) (A) (A) (A) (A) (A) (A) (A) (A) (A) (A) (A)
                 (A) (A) (A) (A) (A) (A) (A) (A) (A) (A) (A) (A)
                 (A) (A) (A) (A) (A) (A) (A) (A) (A) (A) (A) (A)
                 (A) (A) (A) (A) (A) (A) (A) (A) (A) (A) (A) (A)
                 (A) (A) (A) (A) (A) (A) (A) (A) (A) (A) (A) (A)
                 (A) (A) (A) (A) (A) (A) (A) (A) (A) (A) (A) (A)
                 (A) (A) (A) (A) (A) (A) (A) (A) (A) (A) (A) (A)
                 (A) (A) (A) (A) (A) (A) (A) (A) (A) (A) (A) (A)
                 (A) (A) (A) (A) (A) (A) (A) (A) (A) (A) (A) (A)
                 (A) (A) (A) (A) (A) (A) (A) (A) (A) (A) (A) (A)
                 (A) (A) (A) (A) (A) (A) (A) (A) (A) (A) (A) (A)
                 (A) (A) (A) (A) (A) (A) (A) (A) (A) (A) (A) (A)
                 (A) (A) (A) (A) (A) (A) (A) (A) (A) (A) (A) (A)
                 (A) (A) (A) (A) (A) (A) (A) (A) (A) (A) (A) (A)
                 (A) (A) (A) (A) (A) (A) (A) (A) (A) (A) (A) (A)
                 (A) (A) (A) (A) (A) (A) (A) (A) (A) (A) (A) (A)
                 (A) (A) (A) (A) (A) (A) (A) (A) (A) (A) (A) (A)
                 (A) (A) (A) (A) (A) (A) (A) (A) (A) (A) (A) (A)
                 (A) (A) (A) (A) (A) (A) (A) (A) (A) (A) (A) (A)
                 (A) (A) (A) (A) (A) (A) (A) (A) (A) (A) (A) (A)
                 (A) (A) (A) (A) (A) (A) (A) (A) (A) (A) (A) (A)
                 (A) (A) (A) (A) (A) (A) (A) (A) (A) (A) (A) (A)
                 (A) (A) (A) (A) (A) (A) (A) (A) (A) (A) (A) (A)
                 (A) (A) (A) (A) (A) (A) (A) (A) (A) (A) (A) (A)
                 (A) (A) (A) (A) (A) (A) (A) (A) (A) (A) (A) (A)
                 (A) (A) (A) (A) (A) (A) (A) (A) (A) (A) (A) (A)
                 (A) (A) (A) (A) (A) (A) (A) (A) (A) (A) (A) (A)
                 (A) (A) (A) (A) (A) (A) (A) (A) (A) (A) (A) (A)
                 (A) (A) (A) (A) (A) (A) (A) (A)
    20 initial guesses have been made.
 Convergence on wavefunction:    0.001000000000000
 Davidson Disk Diagonalization:  ConvIn= 1.00D-03 SkipCon=T Conv= 1.00D-03.
 Max sub-space:  2000 roots to seek:    20 dimension of matrix:       370304
 Iteration     1 Dimension    20 NMult     0 NNew     20
 CISAX will form    20 AO SS matrices at one time.
 NMat=    20 NSing=    20 JSym2X= 0.
 FoFJK:  IHMeth= 1 ICntrl=       0 DoSepK=F KAlg= 0 I1Cent=           0 FoldK=F
 IRaf= 480000000 NMat=      40 IRICut=       1 DoRegI=T DoRafI=F ISym2E= 0 IDoP0=3 IntGTp=3.
 FoFCou: FMM=T IPFlag=           0 FMFlag=      100000 FMFlg1=        2001
         NFxFlg=           0 DoJE=F BraDBF=F KetDBF=F FulRan=T
         wScrn=  0.000000 ICntrl=         0 IOpCl=  0 I1Cent=           0 NGrid=           0
         NMat0=   40 NMatS0=     20 NMatT0=    0 NMatD0=   40 NMtDS0=    0 NMtDT0=    0
 Symmetry not used in FoFCou.
 FMM levels:  10  Number of levels for PrismC:   9
 New state      3 was old state      6
 New state      4 was old state      8
 New state      5 was old state      4
 Excitation Energies [eV] at current iteration:
 Root      1 :     2.227991951512973
 Root      2 :     2.535757048148768
 Root      3 :     3.127880812557064
 Root      4 :     3.207011521385290
 Root      5 :     3.289747715071777
 Root      6 :     3.465260711729172
 Root      7 :     3.527496315453397
 Root      8 :     3.749546062565495
 Root      9 :     3.830525149767860
 Root     10 :     3.929530750937935
 Root     11 :     4.040737476255521
 Root     12 :     4.215820090263557
 Root     13 :     4.272360240355631
 Root     14 :     4.313218511891260
 Root     15 :     4.342934393037404
 Root     16 :     4.373018195081911
 Root     17 :     4.489714691262659
 Root     18 :     4.547479177354859
 Root     19 :     4.738402796381532
 Root     20 :     4.785467273015263
 Iteration     2 Dimension    30 NMult    20 NNew     10
 CISAX will form    10 AO SS matrices at one time.
 NMat=    10 NSing=    10 JSym2X= 0.
 Root      1 not converged, maximum delta is    0.057021143087308
 Root      2 not converged, maximum delta is    0.057066130661118
 Root      3 not converged, maximum delta is    0.393953472588980
 New state      4 was old state      5
 Root      4 not converged, maximum delta is    0.383509701863131
 New state      5 was old state      4
 Root      5 not converged, maximum delta is    0.223688116102495
 Excitation Energies [eV] at current iteration:
 Root      1 :     1.882164446939563   Change is   -0.345827504573410
 Root      2 :     2.246232611051690   Change is   -0.289524437097078
 Root      3 :     3.013292253683666   Change is   -0.114588558873397
 Root      4 :     3.046853717937144   Change is   -0.242893997134632
 Root      5 :     3.085169803336565   Change is   -0.121841718048725
 Iteration     3 Dimension    40 NMult    30 NNew     10
 CISAX will form    10 AO SS matrices at one time.
 NMat=    10 NSing=    10 JSym2X= 0.
 Root      1 not converged, maximum delta is    0.025805886306779
 Root      2 not converged, maximum delta is    0.025648995547529
 Root      3 not converged, maximum delta is    0.032795307525539
 Root      4 not converged, maximum delta is    0.032875370044758
 Root      5 not converged, maximum delta is    0.028841286066507
 Excitation Energies [eV] at current iteration:
 Root      1 :     1.850392873579095   Change is   -0.031771573360468
 Root      2 :     2.226317859131961   Change is   -0.019914751919730
 Root      3 :     3.000393771525528   Change is   -0.012898482158138
 Root      4 :     3.036156374328908   Change is   -0.010697343608236
 Root      5 :     3.071732070951796   Change is   -0.013437732384769
 Iteration     4 Dimension    50 NMult    40 NNew     10
 CISAX will form    10 AO SS matrices at one time.
 NMat=    10 NSing=    10 JSym2X= 0.
 Root      1 not converged, maximum delta is    0.002228420439339
 Root      2 not converged, maximum delta is    0.006719390657438
 Root      3 not converged, maximum delta is    0.005797387196315
 Root      4 not converged, maximum delta is    0.004689974781641
 Root      5 not converged, maximum delta is    0.007492302464258
 Excitation Energies [eV] at current iteration:
 Root      1 :     1.847232475566956   Change is   -0.003160398012139
 Root      2 :     2.223692768470872   Change is   -0.002625090661088
 Root      3 :     2.998441210514436   Change is   -0.001952561011092
 Root      4 :     3.034382920440087   Change is   -0.001773453888821
 Root      5 :     3.069767617887722   Change is   -0.001964453064075
 Iteration     5 Dimension    60 NMult    50 NNew     10
 CISAX will form    10 AO SS matrices at one time.
 NMat=    10 NSing=    10 JSym2X= 0.
 Root      1 has converged.
 Root      2 has converged.
 Root      3 not converged, maximum delta is    0.001290776921454
 Root      4 not converged, maximum delta is    0.001783444120018
 Root      5 not converged, maximum delta is    0.001101419753162
 Excitation Energies [eV] at current iteration:
 Root      1 :     1.846892563568360   Change is   -0.000339911998596
 Root      2 :     2.223518708565785   Change is   -0.000174059905088
 Root      3 :     2.998185139004528   Change is   -0.000256071509908
 Root      4 :     3.034147737982392   Change is   -0.000235182457695
 Root      5 :     3.069518361634935   Change is   -0.000249256252787
 Iteration     6 Dimension    66 NMult    60 NNew      6
 CISAX will form     6 AO SS matrices at one time.
 NMat=     6 NSing=     6 JSym2X= 0.
 Root      1 has converged.
 Root      2 has converged.
 Root      3 has converged.
 Root      4 has converged.
 Root      5 has converged.
 Excitation Energies [eV] at current iteration:
 Root      1 :     1.846891655281550   Change is   -0.000000908286810
 Root      2 :     2.223516649399978   Change is   -0.000002059165807
 Root      3 :     2.998160599475362   Change is   -0.000024539529166
 Root      4 :     3.034120520697987   Change is   -0.000027217284405
 Root      5 :     3.069489879297399   Change is   -0.000028482337536
 Convergence achieved on expansion vectors.
 ***********************************************************************
 Excited states from <AA,BB:AA,BB> singles matrix:
 ***********************************************************************
 
 1PDM for each excited state written to RWF  633
 Ground to excited state transition densities written to RWF  633
 Ground to excited state transition electric dipole moments (Au):
       state          X           Y           Z        Dip. S.      Osc.
         1         0.3246     -2.7809      0.7071      8.3390      0.3773
         2         1.3669      0.5090      0.2446      2.1873      0.1192
         3        -0.1213     -0.0958     -0.0304      0.0248      0.0018
         4         0.1395      0.0540      0.0239      0.0230      0.0017
         5         0.1098      0.0637      0.0514      0.0188      0.0014
 Ground to excited state transition velocity dipole moments (Au):
       state          X           Y           Z        Dip. S.      Osc.
         1        -0.0210      0.1833     -0.0477      0.0363      0.3565
         2        -0.1063     -0.0400     -0.0191      0.0133      0.1083
         3         0.0125      0.0091      0.0012      0.0002      0.0014
         4        -0.0170     -0.0048     -0.0009      0.0003      0.0019
         5        -0.0125     -0.0071     -0.0041      0.0002      0.0013
 Ground to excited state transition magnetic dipole moments (Au):
       state          X           Y           Z
         1        -0.0803      0.5921      2.3481
         2         0.0238      0.1918     -0.5721
         3         0.4072     -0.1748     -0.4056
         4        -0.0701     -0.2941     -0.7535
         5        -0.0226     -0.3875      0.0973
 Ground to excited state transition velocity quadrupole moments (Au):
       state          XX          YY          ZZ          XY          XZ          YZ
         1        -0.6078      0.4427     -0.0247      2.1564     -0.6212     -0.0850
         2        -2.3256     -0.0607     -0.0064     -0.4871     -0.2271      0.0080
         3         0.2558      0.1591     -0.0258      0.3769     -0.0288      0.0486
         4        -0.3630      0.1042     -0.0174      0.1278     -0.0196      0.0572
         5        -0.2466     -0.0656      0.0118     -0.0039     -0.0372      0.0330
 <0|del|b> * <b|rxdel|0> + <0|del|b> * <b|delr+rdel|0>
 Rotatory Strengths (R) in cgs (10**-40 erg-esu-cm/Gauss)
       state          XX          YY          ZZ    R(velocity)    E-M Angle
         1        40.0736    -29.4905    -28.2163     -5.8778       90.21
         2        14.9483     -7.5961     -1.1576      2.0649       89.41
         3        -4.3511     15.2896      8.4655      6.4680       71.02
         4         5.9569      3.1482     11.6890      6.9313       76.83
         5         6.5830     -1.6894     11.6006      5.4981       63.88
 1/2[<0|r|b>*<b|rxdel|0> + (<0|rxdel|b>*<b|r|0>)*]
 Rotatory Strengths (R) in cgs (10**-40 erg-esu-cm/Gauss)
       state          XX          YY          ZZ     R(length)
         1        18.4449   1164.5064  -1174.1878      2.9212
         2       -22.9851    -69.0434     98.9706      2.3140
         3        34.9288    -11.8372     -8.7127      4.7930
         4         6.9138     11.2283     12.7168     10.2863
         5         1.7574     17.4636     -3.5361      5.2283
  1/2[<0|del|b>*<b|r|0> + (<0|r|b>*<b|del|0>)*] (Au)
       state          X           Y           Z        Dip. S.   Osc.(frdel)
         1        -0.0068     -0.5096     -0.0337      0.5502      0.3668
         2        -0.1453     -0.0204     -0.0047      0.1704      0.1136
         3        -0.0015     -0.0009     -0.0000      0.0024      0.0016
         4        -0.0024     -0.0003     -0.0000      0.0027      0.0018
         5        -0.0014     -0.0005     -0.0002      0.0020      0.0014

 Excitation energies and oscillator strengths:
 
 Excited State   1:      Singlet-A      1.8469 eV  671.31 nm  f=0.3773  <S**2>=0.000
     245 -> 248        0.17066
     246 -> 247        0.69418
     246 <- 247       -0.11082
 This state for optimization and/or second-order correction.
 Total Energy, E(TD-HF/TD-DFT) =  -3005.28937892    
 Copying the excited state density for this state as the 1-particle RhoCI density.
 
 Excited State   2:      Singlet-A      2.2235 eV  557.60 nm  f=0.1192  <S**2>=0.000
     245 -> 247        0.65655
     246 -> 248       -0.25003
 
 Excited State   3:      Singlet-A      2.9982 eV  413.53 nm  f=0.0018  <S**2>=0.000
     241 -> 247        0.14127
     242 -> 247       -0.16625
     244 -> 247        0.65520
 
 Excited State   4:      Singlet-A      3.0341 eV  408.63 nm  f=0.0017  <S**2>=0.000
     240 -> 247        0.12438
     242 -> 247        0.65012
     244 -> 247        0.18335
 
 Excited State   5:      Singlet-A      3.0695 eV  403.92 nm  f=0.0014  <S**2>=0.000
     240 -> 247        0.52156
     240 -> 249       -0.15652
     241 -> 247        0.40973
     244 -> 247       -0.11069
 SavETr:  write IOETrn=   770 NScale= 10 NData=  16 NLR=1 NState=    5 LETran=     100.
 Leave Link  914 at Wed Apr 27 22:59:05 2022, MaxMem= 10066329600 cpu:           24523.2 elap:            1023.3
 (Enter /sw/apps/gaussian-16.0/g16/l601.exe)
 Copying SCF densities to generalized density rwf, IOpCl= 0 IROHF=0.
 Hyperfine terms turned off by default for NAtoms > 100.

 **********************************************************************

            Population analysis using the SCF density.

 **********************************************************************

 Orbital symmetries:
       Occupied  (A) (A) (A) (A) (A) (A) (A) (A) (A) (A) (A) (A)
                 (A) (A) (A) (A) (A) (A) (A) (A) (A) (A) (A) (A)
                 (A) (A) (A) (A) (A) (A) (A) (A) (A) (A) (A) (A)
                 (A) (A) (A) (A) (A) (A) (A) (A) (A) (A) (A) (A)
                 (A) (A) (A) (A) (A) (A) (A) (A) (A) (A) (A) (A)
                 (A) (A) (A) (A) (A) (A) (A) (A) (A) (A) (A) (A)
                 (A) (A) (A) (A) (A) (A) (A) (A) (A) (A) (A) (A)
                 (A) (A) (A) (A) (A) (A) (A) (A) (A) (A) (A) (A)
                 (A) (A) (A) (A) (A) (A) (A) (A) (A) (A) (A) (A)
                 (A) (A) (A) (A) (A) (A) (A) (A) (A) (A) (A) (A)
                 (A) (A) (A) (A) (A) (A) (A) (A) (A) (A) (A) (A)
                 (A) (A) (A) (A) (A) (A) (A) (A) (A) (A) (A) (A)
                 (A) (A) (A) (A) (A) (A) (A) (A) (A) (A) (A) (A)
                 (A) (A) (A) (A) (A) (A) (A) (A) (A) (A) (A) (A)
                 (A) (A) (A) (A) (A) (A) (A) (A) (A) (A) (A) (A)
                 (A) (A) (A) (A) (A) (A) (A) (A) (A) (A) (A) (A)
                 (A) (A) (A) (A) (A) (A) (A) (A) (A) (A) (A) (A)
                 (A) (A) (A) (A) (A) (A) (A) (A) (A) (A) (A) (A)
                 (A) (A) (A) (A) (A) (A) (A) (A) (A) (A) (A) (A)
                 (A) (A) (A) (A) (A) (A) (A) (A) (A) (A) (A) (A)
                 (A) (A) (A) (A) (A) (A)
       Virtual   (A) (A) (A) (A) (A) (A) (A) (A) (A) (A) (A) (A)
                 (A) (A) (A) (A) (A) (A) (A) (A) (A) (A) (A) (A)
                 (A) (A) (A) (A) (A) (A) (A) (A) (A) (A) (A) (A)
                 (A) (A) (A) (A) (A) (A) (A) (A) (A) (A) (A) (A)
                 (A) (A) (A) (A) (A) (A) (A) (A) (A) (A) (A) (A)
                 (A) (A) (A) (A) (A) (A) (A) (A) (A) (A) (A) (A)
                 (A) (A) (A) (A) (A) (A) (A) (A) (A) (A) (A) (A)
                 (A) (A) (A) (A) (A) (A) (A) (A) (A) (A) (A) (A)
                 (A) (A) (A) (A) (A) (A) (A) (A) (A) (A) (A) (A)
                 (A) (A) (A) (A) (A) (A) (A) (A) (A) (A) (A) (A)
                 (A) (A) (A) (A) (A) (A) (A) (A) (A) (A) (A) (A)
                 (A) (A) (A) (A) (A) (A) (A) (A) (A) (A) (A) (A)
                 (A) (A) (A) (A) (A) (A) (A) (A) (A) (A) (A) (A)
                 (A) (A) (A) (A) (A) (A) (A) (A) (A) (A) (A) (A)
                 (A) (A) (A) (A) (A) (A) (A) (A) (A) (A) (A) (A)
                 (A) (A) (A) (A) (A) (A) (A) (A) (A) (A) (A) (A)
                 (A) (A) (A) (A) (A) (A) (A) (A) (A) (A) (A) (A)
                 (A) (A) (A) (A) (A) (A) (A) (A) (A) (A) (A) (A)
                 (A) (A) (A) (A) (A) (A) (A) (A) (A) (A) (A) (A)
                 (A) (A) (A) (A) (A) (A) (A) (A) (A) (A) (A) (A)
                 (A) (A) (A) (A) (A) (A) (A) (A) (A) (A) (A) (A)
                 (A) (A) (A) (A) (A) (A) (A) (A) (A) (A) (A) (A)
                 (A) (A) (A) (A) (A) (A) (A) (A) (A) (A) (A) (A)
                 (A) (A) (A) (A) (A) (A) (A) (A) (A) (A) (A) (A)
                 (A) (A) (A) (A) (A) (A) (A) (A) (A) (A) (A) (A)
                 (A) (A) (A) (A) (A) (A) (A) (A) (A) (A) (A) (A)
                 (A) (A) (A) (A) (A) (A) (A) (A) (A) (A) (A) (A)
                 (A) (A) (A) (A) (A) (A) (A) (A) (A) (A) (A) (A)
                 (A) (A) (A) (A) (A) (A) (A) (A) (A) (A) (A) (A)
                 (A) (A) (A) (A) (A) (A) (A) (A) (A) (A) (A) (A)
                 (A) (A) (A) (A) (A) (A) (A) (A) (A) (A) (A) (A)
                 (A) (A) (A) (A) (A) (A) (A) (A) (A) (A) (A) (A)
                 (A) (A) (A) (A) (A) (A) (A) (A) (A) (A) (A) (A)
                 (A) (A) (A) (A) (A) (A) (A) (A) (A) (A) (A) (A)
                 (A) (A) (A) (A) (A) (A) (A) (A) (A) (A) (A) (A)
                 (A) (A) (A) (A) (A) (A) (A) (A) (A) (A) (A) (A)
                 (A) (A) (A) (A) (A) (A) (A) (A) (A) (A) (A) (A)
                 (A) (A) (A) (A) (A) (A) (A) (A) (A) (A) (A) (A)
                 (A) (A) (A) (A) (A) (A) (A) (A) (A) (A) (A) (A)
                 (A) (A) (A) (A) (A) (A) (A) (A) (A) (A) (A) (A)
                 (A) (A) (A) (A) (A) (A) (A) (A) (A) (A) (A) (A)
                 (A) (A) (A) (A) (A) (A) (A) (A) (A) (A) (A) (A)
                 (A) (A) (A) (A) (A) (A) (A) (A) (A) (A) (A) (A)
[...]
 Alpha virt. eigenvalues --    1.14827   1.15339   1.15801   1.16287   1.16635
 Alpha virt. eigenvalues --    1.17028   1.17650   1.18146   1.18433   1.18610
 Alpha virt. eigenvalues --    1.18898   1.19258   1.20044   1.20384   1.21257
 Alpha virt. eigenvalues --    1.21803   1.22074   1.22414   1.22664   1.22857
 Alpha virt. eigenvalues --    1.23649   1.24302   1.24507   1.25019   1.25414
 Alpha virt. eigenvalues --    1.25571   1.26108   1.26683   1.27151   1.27764
 Alpha virt. eigenvalues --    1.28112   1.28574   1.29538   1.29705   1.30043
 Alpha virt. eigenvalues --    1.30704   1.31069   1.31279   1.31891   1.31996
 Alpha virt. eigenvalues --    1.32235   1.33062   1.33914   1.34102   1.34549
 Alpha virt. eigenvalues --    1.34676   1.35333   1.35866   1.36650   1.37119
 Alpha virt. eigenvalues --    1.37244   1.37490   1.37596   1.38804   1.38850
 Alpha virt. eigenvalues --    1.38919   1.39614   1.40154   1.40359   1.40388
 Alpha virt. eigenvalues --    1.41047   1.41174   1.41566   1.42455   1.42614
 Alpha virt. eigenvalues --    1.43233   1.43414   1.43433   1.44115   1.44618
 Alpha virt. eigenvalues --    1.44695   1.45014   1.45432   1.45815   1.46546
 Alpha virt. eigenvalues --    1.46892   1.47522   1.47610   1.48070   1.48370
 Alpha virt. eigenvalues --    1.49869   1.49932   1.50444   1.50566   1.51414
 Alpha virt. eigenvalues --    1.51537   1.51866   1.52088   1.52411   1.52633
 Alpha virt. eigenvalues --    1.52894   1.52949   1.53238   1.53338   1.53464
 Alpha virt. eigenvalues --    1.53676   1.53954   1.54138   1.54700   1.54937
 Alpha virt. eigenvalues --    1.54967   1.55248   1.55554   1.55738   1.55876
 Alpha virt. eigenvalues --    1.56159   1.56485   1.56825   1.57389   1.57584
 Alpha virt. eigenvalues --    1.57602   1.57929   1.58127   1.58816   1.59115
 Alpha virt. eigenvalues --    1.59342   1.59603   1.59934   1.60539   1.60882
 Alpha virt. eigenvalues --    1.61528   1.61841   1.62761   1.62904   1.63157
 Alpha virt. eigenvalues --    1.63673   1.64803   1.65230   1.65902   1.66014
 Alpha virt. eigenvalues --    1.66119   1.66451   1.67048   1.67231   1.68028
 Alpha virt. eigenvalues --    1.68378   1.68721   1.68992   1.69253   1.69641
 Alpha virt. eigenvalues --    1.69969   1.70403   1.70623   1.70890   1.71044
 Alpha virt. eigenvalues --    1.71379   1.71566   1.71706   1.72561   1.72708
 Alpha virt. eigenvalues --    1.72790   1.72843   1.73327   1.73379   1.73684
 Alpha virt. eigenvalues --    1.73793   1.74077   1.74999   1.75138   1.75197
 Alpha virt. eigenvalues --    1.75306   1.75797   1.76053   1.76337   1.76479
 Alpha virt. eigenvalues --    1.76608   1.76838   1.76846   1.77058   1.77269
 Alpha virt. eigenvalues --    1.77589   1.77752   1.78215   1.78246   1.78402
 Alpha virt. eigenvalues --    1.78439   1.78823   1.79059   1.79193   1.79447
 Alpha virt. eigenvalues --    1.79607   1.79707   1.80000   1.80162   1.80174
 Alpha virt. eigenvalues --    1.80550   1.80795   1.81115   1.81220   1.81456
 Alpha virt. eigenvalues --    1.81735   1.81827   1.82045   1.82356   1.82521
 Alpha virt. eigenvalues --    1.82559   1.82915   1.83075   1.83396   1.83489
 Alpha virt. eigenvalues --    1.83722   1.83813   1.83983   1.84411   1.84431
 Alpha virt. eigenvalues --    1.84516   1.84840   1.85026   1.85130   1.85646
 Alpha virt. eigenvalues --    1.85695   1.85733   1.86210   1.86782   1.86909
 Alpha virt. eigenvalues --    1.87192   1.87672   1.87811   1.87875   1.87964
 Alpha virt. eigenvalues --    1.88160   1.88413   1.88778   1.88836   1.89075
 Alpha virt. eigenvalues --    1.89327   1.89518   1.89953   1.90074   1.90565
 Alpha virt. eigenvalues --    1.90767   1.90953   1.91112   1.91454   1.91850
 Alpha virt. eigenvalues --    1.92093   1.92240   1.92565   1.92618   1.93206
 Alpha virt. eigenvalues --    1.93262   1.93433   1.93541   1.93613   1.93701
 Alpha virt. eigenvalues --    1.93966   1.94116   1.94636   1.94726   1.95024
 Alpha virt. eigenvalues --    1.95485   1.96149   1.96341   1.96361   1.96730
 Alpha virt. eigenvalues --    1.96872   1.97679   1.97808   1.97955   1.98114
 Alpha virt. eigenvalues --    1.98449   1.98867   1.99221   1.99454   1.99741
 Alpha virt. eigenvalues --    2.00157   2.00500   2.00862   2.01067   2.01318
 Alpha virt. eigenvalues --    2.01923   2.02212   2.02781   2.02916   2.03032
 Alpha virt. eigenvalues --    2.03513   2.03616   2.04026   2.04225   2.04721
 Alpha virt. eigenvalues --    2.05485   2.05732   2.05777   2.06118   2.06339
 Alpha virt. eigenvalues --    2.06804   2.07043   2.07093   2.07563   2.08147
 Alpha virt. eigenvalues --    2.08590   2.08757   2.08894   2.09113   2.09553
 Alpha virt. eigenvalues --    2.10086   2.10502   2.10691   2.11173   2.11193
 Alpha virt. eigenvalues --    2.11365   2.11553   2.11684   2.12104   2.12206
 Alpha virt. eigenvalues --    2.12258   2.12708   2.13080   2.13203   2.13687
 Alpha virt. eigenvalues --    2.13930   2.14124   2.14654   2.14827   2.14957
 Alpha virt. eigenvalues --    2.15605   2.15865   2.16155   2.16449   2.16753
 Alpha virt. eigenvalues --    2.17209   2.17337   2.18016   2.18641   2.19178
 Alpha virt. eigenvalues --    2.19424   2.19656   2.20000   2.20173   2.20265
 Alpha virt. eigenvalues --    2.21096   2.21277   2.21833   2.22392   2.22912
 Alpha virt. eigenvalues --    2.23096   2.23640   2.23696   2.23979   2.24467
 Alpha virt. eigenvalues --    2.24598   2.25517   2.25924   2.26266   2.26948
 Alpha virt. eigenvalues --    2.27485   2.28049   2.28241   2.28371   2.29070
 Alpha virt. eigenvalues --    2.30242   2.30538   2.31115   2.31205   2.31341
 Alpha virt. eigenvalues --    2.31348   2.32043   2.32478   2.32627   2.33101
 Alpha virt. eigenvalues --    2.33254   2.33737   2.33840   2.34260   2.34445
 Alpha virt. eigenvalues --    2.34575   2.35019   2.35631   2.36563   2.36568
 Alpha virt. eigenvalues --    2.36774   2.36962   2.37229   2.37520   2.37762
 Alpha virt. eigenvalues --    2.38314   2.39151   2.39434   2.39965   2.40035
 Alpha virt. eigenvalues --    2.40215   2.40406   2.40592   2.40709   2.41153
 Alpha virt. eigenvalues --    2.41384   2.41775   2.42129   2.42220   2.42814
 Alpha virt. eigenvalues --    2.43164   2.43531   2.44135   2.44642   2.44761
 Alpha virt. eigenvalues --    2.44946   2.45277   2.45579   2.45679   2.46001
 Alpha virt. eigenvalues --    2.46282   2.47043   2.47448   2.47478   2.48505
 Alpha virt. eigenvalues --    2.49325   2.49768   2.50844   2.51330   2.51564
 Alpha virt. eigenvalues --    2.51975   2.52148   2.53081   2.54375   2.54416
 Alpha virt. eigenvalues --    2.54765   2.54944   2.55020   2.56112   2.56474
 Alpha virt. eigenvalues --    2.56541   2.57395   2.57485   2.57731   2.58451
 Alpha virt. eigenvalues --    2.59019   2.59286   2.59380   2.59942   2.60421
 Alpha virt. eigenvalues --    2.60849   2.61297   2.61408   2.61798   2.62069
 Alpha virt. eigenvalues --    2.62401   2.62666   2.63185   2.63274   2.63440
 Alpha virt. eigenvalues --    2.64090   2.64748   2.64985   2.65751   2.66136
 Alpha virt. eigenvalues --    2.66264   2.67286   2.67619   2.67799   2.68361
 Alpha virt. eigenvalues --    2.68429   2.69261   2.69724   2.70084   2.70479
 Alpha virt. eigenvalues --    2.70563   2.70919   2.71211   2.71792   2.72132
 Alpha virt. eigenvalues --    2.72326   2.73304   2.73999   2.74514   2.74602
 Alpha virt. eigenvalues --    2.74792   2.74979   2.75585   2.75682   2.76599
 Alpha virt. eigenvalues --    2.76653   2.77120   2.77767   2.78174   2.78864
 Alpha virt. eigenvalues --    2.78951   2.80089   2.81514   2.81750   2.82276
 Alpha virt. eigenvalues --    2.82877   2.82961   2.83188   2.83717   2.84130
 Alpha virt. eigenvalues --    2.84450   2.84565   2.84904   2.85397   2.86148
 Alpha virt. eigenvalues --    2.86385   2.86699   2.87724   2.87966   2.88302
 Alpha virt. eigenvalues --    2.88629   2.89207   2.89334   2.90133   2.90359
 Alpha virt. eigenvalues --    2.91022   2.91255   2.91350   2.91653   2.91971
 Alpha virt. eigenvalues --    2.92064   2.92614   2.92736   2.92897   2.93417
 Alpha virt. eigenvalues --    2.93542   2.93833   2.94262   2.94324   2.94707
 Alpha virt. eigenvalues --    2.95127   2.95436   2.95845   2.96121   2.96478
 Alpha virt. eigenvalues --    2.96693   2.97064   2.97483   2.97727   2.97828
 Alpha virt. eigenvalues --    2.98169   2.98538   2.98701   2.99204   2.99675
 Alpha virt. eigenvalues --    2.99776   3.00370   3.00478   3.01051   3.01098
 Alpha virt. eigenvalues --    3.01345   3.01705   3.02349   3.02444   3.02593
 Alpha virt. eigenvalues --    3.02950   3.03029   3.03512   3.04191   3.04842
 Alpha virt. eigenvalues --    3.05226   3.05826   3.06220   3.06939   3.07121
 Alpha virt. eigenvalues --    3.07278   3.08408   3.08680   3.09219   3.09260
 Alpha virt. eigenvalues --    3.10389   3.10755   3.11082   3.11604   3.11664
 Alpha virt. eigenvalues --    3.12798   3.12819   3.14248   3.14658   3.15416
 Alpha virt. eigenvalues --    3.15457   3.16428   3.16827   3.17518   3.19346
 Alpha virt. eigenvalues --    3.19368   3.20071   3.21196   3.21983   3.22755
 Alpha virt. eigenvalues --    3.24933   3.29711   3.35321   3.35448   3.37354
 Alpha virt. eigenvalues --    3.42023   3.44086   3.46038   3.48972   3.51785
 Alpha virt. eigenvalues --    3.58215   3.58286   3.62061   3.63811   3.65073
 Alpha virt. eigenvalues --    3.66721   3.71031
          Condensed to atoms (all electrons):
 Mulliken charges:
               1
     1  Mg   0.963083
     2  C   -0.102598
     3  C   -0.084289
     4  C   -0.033438
     5  C   -0.078645
     6  N   -0.398284
     7  C    0.020380
     8  C   -0.097776
     9  C   -0.127177
    10  C    0.081813
    11  C    0.039434
    12  C   -0.023954
    13  C   -0.008016
    14  C    0.213880
    15  O   -0.289485
    16  O   -0.363005
    17  N   -0.471405
    18  C    0.139415
    19  C   -0.206119
    20  C   -0.068164
    21  C    0.149118
    22  C    0.056881
    23  C    0.049764
    24  O   -0.241010
    25  C   -0.033743
    26  N   -0.405573
    27  C    0.037470
    28  C   -0.074457
    29  C   -0.084619
    30  C    0.071770
    31  C   -0.000009
    32  C   -0.050693
    33  C   -0.083409
    34  N   -0.485289
    35  C    0.163751
    36  C   -0.190350
    37  C   -0.051717
    38  C    0.231481
    39  C    0.065721
    40  C    0.159332
    41  O   -0.212886
    42  C   -0.053441
    43  C    0.284887
    44  O   -0.270806
    45  O   -0.366689
    46  C    0.113341
    47  C    0.216521
    48  C   -0.150610
    49  C   -0.205815
    50  C    0.039775
    51  C   -0.006118
    52  C   -0.076862
    53  C   -0.010131
    54  C   -0.238015
    55  C   -0.016100
    56  C    0.013967
    57  C   -0.041734
    58  C   -0.035286
    59  C   -0.214524
    60  C   -0.003048
    61  C    0.002772
    62  C   -0.060271
    63  C    0.025969
    64  C   -0.239651
    65  C   -0.007562
    66  C   -0.025432
    67  H    0.012379
    68  H    0.024839
    69  H    0.006283
    70  H    0.050621
    71  H    0.055782
    72  H    0.051479
    73  H    0.047112
    74  H    0.049908
    75  H    0.048614
    76  H    0.078724
    77  H    0.057227
    78  H    0.072752
    79  H    0.068328
    80  H    0.045424
    81  H    0.067920
    82  H    0.060444
    83  H    0.051654
    84  H    0.057842
    85  H    0.054780
    86  H    0.039428
    87  H    0.051807
    88  H    0.052101
    89  H    0.052107
    90  H    0.043825
    91  H    0.039283
    92  H    0.042137
    93  H    0.063182
    94  H    0.034798
    95  H    0.029181
    96  H    0.071957
    97  H    0.053645
    98  H    0.081702
    99  H    0.058884
   100  H    0.084391
   101  H    0.048793
   102  H    0.076531
   103  H    0.072443
   104  H    0.040549
   105  H    0.048834
   106  H    0.060235
   107  H    0.025975
   108  H    0.051352
   109  H    0.034043
   110  H    0.047968
   111  H    0.037567
   112  H    0.032416
   113  H    0.035433
   114  H    0.041448
   115  H    0.033492
   116  H    0.035384
   117  H    0.024559
   118  H    0.029591
   119  H    0.032461
   120  H    0.037935
   121  H    0.033700
   122  H    0.015824
   123  H    0.027348
   124  H    0.027520
   125  H    0.021119
   126  H    0.027118
   127  H    0.028234
   128  H    0.015439
   129  H    0.023096
   130  H    0.033970
   131  H    0.025966
   132  H    0.020879
   133  H    0.016283
   134  H    0.037073
   135  H    0.021411
   136  H    0.035255
   137  H    0.028949
   138  H    0.033191
   139  H    0.030334
   140  H    0.037417
 Sum of Mulliken charges =  -0.00000
 Mulliken charges with hydrogens summed into heavy atoms:
               1
     1  Mg   0.963083
     2  C   -0.102598
     3  C   -0.071909
     4  C   -0.008599
     5  C   -0.072361
     6  N   -0.398284
     7  C    0.020380
     8  C   -0.047155
     9  C   -0.071395
    10  C    0.081813
    11  C    0.187934
    12  C    0.103384
    13  C    0.121963
    14  C    0.213880
    15  O   -0.289485
    16  O   -0.363005
    17  N   -0.471405
    18  C    0.139415
    19  C   -0.206119
    20  C   -0.068164
    21  C    0.149118
    22  C    0.238553
    23  C    0.049764
    24  O   -0.241010
    25  C    0.136197
    26  N   -0.405573
    27  C    0.037470
    28  C   -0.019678
    29  C   -0.045191
    30  C    0.071770
    31  C    0.156006
    32  C    0.032415
    33  C    0.056707
    34  N   -0.485289
    35  C    0.163751
    36  C   -0.190350
    37  C   -0.051717
    38  C    0.231481
    39  C    0.220505
    40  C    0.159332
    41  O   -0.212886
    42  C    0.028261
    43  C    0.284887
    44  O   -0.270806
    45  O   -0.366689
    46  C    0.305409
    47  C    0.365496
    48  C   -0.110061
    49  C   -0.205815
    50  C    0.174819
    51  C    0.079278
    52  C    0.008672
    53  C    0.057718
    54  C   -0.196567
    55  C    0.077336
    56  C    0.076019
    57  C    0.029902
    58  C    0.007886
    59  C   -0.187004
    60  C    0.073423
    61  C    0.041308
    62  C   -0.000335
    63  C    0.063131
    64  C   -0.202579
    65  C    0.078054
    66  C    0.075510
 Electronic spatial extent (au):  <R**2>=         152030.7667
 Charge=             -0.0000 electrons
 Dipole moment (field-independent basis, Debye):
    X=             -3.2962    Y=              3.5176    Z=             -0.3640  Tot=              4.8343
 Quadrupole moment (field-independent basis, Debye-Ang):
   XX=           -370.6041   YY=           -421.2840   ZZ=           -404.2815
   XY=             13.8833   XZ=             25.9723   YZ=              2.3603
 Traceless Quadrupole moment (field-independent basis, Debye-Ang):
   XX=             28.1191   YY=            -22.5608   ZZ=             -5.5583
   XY=             13.8833   XZ=             25.9723   YZ=              2.3603
 Octapole moment (field-independent basis, Debye-Ang**2):
  XXX=            442.4645  YYY=            102.6910  ZZZ=             12.0179  XYY=           -253.3111
  XXY=           -254.5832  XXZ=            130.1099  XZZ=             45.9648  YZZ=             12.3237
  YYZ=            -85.0120  XYZ=            -60.5877
 Hexadecapole moment (field-independent basis, Debye-Ang**3):
 XXXX=        -176049.1558 YYYY=         -22382.7785 ZZZZ=          -6832.8307 XXXY=           -475.5800
 XXXZ=           3259.6207 YYYX=            616.9465 YYYZ=             79.4998 ZZZX=             77.3613
 ZZZY=            -19.2943 XXYY=         -35340.1785 XXZZ=         -31348.1342 YYZZ=          -4773.5553
 XXYZ=           -289.2140 YYXZ=            -37.6971 ZZXY=             87.0288
 N-N= 9.219772928650D+03 E-N=-2.543067567678D+04  KE= 2.975009114382D+03
 Leave Link  601 at Wed Apr 27 22:59:06 2022, MaxMem= 10066329600 cpu:              13.7 elap:               0.7
 (Enter /sw/apps/gaussian-16.0/g16/l9999.exe)
 1\1\GINC-BP1-COMPUTE183\SP\RPBE1PBE TD-FC\def2SVP\C55H74Mg1N4O6\OF1564
 1\27-Apr-2022\0\\#p PBE1PBE/Def2SVP td=(nstates=5)\\step_1351_chromoph
 ore_16 TDDFT with PBE1PBE functional\\0,1\Mg,0,40.463,41.583,26.886\C,
 0,39.327,43.935,29.328\C,0,41.222,39.433,29.531\C,0,41.725,39.592,24.7
 15\C,0,40.071,44.106,24.438\N,0,40.298,41.681,29.191\C,0,39.759,42.776
 ,29.93\C,0,39.758,42.355,31.402\C,0,40.218,40.873,31.484\C,0,40.707,40
 .635,30.006\C,0,41.172,40.547,32.62\C,0,38.361,42.697,32.124\C,0,37.95
 6,41.848,33.361\C,0,37.286,42.589,34.546\O,0,36.363,43.424,34.447\O,0,
 37.743,42.098,35.737\N,0,41.299,39.669,27.106\C,0,41.578,38.968,28.233
 \C,0,42.072,37.636,27.89\C,0,42.149,37.649,26.438\C,0,41.742,38.99,26.
 015\C,0,42.475,36.595,28.877\C,0,42.449,36.538,25.445\O,0,42.574,36.80
 6,24.258\C,0,42.724,35.039,25.954\N,0,40.767,41.809,24.831\C,0,41.316,
 40.782,24.132\C,0,41.462,41.097,22.661\C,0,40.72,42.464,22.557\C,0,40.
 476,42.832,24.012\C,0,42.872,41.052,21.923\C,0,39.454,42.523,21.646\C,
 0,38.202,41.807,22.186\N,0,39.931,43.602,26.861\C,0,39.781,44.425,25.7
 73\C,0,39.221,45.669,26.283\C,0,39.09,45.52,27.647\C,0,39.457,44.2,27.
 989\C,0,38.961,46.919,25.499\C,0,38.707,46.261,28.809\O,0,38.4,47.434,
 28.973\C,0,38.809,45.248,29.973\C,0,39.657,45.754,30.975\O,0,40.859,46
 .025,30.827\O,0,38.84,46.036,32.045\C,0,39.542,46.642,33.196\C,0,37.32
 7,42.998,36.854\C,0,37.979,42.369,38.115\C,0,37.641,42.687,39.4\C,0,36
 .579,43.611,39.877\C,0,38.394,42.033,40.557\C,0,37.527,41.36,41.656\C,
 0,38.238,40.007,42.034\C,0,38.215,39.739,43.57\C,0,39.558,40.096,44.25
 \C,0,37.76,38.293,43.987\C,0,36.215,38.332,44.309\C,0,35.423,37.269,43
 .482\C,0,34.678,36.174,44.235\C,0,34.322,34.924,43.476\C,0,33.478,36.7
 58,44.925\C,0,33.348,36.217,46.409\C,0,32.032,35.511,46.733\C,0,31.427
 ,36.146,48.013\C,0,30.152,36.948,47.749\C,0,31.16,35.053,49.038\H,0,41
 .159,38.583,30.213\H,0,42.265,39.035,23.946\H,0,39.966,44.899,23.696\H
 ,0,40.543,43.012,31.773\H,0,39.251,40.37,31.484\H,0,42.141,40.259,32.2
 13\H,0,40.727,39.734,33.194\H,0,41.305,41.395,33.292\H,0,37.639,42.566
 ,31.318\H,0,38.403,43.724,32.488\H,0,38.792,41.361,33.862\H,0,37.175,4
 1.197,32.967\H,0,41.636,35.905,28.79\H,0,42.49,37.035,29.874\H,0,43.45
 5,36.182,28.636\H,0,42.83,34.329,25.134\H,0,42.014,34.767,26.736\H,0,4
 3.704,35.113,26.425\H,0,40.872,40.36,22.116\H,0,41.352,43.244,22.134\H
 ,0,43.72,41.036,22.607\H,0,43.007,41.846,21.188\H,0,42.865,40.063,21.4
 64\H,0,39.645,42.069,20.673\H,0,39.114,43.55,21.51\H,0,37.353,42.452,2
 1.959\H,0,38.313,41.502,23.227\H,0,38.025,40.91,21.591\H,0,39.384,46.8
 23,24.499\H,0,39.317,47.725,26.142\H,0,37.925,47.192,25.299\H,0,37.849
 ,44.948,30.394\H,0,38.987,47.521,33.525\H,0,40.557,46.963,32.962\H,0,3
 9.409,45.936,34.015\H,0,36.242,42.937,36.937\H,0,37.661,44.032,36.765\
 H,0,38.661,41.545,37.909\H,0,36.994,44.483,40.382\H,0,35.872,43.121,40
 .547\H,0,36.054,43.995,39.003\H,0,39.096,42.726,41.02\H,0,38.972,41.22
 8,40.103\H,0,36.497,41.065,41.456\H,0,37.529,42.033,42.514\H,0,39.278,
 40.066,41.71\H,0,37.776,39.215,41.444\H,0,37.544,40.431,44.078\H,0,40.
 087,39.171,44.481\H,0,39.426,40.664,45.171\H,0,40.176,40.71,43.595\H,0
 ,38.312,37.897,44.839\H,0,37.951,37.631,43.143\H,0,35.684,39.233,44.00
 1\H,0,36.011,38.119,45.358\H,0,36.164,36.671,42.951\H,0,34.715,37.794,
 42.841\H,0,35.383,35.794,44.974\H,0,33.382,34.983,42.927\H,0,34.116,34
 .04,44.081\H,0,35.105,34.665,42.764\H,0,32.563,36.403,44.452\H,0,33.43
 7,37.844,44.846\H,0,33.612,37.029,47.086\H,0,34.172,35.509,46.496\H,0,
 32.19,34.433,46.719\H,0,31.329,35.568,45.903\H,0,32.072,36.859,48.527\
 H,0,29.323,36.718,48.419\H,0,29.797,36.795,46.73\H,0,30.278,37.999,48.
 008\H,0,30.968,35.624,49.947\H,0,32.004,34.394,49.241\H,0,30.375,34.41
 5,48.633\\Version=ES64L-G16RevA.03\State=1-A\HF=-3005.3572509\RMSD=4.5
 40e-09\PG=C01 [X(C55H74Mg1N4O6)]\\@


 MAN IS THE MEASURE OF ALL THINGS.
  -- PROTAGORAS (5TH CENTURY B.C.)
 Job cpu time:       0 days  9 hours 15 minutes  3.2 seconds.
 Elapsed time:       0 days  0 hours 23 minutes 11.1 seconds.
 File lengths (MBytes):  RWF=   8929 Int=      0 D2E=      0 Chk=    390 Scr=      1
 Normal termination of Gaussian 16 at Wed Apr 27 22:59:06 2022.
