 Entering Gaussian System, Link 0=g16
 Initial command:
 /sw/apps/gaussian-16.0/g16/l1.exe "/tmp/Gau-255372.inp" -scrdir="/tmp/"
 Entering Link 1 = /sw/apps/gaussian-16.0/g16/l1.exe PID=    255373.
  
 Copyright (c) 1988,1990,1992,1993,1995,1998,2003,2009,2016,
            Gaussian, Inc.  All Rights Reserved.
  
 This is part of the Gaussian(R) 16 program.  It is based on
 the Gaussian(R) 09 system (copyright 2009, Gaussian, Inc.),
 the Gaussian(R) 03 system (copyright 2003, Gaussian, Inc.),
 the Gaussian(R) 98 system (copyright 1998, Gaussian, Inc.),
 the Gaussian(R) 94 system (copyright 1995, Gaussian, Inc.),
 the Gaussian 92(TM) system (copyright 1992, Gaussian, Inc.),
 the Gaussian 90(TM) system (copyright 1990, Gaussian, Inc.),
 the Gaussian 88(TM) system (copyright 1988, Gaussian, Inc.),
 the Gaussian 86(TM) system (copyright 1986, Carnegie Mellon
 University), and the Gaussian 82(TM) system (copyright 1983,
 Carnegie Mellon University). Gaussian is a federally registered
 trademark of Gaussian, Inc.
  
 This software contains proprietary and confidential information,
 including trade secrets, belonging to Gaussian, Inc.
  
 This software is provided under written license and may be
 used, copied, transmitted, or stored only in accord with that
 written license.
  
 The following legend is applicable only to US Government
 contracts under FAR:
  
                    RESTRICTED RIGHTS LEGEND
  
 Use, reproduction and disclosure by the US Government is
 subject to restrictions as set forth in subparagraphs (a)
 and (c) of the Commercial Computer Software - Restricted
 Rights clause in FAR 52.227-19.
  
 Gaussian, Inc.
 340 Quinnipiac St., Bldg. 40, Wallingford CT 06492
  
  
 ---------------------------------------------------------------
 Warning -- This program may not be used in any manner that
 competes with the business of Gaussian, Inc. or will provide
 assistance to any competitor of Gaussian, Inc.  The licensee
 of this program is prohibited from giving any competitor of
 Gaussian, Inc. access to this program.  By using this program,
 the user acknowledges that Gaussian, Inc. is engaged in the
 business of creating and licensing software in the field of
 computational chemistry and represents and warrants to the
 licensee that it is not a competitor of Gaussian, Inc. and that
 it will not use this program in any manner prohibited above.
 ---------------------------------------------------------------
  

 Cite this work as:
 Gaussian 16, Revision A.03,
 M. J. Frisch, G. W. Trucks, H. B. Schlegel, G. E. Scuseria, 
 M. A. Robb, J. R. Cheeseman, G. Scalmani, V. Barone, 
 G. A. Petersson, H. Nakatsuji, X. Li, M. Caricato, A. V. Marenich, 
 J. Bloino, B. G. Janesko, R. Gomperts, B. Mennucci, H. P. Hratchian, 
 J. V. Ortiz, A. F. Izmaylov, J. L. Sonnenberg, D. Williams-Young, 
 F. Ding, F. Lipparini, F. Egidi, J. Goings, B. Peng, A. Petrone, 
 T. Henderson, D. Ranasinghe, V. G. Zakrzewski, J. Gao, N. Rega, 
 G. Zheng, W. Liang, M. Hada, M. Ehara, K. Toyota, R. Fukuda, 
 J. Hasegawa, M. Ishida, T. Nakajima, Y. Honda, O. Kitao, H. Nakai, 
 T. Vreven, K. Throssell, J. A. Montgomery, Jr., J. E. Peralta, 
 F. Ogliaro, M. J. Bearpark, J. J. Heyd, E. N. Brothers, K. N. Kudin, 
 V. N. Staroverov, T. A. Keith, R. Kobayashi, J. Normand, 
 K. Raghavachari, A. P. Rendell, J. C. Burant, S. S. Iyengar, 
 J. Tomasi, M. Cossi, J. M. Millam, M. Klene, C. Adamo, R. Cammi, 
 J. W. Ochterski, R. L. Martin, K. Morokuma, O. Farkas, 
 J. B. Foresman, and D. J. Fox, Gaussian, Inc., Wallingford CT, 2016.
 
 ******************************************
 Gaussian 16:  ES64L-G16RevA.03 25-Dec-2016
                 4-May-2022 
 ******************************************
 %nproc=24
 Will use up to   24 processors via shared memory.
 %mem=75GB
 -----------------------------------
 #p cam-b3lyp/Def2SVP td=(nstates=5)
 -----------------------------------
 1/38=1,172=1/1;
 2/12=2,17=6,18=5,40=1/2;
 3/5=43,7=101,11=9,25=1,30=1,74=-40/1,2,3,8;
 4//1;
 5/5=2,38=5/2;
 8/6=1,10=1,108=5/1;
 9/41=5,42=1,70=2/14;
 6/7=2,8=2,9=2,10=2/1;
 99/5=1,9=1/99;
 Leave Link    1 at Wed May  4 01:35:37 2022, MaxMem= 10066329600 cpu:               0.5 elap:               0.0
 (Enter /sw/apps/gaussian-16.0/g16/l101.exe)
 --------------------------------------------------------
 step_1251_chromophore_24 TDDFT with cam-b3lyp functional
 --------------------------------------------------------
 Symbolic Z-matrix:
 Charge =  0 Multiplicity = 1
 Mg                    0.511     45.07     24.276 
 C                     2.678     44.307    26.956 
 C                    -2.043     43.98     26.36 
 C                    -1.457     45.159    21.592 
 C                     3.256     45.569    22.26 
 N                     0.279     44.412    26.456 
 C                     1.359     44.222    27.343 
 C                     0.805     44.039    28.728 
 C                    -0.7       43.773    28.521 
 C                    -0.861     44.095    27.013 
 C                    -1.159     42.324    28.914 
 C                     0.987     45.243    29.678 
 C                     1.395     44.837    31.146 
 C                     1.23      43.426    31.669 
 O                     2.164     42.651    31.907 
 O                     0.015     43.131    32.084 
 N                    -1.519     44.606    24.003 
 C                    -2.42      44.087    24.954 
 C                    -3.635     43.715    24.261 
 C                    -3.578     44.137    22.936 
 C                    -2.123     44.652    22.758 
 C                    -4.702     42.95     25.023 
 C                    -4.577     44.052    21.854 
 O                    -4.391     44.461    20.726 
 C                    -5.909     43.323    22.094 
 N                     0.791     45.38     22.274 
 C                    -0.175     45.488    21.325 
 C                     0.444     45.864    19.989 
 C                     1.833     46.383    20.447 
 C                     1.98      45.666    21.696 
 C                     0.374     44.677    18.962 
 C                     1.944     47.893    20.589 
 C                     0.772     48.855    20.269 
 N                     2.618     45.143    24.594 
 C                     3.638     45.2      23.653 
 C                     4.963     45.033    24.203 
 C                     4.652     44.678    25.604 
 C                     3.178     44.708    25.718 
 C                     6.335     45.053    23.522 
 C                     5.243     44.26     26.82 
 O                     6.387     44.167    27.159 
 C                     3.975     43.912    27.749 
 C                     3.938     42.408    27.977 
 O                     3.509     41.591    27.199 
 O                     4.562     42.065    29.183 
 C                     4.287     40.712    29.735 
 C                    -0.229     41.897    32.884 
 C                    -1.617     41.95     33.37 
 C                    -2.236     41.18     34.296 
 C                    -1.674     39.902    34.916 
 C                    -3.672     41.579    34.735 
 C                    -3.478     42.631    35.885 
 C                    -4.166     43.936    35.622 
 C                    -5.485     44.086    36.399 
 C                    -5.563     45.505    36.908 
 C                    -6.73      43.671    35.582 
 C                    -7.356     42.321    36.075 
 C                    -8.869     42.455    36.558 
 C                    -9.531     41.024    36.783 
 C                    -10.383    40.581    35.581 
 C                    -10.286    41.011    38.103 
 C                    -10.567    39.576    38.591 
 C                    -12.155    39.343    38.838 
 C                    -12.444    37.844    38.988 
 C                    -13.157    37.414    37.65 
 C                    -13.201    37.494    40.286 
 H                    -2.93      43.8      26.971 
 H                    -2.033     44.982    20.682 
 H                     4.063     45.816    21.566 
 H                     1.368     43.216    29.167 
 H                    -1.212     44.468    29.185 
 H                    -0.243     41.816    29.215 
 H                    -1.548     41.813    28.033 
 H                    -1.964     42.265    29.645 
 H                     0.168     45.962    29.651 
 H                     1.891     45.727    29.308 
 H                     0.898     45.553    31.801 
 H                     2.467     45.002    31.258 
 H                    -5.208     42.208    24.405 
 H                    -5.426     43.66     25.422 
 H                    -4.133     42.324    25.71 
 H                    -6.555     43.917    22.74 
 H                    -5.81      42.295    22.444 
 H                    -6.489     43.352    21.172 
 H                    -0.203     46.643    19.587 
 H                     2.543     45.986    19.722 
 H                    -0.031     43.791    19.452 
 H                     1.327     44.413    18.503 
 H                    -0.203     44.928    18.072 
 H                     2.739     48.26     19.939 
 H                     2.211     48.192    21.603 
 H                     0.576     49.152    19.239 
 H                     0.931     49.73     20.899 
 H                    -0.132     48.394    20.668 
 H                     6.685     46.085    23.567 
 H                     6.096     44.906    22.469 
 H                     7.082     44.39     23.958 
 H                     4.112     44.423    28.702 
 H                     5.186     40.128    29.932 
 H                     3.598     40.107    29.145 
 H                     3.853     40.623    30.731 
 H                     0.383     42.077    33.768 
 H                    -0.005     40.954    32.388 
 H                    -2.218     42.837    33.175 
 H                    -2.412     39.106    34.812 
 H                    -1.479     40.079    35.974 
 H                    -0.676     39.749    34.506 
 H                    -4.084     40.67     35.172 
 H                    -4.314     42.001    33.961 
 H                    -2.422     42.901    35.859 
 H                    -3.642     42.189    36.868 
 H                    -4.352     44.094    34.56 
 H                    -3.476     44.725    35.921 
 H                    -5.39      43.398    37.239 
 H                    -6.589     45.836    37.064 
 H                    -5.232     46.207    36.143 
 H                    -5.011     45.766    37.811 
 H                    -6.467     43.636    34.525 
 H                    -7.49      44.452    35.598 
 H                    -6.821     41.828    36.887 
 H                    -7.343     41.602    35.256 
 H                    -9.371     43.011    35.766 
 H                    -8.847     43.063    37.463 
 H                    -8.688     40.356    36.958 
 H                    -10.371    41.369    34.828 
 H                    -11.426    40.381    35.827 
 H                    -9.79      39.824    35.067 
 H                    -11.103    41.732    38.134 
 H                    -9.54      41.433    38.776 
 H                    -10.126    39.486    39.583 
 H                    -10.149    38.835    37.909 
 H                    -12.728    39.928    38.118 
 H                    -12.35     39.783    39.816 
 H                    -11.578    37.183    39.001 
 H                    -14.068    36.826    37.761 
 H                    -12.43     36.709    37.247 
 H                    -13.336    38.216    36.933 
 H                    -12.478    36.841    40.777 
 H                    -14.087    36.94     39.976 
 H                    -13.485    38.347    40.902 
 
 ITRead=  0  0  0  0  0  0  0  0  0  0  0  0  0  0  0  0  0  0  0  0
 ITRead=  0  0  0  0  0  0  0  0  0  0  0  0  0  0  0  0  0  0  0  0
 ITRead=  0  0  0  0  0  0  0  0  0  0  0  0  0  0  0  0  0  0  0  0
 ITRead=  0  0  0  0  0  0  0  0  0  0  0  0  0  0  0  0  0  0  0  0
 ITRead=  0  0  0  0  0  0  0  0  0  0  0  0  0  0  0  0  0  0  0  0
 ITRead=  0  0  0  0  0  0  0  0  0  0  0  0  0  0  0  0  0  0  0  0
 ITRead=  0  0  0  0  0  0  0  0  0  0  0  0  0  0  0  0  0  0  0  0
 MicOpt= -1 -1 -1 -1 -1 -1 -1 -1 -1 -1 -1 -1 -1 -1 -1 -1 -1 -1 -1 -1
 MicOpt= -1 -1 -1 -1 -1 -1 -1 -1 -1 -1 -1 -1 -1 -1 -1 -1 -1 -1 -1 -1
 MicOpt= -1 -1 -1 -1 -1 -1 -1 -1 -1 -1 -1 -1 -1 -1 -1 -1 -1 -1 -1 -1
 MicOpt= -1 -1 -1 -1 -1 -1 -1 -1 -1 -1 -1 -1 -1 -1 -1 -1 -1 -1 -1 -1
 MicOpt= -1 -1 -1 -1 -1 -1 -1 -1 -1 -1 -1 -1 -1 -1 -1 -1 -1 -1 -1 -1
 MicOpt= -1 -1 -1 -1 -1 -1 -1 -1 -1 -1 -1 -1 -1 -1 -1 -1 -1 -1 -1 -1
 MicOpt= -1 -1 -1 -1 -1 -1 -1 -1 -1 -1 -1 -1 -1 -1 -1 -1 -1 -1 -1 -1
 NAtoms=    140 NQM=      140 NQMF=       0 NMMI=      0 NMMIF=      0
                NMic=       0 NMicF=      0.
                    Isotopes and Nuclear Properties:
 (Nuclear quadrupole moments (NQMom) in fm**2, nuclear magnetic moments (NMagM)
  in nuclear magnetons)

  Atom         1           2           3           4           5           6           7           8           9          10
 IAtWgt=          24          12          12          12          12          14          12          12          12          12
 AtmWgt=  23.9850450  12.0000000  12.0000000  12.0000000  12.0000000  14.0030740  12.0000000  12.0000000  12.0000000  12.0000000
 NucSpn=           0           0           0           0           0           2           0           0           0           0
 AtZEff=  -0.0000000  -0.0000000  -0.0000000  -0.0000000  -0.0000000  -0.0000000  -0.0000000  -0.0000000  -0.0000000  -0.0000000
 NQMom=    0.0000000   0.0000000   0.0000000   0.0000000   0.0000000   2.0440000   0.0000000   0.0000000   0.0000000   0.0000000
 NMagM=    0.0000000   0.0000000   0.0000000   0.0000000   0.0000000   0.4037610   0.0000000   0.0000000   0.0000000   0.0000000
 AtZNuc=  12.0000000   6.0000000   6.0000000   6.0000000   6.0000000   7.0000000   6.0000000   6.0000000   6.0000000   6.0000000

  Atom        11          12          13          14          15          16          17          18          19          20
 IAtWgt=          12          12          12          12          16          16          14          12          12          12
 AtmWgt=  12.0000000  12.0000000  12.0000000  12.0000000  15.9949146  15.9949146  14.0030740  12.0000000  12.0000000  12.0000000
 NucSpn=           0           0           0           0           0           0           2           0           0           0
 AtZEff=  -0.0000000  -0.0000000  -0.0000000  -0.0000000  -0.0000000  -0.0000000  -0.0000000  -0.0000000  -0.0000000  -0.0000000
 NQMom=    0.0000000   0.0000000   0.0000000   0.0000000   0.0000000   0.0000000   2.0440000   0.0000000   0.0000000   0.0000000
 NMagM=    0.0000000   0.0000000   0.0000000   0.0000000   0.0000000   0.0000000   0.4037610   0.0000000   0.0000000   0.0000000
 AtZNuc=   6.0000000   6.0000000   6.0000000   6.0000000   8.0000000   8.0000000   7.0000000   6.0000000   6.0000000   6.0000000

  Atom        21          22          23          24          25          26          27          28          29          30
 IAtWgt=          12          12          12          16          12          14          12          12          12          12
 AtmWgt=  12.0000000  12.0000000  12.0000000  15.9949146  12.0000000  14.0030740  12.0000000  12.0000000  12.0000000  12.0000000
 NucSpn=           0           0           0           0           0           2           0           0           0           0
 AtZEff=  -0.0000000  -0.0000000  -0.0000000  -0.0000000  -0.0000000  -0.0000000  -0.0000000  -0.0000000  -0.0000000  -0.0000000
 NQMom=    0.0000000   0.0000000   0.0000000   0.0000000   0.0000000   2.0440000   0.0000000   0.0000000   0.0000000   0.0000000
 NMagM=    0.0000000   0.0000000   0.0000000   0.0000000   0.0000000   0.4037610   0.0000000   0.0000000   0.0000000   0.0000000
 AtZNuc=   6.0000000   6.0000000   6.0000000   8.0000000   6.0000000   7.0000000   6.0000000   6.0000000   6.0000000   6.0000000

  Atom        31          32          33          34          35          36          37          38          39          40
 IAtWgt=          12          12          12          14          12          12          12          12          12          12
 AtmWgt=  12.0000000  12.0000000  12.0000000  14.0030740  12.0000000  12.0000000  12.0000000  12.0000000  12.0000000  12.0000000
 NucSpn=           0           0           0           2           0           0           0           0           0           0
 AtZEff=  -0.0000000  -0.0000000  -0.0000000  -0.0000000  -0.0000000  -0.0000000  -0.0000000  -0.0000000  -0.0000000  -0.0000000
 NQMom=    0.0000000   0.0000000   0.0000000   2.0440000   0.0000000   0.0000000   0.0000000   0.0000000   0.0000000   0.0000000
 NMagM=    0.0000000   0.0000000   0.0000000   0.4037610   0.0000000   0.0000000   0.0000000   0.0000000   0.0000000   0.0000000
 AtZNuc=   6.0000000   6.0000000   6.0000000   7.0000000   6.0000000   6.0000000   6.0000000   6.0000000   6.0000000   6.0000000

  Atom        41          42          43          44          45          46          47          48          49          50
 IAtWgt=          16          12          12          16          16          12          12          12          12          12
 AtmWgt=  15.9949146  12.0000000  12.0000000  15.9949146  15.9949146  12.0000000  12.0000000  12.0000000  12.0000000  12.0000000
 NucSpn=           0           0           0           0           0           0           0           0           0           0
 AtZEff=  -0.0000000  -0.0000000  -0.0000000  -0.0000000  -0.0000000  -0.0000000  -0.0000000  -0.0000000  -0.0000000  -0.0000000
 NQMom=    0.0000000   0.0000000   0.0000000   0.0000000   0.0000000   0.0000000   0.0000000   0.0000000   0.0000000   0.0000000
 NMagM=    0.0000000   0.0000000   0.0000000   0.0000000   0.0000000   0.0000000   0.0000000   0.0000000   0.0000000   0.0000000
 AtZNuc=   8.0000000   6.0000000   6.0000000   8.0000000   8.0000000   6.0000000   6.0000000   6.0000000   6.0000000   6.0000000

  Atom        51          52          53          54          55          56          57          58          59          60
 IAtWgt=          12          12          12          12          12          12          12          12          12          12
 AtmWgt=  12.0000000  12.0000000  12.0000000  12.0000000  12.0000000  12.0000000  12.0000000  12.0000000  12.0000000  12.0000000
 NucSpn=           0           0           0           0           0           0           0           0           0           0
 AtZEff=  -0.0000000  -0.0000000  -0.0000000  -0.0000000  -0.0000000  -0.0000000  -0.0000000  -0.0000000  -0.0000000  -0.0000000
 NQMom=    0.0000000   0.0000000   0.0000000   0.0000000   0.0000000   0.0000000   0.0000000   0.0000000   0.0000000   0.0000000
 NMagM=    0.0000000   0.0000000   0.0000000   0.0000000   0.0000000   0.0000000   0.0000000   0.0000000   0.0000000   0.0000000
 AtZNuc=   6.0000000   6.0000000   6.0000000   6.0000000   6.0000000   6.0000000   6.0000000   6.0000000   6.0000000   6.0000000

  Atom        61          62          63          64          65          66          67          68          69          70
 IAtWgt=          12          12          12          12          12          12           1           1           1           1
 AtmWgt=  12.0000000  12.0000000  12.0000000  12.0000000  12.0000000  12.0000000   1.0078250   1.0078250   1.0078250   1.0078250
 NucSpn=           0           0           0           0           0           0           1           1           1           1
 AtZEff=  -0.0000000  -0.0000000  -0.0000000  -0.0000000  -0.0000000  -0.0000000  -0.0000000  -0.0000000  -0.0000000  -0.0000000
 NQMom=    0.0000000   0.0000000   0.0000000   0.0000000   0.0000000   0.0000000   0.0000000   0.0000000   0.0000000   0.0000000
 NMagM=    0.0000000   0.0000000   0.0000000   0.0000000   0.0000000   0.0000000   2.7928460   2.7928460   2.7928460   2.7928460
 AtZNuc=   6.0000000   6.0000000   6.0000000   6.0000000   6.0000000   6.0000000   1.0000000   1.0000000   1.0000000   1.0000000

  Atom        71          72          73          74          75          76          77          78          79          80
 IAtWgt=           1           1           1           1           1           1           1           1           1           1
 AtmWgt=   1.0078250   1.0078250   1.0078250   1.0078250   1.0078250   1.0078250   1.0078250   1.0078250   1.0078250   1.0078250
 NucSpn=           1           1           1           1           1           1           1           1           1           1
 AtZEff=  -0.0000000  -0.0000000  -0.0000000  -0.0000000  -0.0000000  -0.0000000  -0.0000000  -0.0000000  -0.0000000  -0.0000000
 NQMom=    0.0000000   0.0000000   0.0000000   0.0000000   0.0000000   0.0000000   0.0000000   0.0000000   0.0000000   0.0000000
 NMagM=    2.7928460   2.7928460   2.7928460   2.7928460   2.7928460   2.7928460   2.7928460   2.7928460   2.7928460   2.7928460
 AtZNuc=   1.0000000   1.0000000   1.0000000   1.0000000   1.0000000   1.0000000   1.0000000   1.0000000   1.0000000   1.0000000

  Atom        81          82          83          84          85          86          87          88          89          90
 IAtWgt=           1           1           1           1           1           1           1           1           1           1
 AtmWgt=   1.0078250   1.0078250   1.0078250   1.0078250   1.0078250   1.0078250   1.0078250   1.0078250   1.0078250   1.0078250
 NucSpn=           1           1           1           1           1           1           1           1           1           1
 AtZEff=  -0.0000000  -0.0000000  -0.0000000  -0.0000000  -0.0000000  -0.0000000  -0.0000000  -0.0000000  -0.0000000  -0.0000000
 NQMom=    0.0000000   0.0000000   0.0000000   0.0000000   0.0000000   0.0000000   0.0000000   0.0000000   0.0000000   0.0000000
 NMagM=    2.7928460   2.7928460   2.7928460   2.7928460   2.7928460   2.7928460   2.7928460   2.7928460   2.7928460   2.7928460
 AtZNuc=   1.0000000   1.0000000   1.0000000   1.0000000   1.0000000   1.0000000   1.0000000   1.0000000   1.0000000   1.0000000

  Atom        91          92          93          94          95          96          97          98          99         100
 IAtWgt=           1           1           1           1           1           1           1           1           1           1
 AtmWgt=   1.0078250   1.0078250   1.0078250   1.0078250   1.0078250   1.0078250   1.0078250   1.0078250   1.0078250   1.0078250
 NucSpn=           1           1           1           1           1           1           1           1           1           1
 AtZEff=  -0.0000000  -0.0000000  -0.0000000  -0.0000000  -0.0000000  -0.0000000  -0.0000000  -0.0000000  -0.0000000  -0.0000000
 NQMom=    0.0000000   0.0000000   0.0000000   0.0000000   0.0000000   0.0000000   0.0000000   0.0000000   0.0000000   0.0000000
 NMagM=    2.7928460   2.7928460   2.7928460   2.7928460   2.7928460   2.7928460   2.7928460   2.7928460   2.7928460   2.7928460
 AtZNuc=   1.0000000   1.0000000   1.0000000   1.0000000   1.0000000   1.0000000   1.0000000   1.0000000   1.0000000   1.0000000

  Atom       101         102         103         104         105         106         107         108         109         110
 IAtWgt=           1           1           1           1           1           1           1           1           1           1
 AtmWgt=   1.0078250   1.0078250   1.0078250   1.0078250   1.0078250   1.0078250   1.0078250   1.0078250   1.0078250   1.0078250
 NucSpn=           1           1           1           1           1           1           1           1           1           1
 AtZEff=  -0.0000000  -0.0000000  -0.0000000  -0.0000000  -0.0000000  -0.0000000  -0.0000000  -0.0000000  -0.0000000  -0.0000000
 NQMom=    0.0000000   0.0000000   0.0000000   0.0000000   0.0000000   0.0000000   0.0000000   0.0000000   0.0000000   0.0000000
 NMagM=    2.7928460   2.7928460   2.7928460   2.7928460   2.7928460   2.7928460   2.7928460   2.7928460   2.7928460   2.7928460
 AtZNuc=   1.0000000   1.0000000   1.0000000   1.0000000   1.0000000   1.0000000   1.0000000   1.0000000   1.0000000   1.0000000

  Atom       111         112         113         114         115         116         117         118         119         120
 IAtWgt=           1           1           1           1           1           1           1           1           1           1
 AtmWgt=   1.0078250   1.0078250   1.0078250   1.0078250   1.0078250   1.0078250   1.0078250   1.0078250   1.0078250   1.0078250
 NucSpn=           1           1           1           1           1           1           1           1           1           1
 AtZEff=  -0.0000000  -0.0000000  -0.0000000  -0.0000000  -0.0000000  -0.0000000  -0.0000000  -0.0000000  -0.0000000  -0.0000000
 NQMom=    0.0000000   0.0000000   0.0000000   0.0000000   0.0000000   0.0000000   0.0000000   0.0000000   0.0000000   0.0000000
 NMagM=    2.7928460   2.7928460   2.7928460   2.7928460   2.7928460   2.7928460   2.7928460   2.7928460   2.7928460   2.7928460
 AtZNuc=   1.0000000   1.0000000   1.0000000   1.0000000   1.0000000   1.0000000   1.0000000   1.0000000   1.0000000   1.0000000

  Atom       121         122         123         124         125         126         127         128         129         130
 IAtWgt=           1           1           1           1           1           1           1           1           1           1
 AtmWgt=   1.0078250   1.0078250   1.0078250   1.0078250   1.0078250   1.0078250   1.0078250   1.0078250   1.0078250   1.0078250
 NucSpn=           1           1           1           1           1           1           1           1           1           1
 AtZEff=  -0.0000000  -0.0000000  -0.0000000  -0.0000000  -0.0000000  -0.0000000  -0.0000000  -0.0000000  -0.0000000  -0.0000000
 NQMom=    0.0000000   0.0000000   0.0000000   0.0000000   0.0000000   0.0000000   0.0000000   0.0000000   0.0000000   0.0000000
 NMagM=    2.7928460   2.7928460   2.7928460   2.7928460   2.7928460   2.7928460   2.7928460   2.7928460   2.7928460   2.7928460
 AtZNuc=   1.0000000   1.0000000   1.0000000   1.0000000   1.0000000   1.0000000   1.0000000   1.0000000   1.0000000   1.0000000

  Atom       131         132         133         134         135         136         137         138         139         140
 IAtWgt=           1           1           1           1           1           1           1           1           1           1
 AtmWgt=   1.0078250   1.0078250   1.0078250   1.0078250   1.0078250   1.0078250   1.0078250   1.0078250   1.0078250   1.0078250
 NucSpn=           1           1           1           1           1           1           1           1           1           1
 AtZEff=  -0.0000000  -0.0000000  -0.0000000  -0.0000000  -0.0000000  -0.0000000  -0.0000000  -0.0000000  -0.0000000  -0.0000000
 NQMom=    0.0000000   0.0000000   0.0000000   0.0000000   0.0000000   0.0000000   0.0000000   0.0000000   0.0000000   0.0000000
 NMagM=    2.7928460   2.7928460   2.7928460   2.7928460   2.7928460   2.7928460   2.7928460   2.7928460   2.7928460   2.7928460
 AtZNuc=   1.0000000   1.0000000   1.0000000   1.0000000   1.0000000   1.0000000   1.0000000   1.0000000   1.0000000   1.0000000
 Leave Link  101 at Wed May  4 01:35:38 2022, MaxMem= 10066329600 cpu:               3.5 elap:               0.2
 (Enter /sw/apps/gaussian-16.0/g16/l202.exe)
 Stoichiometry    C55H74MgN4O6
 Framework group  C1[X(C55H74MgN4O6)]
 Deg. of freedom   414
 Full point group                 C1      NOp   1
 Largest Abelian subgroup         C1      NOp   1
 Largest concise Abelian subgroup C1      NOp   1
                         Standard orientation:                         
 ---------------------------------------------------------------------
 Center     Atomic      Atomic             Coordinates (Angstroms)
 Number     Number       Type             X           Y           Z
 ---------------------------------------------------------------------
      1         12           0        5.313477    1.008876    0.345590
      2          6           0        4.325507   -2.364021    0.017057
      3          6           0        1.938663    1.765429    0.041721
      4          6           0        6.253133    4.184309    0.001393
      5          6           0        8.600441    0.023604    0.074693
      6          7           0        3.332241   -0.132988    0.245393
      7          6           0        3.233315   -1.537344    0.160156
      8          6           0        1.795018   -1.921954    0.365112
      9          6           0        1.006926   -0.605031    0.212617
     10          6           0        2.155959    0.435488    0.185943
     11          6           0        0.073912   -0.554010   -1.048974
     12          6           0        1.468916   -2.559143    1.733647
     13          6           0        0.474468   -3.779579    1.644568
     14          6           0       -0.377151   -4.039621    0.420314
     15          8           0       -0.206799   -4.977225   -0.368041
     16          8           0       -1.482355   -3.325539    0.356403
     17          7           0        4.219464    2.775304    0.039658
     18          6           0        2.828942    2.906600   -0.146818
     19          6           0        2.559129    4.271556   -0.545507
     20          6           0        3.719616    5.034435   -0.454719
     21          6           0        4.837414    4.000167   -0.146899
     22          6           0        1.155855    4.633604   -0.997284
     23          6           0        3.947857    6.472764   -0.689380
     24          8           0        5.028717    7.014612   -0.578007
     25          6           0        2.800954    7.358810   -1.202022
     26          7           0        7.098821    1.986293    0.146329
     27          6           0        7.291902    3.330813    0.126122
     28          6           0        8.778569    3.645571    0.112624
     29          6           0        9.368173    2.288393    0.580472
     30          6           0        8.312274    1.389007    0.165888
     31          6           0        9.233893    4.239251   -1.268977
     32          6           0        9.699932    2.204334    2.062179
     33          6           0        9.500029    3.392869    3.036269
     34          7           0        6.320449   -0.869183    0.276293
     35          6           0        7.657832   -1.129374    0.006406
     36          6           0        7.968053   -2.530031   -0.160734
     37          6           0        6.616878   -3.129665   -0.143031
     38          6           0        5.673120   -2.010068    0.062872
     39          6           0        9.301845   -3.229254   -0.441143
     40          6           0        5.920984   -4.348894   -0.321559
     41          8           0        6.306375   -5.474822   -0.448311
     42          6           0        4.375093   -3.899375   -0.310531
     43          6           0        3.802796   -4.093334   -1.707035
     44          8           0        3.948007   -3.336414   -2.635906
     45          8           0        3.152631   -5.328753   -1.818774
     46          6           0        2.228672   -5.514072   -2.968946
     47          6           0       -2.549783   -3.675457   -0.623622
     48          6           0       -3.724356   -2.843706   -0.316836
     49          6           0       -4.992977   -2.939208   -0.780536
     50          6           0       -5.460471   -3.833362   -1.927474
     51          6           0       -6.073195   -2.020620   -0.145444
     52          6           0       -6.584401   -2.794743    1.121932
     53          6           0       -6.459322   -2.008855    2.391685
     54          6           0       -7.793755   -1.398996    2.853584
     55          6           0       -7.878427   -1.553548    4.352808
     56          6           0       -7.996215    0.060895    2.387248
     57          6           0       -9.079498    0.192897    1.261861
     58          6           0      -10.304785    1.131721    1.658971
     59          6           0      -11.222634    1.446418    0.395979
     60          6           0      -10.904951    2.816381   -0.227911
     61          6           0      -12.686160    1.271926    0.770463
     62          6           0      -13.584704    1.124447   -0.473401
     63          6           0      -14.763347    2.241503   -0.478867
     64          6           0      -15.421832    2.296615   -1.863201
     65          6           0      -14.914605    3.636023   -2.520637
     66          6           0      -16.953536    2.116839   -1.819445
     67          1           0        0.903051    2.106614    0.101625
     68          1           0        6.573536    5.175321   -0.324865
     69          1           0        9.669911   -0.200197    0.068201
     70          1           0        1.581090   -2.682968   -0.384630
     71          1           0        0.368106   -0.545053    1.092604
     72          1           0        0.251663   -1.498635   -1.562596
     73          1           0        0.398243    0.249749   -1.710324
     74          1           0       -0.976077   -0.342598   -0.852260
     75          1           0        1.189225   -1.842133    2.505735
     76          1           0        2.404359   -3.038601    2.022502
     77          1           0       -0.143392   -3.725098    2.541212
     78          1           0        1.057060   -4.698092    1.721207
     79          1           0        1.151252    5.362224   -1.808218
     80          1           0        0.600996    5.021697   -0.143473
     81          1           0        0.803253    3.732701   -1.498933
     82          1           0        2.072367    7.531221   -0.410250
     83          1           0        2.332827    7.011442   -2.123584
     84          1           0        3.179601    8.372305   -1.331562
     85          1           0        8.903797    4.449644    0.837081
     86          1           0       10.244265    2.122888   -0.045950
     87          1           0        8.397983    4.222728   -1.969050
     88          1           0       10.080288    3.728854   -1.729081
     89          1           0        9.644935    5.244518   -1.176706
     90          1           0       10.758339    1.971242    2.183246
     91          1           0        9.148739    1.407479    2.562275
     92          1           0       10.253661    4.177301    3.101308
     93          1           0        9.325284    2.944033    4.013928
     94          1           0        8.547950    3.856531    2.776461
     95          1           0        9.729288   -3.476352    0.531371
     96          1           0        9.937394   -2.422866   -0.806323
     97          1           0        9.237868   -4.126998   -1.055664
     98          1           0        3.847636   -4.543088    0.393402
     99          1           0        2.457741   -6.387997   -3.578739
    100          1           0        2.129430   -4.646769   -3.622233
    101          1           0        1.184110   -5.759515   -2.776749
    102          1           0       -2.828299   -4.679859   -0.304240
    103          1           0       -2.271014   -3.617878   -1.674533
    104          1           0       -3.704929   -2.192691    0.555974
    105          1           0       -6.010849   -3.225427   -2.646206
    106          1           0       -6.118171   -4.605554   -1.527638
    107          1           0       -4.597853   -4.402373   -2.273348
    108          1           0       -6.878058   -2.001521   -0.879490
    109          1           0       -5.747081   -1.021603    0.146001
    110          1           0       -5.878579   -3.612556    1.269272
    111          1           0       -7.548763   -3.270458    0.942348
    112          1           0       -5.709789   -1.221745    2.313821
    113          1           0       -6.089202   -2.693956    3.154358
    114          1           0       -8.557429   -2.012917    2.376226
    115          1           0       -8.517184   -0.801257    4.813916
    116          1           0       -6.919606   -1.325716    4.817937
    117          1           0       -8.186555   -2.516158    4.761064
    118          1           0       -7.035656    0.472600    2.078269
    119          1           0       -8.259066    0.708688    3.223365
    120          1           0       -9.515282   -0.746752    0.921610
    121          1           0       -8.619369    0.624441    0.373074
    122          1           0       -9.849400    2.036724    2.061459
    123          1           0      -10.838404    0.614604    2.457102
    124          1           0      -11.030327    0.625575   -0.294479
    125          1           0      -10.120791    3.298705    0.355658
    126          1           0      -11.755398    3.497737   -0.257217
    127          1           0      -10.349832    2.598877   -1.140834
    128          1           0      -13.008916    1.953136    1.557909
    129          1           0      -12.663151    0.298882    1.260550
    130          1           0      -14.113952    0.177713   -0.372223
    131          1           0      -12.998519    1.147986   -1.392510
    132          1           0      -14.397852    3.162721   -0.024197
    133          1           0      -15.522227    1.845772    0.196119
    134          1           0      -15.089362    1.553520   -2.587300
    135          1           0      -15.680301    4.268175   -2.970168
    136          1           0      -14.353658    3.248179   -3.370859
    137          1           0      -14.266589    4.251465   -1.895624
    138          1           0      -17.071499    1.206449   -2.408932
    139          1           0      -17.371409    2.979933   -2.337578
    140          1           0      -17.382426    2.031206   -0.821226
 ---------------------------------------------------------------------
 Rotational constants (GHZ):           0.0428992           0.0099522           0.0085482
 Leave Link  202 at Wed May  4 01:35:38 2022, MaxMem= 10066329600 cpu:               0.2 elap:               0.0
 (Enter /sw/apps/gaussian-16.0/g16/l301.exe)
 Standard basis: def2SVP (5D, 7F)
 Ernie: Thresh=  0.10000D-02 Tol=  0.10000D-05 Strict=F.
 There are  1364 symmetry adapted cartesian basis functions of A   symmetry.
 There are  1298 symmetry adapted basis functions of A   symmetry.
  1298 basis functions,  2180 primitive gaussians,  1364 cartesian basis functions
   246 alpha electrons      246 beta electrons
       nuclear repulsion energy      9557.3374850535 Hartrees.
 IExCor=20419 DFT=T Ex+Corr=CAM-B3LYP ExCW=0 ScaHFX=  1.000000
 ScaDFX=  1.000000  1.000000  1.000000  0.810000 ScalE2=  1.000000  1.000000
 IRadAn=      5 IRanWt=     -1 IRanGd=            0 ICorTp=0 IEmpDi=  4
 HFx  wShort=  0.000000 wLong=  0.330000 cFull=  0.190000 cShort=  0.000000 cLong=  0.460000
 DFx  wShort=  0.000000 wLong=  0.330000 cFull=  0.190000 cShort=  0.000000 cLong=  0.460000
 NAtoms=  140 NActive=  140 NUniq=  140 SFac= 1.00D+00 NAtFMM=   60 NAOKFM=T Big=T
 Integral buffers will be    131072 words long.
 Raffenetti 1 integral format.
 Two-electron integral symmetry is turned on.
 Leave Link  301 at Wed May  4 01:35:38 2022, MaxMem= 10066329600 cpu:               1.3 elap:               0.1
 (Enter /sw/apps/gaussian-16.0/g16/l302.exe)
 NPDir=0 NMtPBC=     1 NCelOv=     1 NCel=       1 NClECP=     1 NCelD=      1
         NCelK=      1 NCelE2=     1 NClLst=     1 CellRange=     0.0.
 One-electron integrals computed using PRISM.
 One-electron integral symmetry used in STVInt
   1 Symmetry operations used in ECPInt.
 ECPInt:  NShTT=  192510 NPrTT=  683786 LenC2=   94257 LenP2D=  206877.
 LDataN:  DoStor=T MaxTD1= 4 Len=   56
 NBasis=  1298 RedAO= T EigKep=  2.78D-04  NBF=  1298
 NBsUse=  1298 1.00D-06 EigRej= -1.00D+00 NBFU=  1298
 Precomputing XC quadrature grid using
 IXCGrd= 4 IRadAn=           5 IRanWt=          -1 IRanGd=           0 AccXCQ= 0.00D+00.
 Generated NRdTot=       0 NPtTot=           0 NUsed=           0 NTot=          32
 NSgBfM=  1105  1105  1105  1105  1105 MxSgAt=   140 MxSgA2=   139.
 Leave Link  302 at Wed May  4 01:35:41 2022, MaxMem= 10066329600 cpu:              86.3 elap:               3.6
 (Enter /sw/apps/gaussian-16.0/g16/l303.exe)
 DipDrv:  MaxL=1.
 Leave Link  303 at Wed May  4 01:35:42 2022, MaxMem= 10066329600 cpu:               6.5 elap:               0.3
 (Enter /sw/apps/gaussian-16.0/g16/l308.exe)
 Leave Link  308 at Wed May  4 01:35:42 2022, MaxMem= 10066329600 cpu:              10.7 elap:               0.5
 (Enter /sw/apps/gaussian-16.0/g16/l401.exe)
 ExpMin= 3.36D-02 ExpMax= 4.95D+03 ExpMxC= 7.45D+02 IAcc=3 IRadAn=         5 AccDes= 0.00D+00
 Harris functional with IExCor=20419 and IRadAn=       5 diagonalized for initial guess.
 HarFok:  IExCor=20419 AccDes= 0.00D+00 IRadAn=         5 IDoV= 1 UseB2=F ITyADJ=14
 ICtDFT=  3500011 ScaDFX=  1.000000  1.000000  1.000000  1.000000
 FoFCou: FMM=F IPFlag=           0 FMFlag=      100000 FMFlg1=        2001
         NFxFlg=           0 DoJE=T BraDBF=F KetDBF=T FulRan=T
         wScrn=  0.000000 ICntrl=       500 IOpCl=  0 I1Cent=   200000004 NGrid=           0
         NMat0=    1 NMatS0=      1 NMatT0=    0 NMatD0=    1 NMtDS0=    0 NMtDT0=    0
 Petite list used in FoFCou.
 Harris En= -2890.84171038725    
 JPrj=0 DoOrth=F DoCkMO=F.
 Leave Link  401 at Wed May  4 01:35:48 2022, MaxMem= 10066329600 cpu:             135.0 elap:               5.7
 (Enter /sw/apps/gaussian-16.0/g16/l502.exe)
 Integral symmetry usage will be decided dynamically.
 Closed shell SCF:
 Using DIIS extrapolation, IDIIS=  1040.
 NGot= 10066329600 LenX= 10062561258 LenY= 10060699398
 Requested convergence on RMS density matrix=1.00D-08 within 128 cycles.
 Requested convergence on MAX density matrix=1.00D-06.
 Requested convergence on             energy=1.00D-06.
 No special actions if energy rises.
 Fock matrices will be formed incrementally for  20 cycles.

 Cycle   1  Pass 1  IDiag  1:
 FoFJK:  IHMeth= 1 ICntrl=       0 DoSepK=T KAlg= 0 I1Cent=           0 FoldK=F
 IRaf=         1 NMat=       1 IRICut=       1 DoRegI=T DoRafI=F ISym2E= 0 IDoP0=0 IntGTp=1.
 FoFCou: FMM=T IPFlag=           0 FMFlag=      100000 FMFlg1=        2001
         NFxFlg=           0 DoJE=T BraDBF=F KetDBF=F FulRan=T
         wScrn=  0.000000 ICntrl=       500 IOpCl=  0 I1Cent=           0 NGrid=           0
         NMat0=    1 NMatS0=      1 NMatT0=    0 NMatD0=    1 NMtDS0=    0 NMtDT0=    0
 Symmetry not used in FoFCou.
 FMM levels:  10  Number of levels for PrismC:   9
 E= -3006.50757514093    
 DIIS: error= 2.22D-02 at cycle   1 NSaved=   1.
 NSaved= 1 IEnMin= 1 EnMin= -3006.50757514093     IErMin= 1 ErrMin= 2.22D-02
 ErrMax= 2.22D-02  0.00D+00 EMaxC= 1.00D-01 BMatC= 1.24D+00 BMatP= 1.24D+00
 IDIUse=3 WtCom= 7.78D-01 WtEn= 2.22D-01
 Coeff-Com:  0.100D+01
 Coeff-En:   0.100D+01
 Coeff:      0.100D+01
 Gap=     0.119 Goal=   None    Shift=    0.000
 GapD=    0.119 DampG=1.000 DampE=0.500 DampFc=0.5000 IDamp=-1.
 Damping current iteration by 5.00D-01
 RMSDP=1.47D-03 MaxDP=1.24D-01              OVMax= 1.46D-01

 Cycle   2  Pass 1  IDiag  1:
 RMSU=  7.25D-04    CP:  9.86D-01
 E= -3006.80823968606     Delta-E=       -0.300664545126 Rises=F Damp=T
 DIIS: error= 1.17D-02 at cycle   2 NSaved=   2.
 NSaved= 2 IEnMin= 2 EnMin= -3006.80823968606     IErMin= 2 ErrMin= 1.17D-02
 ErrMax= 1.17D-02  0.00D+00 EMaxC= 1.00D-01 BMatC= 2.27D-01 BMatP= 1.24D+00
 IDIUse=3 WtCom= 8.83D-01 WtEn= 1.17D-01
 Coeff-Com: -0.258D+00 0.126D+01
 Coeff-En:   0.000D+00 0.100D+01
 Coeff:     -0.228D+00 0.123D+01
 Gap=     0.130 Goal=   None    Shift=    0.000
 RMSDP=6.64D-04 MaxDP=5.61D-02 DE=-3.01D-01 OVMax= 1.44D-01

 Cycle   3  Pass 1  IDiag  1:
 RMSU=  6.35D-04    CP:  9.77D-01  1.24D+00
 E= -3007.03913363577     Delta-E=       -0.230893949712 Rises=F Damp=F
 DIIS: error= 1.58D-02 at cycle   3 NSaved=   3.
 NSaved= 3 IEnMin= 3 EnMin= -3007.03913363577     IErMin= 2 ErrMin= 1.17D-02
 ErrMax= 1.58D-02  0.00D+00 EMaxC= 1.00D-01 BMatC= 1.24D-01 BMatP= 2.27D-01
 IDIUse=3 WtCom= 8.42D-01 WtEn= 1.58D-01
 Coeff-Com: -0.271D+00 0.643D+00 0.628D+00
 Coeff-En:   0.000D+00 0.000D+00 0.100D+01
 Coeff:     -0.229D+00 0.542D+00 0.687D+00
 Gap=     0.120 Goal=   None    Shift=    0.000
 RMSDP=4.29D-04 MaxDP=5.07D-02 DE=-2.31D-01 OVMax= 1.11D-01

 Cycle   4  Pass 1  IDiag  1:
 RMSU=  2.50D-04    CP:  9.73D-01  1.53D+00  5.66D-01
 E= -3007.11679634637     Delta-E=       -0.077662710602 Rises=F Damp=F
 DIIS: error= 7.07D-03 at cycle   4 NSaved=   4.
 NSaved= 4 IEnMin= 4 EnMin= -3007.11679634637     IErMin= 4 ErrMin= 7.07D-03
 ErrMax= 7.07D-03  0.00D+00 EMaxC= 1.00D-01 BMatC= 3.27D-02 BMatP= 1.24D-01
 IDIUse=3 WtCom= 9.29D-01 WtEn= 7.07D-02
 Coeff-Com: -0.112D+00 0.229D+00 0.415D+00 0.468D+00
 Coeff-En:   0.000D+00 0.000D+00 0.223D+00 0.777D+00
 Coeff:     -0.104D+00 0.212D+00 0.401D+00 0.490D+00
 Gap=     0.122 Goal=   None    Shift=    0.000
 RMSDP=1.73D-04 MaxDP=1.85D-02 DE=-7.77D-02 OVMax= 5.73D-02

 Cycle   5  Pass 1  IDiag  1:
 RMSU=  6.78D-05    CP:  9.73D-01  1.49D+00  7.21D-01  5.19D-01
 E= -3007.14437363323     Delta-E=       -0.027577286854 Rises=F Damp=F
 DIIS: error= 5.93D-04 at cycle   5 NSaved=   5.
 NSaved= 5 IEnMin= 5 EnMin= -3007.14437363323     IErMin= 5 ErrMin= 5.93D-04
 ErrMax= 5.93D-04  0.00D+00 EMaxC= 1.00D-01 BMatC= 6.61D-04 BMatP= 3.27D-02
 IDIUse=3 WtCom= 9.94D-01 WtEn= 5.93D-03
 Coeff-Com: -0.398D-01 0.783D-01 0.173D+00 0.244D+00 0.544D+00
 Coeff-En:   0.000D+00 0.000D+00 0.000D+00 0.000D+00 0.100D+01
 Coeff:     -0.395D-01 0.778D-01 0.172D+00 0.243D+00 0.546D+00
 Gap=     0.121 Goal=   None    Shift=    0.000
 RMSDP=3.65D-05 MaxDP=3.45D-03 DE=-2.76D-02 OVMax= 1.63D-02

 Cycle   6  Pass 1  IDiag  1:
 RMSU=  2.58D-05    CP:  9.73D-01  1.49D+00  7.18D-01  5.85D-01  7.13D-01
 E= -3007.14495769719     Delta-E=       -0.000584063964 Rises=F Damp=F
 DIIS: error= 2.69D-04 at cycle   6 NSaved=   6.
 NSaved= 6 IEnMin= 6 EnMin= -3007.14495769719     IErMin= 6 ErrMin= 2.69D-04
 ErrMax= 2.69D-04  0.00D+00 EMaxC= 1.00D-01 BMatC= 9.32D-05 BMatP= 6.61D-04
 IDIUse=3 WtCom= 9.97D-01 WtEn= 2.69D-03
 Coeff-Com:  0.110D-02-0.394D-02 0.126D-01 0.355D-01 0.293D+00 0.662D+00
 Coeff-En:   0.000D+00 0.000D+00 0.000D+00 0.000D+00 0.113D+00 0.887D+00
 Coeff:      0.110D-02-0.393D-02 0.125D-01 0.354D-01 0.292D+00 0.662D+00
 Gap=     0.121 Goal=   None    Shift=    0.000
 RMSDP=1.58D-05 MaxDP=1.27D-03 DE=-5.84D-04 OVMax= 9.89D-03

 Cycle   7  Pass 1  IDiag  1:
 RMSU=  9.78D-06    CP:  9.73D-01  1.49D+00  7.24D-01  5.79D-01  8.39D-01
                    CP:  7.00D-01
 E= -3007.14506460394     Delta-E=       -0.000106906751 Rises=F Damp=F
 DIIS: error= 8.54D-05 at cycle   7 NSaved=   7.
 NSaved= 7 IEnMin= 7 EnMin= -3007.14506460394     IErMin= 7 ErrMin= 8.54D-05
 ErrMax= 8.54D-05  0.00D+00 EMaxC= 1.00D-01 BMatC= 1.68D-05 BMatP= 9.32D-05
 IDIUse=1 WtCom= 1.00D+00 WtEn= 0.00D+00
 Coeff-Com:  0.443D-02-0.961D-02-0.925D-02-0.525D-02 0.103D+00 0.382D+00
 Coeff-Com:  0.535D+00
 Coeff:      0.443D-02-0.961D-02-0.925D-02-0.525D-02 0.103D+00 0.382D+00
 Coeff:      0.535D+00
 Gap=     0.121 Goal=   None    Shift=    0.000
 RMSDP=5.77D-06 MaxDP=8.19D-04 DE=-1.07D-04 OVMax= 2.15D-03

 Cycle   8  Pass 1  IDiag  1:
 RMSU=  3.76D-06    CP:  9.73D-01  1.49D+00  7.25D-01  5.84D-01  8.38D-01
                    CP:  8.41D-01  7.93D-01
 E= -3007.14508464008     Delta-E=       -0.000020036136 Rises=F Damp=F
 DIIS: error= 4.37D-05 at cycle   8 NSaved=   8.
 NSaved= 8 IEnMin= 8 EnMin= -3007.14508464008     IErMin= 8 ErrMin= 4.37D-05
 ErrMax= 4.37D-05  0.00D+00 EMaxC= 1.00D-01 BMatC= 1.51D-06 BMatP= 1.68D-05
 IDIUse=1 WtCom= 1.00D+00 WtEn= 0.00D+00
 Coeff-Com:  0.216D-02-0.426D-02-0.791D-02-0.121D-01-0.188D-01 0.555D-01
 Coeff-Com:  0.231D+00 0.754D+00
 Coeff:      0.216D-02-0.426D-02-0.791D-02-0.121D-01-0.188D-01 0.555D-01
 Coeff:      0.231D+00 0.754D+00
 Gap=     0.121 Goal=   None    Shift=    0.000
 RMSDP=2.83D-06 MaxDP=1.99D-04 DE=-2.00D-05 OVMax= 2.04D-03

 Cycle   9  Pass 1  IDiag  1:
 RMSU=  1.78D-06    CP:  9.73D-01  1.49D+00  7.26D-01  5.83D-01  8.54D-01
                    CP:  8.63D-01  9.74D-01  1.01D+00
 E= -3007.14508801488     Delta-E=       -0.000003374800 Rises=F Damp=F
 DIIS: error= 2.25D-05 at cycle   9 NSaved=   9.
 NSaved= 9 IEnMin= 9 EnMin= -3007.14508801488     IErMin= 9 ErrMin= 2.25D-05
 ErrMax= 2.25D-05  0.00D+00 EMaxC= 1.00D-01 BMatC= 4.87D-07 BMatP= 1.51D-06
 IDIUse=1 WtCom= 1.00D+00 WtEn= 0.00D+00
 Coeff-Com:  0.481D-03-0.841D-03-0.264D-02-0.534D-02-0.243D-01-0.154D-01
 Coeff-Com:  0.213D-01 0.405D+00 0.622D+00
 Coeff:      0.481D-03-0.841D-03-0.264D-02-0.534D-02-0.243D-01-0.154D-01
 Coeff:      0.213D-01 0.405D+00 0.622D+00
 Gap=     0.121 Goal=   None    Shift=    0.000
 RMSDP=1.23D-06 MaxDP=8.66D-05 DE=-3.37D-06 OVMax= 5.93D-04

 Cycle  10  Pass 1  IDiag  1:
 RMSU=  8.04D-07    CP:  9.73D-01  1.49D+00  7.26D-01  5.84D-01  8.57D-01
                    CP:  8.77D-01  1.01D+00  1.19D+00  1.14D+00
 E= -3007.14508910097     Delta-E=       -0.000001086095 Rises=F Damp=F
 DIIS: error= 1.24D-05 at cycle  10 NSaved=  10.
 NSaved=10 IEnMin=10 EnMin= -3007.14508910097     IErMin=10 ErrMin= 1.24D-05
 ErrMax= 1.24D-05  0.00D+00 EMaxC= 1.00D-01 BMatC= 1.08D-07 BMatP= 4.87D-07
 IDIUse=1 WtCom= 1.00D+00 WtEn= 0.00D+00
 Coeff-Com: -0.539D-03 0.110D-02 0.160D-02 0.189D-02-0.527D-02-0.185D-01
 Coeff-Com: -0.940D-01-0.464D-01 0.169D+00 0.991D+00
 Coeff:     -0.539D-03 0.110D-02 0.160D-02 0.189D-02-0.527D-02-0.185D-01
 Coeff:     -0.940D-01-0.464D-01 0.169D+00 0.991D+00
 Gap=     0.122 Goal=   None    Shift=    0.000
 RMSDP=1.31D-06 MaxDP=9.62D-05 DE=-1.09D-06 OVMax= 8.81D-04

 Cycle  11  Pass 1  IDiag  1:
 RMSU=  5.08D-07    CP:  9.73D-01  1.49D+00  7.26D-01  5.83D-01  8.59D-01
                    CP:  8.88D-01  1.07D+00  1.35D+00  1.56D+00  1.53D+00
 E= -3007.14508971653     Delta-E=       -0.000000615553 Rises=F Damp=F
 DIIS: error= 9.01D-06 at cycle  11 NSaved=  11.
 NSaved=11 IEnMin=11 EnMin= -3007.14508971653     IErMin=11 ErrMin= 9.01D-06
 ErrMax= 9.01D-06  0.00D+00 EMaxC= 1.00D-01 BMatC= 4.94D-08 BMatP= 1.08D-07
 IDIUse=1 WtCom= 1.00D+00 WtEn= 0.00D+00
 Coeff-Com: -0.381D-03 0.743D-03 0.144D-02 0.235D-02 0.315D-02-0.843D-03
 Coeff-Com: -0.620D-01-0.113D+00-0.124D+00 0.509D+00 0.783D+00
 Coeff:     -0.381D-03 0.743D-03 0.144D-02 0.235D-02 0.315D-02-0.843D-03
 Coeff:     -0.620D-01-0.113D+00-0.124D+00 0.509D+00 0.783D+00
 Gap=     0.122 Goal=   None    Shift=    0.000
 RMSDP=7.75D-07 MaxDP=5.76D-05 DE=-6.16D-07 OVMax= 4.96D-04

 Cycle  12  Pass 1  IDiag  1:
 RMSU=  2.52D-07    CP:  9.73D-01  1.49D+00  7.26D-01  5.83D-01  8.60D-01
                    CP:  8.92D-01  1.09D+00  1.44D+00  1.79D+00  2.03D+00
                    CP:  1.30D+00
 E= -3007.14508993691     Delta-E=       -0.000000220383 Rises=F Damp=F
 DIIS: error= 4.31D-06 at cycle  12 NSaved=  12.
 NSaved=12 IEnMin=12 EnMin= -3007.14508993691     IErMin=12 ErrMin= 4.31D-06
 ErrMax= 4.31D-06  0.00D+00 EMaxC= 1.00D-01 BMatC= 1.27D-08 BMatP= 4.94D-08
 IDIUse=1 WtCom= 1.00D+00 WtEn= 0.00D+00
 Coeff-Com:  0.133D-04-0.414D-04 0.827D-04 0.437D-03 0.245D-02 0.833D-02
 Coeff-Com: -0.985D-03-0.188D-01-0.122D+00-0.104D+00 0.269D+00 0.966D+00
 Coeff:      0.133D-04-0.414D-04 0.827D-04 0.437D-03 0.245D-02 0.833D-02
 Coeff:     -0.985D-03-0.188D-01-0.122D+00-0.104D+00 0.269D+00 0.966D+00
 Gap=     0.122 Goal=   None    Shift=    0.000
 RMSDP=5.65D-07 MaxDP=5.08D-05 DE=-2.20D-07 OVMax= 3.72D-04

 Cycle  13  Pass 1  IDiag  1:
 RMSU=  1.58D-07    CP:  9.73D-01  1.49D+00  7.26D-01  5.83D-01  8.61D-01
                    CP:  8.93D-01  1.10D+00  1.49D+00  1.96D+00  2.38D+00
                    CP:  1.81D+00  1.31D+00
 E= -3007.14509001587     Delta-E=       -0.000000078962 Rises=F Damp=F
 DIIS: error= 2.23D-06 at cycle  13 NSaved=  13.
 NSaved=13 IEnMin=13 EnMin= -3007.14509001587     IErMin=13 ErrMin= 2.23D-06
 ErrMax= 2.23D-06  0.00D+00 EMaxC= 1.00D-01 BMatC= 5.03D-09 BMatP= 1.27D-08
 IDIUse=1 WtCom= 1.00D+00 WtEn= 0.00D+00
 Coeff-Com:  0.136D-03-0.276D-03-0.450D-03-0.519D-03 0.973D-04 0.588D-02
 Coeff-Com:  0.181D-01 0.309D-01-0.339D-01-0.237D+00-0.136D+00 0.600D+00
 Coeff-Com:  0.752D+00
 Coeff:      0.136D-03-0.276D-03-0.450D-03-0.519D-03 0.973D-04 0.588D-02
 Coeff:      0.181D-01 0.309D-01-0.339D-01-0.237D+00-0.136D+00 0.600D+00
 Coeff:      0.752D+00
 Gap=     0.122 Goal=   None    Shift=    0.000
 RMSDP=3.19D-07 MaxDP=2.30D-05 DE=-7.90D-08 OVMax= 2.03D-04

 Cycle  14  Pass 1  IDiag  1:
 RMSU=  6.89D-08    CP:  9.73D-01  1.49D+00  7.26D-01  5.83D-01  8.61D-01
                    CP:  8.94D-01  1.11D+00  1.51D+00  2.05D+00  2.60D+00
                    CP:  2.06D+00  1.77D+00  9.81D-01
 E= -3007.14509003550     Delta-E=       -0.000000019629 Rises=F Damp=F
 DIIS: error= 7.16D-07 at cycle  14 NSaved=  14.
 NSaved=14 IEnMin=14 EnMin= -3007.14509003550     IErMin=14 ErrMin= 7.16D-07
 ErrMax= 7.16D-07  0.00D+00 EMaxC= 1.00D-01 BMatC= 8.25D-10 BMatP= 5.03D-09
 IDIUse=1 WtCom= 1.00D+00 WtEn= 0.00D+00
 Coeff-Com:  0.745D-04-0.147D-03-0.279D-03-0.393D-03-0.633D-03 0.151D-02
 Coeff-Com:  0.939D-02 0.234D-01 0.103D-01-0.100D+00-0.141D+00 0.110D+00
 Coeff-Com:  0.418D+00 0.670D+00
 Coeff:      0.745D-04-0.147D-03-0.279D-03-0.393D-03-0.633D-03 0.151D-02
 Coeff:      0.939D-02 0.234D-01 0.103D-01-0.100D+00-0.141D+00 0.110D+00
 Coeff:      0.418D+00 0.670D+00
 Gap=     0.122 Goal=   None    Shift=    0.000
 RMSDP=9.61D-08 MaxDP=1.73D-05 DE=-1.96D-08 OVMax= 5.47D-05

 Cycle  15  Pass 1  IDiag  1:
 RMSU=  2.96D-08    CP:  9.73D-01  1.49D+00  7.26D-01  5.83D-01  8.61D-01
                    CP:  8.94D-01  1.11D+00  1.52D+00  2.07D+00  2.65D+00
                    CP:  2.16D+00  1.89D+00  1.21D+00  9.17D-01
 E= -3007.14509003760     Delta-E=       -0.000000002101 Rises=F Damp=F
 DIIS: error= 1.43D-07 at cycle  15 NSaved=  15.
 NSaved=15 IEnMin=15 EnMin= -3007.14509003760     IErMin=15 ErrMin= 1.43D-07
 ErrMax= 1.43D-07  0.00D+00 EMaxC= 1.00D-01 BMatC= 6.69D-11 BMatP= 8.25D-10
 IDIUse=1 WtCom= 1.00D+00 WtEn= 0.00D+00
 Coeff-Com:  0.465D-05-0.794D-05-0.281D-04-0.547D-04-0.267D-03-0.363D-03
 Coeff-Com:  0.196D-03 0.344D-02 0.770D-02-0.184D-02-0.291D-01-0.514D-01
 Coeff-Com:  0.463D-01 0.232D+00 0.793D+00
 Coeff:      0.465D-05-0.794D-05-0.281D-04-0.547D-04-0.267D-03-0.363D-03
 Coeff:      0.196D-03 0.344D-02 0.770D-02-0.184D-02-0.291D-01-0.514D-01
 Coeff:      0.463D-01 0.232D+00 0.793D+00
 Gap=     0.122 Goal=   None    Shift=    0.000
 RMSDP=3.02D-08 MaxDP=2.69D-06 DE=-2.10D-09 OVMax= 1.87D-05

 Cycle  16  Pass 1  IDiag  1:
 RMSU=  1.13D-08    CP:  9.73D-01  1.49D+00  7.26D-01  5.83D-01  8.61D-01
                    CP:  8.94D-01  1.11D+00  1.52D+00  2.07D+00  2.66D+00
                    CP:  2.18D+00  1.93D+00  1.25D+00  1.04D+00  1.01D+00
 E= -3007.14509003777     Delta-E=       -0.000000000166 Rises=F Damp=F
 DIIS: error= 1.05D-07 at cycle  16 NSaved=  16.
 NSaved=16 IEnMin=16 EnMin= -3007.14509003777     IErMin=16 ErrMin= 1.05D-07
 ErrMax= 1.05D-07  0.00D+00 EMaxC= 1.00D-01 BMatC= 2.11D-11 BMatP= 6.69D-11
 IDIUse=1 WtCom= 1.00D+00 WtEn= 0.00D+00
 Coeff-Com: -0.997D-05 0.203D-04 0.323D-04 0.368D-04-0.416D-04-0.409D-03
 Coeff-Com: -0.155D-02-0.200D-02 0.265D-02 0.167D-01 0.998D-02-0.478D-01
 Coeff-Com: -0.459D-01-0.141D-01 0.404D+00 0.678D+00
 Coeff:     -0.997D-05 0.203D-04 0.323D-04 0.368D-04-0.416D-04-0.409D-03
 Coeff:     -0.155D-02-0.200D-02 0.265D-02 0.167D-01 0.998D-02-0.478D-01
 Coeff:     -0.459D-01-0.141D-01 0.404D+00 0.678D+00
 Gap=     0.122 Goal=   None    Shift=    0.000
 RMSDP=1.02D-08 MaxDP=2.39D-06 DE=-1.66D-10 OVMax= 4.49D-06

 Cycle  17  Pass 1  IDiag  1:
 RMSU=  4.89D-09    CP:  9.73D-01  1.49D+00  7.26D-01  5.83D-01  8.61D-01
                    CP:  8.94D-01  1.11D+00  1.52D+00  2.07D+00  2.66D+00
                    CP:  2.19D+00  1.94D+00  1.28D+00  1.08D+00  1.17D+00
                    CP:  9.73D-01
 E= -3007.14509003769     Delta-E=        0.000000000082 Rises=F Damp=F
 DIIS: error= 3.09D-08 at cycle  17 NSaved=  17.
 NSaved=17 IEnMin=16 EnMin= -3007.14509003777     IErMin=17 ErrMin= 3.09D-08
 ErrMax= 3.09D-08  0.00D+00 EMaxC= 1.00D-01 BMatC= 3.11D-12 BMatP= 2.11D-11
 IDIUse=1 WtCom= 1.00D+00 WtEn= 0.00D+00
 Coeff-Com: -0.548D-05 0.109D-04 0.198D-04 0.257D-04 0.180D-04-0.125D-03
 Coeff-Com: -0.816D-03-0.150D-02 0.414D-04 0.799D-02 0.974D-02-0.153D-01
 Coeff-Com: -0.265D-01-0.498D-01 0.822D-01 0.313D+00 0.680D+00
 Coeff:     -0.548D-05 0.109D-04 0.198D-04 0.257D-04 0.180D-04-0.125D-03
 Coeff:     -0.816D-03-0.150D-02 0.414D-04 0.799D-02 0.974D-02-0.153D-01
 Coeff:     -0.265D-01-0.498D-01 0.822D-01 0.313D+00 0.680D+00
 Gap=     0.122 Goal=   None    Shift=    0.000
 RMSDP=3.49D-09 MaxDP=4.46D-07 DE= 8.19D-11 OVMax= 1.78D-06

 SCF Done:  E(RCAM-B3LYP) =  -3007.14509004     A.U. after   17 cycles
            NFock= 17  Conv=0.35D-08     -V/T= 2.0107
 KE= 2.975433169069D+03 PE=-2.610655033353D+04 EE= 1.056663458937D+04
 Leave Link  502 at Wed May  4 01:42:07 2022, MaxMem= 10066329600 cpu:            8696.4 elap:             379.3
 (Enter /sw/apps/gaussian-16.0/g16/l801.exe)
 DoSCS=F DFT=T ScalE2(SS,OS)=  1.000000  1.000000
 ExpMin= 3.36D-02 ExpMax= 4.95D+03 ExpMxC= 7.45D+02 IAcc=3 IRadAn=         5 AccDes= 0.00D+00
 HarFok:  IExCor=  205 AccDes= 0.00D+00 IRadAn=         5 IDoV=-2 UseB2=F ITyADJ=14
 ICtDFT= 12500011 ScaDFX=  1.000000  1.000000  1.000000  1.000000
 GSVD:  LWork=       -5460 too small for GESVD, short by       25550 words or       25550 for optimal perf.
 Largest valence mixing into a core orbital is  1.31D-04
 Largest core mixing into a valence orbital is  5.16D-05
 Range of M.O.s used for correlation:    71  1298
 NBasis=  1298 NAE=   246 NBE=   246 NFC=    70 NFV=     0
 NROrb=   1228 NOA=   176 NOB=   176 NVA=  1052 NVB=  1052
 Leave Link  801 at Wed May  4 01:42:07 2022, MaxMem= 10066329600 cpu:               7.0 elap:               0.3
 (Enter /sw/apps/gaussian-16.0/g16/l914.exe)
 RHF ground state
 Two-electron integrals replicated using symmetry.
 MDV= 10066329600 DFT=T DoStab=F Mixed=T DoRPA=T DoScal=F NonHer=T
 Making orbital integer symmetry assigments:
 Orbital symmetries:
       Occupied  (A) (A) (A) (A) (A) (A) (A) (A) (A) (A) (A) (A)
                 (A) (A) (A) (A) (A) (A) (A) (A) (A) (A) (A) (A)
                 (A) (A) (A) (A) (A) (A) (A) (A) (A) (A) (A) (A)
                 (A) (A) (A) (A) (A) (A) (A) (A) (A) (A) (A) (A)
                 (A) (A) (A) (A) (A) (A) (A) (A) (A) (A) (A) (A)
                 (A) (A) (A) (A) (A) (A) (A) (A) (A) (A) (A) (A)
                 (A) (A) (A) (A) (A) (A) (A) (A) (A) (A) (A) (A)
                 (A) (A) (A) (A) (A) (A) (A) (A) (A) (A) (A) (A)
                 (A) (A) (A) (A) (A) (A) (A) (A) (A) (A) (A) (A)
                 (A) (A) (A) (A) (A) (A) (A) (A) (A) (A) (A) (A)
                 (A) (A) (A) (A) (A) (A) (A) (A) (A) (A) (A) (A)
                 (A) (A) (A) (A) (A) (A) (A) (A) (A) (A) (A) (A)
                 (A) (A) (A) (A) (A) (A) (A) (A) (A) (A) (A) (A)
                 (A) (A) (A) (A) (A) (A) (A) (A) (A) (A) (A) (A)
                 (A) (A) (A) (A) (A) (A) (A) (A) (A) (A) (A) (A)
                 (A) (A) (A) (A) (A) (A) (A) (A) (A) (A) (A) (A)
                 (A) (A) (A) (A) (A) (A) (A) (A) (A) (A) (A) (A)
                 (A) (A) (A) (A) (A) (A) (A) (A) (A) (A) (A) (A)
                 (A) (A) (A) (A) (A) (A) (A) (A) (A) (A) (A) (A)
                 (A) (A) (A) (A) (A) (A) (A) (A) (A) (A) (A) (A)
                 (A) (A) (A) (A) (A) (A)
       Virtual   (A) (A) (A) (A) (A) (A) (A) (A) (A) (A) (A) (A)
                 (A) (A) (A) (A) (A) (A) (A) (A) (A) (A) (A) (A)
                 (A) (A) (A) (A) (A) (A) (A) (A) (A) (A) (A) (A)
                 (A) (A) (A) (A) (A) (A) (A) (A) (A) (A) (A) (A)
                 (A) (A) (A) (A) (A) (A) (A) (A) (A) (A) (A) (A)
                 (A) (A) (A) (A) (A) (A) (A) (A) (A) (A) (A) (A)
                 (A) (A) (A) (A) (A) (A) (A) (A) (A) (A) (A) (A)
                 (A) (A) (A) (A) (A) (A) (A) (A) (A) (A) (A) (A)
                 (A) (A) (A) (A) (A) (A) (A) (A) (A) (A) (A) (A)
                 (A) (A) (A) (A) (A) (A) (A) (A) (A) (A) (A) (A)
                 (A) (A) (A) (A) (A) (A) (A) (A) (A) (A) (A) (A)
                 (A) (A) (A) (A) (A) (A) (A) (A) (A) (A) (A) (A)
                 (A) (A) (A) (A) (A) (A) (A) (A) (A) (A) (A) (A)
                 (A) (A) (A) (A) (A) (A) (A) (A) (A) (A) (A) (A)
                 (A) (A) (A) (A) (A) (A) (A) (A) (A) (A) (A) (A)
                 (A) (A) (A) (A) (A) (A) (A) (A) (A) (A) (A) (A)
                 (A) (A) (A) (A) (A) (A) (A) (A) (A) (A) (A) (A)
                 (A) (A) (A) (A) (A) (A) (A) (A) (A) (A) (A) (A)
                 (A) (A) (A) (A) (A) (A) (A) (A) (A) (A) (A) (A)
                 (A) (A) (A) (A) (A) (A) (A) (A) (A) (A) (A) (A)
                 (A) (A) (A) (A) (A) (A) (A) (A) (A) (A) (A) (A)
                 (A) (A) (A) (A) (A) (A) (A) (A) (A) (A) (A) (A)
                 (A) (A) (A) (A) (A) (A) (A) (A) (A) (A) (A) (A)
                 (A) (A) (A) (A) (A) (A) (A) (A) (A) (A) (A) (A)
                 (A) (A) (A) (A) (A) (A) (A) (A) (A) (A) (A) (A)
                 (A) (A) (A) (A) (A) (A) (A) (A) (A) (A) (A) (A)
                 (A) (A) (A) (A) (A) (A) (A) (A) (A) (A) (A) (A)
                 (A) (A) (A) (A) (A) (A) (A) (A) (A) (A) (A) (A)
                 (A) (A) (A) (A) (A) (A) (A) (A) (A) (A) (A) (A)
                 (A) (A) (A) (A) (A) (A) (A) (A) (A) (A) (A) (A)
                 (A) (A) (A) (A) (A) (A) (A) (A) (A) (A) (A) (A)
                 (A) (A) (A) (A) (A) (A) (A) (A) (A) (A) (A) (A)
                 (A) (A) (A) (A) (A) (A) (A) (A) (A) (A) (A) (A)
                 (A) (A) (A) (A) (A) (A) (A) (A) (A) (A) (A) (A)
                 (A) (A) (A) (A) (A) (A) (A) (A) (A) (A) (A) (A)
                 (A) (A) (A) (A) (A) (A) (A) (A) (A) (A) (A) (A)
                 (A) (A) (A) (A) (A) (A) (A) (A) (A) (A) (A) (A)
                 (A) (A) (A) (A) (A) (A) (A) (A) (A) (A) (A) (A)
                 (A) (A) (A) (A) (A) (A) (A) (A) (A) (A) (A) (A)
                 (A) (A) (A) (A) (A) (A) (A) (A) (A) (A) (A) (A)
                 (A) (A) (A) (A) (A) (A) (A) (A) (A) (A) (A) (A)
                 (A) (A) (A) (A) (A) (A) (A) (A) (A) (A) (A) (A)
                 (A) (A) (A) (A) (A) (A) (A) (A) (A) (A) (A) (A)
                 (A) (A) (A) (A) (A) (A) (A) (A) (A) (A) (A) (A)
                 (A) (A) (A) (A) (A) (A) (A) (A) (A) (A) (A) (A)
                 (A) (A) (A) (A) (A) (A) (A) (A) (A) (A) (A) (A)
                 (A) (A) (A) (A) (A) (A) (A) (A) (A) (A) (A) (A)
                 (A) (A) (A) (A) (A) (A) (A) (A) (A) (A) (A) (A)
                 (A) (A) (A) (A) (A) (A) (A) (A) (A) (A) (A) (A)
                 (A) (A) (A) (A) (A) (A) (A) (A) (A) (A) (A) (A)
                 (A) (A) (A) (A) (A) (A) (A) (A) (A) (A) (A) (A)
                 (A) (A) (A) (A) (A) (A) (A) (A) (A) (A) (A) (A)
                 (A) (A) (A) (A) (A) (A) (A) (A) (A) (A) (A) (A)
                 (A) (A) (A) (A) (A) (A) (A) (A) (A) (A) (A) (A)
                 (A) (A) (A) (A) (A) (A) (A) (A) (A) (A) (A) (A)
                 (A) (A) (A) (A) (A) (A) (A) (A) (A) (A) (A) (A)
                 (A) (A) (A) (A) (A) (A) (A) (A) (A) (A) (A) (A)
                 (A) (A) (A) (A) (A) (A) (A) (A) (A) (A) (A) (A)
                 (A) (A) (A) (A) (A) (A) (A) (A) (A) (A) (A) (A)
                 (A) (A) (A) (A) (A) (A) (A) (A) (A) (A) (A) (A)
                 (A) (A) (A) (A) (A) (A) (A) (A) (A) (A) (A) (A)
                 (A) (A) (A) (A) (A) (A) (A) (A) (A) (A) (A) (A)
                 (A) (A) (A) (A) (A) (A) (A) (A) (A) (A) (A) (A)
                 (A) (A) (A) (A) (A) (A) (A) (A) (A) (A) (A) (A)
                 (A) (A) (A) (A) (A) (A) (A) (A) (A) (A) (A) (A)
                 (A) (A) (A) (A) (A) (A) (A) (A) (A) (A) (A) (A)
                 (A) (A) (A) (A) (A) (A) (A) (A) (A) (A) (A) (A)
                 (A) (A) (A) (A) (A) (A) (A) (A) (A) (A) (A) (A)
                 (A) (A) (A) (A) (A) (A) (A) (A) (A) (A) (A) (A)
                 (A) (A) (A) (A) (A) (A) (A) (A) (A) (A) (A) (A)
                 (A) (A) (A) (A) (A) (A) (A) (A) (A) (A) (A) (A)
                 (A) (A) (A) (A) (A) (A) (A) (A) (A) (A) (A) (A)
                 (A) (A) (A) (A) (A) (A) (A) (A) (A) (A) (A) (A)
                 (A) (A) (A) (A) (A) (A) (A) (A) (A) (A) (A) (A)
                 (A) (A) (A) (A) (A) (A) (A) (A) (A) (A) (A) (A)
                 (A) (A) (A) (A) (A) (A) (A) (A) (A) (A) (A) (A)
                 (A) (A) (A) (A) (A) (A) (A) (A) (A) (A) (A) (A)
                 (A) (A) (A) (A) (A) (A) (A) (A) (A) (A) (A) (A)
                 (A) (A) (A) (A) (A) (A) (A) (A) (A) (A) (A) (A)
                 (A) (A) (A) (A) (A) (A) (A) (A) (A) (A) (A) (A)
                 (A) (A) (A) (A) (A) (A) (A) (A) (A) (A) (A) (A)
                 (A) (A) (A) (A) (A) (A) (A) (A) (A) (A) (A) (A)
                 (A) (A) (A) (A) (A) (A) (A) (A) (A) (A) (A) (A)
                 (A) (A) (A) (A) (A) (A) (A) (A) (A) (A) (A) (A)
                 (A) (A) (A) (A) (A) (A) (A) (A) (A) (A) (A) (A)
                 (A) (A) (A) (A) (A) (A) (A) (A) (A) (A) (A) (A)
                 (A) (A) (A) (A) (A) (A) (A) (A) (A) (A) (A) (A)
                 (A) (A) (A) (A) (A) (A) (A) (A)
    20 initial guesses have been made.
 Convergence on wavefunction:    0.001000000000000
 Davidson Disk Diagonalization:  ConvIn= 1.00D-03 SkipCon=T Conv= 1.00D-03.
 Max sub-space:  2000 roots to seek:    20 dimension of matrix:       370304
 Iteration     1 Dimension    20 NMult     0 NNew     20
 CISAX will form    20 AO SS matrices at one time.
 NMat=    20 NSing=    20 JSym2X= 0.
 FoFJK:  IHMeth= 1 ICntrl=       0 DoSepK=T KAlg= 0 I1Cent=           0 FoldK=F
 IRaf=         1 NMat=      40 IRICut=       1 DoRegI=T DoRafI=F ISym2E= 0 IDoP0=3 IntGTp=3.
 FoFCou: FMM=T IPFlag=           0 FMFlag=      100000 FMFlg1=        2001
         NFxFlg=           0 DoJE=F BraDBF=F KetDBF=F FulRan=T
         wScrn=  0.000000 ICntrl=       500 IOpCl=  0 I1Cent=           0 NGrid=           0
         NMat0=   20 NMatS0=     20 NMatT0=    0 NMatD0=   20 NMtDS0=    0 NMtDT0=    0
 Symmetry not used in FoFCou.
 FMM levels:  10  Number of levels for PrismC:   9
 New state      4 was old state      6
 New state      5 was old state      7
 Excitation Energies [eV] at current iteration:
 Root      1 :     2.213457326549149
 Root      2 :     2.575571424574216
 Root      3 :     3.613045107409329
 Root      4 :     3.869062298794208
 Root      5 :     3.886174544332770
 Root      6 :     4.052008405759048
 Root      7 :     4.242303030178666
 Root      8 :     4.302070165492784
 Root      9 :     4.455628230544143
 Root     10 :     4.489741770838385
 Root     11 :     4.587941303733881
 Root     12 :     4.642916009098622
 Root     13 :     4.659096138006654
 Root     14 :     4.894361569628916
 Root     15 :     4.971067531138317
 Root     16 :     5.007346590912719
 Root     17 :     5.163760685602071
 Root     18 :     5.458767988479758
 Root     19 :     5.524654521311606
 Root     20 :     6.076281994691600
 Iteration     2 Dimension    30 NMult    20 NNew     10
 CISAX will form    10 AO SS matrices at one time.
 NMat=    10 NSing=    10 JSym2X= 0.
 Root      1 not converged, maximum delta is    0.073692829182897
 Root      2 not converged, maximum delta is    0.060446713286132
 Root      3 not converged, maximum delta is    0.041528169163938
 New state      4 was old state      5
 Root      4 not converged, maximum delta is    0.511165816206279
 New state      5 was old state      4
 Root      5 not converged, maximum delta is    0.418516538034954
 Excitation Energies [eV] at current iteration:
 Root      1 :     1.725368151969540   Change is   -0.488089174579609
 Root      2 :     2.178080554587004   Change is   -0.397490869987212
 Root      3 :     3.308400482954026   Change is   -0.304644624455304
 Root      4 :     3.512558308990408   Change is   -0.373616235342362
 Root      5 :     3.543604380033754   Change is   -0.325457918760454
 Iteration     3 Dimension    40 NMult    30 NNew     10
 CISAX will form    10 AO SS matrices at one time.
 NMat=    10 NSing=    10 JSym2X= 0.
 Root      1 not converged, maximum delta is    0.031788911592483
 Root      2 not converged, maximum delta is    0.022823243048546
 Root      3 not converged, maximum delta is    0.011330509163155
 New state      4 was old state      5
 Root      4 not converged, maximum delta is    0.188301131531892
 New state      5 was old state      4
 Root      5 not converged, maximum delta is    0.190668981150363
 Excitation Energies [eV] at current iteration:
 Root      1 :     1.681648471320517   Change is   -0.043719680649023
 Root      2 :     2.153874122918137   Change is   -0.024206431668867
 Root      3 :     3.296041062491438   Change is   -0.012359420462588
 Root      4 :     3.450001351389067   Change is   -0.093603028644688
 Root      5 :     3.491589120624544   Change is   -0.020969188365864
 Iteration     4 Dimension    50 NMult    40 NNew     10
 CISAX will form    10 AO SS matrices at one time.
 NMat=    10 NSing=    10 JSym2X= 0.
 Root      1 not converged, maximum delta is    0.005087953295411
 Root      2 not converged, maximum delta is    0.002806452813727
 Root      3 not converged, maximum delta is    0.005328192536933
 Root      4 not converged, maximum delta is    0.006551943734849
 Root      5 not converged, maximum delta is    0.038484881949860
 Excitation Energies [eV] at current iteration:
 Root      1 :     1.676607503370074   Change is   -0.005040967950443
 Root      2 :     2.151073518628151   Change is   -0.002800604289985
 Root      3 :     3.293678441114626   Change is   -0.002362621376812
 Root      4 :     3.442922972575596   Change is   -0.007078378813470
 Root      5 :     3.483237648503330   Change is   -0.008351472121214
 Iteration     5 Dimension    60 NMult    50 NNew     10
 CISAX will form    10 AO SS matrices at one time.
 NMat=    10 NSing=    10 JSym2X= 0.
 Root      1 not converged, maximum delta is    0.001445990754186
 Root      2 has converged.
 Root      3 not converged, maximum delta is    0.001761810291607
 Root      4 not converged, maximum delta is    0.003784768768770
 Root      5 not converged, maximum delta is    0.018827318762645
 Excitation Energies [eV] at current iteration:
 Root      1 :     1.676199968985750   Change is   -0.000407534384324
 Root      2 :     2.150857303357682   Change is   -0.000216215270469
 Root      3 :     3.293428037786100   Change is   -0.000250403328526
 Root      4 :     3.442188843900358   Change is   -0.000734128675238
 Root      5 :     3.480857873724662   Change is   -0.002379774778667
 Iteration     6 Dimension    68 NMult    60 NNew      8
 CISAX will form     8 AO SS matrices at one time.
 NMat=     8 NSing=     8 JSym2X= 0.
 Root      1 has converged.
 Root      2 has converged.
 Root      3 has converged.
 Root      4 not converged, maximum delta is    0.004568029962229
 Root      5 not converged, maximum delta is    0.044321976537765
 Excitation Energies [eV] at current iteration:
 Root      1 :     1.676161180892740   Change is   -0.000038788093010
 Root      2 :     2.150855310562872   Change is   -0.000001992794810
 Root      3 :     3.293395823338221   Change is   -0.000032214447879
 Root      4 :     3.442090980563171   Change is   -0.000097863337187
 Root      5 :     3.478695254385701   Change is   -0.002162619338961
 Iteration     7 Dimension    72 NMult    68 NNew      4
 CISAX will form     4 AO SS matrices at one time.
 NMat=     4 NSing=     4 JSym2X= 0.
 Root      1 has converged.
 Root      2 has converged.
 Root      3 has converged.
 Root      4 not converged, maximum delta is    0.002848112293944
 Root      5 not converged, maximum delta is    0.038563205972335
 Excitation Energies [eV] at current iteration:
 Root      1 :     1.676161159748901   Change is   -0.000000021143839
 Root      2 :     2.150854708620269   Change is   -0.000000601942603
 Root      3 :     3.293395640062725   Change is   -0.000000183275496
 Root      4 :     3.442073313761347   Change is   -0.000017666801824
 Root      5 :     3.477399914717290   Change is   -0.001295339668412
 Iteration     8 Dimension    76 NMult    72 NNew      4
 CISAX will form     4 AO SS matrices at one time.
 NMat=     4 NSing=     4 JSym2X= 0.
 Root      1 has converged.
 Root      2 has converged.
 Root      3 has converged.
 Root      4 has converged.
 Root      5 not converged, maximum delta is    0.017749036920390
 Excitation Energies [eV] at current iteration:
 Root      1 :     1.676160993410817   Change is   -0.000000166338083
 Root      2 :     2.150854306424725   Change is   -0.000000402195544
 Root      3 :     3.293395251359073   Change is   -0.000000388703652
 Root      4 :     3.442070413822131   Change is   -0.000002899939215
 Root      5 :     3.476945146717834   Change is   -0.000454767999455
 Iteration     9 Dimension    78 NMult    76 NNew      2
 CISAX will form     2 AO SS matrices at one time.
 NMat=     2 NSing=     2 JSym2X= 0.
 Root      1 has converged.
 Root      2 has converged.
 Root      3 has converged.
 Root      4 has converged.
 Root      5 not converged, maximum delta is    0.004563056340446
 Excitation Energies [eV] at current iteration:
 Root      1 :     1.676160938121469   Change is   -0.000000055289348
 Root      2 :     2.150854200037743   Change is   -0.000000106386983
 Root      3 :     3.293395038164772   Change is   -0.000000213194301
 Root      4 :     3.442070209902075   Change is   -0.000000203920056
 Root      5 :     3.476855176344404   Change is   -0.000089970373430
 Iteration    10 Dimension    80 NMult    78 NNew      2
 CISAX will form     2 AO SS matrices at one time.
 NMat=     2 NSing=     2 JSym2X= 0.
 Root      1 has converged.
 Root      2 has converged.
 Root      3 has converged.
 Root      4 has converged.
 Root      5 not converged, maximum delta is    0.001641501087107
 Excitation Energies [eV] at current iteration:
 Root      1 :     1.676160924685460   Change is   -0.000000013436009
 Root      2 :     2.150853712876292   Change is   -0.000000487161450
 Root      3 :     3.293395018309857   Change is   -0.000000019854915
 Root      4 :     3.442070173545003   Change is   -0.000000036357073
 Root      5 :     3.476836620236097   Change is   -0.000018556108307
 Iteration    11 Dimension    82 NMult    80 NNew      2
 CISAX will form     2 AO SS matrices at one time.
 NMat=     2 NSing=     2 JSym2X= 0.
 Root      1 has converged.
 Root      2 has converged.
 Root      3 has converged.
 Root      4 has converged.
 Root      5 has converged.
 Excitation Energies [eV] at current iteration:
 Root      1 :     1.676160814792505   Change is   -0.000000109892955
 Root      2 :     2.150853141229296   Change is   -0.000000571646996
 Root      3 :     3.293395009767291   Change is   -0.000000008542565
 Root      4 :     3.442070173328907   Change is   -0.000000000216095
 Root      5 :     3.476834162111880   Change is   -0.000002458124218
 Convergence achieved on expansion vectors.
 ***********************************************************************
 Excited states from <AA,BB:AA,BB> singles matrix:
 ***********************************************************************
 
 1PDM for each excited state written to RWF  633
 Ground to excited state transition densities written to RWF  633
 Ground to excited state transition electric dipole moments (Au):
       state          X           Y           Z        Dip. S.      Osc.
         1        -1.5212      2.7251     -0.1258      9.7562      0.4006
         2         1.3693      1.1671      0.0619      3.2411      0.1708
         3        -0.2300     -0.1246     -0.0417      0.0702      0.0057
         4         0.0135     -0.0795      0.0544      0.0095      0.0008
         5         0.4779     -0.0691     -0.0197      0.2336      0.0199
 Ground to excited state transition velocity dipole moments (Au):
       state          X           Y           Z        Dip. S.      Osc.
         1         0.0914     -0.1633      0.0086      0.0351      0.3799
         2        -0.1024     -0.0880     -0.0046      0.0182      0.1539
         3         0.0292      0.0145      0.0052      0.0011      0.0060
         4        -0.0023      0.0089     -0.0027      0.0001      0.0005
         5        -0.0558      0.0067      0.0013      0.0032      0.0165
 Ground to excited state transition magnetic dipole moments (Au):
       state          X           Y           Z
         1         0.1252     -0.0296     -1.7443
         2         0.0115      0.1028     -0.2354
         3         0.0103     -0.1574      1.0577
         4         0.1401     -0.5630     -0.1444
         5         0.2858      0.0524     -0.4110
 Ground to excited state transition velocity quadrupole moments (Au):
       state          XX          YY          ZZ          XY          XZ          YZ
         1         1.8139     -0.5830      0.0207     -1.4272      0.0590      0.1911
         2        -1.9002     -0.1719      0.0065     -0.9974     -0.0881      0.0379
         3         0.8571     -0.4785      0.0013      0.0264      0.0216     -0.0435
         4        -0.0937      0.1382      0.0201      0.0706      0.0073      0.0020
         5        -0.9977      0.3297     -0.0354     -0.1183     -0.0758     -0.1071
 <0|del|b> * <b|rxdel|0> + <0|del|b> * <b|delr+rdel|0>
 Rotatory Strengths (R) in cgs (10**-40 erg-esu-cm/Gauss)
       state          XX          YY          ZZ    R(velocity)    E-M Angle
         1       -73.0668    150.3163    -62.1983      5.0171       89.77
         2       -49.7287    -38.3120      6.3128    -27.2426      105.25
         3         8.8370     12.7884     -1.1653      6.8200       84.31
         4       -13.6283      0.7417    -14.6973     -9.1947      149.50
         5         0.5288    -28.6204    -61.0757    -29.7224      124.72
 1/2[<0|r|b>*<b|rxdel|0> + (<0|rxdel|b>*<b|r|0>)*]
 Rotatory Strengths (R) in cgs (10**-40 erg-esu-cm/Gauss)
       state          XX          YY          ZZ     R(length)
         1       134.6431     57.0039   -155.1948     12.1507
         2       -11.1157    -84.8572     10.3012    -28.5572
         3         1.6744    -13.8719     31.2240      6.3422
         4        -1.3327    -31.6701      5.5561     -9.1489
         5       -96.6066      2.5583     -5.7365    -33.2616
  1/2[<0|del|b>*<b|r|0> + (<0|r|b>*<b|del|0>)*] (Au)
       state          X           Y           Z        Dip. S.   Osc.(frdel)
         1        -0.1390     -0.4451     -0.0011      0.5852      0.3901
         2        -0.1402     -0.1027     -0.0003      0.2432      0.1621
         3        -0.0067     -0.0018     -0.0002      0.0087      0.0058
         4        -0.0000     -0.0007     -0.0001      0.0009      0.0006
         5        -0.0267     -0.0005     -0.0000      0.0271      0.0181

 Excitation energies and oscillator strengths:
 
 Excited State   1:      Singlet-A      1.6762 eV  739.69 nm  f=0.4006  <S**2>=0.000
     245 -> 248       -0.16492
     246 -> 247        0.68971
     245 <- 248       -0.10344
 This state for optimization and/or second-order correction.
 Total Energy, E(TD-HF/TD-DFT) =  -3007.08349226    
 Copying the excited state density for this state as the 1-particle RhoCI density.
 
 Excited State   2:      Singlet-A      2.1509 eV  576.44 nm  f=0.1708  <S**2>=0.000
     245 -> 247        0.66146
     246 -> 248        0.23409
 
 Excited State   3:      Singlet-A      3.2934 eV  376.46 nm  f=0.0057  <S**2>=0.000
     241 -> 247       -0.21321
     244 -> 247        0.66292
 
 Excited State   4:      Singlet-A      3.4421 eV  360.20 nm  f=0.0008  <S**2>=0.000
     242 -> 247        0.60846
     242 -> 249       -0.26140
     242 -> 250        0.17307
 
 Excited State   5:      Singlet-A      3.4768 eV  356.60 nm  f=0.0199  <S**2>=0.000
     240 -> 247       -0.27523
     240 -> 249       -0.13186
     241 -> 247        0.53500
[...]
 Alpha virt. eigenvalues --    1.19531   1.20895   1.20961   1.21209   1.21987
 Alpha virt. eigenvalues --    1.22294   1.22643   1.22946   1.23288   1.23986
 Alpha virt. eigenvalues --    1.24419   1.25134   1.25473   1.25594   1.26096
 Alpha virt. eigenvalues --    1.26151   1.27420   1.27584   1.28431   1.28920
 Alpha virt. eigenvalues --    1.29297   1.30017   1.30067   1.30683   1.31961
 Alpha virt. eigenvalues --    1.32244   1.32608   1.32988   1.33302   1.33800
 Alpha virt. eigenvalues --    1.33934   1.34736   1.35384   1.35956   1.35989
 Alpha virt. eigenvalues --    1.36783   1.37507   1.37704   1.38009   1.38238
 Alpha virt. eigenvalues --    1.38613   1.39455   1.39814   1.40325   1.40541
 Alpha virt. eigenvalues --    1.41031   1.41465   1.41862   1.42135   1.42198
 Alpha virt. eigenvalues --    1.42862   1.43129   1.43400   1.43525   1.43805
 Alpha virt. eigenvalues --    1.44265   1.45062   1.45353   1.45729   1.46317
 Alpha virt. eigenvalues --    1.46386   1.46840   1.46931   1.47068   1.47417
 Alpha virt. eigenvalues --    1.48441   1.48575   1.48856   1.49896   1.50253
 Alpha virt. eigenvalues --    1.50394   1.51076   1.51137   1.51341   1.52430
 Alpha virt. eigenvalues --    1.52623   1.53075   1.53265   1.54574   1.55262
 Alpha virt. eigenvalues --    1.55336   1.55912   1.56066   1.56677   1.56965
 Alpha virt. eigenvalues --    1.57591   1.57826   1.58167   1.58382   1.58674
 Alpha virt. eigenvalues --    1.58769   1.58835   1.59590   1.59944   1.60116
 Alpha virt. eigenvalues --    1.60201   1.60419   1.60434   1.60580   1.61010
 Alpha virt. eigenvalues --    1.61306   1.61829   1.61915   1.62236   1.62415
 Alpha virt. eigenvalues --    1.62434   1.62801   1.63146   1.63384   1.63946
 Alpha virt. eigenvalues --    1.64210   1.64511   1.65009   1.65298   1.65455
 Alpha virt. eigenvalues --    1.65664   1.66162   1.66308   1.66765   1.67737
 Alpha virt. eigenvalues --    1.68272   1.68661   1.68794   1.69226   1.69338
 Alpha virt. eigenvalues --    1.70093   1.70193   1.70585   1.70859   1.71118
 Alpha virt. eigenvalues --    1.71426   1.71847   1.72433   1.72642   1.73454
 Alpha virt. eigenvalues --    1.73797   1.74350   1.74590   1.75393   1.75769
 Alpha virt. eigenvalues --    1.76056   1.76431   1.76534   1.76627   1.77038
 Alpha virt. eigenvalues --    1.77546   1.77824   1.78200   1.78351   1.78723
 Alpha virt. eigenvalues --    1.78794   1.78927   1.79107   1.79393   1.79633
 Alpha virt. eigenvalues --    1.80020   1.80128   1.80525   1.80944   1.81131
 Alpha virt. eigenvalues --    1.81469   1.81611   1.81970   1.82190   1.82566
 Alpha virt. eigenvalues --    1.82610   1.82736   1.82905   1.83652   1.83773
 Alpha virt. eigenvalues --    1.83900   1.84071   1.84188   1.84371   1.84667
 Alpha virt. eigenvalues --    1.84777   1.85100   1.85382   1.85659   1.85817
 Alpha virt. eigenvalues --    1.85947   1.86018   1.86129   1.86466   1.86567
 Alpha virt. eigenvalues --    1.86700   1.86884   1.87196   1.87251   1.87378
 Alpha virt. eigenvalues --    1.87564   1.87840   1.87956   1.88021   1.88529
 Alpha virt. eigenvalues --    1.88919   1.88936   1.88973   1.89429   1.89515
 Alpha virt. eigenvalues --    1.89601   1.89822   1.89869   1.89995   1.90144
 Alpha virt. eigenvalues --    1.90622   1.91130   1.91250   1.91582   1.91708
 Alpha virt. eigenvalues --    1.91838   1.92310   1.92455   1.92653   1.92770
 Alpha virt. eigenvalues --    1.93034   1.93119   1.93496   1.93537   1.93853
 Alpha virt. eigenvalues --    1.93948   1.94299   1.94666   1.94840   1.95179
 Alpha virt. eigenvalues --    1.95410   1.95608   1.95781   1.95859   1.96126
 Alpha virt. eigenvalues --    1.96397   1.96516   1.96970   1.97148   1.97311
 Alpha virt. eigenvalues --    1.97605   1.98093   1.98111   1.98563   1.98637
 Alpha virt. eigenvalues --    1.98879   1.99330   1.99509   1.99690   1.99749
 Alpha virt. eigenvalues --    1.99859   2.00111   2.00622   2.00914   2.01165
 Alpha virt. eigenvalues --    2.01415   2.01550   2.02295   2.02361   2.02570
 Alpha virt. eigenvalues --    2.02848   2.03009   2.03246   2.03613   2.03833
 Alpha virt. eigenvalues --    2.04012   2.04175   2.05014   2.05035   2.05304
 Alpha virt. eigenvalues --    2.05317   2.05650   2.05942   2.06215   2.06417
 Alpha virt. eigenvalues --    2.06575   2.06991   2.07973   2.08403   2.08742
 Alpha virt. eigenvalues --    2.08827   2.09621   2.09852   2.09857   2.10344
 Alpha virt. eigenvalues --    2.10411   2.10869   2.11134   2.11389   2.11891
 Alpha virt. eigenvalues --    2.11917   2.12222   2.12337   2.12533   2.12870
 Alpha virt. eigenvalues --    2.13458   2.13676   2.14446   2.14584   2.14865
 Alpha virt. eigenvalues --    2.15137   2.15557   2.15887   2.15951   2.16158
 Alpha virt. eigenvalues --    2.16486   2.16518   2.16706   2.16890   2.17898
 Alpha virt. eigenvalues --    2.18109   2.18280   2.18451   2.18852   2.19141
 Alpha virt. eigenvalues --    2.19390   2.19704   2.19984   2.20537   2.20893
 Alpha virt. eigenvalues --    2.21182   2.21671   2.22117   2.22595   2.22627
 Alpha virt. eigenvalues --    2.23149   2.23813   2.24360   2.24615   2.24695
 Alpha virt. eigenvalues --    2.25302   2.25771   2.26178   2.26520   2.26800
 Alpha virt. eigenvalues --    2.27023   2.27804   2.27915   2.28008   2.28325
 Alpha virt. eigenvalues --    2.28489   2.29936   2.30024   2.30297   2.31302
 Alpha virt. eigenvalues --    2.31412   2.31819   2.32229   2.32293   2.33027
 Alpha virt. eigenvalues --    2.33402   2.33936   2.34392   2.34668   2.34805
 Alpha virt. eigenvalues --    2.35101   2.36108   2.36390   2.36574   2.37129
 Alpha virt. eigenvalues --    2.37772   2.38090   2.38467   2.38541   2.38624
 Alpha virt. eigenvalues --    2.39411   2.39520   2.39582   2.40168   2.40209
 Alpha virt. eigenvalues --    2.40742   2.40917   2.41083   2.41197   2.41860
 Alpha virt. eigenvalues --    2.42188   2.42969   2.43156   2.43323   2.43410
 Alpha virt. eigenvalues --    2.44240   2.44584   2.44909   2.45118   2.45148
 Alpha virt. eigenvalues --    2.46147   2.46790   2.46845   2.47395   2.47546
 Alpha virt. eigenvalues --    2.47820   2.47912   2.48214   2.48604   2.48963
 Alpha virt. eigenvalues --    2.49282   2.49639   2.49835   2.50925   2.51112
 Alpha virt. eigenvalues --    2.51575   2.52140   2.52397   2.52804   2.53535
 Alpha virt. eigenvalues --    2.53787   2.53987   2.54851   2.54864   2.55029
 Alpha virt. eigenvalues --    2.55196   2.55647   2.56153   2.56302   2.56887
 Alpha virt. eigenvalues --    2.58343   2.58711   2.59294   2.59629   2.59736
 Alpha virt. eigenvalues --    2.59839   2.60625   2.60761   2.61011   2.61424
 Alpha virt. eigenvalues --    2.61869   2.62175   2.62551   2.63181   2.63870
 Alpha virt. eigenvalues --    2.64941   2.65143   2.65497   2.65800   2.65960
 Alpha virt. eigenvalues --    2.66129   2.66580   2.67064   2.67357   2.68019
 Alpha virt. eigenvalues --    2.68150   2.68511   2.68971   2.69044   2.69244
 Alpha virt. eigenvalues --    2.69666   2.69788   2.69884   2.70532   2.70968
 Alpha virt. eigenvalues --    2.72433   2.73452   2.73557   2.74064   2.74620
 Alpha virt. eigenvalues --    2.74791   2.75297   2.75577   2.75940   2.76722
 Alpha virt. eigenvalues --    2.76813   2.77091   2.77752   2.77987   2.78515
 Alpha virt. eigenvalues --    2.78909   2.78967   2.79139   2.79685   2.80008
 Alpha virt. eigenvalues --    2.80178   2.80576   2.80805   2.81709   2.81976
 Alpha virt. eigenvalues --    2.82401   2.82810   2.83182   2.83820   2.83927
 Alpha virt. eigenvalues --    2.84223   2.84298   2.84957   2.85110   2.86648
 Alpha virt. eigenvalues --    2.86834   2.87842   2.88245   2.88539   2.89258
 Alpha virt. eigenvalues --    2.89558   2.89819   2.90614   2.91991   2.92342
 Alpha virt. eigenvalues --    2.92794   2.93048   2.93115   2.93442   2.93952
 Alpha virt. eigenvalues --    2.94300   2.94548   2.94963   2.95155   2.95993
 Alpha virt. eigenvalues --    2.96075   2.96606   2.97014   2.97284   2.97710
 Alpha virt. eigenvalues --    2.98407   2.98483   2.98854   2.99252   2.99423
 Alpha virt. eigenvalues --    2.99458   2.99755   3.00112   3.00530   3.01049
 Alpha virt. eigenvalues --    3.01190   3.01341   3.01587   3.01882   3.02143
 Alpha virt. eigenvalues --    3.02606   3.02790   3.03029   3.03586   3.03982
 Alpha virt. eigenvalues --    3.04268   3.04569   3.04583   3.05110   3.05204
 Alpha virt. eigenvalues --    3.05538   3.05608   3.05917   3.06229   3.06361
 Alpha virt. eigenvalues --    3.07425   3.07578   3.07922   3.08164   3.08364
 Alpha virt. eigenvalues --    3.08431   3.09038   3.09325   3.09568   3.09997
 Alpha virt. eigenvalues --    3.10571   3.10763   3.11103   3.12197   3.12318
 Alpha virt. eigenvalues --    3.12576   3.12878   3.13202   3.13477   3.14679
 Alpha virt. eigenvalues --    3.15727   3.16066   3.16465   3.16537   3.17663
 Alpha virt. eigenvalues --    3.17781   3.18350   3.19026   3.19068   3.19751
 Alpha virt. eigenvalues --    3.20635   3.22436   3.23612   3.24361   3.24435
 Alpha virt. eigenvalues --    3.25065   3.26759   3.27641   3.29034   3.30312
 Alpha virt. eigenvalues --    3.30617   3.33446   3.44360   3.46224   3.48809
 Alpha virt. eigenvalues --    3.49592   3.52309   3.54261   3.55012   3.56882
 Alpha virt. eigenvalues --    3.60807   3.67470   3.68137   3.71582   3.71925
 Alpha virt. eigenvalues --    3.73530   3.76711
          Condensed to atoms (all electrons):
 Mulliken charges:
               1
     1  Mg   0.824581
     2  C    0.027429
     3  C   -0.068034
     4  C   -0.051232
     5  C   -0.071775
     6  N   -0.250425
     7  C   -0.054560
     8  C   -0.074057
     9  C   -0.037836
    10  C    0.064966
    11  C    0.074012
    12  C    0.092297
    13  C    0.071461
    14  C    0.124295
    15  O   -0.259974
    16  O   -0.314097
    17  N   -0.391102
    18  C    0.101808
    19  C   -0.150886
    20  C    0.006882
    21  C    0.102903
    22  C    0.125148
    23  C   -0.028859
    24  O   -0.188687
    25  C    0.033102
    26  N   -0.324480
    27  C    0.042507
    28  C   -0.056109
    29  C    0.020057
    30  C    0.044616
    31  C    0.071982
    32  C    0.050635
    33  C   -0.002845
    34  N   -0.325800
    35  C    0.097957
    36  C   -0.151735
    37  C   -0.017893
    38  C    0.102616
    39  C    0.145834
    40  C    0.027240
    41  O   -0.138218
    42  C   -0.067620
    43  C    0.215954
    44  O   -0.196516
    45  O   -0.346958
    46  C    0.180616
    47  C    0.315730
    48  C   -0.129892
    49  C   -0.239002
    50  C    0.104742
    51  C    0.091018
    52  C    0.009003
    53  C    0.048227
    54  C   -0.109372
    55  C    0.047049
    56  C    0.092953
    57  C   -0.026381
    58  C    0.027027
    59  C   -0.145845
    60  C    0.087464
    61  C    0.045670
    62  C    0.009429
    63  C    0.033005
    64  C   -0.164838
    65  C    0.031255
    66  C    0.061394
    67  H   -0.022929
    68  H   -0.001387
    69  H   -0.029669
    70  H    0.024031
    71  H    0.011876
    72  H    0.017307
    73  H    0.009522
    74  H    0.021491
    75  H    0.014624
    76  H    0.007049
    77  H    0.026814
    78  H    0.035696
    79  H    0.009210
    80  H    0.043594
    81  H    0.027594
    82  H    0.023608
    83  H    0.047223
    84  H    0.017430
    85  H    0.011209
    86  H   -0.007427
    87  H    0.032127
    88  H    0.009893
    89  H    0.018254
    90  H    0.004500
    91  H    0.010959
    92  H    0.025628
    93  H    0.010503
    94  H    0.014070
    95  H    0.024715
    96  H    0.009903
    97  H    0.051519
    98  H    0.029419
    99  H    0.022157
   100  H    0.030888
   101  H    0.028141
   102  H    0.034949
   103  H    0.053900
   104  H   -0.003558
   105  H    0.036958
   106  H    0.016157
   107  H    0.008036
   108  H   -0.012410
   109  H    0.016056
   110  H    0.004003
   111  H    0.001723
   112  H   -0.012010
   113  H   -0.009171
   114  H   -0.009194
   115  H   -0.008016
   116  H   -0.004248
   117  H    0.010777
   118  H   -0.016861
   119  H   -0.010582
   120  H    0.004253
   121  H   -0.008851
   122  H   -0.003181
   123  H   -0.003045
   124  H   -0.009188
   125  H   -0.008806
   126  H    0.020691
   127  H    0.005327
   128  H   -0.003198
   129  H   -0.020604
   130  H    0.001717
   131  H    0.008534
   132  H    0.009029
   133  H   -0.012832
   134  H    0.002639
   135  H    0.001141
   136  H    0.000277
   137  H    0.015605
   138  H    0.009819
   139  H    0.001423
   140  H    0.015364
 Sum of Mulliken charges =  -0.00000
 Mulliken charges with hydrogens summed into heavy atoms:
               1
     1  Mg   0.824581
     2  C    0.027429
     3  C   -0.090963
     4  C   -0.052619
     5  C   -0.101443
     6  N   -0.250425
     7  C   -0.054560
     8  C   -0.050027
     9  C   -0.025960
    10  C    0.064966
    11  C    0.122332
    12  C    0.113970
    13  C    0.133971
    14  C    0.124295
    15  O   -0.259974
    16  O   -0.314097
    17  N   -0.391102
    18  C    0.101808
    19  C   -0.150886
    20  C    0.006882
    21  C    0.102903
    22  C    0.205545
    23  C   -0.028859
    24  O   -0.188687
    25  C    0.121364
    26  N   -0.324480
    27  C    0.042507
    28  C   -0.044900
    29  C    0.012630
    30  C    0.044616
    31  C    0.132256
    32  C    0.066094
    33  C    0.047355
    34  N   -0.325800
    35  C    0.097957
    36  C   -0.151735
    37  C   -0.017893
    38  C    0.102616
    39  C    0.231971
    40  C    0.027240
    41  O   -0.138218
    42  C   -0.038202
    43  C    0.215954
    44  O   -0.196516
    45  O   -0.346958
    46  C    0.261802
    47  C    0.404580
    48  C   -0.133450
    49  C   -0.239002
    50  C    0.165894
    51  C    0.094665
    52  C    0.014728
    53  C    0.027047
    54  C   -0.118566
    55  C    0.045561
    56  C    0.065509
    57  C   -0.030979
    58  C    0.020801
    59  C   -0.155033
    60  C    0.104677
    61  C    0.021868
    62  C    0.019681
    63  C    0.029201
    64  C   -0.162199
    65  C    0.048278
    66  C    0.088000
 Electronic spatial extent (au):  <R**2>=         122217.3748
 Charge=             -0.0000 electrons
 Dipole moment (field-independent basis, Debye):
    X=             -5.4693    Y=              3.7424    Z=              2.4191  Tot=              7.0548
 Quadrupole moment (field-independent basis, Debye-Ang):
   XX=           -381.8331   YY=           -445.7843   ZZ=           -400.2903
   XY=             32.8910   XZ=             19.1402   YZ=             -5.3779
 Traceless Quadrupole moment (field-independent basis, Debye-Ang):
   XX=             27.4694   YY=            -36.4817   ZZ=              9.0123
   XY=             32.8910   XZ=             19.1402   YZ=             -5.3779
 Octapole moment (field-independent basis, Debye-Ang**2):
  XXX=            442.9887  YYY=             32.0244  ZZZ=            -19.9096  XYY=           -317.8538
  XXY=             65.2170  XXZ=             67.6993  XZZ=              7.1377  YZZ=            -41.0690
  YYZ=             -9.4323  XYZ=            -46.1946
 Hexadecapole moment (field-independent basis, Debye-Ang**3):
 XXXX=        -133569.4846 YYYY=         -28980.9527 ZZZZ=          -5367.9695 XXXY=           2539.9013
 XXXZ=            470.6212 YYYX=            185.5962 YYYZ=             80.6328 ZZZX=            110.0081
 ZZZY=            127.2902 XXYY=         -28990.2206 XXZZ=         -23903.5576 YYZZ=          -5096.6096
 XXYZ=            196.3396 YYXZ=             84.1164 ZZXY=            114.9010
 N-N= 9.557337485053D+03 E-N=-2.610655033887D+04  KE= 2.975433169069D+03
 Leave Link  601 at Wed May  4 02:02:47 2022, MaxMem= 10066329600 cpu:              10.8 elap:               0.5
 (Enter /sw/apps/gaussian-16.0/g16/l9999.exe)
 1\1\GINC-BP1-COMPUTE121\SP\RCAM-B3LYP TD-FC\def2SVP\C55H74Mg1N4O6\OF15
 641\04-May-2022\0\\#p cam-b3lyp/Def2SVP td=(nstates=5)\\step_1251_chro
 mophore_24 TDDFT with cam-b3lyp functional\\0,1\Mg,0,0.511,45.07,24.27
 6\C,0,2.678,44.307,26.956\C,0,-2.043,43.98,26.36\C,0,-1.457,45.159,21.
 592\C,0,3.256,45.569,22.26\N,0,0.279,44.412,26.456\C,0,1.359,44.222,27
 .343\C,0,0.805,44.039,28.728\C,0,-0.7,43.773,28.521\C,0,-0.861,44.095,
 27.013\C,0,-1.159,42.324,28.914\C,0,0.987,45.243,29.678\C,0,1.395,44.8
 37,31.146\C,0,1.23,43.426,31.669\O,0,2.164,42.651,31.907\O,0,0.015,43.
 131,32.084\N,0,-1.519,44.606,24.003\C,0,-2.42,44.087,24.954\C,0,-3.635
 ,43.715,24.261\C,0,-3.578,44.137,22.936\C,0,-2.123,44.652,22.758\C,0,-
 4.702,42.95,25.023\C,0,-4.577,44.052,21.854\O,0,-4.391,44.461,20.726\C
 ,0,-5.909,43.323,22.094\N,0,0.791,45.38,22.274\C,0,-0.175,45.488,21.32
 5\C,0,0.444,45.864,19.989\C,0,1.833,46.383,20.447\C,0,1.98,45.666,21.6
 96\C,0,0.374,44.677,18.962\C,0,1.944,47.893,20.589\C,0,0.772,48.855,20
 .269\N,0,2.618,45.143,24.594\C,0,3.638,45.2,23.653\C,0,4.963,45.033,24
 .203\C,0,4.652,44.678,25.604\C,0,3.178,44.708,25.718\C,0,6.335,45.053,
 23.522\C,0,5.243,44.26,26.82\O,0,6.387,44.167,27.159\C,0,3.975,43.912,
 27.749\C,0,3.938,42.408,27.977\O,0,3.509,41.591,27.199\O,0,4.562,42.06
 5,29.183\C,0,4.287,40.712,29.735\C,0,-0.229,41.897,32.884\C,0,-1.617,4
 1.95,33.37\C,0,-2.236,41.18,34.296\C,0,-1.674,39.902,34.916\C,0,-3.672
 ,41.579,34.735\C,0,-3.478,42.631,35.885\C,0,-4.166,43.936,35.622\C,0,-
 5.485,44.086,36.399\C,0,-5.563,45.505,36.908\C,0,-6.73,43.671,35.582\C
 ,0,-7.356,42.321,36.075\C,0,-8.869,42.455,36.558\C,0,-9.531,41.024,36.
 783\C,0,-10.383,40.581,35.581\C,0,-10.286,41.011,38.103\C,0,-10.567,39
 .576,38.591\C,0,-12.155,39.343,38.838\C,0,-12.444,37.844,38.988\C,0,-1
 3.157,37.414,37.65\C,0,-13.201,37.494,40.286\H,0,-2.93,43.8,26.971\H,0
 ,-2.033,44.982,20.682\H,0,4.063,45.816,21.566\H,0,1.368,43.216,29.167\
 H,0,-1.212,44.468,29.185\H,0,-0.243,41.816,29.215\H,0,-1.548,41.813,28
 .033\H,0,-1.964,42.265,29.645\H,0,0.168,45.962,29.651\H,0,1.891,45.727
 ,29.308\H,0,0.898,45.553,31.801\H,0,2.467,45.002,31.258\H,0,-5.208,42.
 208,24.405\H,0,-5.426,43.66,25.422\H,0,-4.133,42.324,25.71\H,0,-6.555,
 43.917,22.74\H,0,-5.81,42.295,22.444\H,0,-6.489,43.352,21.172\H,0,-0.2
 03,46.643,19.587\H,0,2.543,45.986,19.722\H,0,-0.031,43.791,19.452\H,0,
 1.327,44.413,18.503\H,0,-0.203,44.928,18.072\H,0,2.739,48.26,19.939\H,
 0,2.211,48.192,21.603\H,0,0.576,49.152,19.239\H,0,0.931,49.73,20.899\H
 ,0,-0.132,48.394,20.668\H,0,6.685,46.085,23.567\H,0,6.096,44.906,22.46
 9\H,0,7.082,44.39,23.958\H,0,4.112,44.423,28.702\H,0,5.186,40.128,29.9
 32\H,0,3.598,40.107,29.145\H,0,3.853,40.623,30.731\H,0,0.383,42.077,33
 .768\H,0,-0.005,40.954,32.388\H,0,-2.218,42.837,33.175\H,0,-2.412,39.1
 06,34.812\H,0,-1.479,40.079,35.974\H,0,-0.676,39.749,34.506\H,0,-4.084
 ,40.67,35.172\H,0,-4.314,42.001,33.961\H,0,-2.422,42.901,35.859\H,0,-3
 .642,42.189,36.868\H,0,-4.352,44.094,34.56\H,0,-3.476,44.725,35.921\H,
 0,-5.39,43.398,37.239\H,0,-6.589,45.836,37.064\H,0,-5.232,46.207,36.14
 3\H,0,-5.011,45.766,37.811\H,0,-6.467,43.636,34.525\H,0,-7.49,44.452,3
 5.598\H,0,-6.821,41.828,36.887\H,0,-7.343,41.602,35.256\H,0,-9.371,43.
 011,35.766\H,0,-8.847,43.063,37.463\H,0,-8.688,40.356,36.958\H,0,-10.3
 71,41.369,34.828\H,0,-11.426,40.381,35.827\H,0,-9.79,39.824,35.067\H,0
 ,-11.103,41.732,38.134\H,0,-9.54,41.433,38.776\H,0,-10.126,39.486,39.5
 83\H,0,-10.149,38.835,37.909\H,0,-12.728,39.928,38.118\H,0,-12.35,39.7
 83,39.816\H,0,-11.578,37.183,39.001\H,0,-14.068,36.826,37.761\H,0,-12.
 43,36.709,37.247\H,0,-13.336,38.216,36.933\H,0,-12.478,36.841,40.777\H
 ,0,-14.087,36.94,39.976\H,0,-13.485,38.347,40.902\\Version=ES64L-G16Re
 vA.03\State=1-A\HF=-3007.14509\RMSD=3.487e-09\PG=C01 [X(C55H74Mg1N4O6)
 ]\\@


 VIRTUE IS LEARNED AT YOUR MOTHER'S KNEE,
 VICES ARE PICKED UP AT SOME OTHER JOINT.
 Job cpu time:       0 days 10 hours 38 minutes 51.3 seconds.
 Elapsed time:       0 days  0 hours 27 minutes  9.5 seconds.
 File lengths (MBytes):  RWF=   8929 Int=      0 D2E=      0 Chk=    390 Scr=      1
 Normal termination of Gaussian 16 at Wed May  4 02:02:48 2022.
