 Entering Gaussian System, Link 0=g16
 Initial command:
 /sw/apps/gaussian-16.0/g16/l1.exe "/tmp/Gau-259668.inp" -scrdir="/tmp/"
 Entering Link 1 = /sw/apps/gaussian-16.0/g16/l1.exe PID=    259669.
  
 Copyright (c) 1988,1990,1992,1993,1995,1998,2003,2009,2016,
            Gaussian, Inc.  All Rights Reserved.
  
 This is part of the Gaussian(R) 16 program.  It is based on
 the Gaussian(R) 09 system (copyright 2009, Gaussian, Inc.),
 the Gaussian(R) 03 system (copyright 2003, Gaussian, Inc.),
 the Gaussian(R) 98 system (copyright 1998, Gaussian, Inc.),
 the Gaussian(R) 94 system (copyright 1995, Gaussian, Inc.),
 the Gaussian 92(TM) system (copyright 1992, Gaussian, Inc.),
 the Gaussian 90(TM) system (copyright 1990, Gaussian, Inc.),
 the Gaussian 88(TM) system (copyright 1988, Gaussian, Inc.),
 the Gaussian 86(TM) system (copyright 1986, Carnegie Mellon
 University), and the Gaussian 82(TM) system (copyright 1983,
 Carnegie Mellon University). Gaussian is a federally registered
 trademark of Gaussian, Inc.
  
 This software contains proprietary and confidential information,
 including trade secrets, belonging to Gaussian, Inc.
  
 This software is provided under written license and may be
 used, copied, transmitted, or stored only in accord with that
 written license.
  
 The following legend is applicable only to US Government
 contracts under FAR:
  
                    RESTRICTED RIGHTS LEGEND
  
 Use, reproduction and disclosure by the US Government is
 subject to restrictions as set forth in subparagraphs (a)
 and (c) of the Commercial Computer Software - Restricted
 Rights clause in FAR 52.227-19.
  
 Gaussian, Inc.
 340 Quinnipiac St., Bldg. 40, Wallingford CT 06492
  
  
 ---------------------------------------------------------------
 Warning -- This program may not be used in any manner that
 competes with the business of Gaussian, Inc. or will provide
 assistance to any competitor of Gaussian, Inc.  The licensee
 of this program is prohibited from giving any competitor of
 Gaussian, Inc. access to this program.  By using this program,
 the user acknowledges that Gaussian, Inc. is engaged in the
 business of creating and licensing software in the field of
 computational chemistry and represents and warrants to the
 licensee that it is not a competitor of Gaussian, Inc. and that
 it will not use this program in any manner prohibited above.
 ---------------------------------------------------------------
  

 Cite this work as:
 Gaussian 16, Revision A.03,
 M. J. Frisch, G. W. Trucks, H. B. Schlegel, G. E. Scuseria, 
 M. A. Robb, J. R. Cheeseman, G. Scalmani, V. Barone, 
 G. A. Petersson, H. Nakatsuji, X. Li, M. Caricato, A. V. Marenich, 
 J. Bloino, B. G. Janesko, R. Gomperts, B. Mennucci, H. P. Hratchian, 
 J. V. Ortiz, A. F. Izmaylov, J. L. Sonnenberg, D. Williams-Young, 
 F. Ding, F. Lipparini, F. Egidi, J. Goings, B. Peng, A. Petrone, 
 T. Henderson, D. Ranasinghe, V. G. Zakrzewski, J. Gao, N. Rega, 
 G. Zheng, W. Liang, M. Hada, M. Ehara, K. Toyota, R. Fukuda, 
 J. Hasegawa, M. Ishida, T. Nakajima, Y. Honda, O. Kitao, H. Nakai, 
 T. Vreven, K. Throssell, J. A. Montgomery, Jr., J. E. Peralta, 
 F. Ogliaro, M. J. Bearpark, J. J. Heyd, E. N. Brothers, K. N. Kudin, 
 V. N. Staroverov, T. A. Keith, R. Kobayashi, J. Normand, 
 K. Raghavachari, A. P. Rendell, J. C. Burant, S. S. Iyengar, 
 J. Tomasi, M. Cossi, J. M. Millam, M. Klene, C. Adamo, R. Cammi, 
 J. W. Ochterski, R. L. Martin, K. Morokuma, O. Farkas, 
 J. B. Foresman, and D. J. Fox, Gaussian, Inc., Wallingford CT, 2016.
 
 ******************************************
 Gaussian 16:  ES64L-G16RevA.03 25-Dec-2016
                 4-May-2022 
 ******************************************
 %nproc=24
 Will use up to   24 processors via shared memory.
 %mem=75GB
 --------------------------------
 #p wB97XD/Def2SVP td=(nstates=5)
 --------------------------------
 1/38=1,172=1/1;
 2/12=2,17=6,18=5,40=1/2;
 3/5=43,7=101,11=9,25=1,30=1,74=-58/1,2,3,8;
 4//1;
 5/5=2,38=5/2;
 8/6=1,10=1,108=5/1;
 9/41=5,42=1,70=2/14;
 6/7=2,8=2,9=2,10=2/1;
 99/5=1,9=1/99;
 Leave Link    1 at Wed May  4 02:19:05 2022, MaxMem= 10066329600 cpu:               1.0 elap:               0.0
 (Enter /sw/apps/gaussian-16.0/g16/l101.exe)
 -----------------------------------------------------
 step_1251_chromophore_24 TDDFT with wB97XD functional
 -----------------------------------------------------
 Symbolic Z-matrix:
 Charge =  0 Multiplicity = 1
 Mg                    0.511     45.07     24.276 
 C                     2.678     44.307    26.956 
 C                    -2.043     43.98     26.36 
 C                    -1.457     45.159    21.592 
 C                     3.256     45.569    22.26 
 N                     0.279     44.412    26.456 
 C                     1.359     44.222    27.343 
 C                     0.805     44.039    28.728 
 C                    -0.7       43.773    28.521 
 C                    -0.861     44.095    27.013 
 C                    -1.159     42.324    28.914 
 C                     0.987     45.243    29.678 
 C                     1.395     44.837    31.146 
 C                     1.23      43.426    31.669 
 O                     2.164     42.651    31.907 
 O                     0.015     43.131    32.084 
 N                    -1.519     44.606    24.003 
 C                    -2.42      44.087    24.954 
 C                    -3.635     43.715    24.261 
 C                    -3.578     44.137    22.936 
 C                    -2.123     44.652    22.758 
 C                    -4.702     42.95     25.023 
 C                    -4.577     44.052    21.854 
 O                    -4.391     44.461    20.726 
 C                    -5.909     43.323    22.094 
 N                     0.791     45.38     22.274 
 C                    -0.175     45.488    21.325 
 C                     0.444     45.864    19.989 
 C                     1.833     46.383    20.447 
 C                     1.98      45.666    21.696 
 C                     0.374     44.677    18.962 
 C                     1.944     47.893    20.589 
 C                     0.772     48.855    20.269 
 N                     2.618     45.143    24.594 
 C                     3.638     45.2      23.653 
 C                     4.963     45.033    24.203 
 C                     4.652     44.678    25.604 
 C                     3.178     44.708    25.718 
 C                     6.335     45.053    23.522 
 C                     5.243     44.26     26.82 
 O                     6.387     44.167    27.159 
 C                     3.975     43.912    27.749 
 C                     3.938     42.408    27.977 
 O                     3.509     41.591    27.199 
 O                     4.562     42.065    29.183 
 C                     4.287     40.712    29.735 
 C                    -0.229     41.897    32.884 
 C                    -1.617     41.95     33.37 
 C                    -2.236     41.18     34.296 
 C                    -1.674     39.902    34.916 
 C                    -3.672     41.579    34.735 
 C                    -3.478     42.631    35.885 
 C                    -4.166     43.936    35.622 
 C                    -5.485     44.086    36.399 
 C                    -5.563     45.505    36.908 
 C                    -6.73      43.671    35.582 
 C                    -7.356     42.321    36.075 
 C                    -8.869     42.455    36.558 
 C                    -9.531     41.024    36.783 
 C                    -10.383    40.581    35.581 
 C                    -10.286    41.011    38.103 
 C                    -10.567    39.576    38.591 
 C                    -12.155    39.343    38.838 
 C                    -12.444    37.844    38.988 
 C                    -13.157    37.414    37.65 
 C                    -13.201    37.494    40.286 
 H                    -2.93      43.8      26.971 
 H                    -2.033     44.982    20.682 
 H                     4.063     45.816    21.566 
 H                     1.368     43.216    29.167 
 H                    -1.212     44.468    29.185 
 H                    -0.243     41.816    29.215 
 H                    -1.548     41.813    28.033 
 H                    -1.964     42.265    29.645 
 H                     0.168     45.962    29.651 
 H                     1.891     45.727    29.308 
 H                     0.898     45.553    31.801 
 H                     2.467     45.002    31.258 
 H                    -5.208     42.208    24.405 
 H                    -5.426     43.66     25.422 
 H                    -4.133     42.324    25.71 
 H                    -6.555     43.917    22.74 
 H                    -5.81      42.295    22.444 
 H                    -6.489     43.352    21.172 
 H                    -0.203     46.643    19.587 
 H                     2.543     45.986    19.722 
 H                    -0.031     43.791    19.452 
 H                     1.327     44.413    18.503 
 H                    -0.203     44.928    18.072 
 H                     2.739     48.26     19.939 
 H                     2.211     48.192    21.603 
 H                     0.576     49.152    19.239 
 H                     0.931     49.73     20.899 
 H                    -0.132     48.394    20.668 
 H                     6.685     46.085    23.567 
 H                     6.096     44.906    22.469 
 H                     7.082     44.39     23.958 
 H                     4.112     44.423    28.702 
 H                     5.186     40.128    29.932 
 H                     3.598     40.107    29.145 
 H                     3.853     40.623    30.731 
 H                     0.383     42.077    33.768 
 H                    -0.005     40.954    32.388 
 H                    -2.218     42.837    33.175 
 H                    -2.412     39.106    34.812 
 H                    -1.479     40.079    35.974 
 H                    -0.676     39.749    34.506 
 H                    -4.084     40.67     35.172 
 H                    -4.314     42.001    33.961 
 H                    -2.422     42.901    35.859 
 H                    -3.642     42.189    36.868 
 H                    -4.352     44.094    34.56 
 H                    -3.476     44.725    35.921 
 H                    -5.39      43.398    37.239 
 H                    -6.589     45.836    37.064 
 H                    -5.232     46.207    36.143 
 H                    -5.011     45.766    37.811 
 H                    -6.467     43.636    34.525 
 H                    -7.49      44.452    35.598 
 H                    -6.821     41.828    36.887 
 H                    -7.343     41.602    35.256 
 H                    -9.371     43.011    35.766 
 H                    -8.847     43.063    37.463 
 H                    -8.688     40.356    36.958 
 H                    -10.371    41.369    34.828 
 H                    -11.426    40.381    35.827 
 H                    -9.79      39.824    35.067 
 H                    -11.103    41.732    38.134 
 H                    -9.54      41.433    38.776 
 H                    -10.126    39.486    39.583 
 H                    -10.149    38.835    37.909 
 H                    -12.728    39.928    38.118 
 H                    -12.35     39.783    39.816 
 H                    -11.578    37.183    39.001 
 H                    -14.068    36.826    37.761 
 H                    -12.43     36.709    37.247 
 H                    -13.336    38.216    36.933 
 H                    -12.478    36.841    40.777 
 H                    -14.087    36.94     39.976 
 H                    -13.485    38.347    40.902 
 
 ITRead=  0  0  0  0  0  0  0  0  0  0  0  0  0  0  0  0  0  0  0  0
 ITRead=  0  0  0  0  0  0  0  0  0  0  0  0  0  0  0  0  0  0  0  0
 ITRead=  0  0  0  0  0  0  0  0  0  0  0  0  0  0  0  0  0  0  0  0
 ITRead=  0  0  0  0  0  0  0  0  0  0  0  0  0  0  0  0  0  0  0  0
 ITRead=  0  0  0  0  0  0  0  0  0  0  0  0  0  0  0  0  0  0  0  0
 ITRead=  0  0  0  0  0  0  0  0  0  0  0  0  0  0  0  0  0  0  0  0
 ITRead=  0  0  0  0  0  0  0  0  0  0  0  0  0  0  0  0  0  0  0  0
 MicOpt= -1 -1 -1 -1 -1 -1 -1 -1 -1 -1 -1 -1 -1 -1 -1 -1 -1 -1 -1 -1
 MicOpt= -1 -1 -1 -1 -1 -1 -1 -1 -1 -1 -1 -1 -1 -1 -1 -1 -1 -1 -1 -1
 MicOpt= -1 -1 -1 -1 -1 -1 -1 -1 -1 -1 -1 -1 -1 -1 -1 -1 -1 -1 -1 -1
 MicOpt= -1 -1 -1 -1 -1 -1 -1 -1 -1 -1 -1 -1 -1 -1 -1 -1 -1 -1 -1 -1
 MicOpt= -1 -1 -1 -1 -1 -1 -1 -1 -1 -1 -1 -1 -1 -1 -1 -1 -1 -1 -1 -1
 MicOpt= -1 -1 -1 -1 -1 -1 -1 -1 -1 -1 -1 -1 -1 -1 -1 -1 -1 -1 -1 -1
 MicOpt= -1 -1 -1 -1 -1 -1 -1 -1 -1 -1 -1 -1 -1 -1 -1 -1 -1 -1 -1 -1
 NAtoms=    140 NQM=      140 NQMF=       0 NMMI=      0 NMMIF=      0
                NMic=       0 NMicF=      0.
                    Isotopes and Nuclear Properties:
 (Nuclear quadrupole moments (NQMom) in fm**2, nuclear magnetic moments (NMagM)
  in nuclear magnetons)

  Atom         1           2           3           4           5           6           7           8           9          10
 IAtWgt=          24          12          12          12          12          14          12          12          12          12
 AtmWgt=  23.9850450  12.0000000  12.0000000  12.0000000  12.0000000  14.0030740  12.0000000  12.0000000  12.0000000  12.0000000
 NucSpn=           0           0           0           0           0           2           0           0           0           0
 AtZEff=  -0.0000000  -0.0000000  -0.0000000  -0.0000000  -0.0000000  -0.0000000  -0.0000000  -0.0000000  -0.0000000  -0.0000000
 NQMom=    0.0000000   0.0000000   0.0000000   0.0000000   0.0000000   2.0440000   0.0000000   0.0000000   0.0000000   0.0000000
 NMagM=    0.0000000   0.0000000   0.0000000   0.0000000   0.0000000   0.4037610   0.0000000   0.0000000   0.0000000   0.0000000
 AtZNuc=  12.0000000   6.0000000   6.0000000   6.0000000   6.0000000   7.0000000   6.0000000   6.0000000   6.0000000   6.0000000

  Atom        11          12          13          14          15          16          17          18          19          20
 IAtWgt=          12          12          12          12          16          16          14          12          12          12
 AtmWgt=  12.0000000  12.0000000  12.0000000  12.0000000  15.9949146  15.9949146  14.0030740  12.0000000  12.0000000  12.0000000
 NucSpn=           0           0           0           0           0           0           2           0           0           0
 AtZEff=  -0.0000000  -0.0000000  -0.0000000  -0.0000000  -0.0000000  -0.0000000  -0.0000000  -0.0000000  -0.0000000  -0.0000000
 NQMom=    0.0000000   0.0000000   0.0000000   0.0000000   0.0000000   0.0000000   2.0440000   0.0000000   0.0000000   0.0000000
 NMagM=    0.0000000   0.0000000   0.0000000   0.0000000   0.0000000   0.0000000   0.4037610   0.0000000   0.0000000   0.0000000
 AtZNuc=   6.0000000   6.0000000   6.0000000   6.0000000   8.0000000   8.0000000   7.0000000   6.0000000   6.0000000   6.0000000

  Atom        21          22          23          24          25          26          27          28          29          30
 IAtWgt=          12          12          12          16          12          14          12          12          12          12
 AtmWgt=  12.0000000  12.0000000  12.0000000  15.9949146  12.0000000  14.0030740  12.0000000  12.0000000  12.0000000  12.0000000
 NucSpn=           0           0           0           0           0           2           0           0           0           0
 AtZEff=  -0.0000000  -0.0000000  -0.0000000  -0.0000000  -0.0000000  -0.0000000  -0.0000000  -0.0000000  -0.0000000  -0.0000000
 NQMom=    0.0000000   0.0000000   0.0000000   0.0000000   0.0000000   2.0440000   0.0000000   0.0000000   0.0000000   0.0000000
 NMagM=    0.0000000   0.0000000   0.0000000   0.0000000   0.0000000   0.4037610   0.0000000   0.0000000   0.0000000   0.0000000
 AtZNuc=   6.0000000   6.0000000   6.0000000   8.0000000   6.0000000   7.0000000   6.0000000   6.0000000   6.0000000   6.0000000

  Atom        31          32          33          34          35          36          37          38          39          40
 IAtWgt=          12          12          12          14          12          12          12          12          12          12
 AtmWgt=  12.0000000  12.0000000  12.0000000  14.0030740  12.0000000  12.0000000  12.0000000  12.0000000  12.0000000  12.0000000
 NucSpn=           0           0           0           2           0           0           0           0           0           0
 AtZEff=  -0.0000000  -0.0000000  -0.0000000  -0.0000000  -0.0000000  -0.0000000  -0.0000000  -0.0000000  -0.0000000  -0.0000000
 NQMom=    0.0000000   0.0000000   0.0000000   2.0440000   0.0000000   0.0000000   0.0000000   0.0000000   0.0000000   0.0000000
 NMagM=    0.0000000   0.0000000   0.0000000   0.4037610   0.0000000   0.0000000   0.0000000   0.0000000   0.0000000   0.0000000
 AtZNuc=   6.0000000   6.0000000   6.0000000   7.0000000   6.0000000   6.0000000   6.0000000   6.0000000   6.0000000   6.0000000

  Atom        41          42          43          44          45          46          47          48          49          50
 IAtWgt=          16          12          12          16          16          12          12          12          12          12
 AtmWgt=  15.9949146  12.0000000  12.0000000  15.9949146  15.9949146  12.0000000  12.0000000  12.0000000  12.0000000  12.0000000
 NucSpn=           0           0           0           0           0           0           0           0           0           0
 AtZEff=  -0.0000000  -0.0000000  -0.0000000  -0.0000000  -0.0000000  -0.0000000  -0.0000000  -0.0000000  -0.0000000  -0.0000000
 NQMom=    0.0000000   0.0000000   0.0000000   0.0000000   0.0000000   0.0000000   0.0000000   0.0000000   0.0000000   0.0000000
 NMagM=    0.0000000   0.0000000   0.0000000   0.0000000   0.0000000   0.0000000   0.0000000   0.0000000   0.0000000   0.0000000
 AtZNuc=   8.0000000   6.0000000   6.0000000   8.0000000   8.0000000   6.0000000   6.0000000   6.0000000   6.0000000   6.0000000

  Atom        51          52          53          54          55          56          57          58          59          60
 IAtWgt=          12          12          12          12          12          12          12          12          12          12
 AtmWgt=  12.0000000  12.0000000  12.0000000  12.0000000  12.0000000  12.0000000  12.0000000  12.0000000  12.0000000  12.0000000
 NucSpn=           0           0           0           0           0           0           0           0           0           0
 AtZEff=  -0.0000000  -0.0000000  -0.0000000  -0.0000000  -0.0000000  -0.0000000  -0.0000000  -0.0000000  -0.0000000  -0.0000000
 NQMom=    0.0000000   0.0000000   0.0000000   0.0000000   0.0000000   0.0000000   0.0000000   0.0000000   0.0000000   0.0000000
 NMagM=    0.0000000   0.0000000   0.0000000   0.0000000   0.0000000   0.0000000   0.0000000   0.0000000   0.0000000   0.0000000
 AtZNuc=   6.0000000   6.0000000   6.0000000   6.0000000   6.0000000   6.0000000   6.0000000   6.0000000   6.0000000   6.0000000

  Atom        61          62          63          64          65          66          67          68          69          70
 IAtWgt=          12          12          12          12          12          12           1           1           1           1
 AtmWgt=  12.0000000  12.0000000  12.0000000  12.0000000  12.0000000  12.0000000   1.0078250   1.0078250   1.0078250   1.0078250
 NucSpn=           0           0           0           0           0           0           1           1           1           1
 AtZEff=  -0.0000000  -0.0000000  -0.0000000  -0.0000000  -0.0000000  -0.0000000  -0.0000000  -0.0000000  -0.0000000  -0.0000000
 NQMom=    0.0000000   0.0000000   0.0000000   0.0000000   0.0000000   0.0000000   0.0000000   0.0000000   0.0000000   0.0000000
 NMagM=    0.0000000   0.0000000   0.0000000   0.0000000   0.0000000   0.0000000   2.7928460   2.7928460   2.7928460   2.7928460
 AtZNuc=   6.0000000   6.0000000   6.0000000   6.0000000   6.0000000   6.0000000   1.0000000   1.0000000   1.0000000   1.0000000

  Atom        71          72          73          74          75          76          77          78          79          80
 IAtWgt=           1           1           1           1           1           1           1           1           1           1
 AtmWgt=   1.0078250   1.0078250   1.0078250   1.0078250   1.0078250   1.0078250   1.0078250   1.0078250   1.0078250   1.0078250
 NucSpn=           1           1           1           1           1           1           1           1           1           1
 AtZEff=  -0.0000000  -0.0000000  -0.0000000  -0.0000000  -0.0000000  -0.0000000  -0.0000000  -0.0000000  -0.0000000  -0.0000000
 NQMom=    0.0000000   0.0000000   0.0000000   0.0000000   0.0000000   0.0000000   0.0000000   0.0000000   0.0000000   0.0000000
 NMagM=    2.7928460   2.7928460   2.7928460   2.7928460   2.7928460   2.7928460   2.7928460   2.7928460   2.7928460   2.7928460
 AtZNuc=   1.0000000   1.0000000   1.0000000   1.0000000   1.0000000   1.0000000   1.0000000   1.0000000   1.0000000   1.0000000

  Atom        81          82          83          84          85          86          87          88          89          90
 IAtWgt=           1           1           1           1           1           1           1           1           1           1
 AtmWgt=   1.0078250   1.0078250   1.0078250   1.0078250   1.0078250   1.0078250   1.0078250   1.0078250   1.0078250   1.0078250
 NucSpn=           1           1           1           1           1           1           1           1           1           1
 AtZEff=  -0.0000000  -0.0000000  -0.0000000  -0.0000000  -0.0000000  -0.0000000  -0.0000000  -0.0000000  -0.0000000  -0.0000000
 NQMom=    0.0000000   0.0000000   0.0000000   0.0000000   0.0000000   0.0000000   0.0000000   0.0000000   0.0000000   0.0000000
 NMagM=    2.7928460   2.7928460   2.7928460   2.7928460   2.7928460   2.7928460   2.7928460   2.7928460   2.7928460   2.7928460
 AtZNuc=   1.0000000   1.0000000   1.0000000   1.0000000   1.0000000   1.0000000   1.0000000   1.0000000   1.0000000   1.0000000

  Atom        91          92          93          94          95          96          97          98          99         100
 IAtWgt=           1           1           1           1           1           1           1           1           1           1
 AtmWgt=   1.0078250   1.0078250   1.0078250   1.0078250   1.0078250   1.0078250   1.0078250   1.0078250   1.0078250   1.0078250
 NucSpn=           1           1           1           1           1           1           1           1           1           1
 AtZEff=  -0.0000000  -0.0000000  -0.0000000  -0.0000000  -0.0000000  -0.0000000  -0.0000000  -0.0000000  -0.0000000  -0.0000000
 NQMom=    0.0000000   0.0000000   0.0000000   0.0000000   0.0000000   0.0000000   0.0000000   0.0000000   0.0000000   0.0000000
 NMagM=    2.7928460   2.7928460   2.7928460   2.7928460   2.7928460   2.7928460   2.7928460   2.7928460   2.7928460   2.7928460
 AtZNuc=   1.0000000   1.0000000   1.0000000   1.0000000   1.0000000   1.0000000   1.0000000   1.0000000   1.0000000   1.0000000

  Atom       101         102         103         104         105         106         107         108         109         110
 IAtWgt=           1           1           1           1           1           1           1           1           1           1
 AtmWgt=   1.0078250   1.0078250   1.0078250   1.0078250   1.0078250   1.0078250   1.0078250   1.0078250   1.0078250   1.0078250
 NucSpn=           1           1           1           1           1           1           1           1           1           1
 AtZEff=  -0.0000000  -0.0000000  -0.0000000  -0.0000000  -0.0000000  -0.0000000  -0.0000000  -0.0000000  -0.0000000  -0.0000000
 NQMom=    0.0000000   0.0000000   0.0000000   0.0000000   0.0000000   0.0000000   0.0000000   0.0000000   0.0000000   0.0000000
 NMagM=    2.7928460   2.7928460   2.7928460   2.7928460   2.7928460   2.7928460   2.7928460   2.7928460   2.7928460   2.7928460
 AtZNuc=   1.0000000   1.0000000   1.0000000   1.0000000   1.0000000   1.0000000   1.0000000   1.0000000   1.0000000   1.0000000

  Atom       111         112         113         114         115         116         117         118         119         120
 IAtWgt=           1           1           1           1           1           1           1           1           1           1
 AtmWgt=   1.0078250   1.0078250   1.0078250   1.0078250   1.0078250   1.0078250   1.0078250   1.0078250   1.0078250   1.0078250
 NucSpn=           1           1           1           1           1           1           1           1           1           1
 AtZEff=  -0.0000000  -0.0000000  -0.0000000  -0.0000000  -0.0000000  -0.0000000  -0.0000000  -0.0000000  -0.0000000  -0.0000000
 NQMom=    0.0000000   0.0000000   0.0000000   0.0000000   0.0000000   0.0000000   0.0000000   0.0000000   0.0000000   0.0000000
 NMagM=    2.7928460   2.7928460   2.7928460   2.7928460   2.7928460   2.7928460   2.7928460   2.7928460   2.7928460   2.7928460
 AtZNuc=   1.0000000   1.0000000   1.0000000   1.0000000   1.0000000   1.0000000   1.0000000   1.0000000   1.0000000   1.0000000

  Atom       121         122         123         124         125         126         127         128         129         130
 IAtWgt=           1           1           1           1           1           1           1           1           1           1
 AtmWgt=   1.0078250   1.0078250   1.0078250   1.0078250   1.0078250   1.0078250   1.0078250   1.0078250   1.0078250   1.0078250
 NucSpn=           1           1           1           1           1           1           1           1           1           1
 AtZEff=  -0.0000000  -0.0000000  -0.0000000  -0.0000000  -0.0000000  -0.0000000  -0.0000000  -0.0000000  -0.0000000  -0.0000000
 NQMom=    0.0000000   0.0000000   0.0000000   0.0000000   0.0000000   0.0000000   0.0000000   0.0000000   0.0000000   0.0000000
 NMagM=    2.7928460   2.7928460   2.7928460   2.7928460   2.7928460   2.7928460   2.7928460   2.7928460   2.7928460   2.7928460
 AtZNuc=   1.0000000   1.0000000   1.0000000   1.0000000   1.0000000   1.0000000   1.0000000   1.0000000   1.0000000   1.0000000

  Atom       131         132         133         134         135         136         137         138         139         140
 IAtWgt=           1           1           1           1           1           1           1           1           1           1
 AtmWgt=   1.0078250   1.0078250   1.0078250   1.0078250   1.0078250   1.0078250   1.0078250   1.0078250   1.0078250   1.0078250
 NucSpn=           1           1           1           1           1           1           1           1           1           1
 AtZEff=  -0.0000000  -0.0000000  -0.0000000  -0.0000000  -0.0000000  -0.0000000  -0.0000000  -0.0000000  -0.0000000  -0.0000000
 NQMom=    0.0000000   0.0000000   0.0000000   0.0000000   0.0000000   0.0000000   0.0000000   0.0000000   0.0000000   0.0000000
 NMagM=    2.7928460   2.7928460   2.7928460   2.7928460   2.7928460   2.7928460   2.7928460   2.7928460   2.7928460   2.7928460
 AtZNuc=   1.0000000   1.0000000   1.0000000   1.0000000   1.0000000   1.0000000   1.0000000   1.0000000   1.0000000   1.0000000
 Leave Link  101 at Wed May  4 02:19:05 2022, MaxMem= 10066329600 cpu:               2.8 elap:               0.1
 (Enter /sw/apps/gaussian-16.0/g16/l202.exe)
 Stoichiometry    C55H74MgN4O6
 Framework group  C1[X(C55H74MgN4O6)]
 Deg. of freedom   414
 Full point group                 C1      NOp   1
 Largest Abelian subgroup         C1      NOp   1
 Largest concise Abelian subgroup C1      NOp   1
                         Standard orientation:                         
 ---------------------------------------------------------------------
 Center     Atomic      Atomic             Coordinates (Angstroms)
 Number     Number       Type             X           Y           Z
 ---------------------------------------------------------------------
      1         12           0        5.313477    1.008876    0.345590
      2          6           0        4.325507   -2.364021    0.017057
      3          6           0        1.938663    1.765429    0.041721
      4          6           0        6.253133    4.184309    0.001393
      5          6           0        8.600441    0.023604    0.074693
      6          7           0        3.332241   -0.132988    0.245393
      7          6           0        3.233315   -1.537344    0.160156
      8          6           0        1.795018   -1.921954    0.365112
      9          6           0        1.006926   -0.605031    0.212617
     10          6           0        2.155959    0.435488    0.185943
     11          6           0        0.073912   -0.554010   -1.048974
     12          6           0        1.468916   -2.559143    1.733647
     13          6           0        0.474468   -3.779579    1.644568
     14          6           0       -0.377151   -4.039621    0.420314
     15          8           0       -0.206799   -4.977225   -0.368041
     16          8           0       -1.482355   -3.325539    0.356403
     17          7           0        4.219464    2.775304    0.039658
     18          6           0        2.828942    2.906600   -0.146818
     19          6           0        2.559129    4.271556   -0.545507
     20          6           0        3.719616    5.034435   -0.454719
     21          6           0        4.837414    4.000167   -0.146899
     22          6           0        1.155855    4.633604   -0.997284
     23          6           0        3.947857    6.472764   -0.689380
     24          8           0        5.028717    7.014612   -0.578007
     25          6           0        2.800954    7.358810   -1.202022
     26          7           0        7.098821    1.986293    0.146329
     27          6           0        7.291902    3.330813    0.126122
     28          6           0        8.778569    3.645571    0.112624
     29          6           0        9.368173    2.288393    0.580472
     30          6           0        8.312274    1.389007    0.165888
     31          6           0        9.233893    4.239251   -1.268977
     32          6           0        9.699932    2.204334    2.062179
     33          6           0        9.500029    3.392869    3.036269
     34          7           0        6.320449   -0.869183    0.276293
     35          6           0        7.657832   -1.129374    0.006406
     36          6           0        7.968053   -2.530031   -0.160734
     37          6           0        6.616878   -3.129665   -0.143031
     38          6           0        5.673120   -2.010068    0.062872
     39          6           0        9.301845   -3.229254   -0.441143
     40          6           0        5.920984   -4.348894   -0.321559
     41          8           0        6.306375   -5.474822   -0.448311
     42          6           0        4.375093   -3.899375   -0.310531
     43          6           0        3.802796   -4.093334   -1.707035
     44          8           0        3.948007   -3.336414   -2.635906
     45          8           0        3.152631   -5.328753   -1.818774
     46          6           0        2.228672   -5.514072   -2.968946
     47          6           0       -2.549783   -3.675457   -0.623622
     48          6           0       -3.724356   -2.843706   -0.316836
     49          6           0       -4.992977   -2.939208   -0.780536
     50          6           0       -5.460471   -3.833362   -1.927474
     51          6           0       -6.073195   -2.020620   -0.145444
     52          6           0       -6.584401   -2.794743    1.121932
     53          6           0       -6.459322   -2.008855    2.391685
     54          6           0       -7.793755   -1.398996    2.853584
     55          6           0       -7.878427   -1.553548    4.352808
     56          6           0       -7.996215    0.060895    2.387248
     57          6           0       -9.079498    0.192897    1.261861
     58          6           0      -10.304785    1.131721    1.658971
     59          6           0      -11.222634    1.446418    0.395979
     60          6           0      -10.904951    2.816381   -0.227911
     61          6           0      -12.686160    1.271926    0.770463
     62          6           0      -13.584704    1.124447   -0.473401
     63          6           0      -14.763347    2.241503   -0.478867
     64          6           0      -15.421832    2.296615   -1.863201
     65          6           0      -14.914605    3.636023   -2.520637
     66          6           0      -16.953536    2.116839   -1.819445
     67          1           0        0.903051    2.106614    0.101625
     68          1           0        6.573536    5.175321   -0.324865
     69          1           0        9.669911   -0.200197    0.068201
     70          1           0        1.581090   -2.682968   -0.384630
     71          1           0        0.368106   -0.545053    1.092604
     72          1           0        0.251663   -1.498635   -1.562596
     73          1           0        0.398243    0.249749   -1.710324
     74          1           0       -0.976077   -0.342598   -0.852260
     75          1           0        1.189225   -1.842133    2.505735
     76          1           0        2.404359   -3.038601    2.022502
     77          1           0       -0.143392   -3.725098    2.541212
     78          1           0        1.057060   -4.698092    1.721207
     79          1           0        1.151252    5.362224   -1.808218
     80          1           0        0.600996    5.021697   -0.143473
     81          1           0        0.803253    3.732701   -1.498933
     82          1           0        2.072367    7.531221   -0.410250
     83          1           0        2.332827    7.011442   -2.123584
     84          1           0        3.179601    8.372305   -1.331562
     85          1           0        8.903797    4.449644    0.837081
     86          1           0       10.244265    2.122888   -0.045950
     87          1           0        8.397983    4.222728   -1.969050
     88          1           0       10.080288    3.728854   -1.729081
     89          1           0        9.644935    5.244518   -1.176706
     90          1           0       10.758339    1.971242    2.183246
     91          1           0        9.148739    1.407479    2.562275
     92          1           0       10.253661    4.177301    3.101308
     93          1           0        9.325284    2.944033    4.013928
     94          1           0        8.547950    3.856531    2.776461
     95          1           0        9.729288   -3.476352    0.531371
     96          1           0        9.937394   -2.422866   -0.806323
     97          1           0        9.237868   -4.126998   -1.055664
     98          1           0        3.847636   -4.543088    0.393402
     99          1           0        2.457741   -6.387997   -3.578739
    100          1           0        2.129430   -4.646769   -3.622233
    101          1           0        1.184110   -5.759515   -2.776749
    102          1           0       -2.828299   -4.679859   -0.304240
    103          1           0       -2.271014   -3.617878   -1.674533
    104          1           0       -3.704929   -2.192691    0.555974
    105          1           0       -6.010849   -3.225427   -2.646206
    106          1           0       -6.118171   -4.605554   -1.527638
    107          1           0       -4.597853   -4.402373   -2.273348
    108          1           0       -6.878058   -2.001521   -0.879490
    109          1           0       -5.747081   -1.021603    0.146001
    110          1           0       -5.878579   -3.612556    1.269272
    111          1           0       -7.548763   -3.270458    0.942348
    112          1           0       -5.709789   -1.221745    2.313821
    113          1           0       -6.089202   -2.693956    3.154358
    114          1           0       -8.557429   -2.012917    2.376226
    115          1           0       -8.517184   -0.801257    4.813916
    116          1           0       -6.919606   -1.325716    4.817937
    117          1           0       -8.186555   -2.516158    4.761064
    118          1           0       -7.035656    0.472600    2.078269
    119          1           0       -8.259066    0.708688    3.223365
    120          1           0       -9.515282   -0.746752    0.921610
    121          1           0       -8.619369    0.624441    0.373074
    122          1           0       -9.849400    2.036724    2.061459
    123          1           0      -10.838404    0.614604    2.457102
    124          1           0      -11.030327    0.625575   -0.294479
    125          1           0      -10.120791    3.298705    0.355658
    126          1           0      -11.755398    3.497737   -0.257217
    127          1           0      -10.349832    2.598877   -1.140834
    128          1           0      -13.008916    1.953136    1.557909
    129          1           0      -12.663151    0.298882    1.260550
    130          1           0      -14.113952    0.177713   -0.372223
    131          1           0      -12.998519    1.147986   -1.392510
    132          1           0      -14.397852    3.162721   -0.024197
    133          1           0      -15.522227    1.845772    0.196119
    134          1           0      -15.089362    1.553520   -2.587300
    135          1           0      -15.680301    4.268175   -2.970168
    136          1           0      -14.353658    3.248179   -3.370859
    137          1           0      -14.266589    4.251465   -1.895624
    138          1           0      -17.071499    1.206449   -2.408932
    139          1           0      -17.371409    2.979933   -2.337578
    140          1           0      -17.382426    2.031206   -0.821226
 ---------------------------------------------------------------------
 Rotational constants (GHZ):           0.0428992           0.0099522           0.0085482
 Leave Link  202 at Wed May  4 02:19:05 2022, MaxMem= 10066329600 cpu:               0.2 elap:               0.0
 (Enter /sw/apps/gaussian-16.0/g16/l301.exe)
 Standard basis: def2SVP (5D, 7F)
 Ernie: Thresh=  0.10000D-02 Tol=  0.10000D-05 Strict=F.
 There are  1364 symmetry adapted cartesian basis functions of A   symmetry.
 There are  1298 symmetry adapted basis functions of A   symmetry.
  1298 basis functions,  2180 primitive gaussians,  1364 cartesian basis functions
   246 alpha electrons      246 beta electrons
       nuclear repulsion energy      9557.3374850535 Hartrees.
 IExCor= 4639 DFT=T Ex+Corr=wB97XD ExCW=0 ScaHFX=  1.000000
 ScaDFX=  1.000000  1.000000  1.000000  1.000000 ScalE2=  1.000000  1.000000
 IRadAn=      5 IRanWt=     -1 IRanGd=            0 ICorTp=0 IEmpDi=121
 HFx  wShort=  0.000000 wLong=  0.200000 cFull=  0.222036 cShort=  0.000000 cLong=  0.777964
 DFx  wShort=  0.000000 wLong=  0.200000 cFull=  0.000000 cShort=  0.000000 cLong=  1.000000
 NAtoms=  140 NActive=  140 NUniq=  140 SFac= 1.00D+00 NAtFMM=   60 NAOKFM=T Big=T
 Integral buffers will be    131072 words long.
 Raffenetti 1 integral format.
 Two-electron integral symmetry is turned on.
 R6Disp:  Grimme-D2 Dispersion energy=       -0.1342958365 Hartrees.
 Nuclear repulsion after empirical dispersion term =     9557.2031892169 Hartrees.
 Leave Link  301 at Wed May  4 02:19:05 2022, MaxMem= 10066329600 cpu:               1.3 elap:               0.1
 (Enter /sw/apps/gaussian-16.0/g16/l302.exe)
 NPDir=0 NMtPBC=     1 NCelOv=     1 NCel=       1 NClECP=     1 NCelD=      1
         NCelK=      1 NCelE2=     1 NClLst=     1 CellRange=     0.0.
 One-electron integrals computed using PRISM.
 One-electron integral symmetry used in STVInt
   1 Symmetry operations used in ECPInt.
 ECPInt:  NShTT=  192510 NPrTT=  683786 LenC2=   94257 LenP2D=  206877.
 LDataN:  DoStor=T MaxTD1= 4 Len=   56
 NBasis=  1298 RedAO= T EigKep=  2.78D-04  NBF=  1298
 NBsUse=  1298 1.00D-06 EigRej= -1.00D+00 NBFU=  1298
 Precomputing XC quadrature grid using
 IXCGrd= 4 IRadAn=           5 IRanWt=          -1 IRanGd=           0 AccXCQ= 0.00D+00.
 Generated NRdTot=       0 NPtTot=           0 NUsed=           0 NTot=          32
 NSgBfM=  1105  1105  1105  1105  1105 MxSgAt=   140 MxSgA2=   139.
 Leave Link  302 at Wed May  4 02:19:09 2022, MaxMem= 10066329600 cpu:              76.6 elap:               3.2
 (Enter /sw/apps/gaussian-16.0/g16/l303.exe)
 DipDrv:  MaxL=1.
 Leave Link  303 at Wed May  4 02:19:09 2022, MaxMem= 10066329600 cpu:               7.4 elap:               0.3
 (Enter /sw/apps/gaussian-16.0/g16/l308.exe)
 Leave Link  308 at Wed May  4 02:19:09 2022, MaxMem= 10066329600 cpu:               8.5 elap:               0.4
 (Enter /sw/apps/gaussian-16.0/g16/l401.exe)
 ExpMin= 3.36D-02 ExpMax= 4.95D+03 ExpMxC= 7.45D+02 IAcc=3 IRadAn=         5 AccDes= 0.00D+00
 Harris functional with IExCor= 4639 and IRadAn=       5 diagonalized for initial guess.
 HarFok:  IExCor= 4639 AccDes= 0.00D+00 IRadAn=         5 IDoV= 1 UseB2=F ITyADJ=14
 ICtDFT=  3500011 ScaDFX=  1.000000  1.000000  1.000000  1.000000
 FoFCou: FMM=F IPFlag=           0 FMFlag=      100000 FMFlg1=        2001
         NFxFlg=           0 DoJE=T BraDBF=F KetDBF=T FulRan=T
         wScrn=  0.000000 ICntrl=       500 IOpCl=  0 I1Cent=   200000004 NGrid=           0
         NMat0=    1 NMatS0=      1 NMatT0=    0 NMatD0=    1 NMtDS0=    0 NMtDT0=    0
 Petite list used in FoFCou.
 Harris En= -2877.98101219110    
 JPrj=0 DoOrth=F DoCkMO=F.
 Leave Link  401 at Wed May  4 02:19:15 2022, MaxMem= 10066329600 cpu:             138.6 elap:               5.8
 (Enter /sw/apps/gaussian-16.0/g16/l502.exe)
 Integral symmetry usage will be decided dynamically.
 Closed shell SCF:
 Using DIIS extrapolation, IDIIS=  1040.
 NGot= 10066329600 LenX= 10062561258 LenY= 10060699398
 Requested convergence on RMS density matrix=1.00D-08 within 128 cycles.
 Requested convergence on MAX density matrix=1.00D-06.
 Requested convergence on             energy=1.00D-06.
 No special actions if energy rises.
 Fock matrices will be formed incrementally for  20 cycles.

 Cycle   1  Pass 1  IDiag  1:
 FoFJK:  IHMeth= 1 ICntrl=       0 DoSepK=T KAlg= 0 I1Cent=           0 FoldK=F
 IRaf=         1 NMat=       1 IRICut=       1 DoRegI=T DoRafI=F ISym2E= 0 IDoP0=0 IntGTp=1.
 FoFCou: FMM=T IPFlag=           0 FMFlag=      100000 FMFlg1=        2001
         NFxFlg=           0 DoJE=T BraDBF=F KetDBF=F FulRan=T
         wScrn=  0.000000 ICntrl=       500 IOpCl=  0 I1Cent=           0 NGrid=           0
         NMat0=    1 NMatS0=      1 NMatT0=    0 NMatD0=    1 NMtDS0=    0 NMtDT0=    0
 Symmetry not used in FoFCou.
 FMM levels:  10  Number of levels for PrismC:   9
 E= -3007.19510253722    
 DIIS: error= 2.60D-02 at cycle   1 NSaved=   1.
 NSaved= 1 IEnMin= 1 EnMin= -3007.19510253722     IErMin= 1 ErrMin= 2.60D-02
 ErrMax= 2.60D-02  0.00D+00 EMaxC= 1.00D-01 BMatC= 1.46D+00 BMatP= 1.46D+00
 IDIUse=3 WtCom= 7.40D-01 WtEn= 2.60D-01
 Coeff-Com:  0.100D+01
 Coeff-En:   0.100D+01
 Coeff:      0.100D+01
 Gap=     0.151 Goal=   None    Shift=    0.000
 GapD=    0.151 DampG=1.000 DampE=0.500 DampFc=0.5000 IDamp=-1.
 Damping current iteration by 5.00D-01
 RMSDP=1.47D-03 MaxDP=1.62D-01              OVMax= 1.30D-01

 Cycle   2  Pass 1  IDiag  1:
 RMSU=  7.29D-04    CP:  9.88D-01
 E= -3007.50758037318     Delta-E=       -0.312477835965 Rises=F Damp=T
 DIIS: error= 1.35D-02 at cycle   2 NSaved=   2.
 NSaved= 2 IEnMin= 2 EnMin= -3007.50758037318     IErMin= 2 ErrMin= 1.35D-02
 ErrMax= 1.35D-02  0.00D+00 EMaxC= 1.00D-01 BMatC= 2.87D-01 BMatP= 1.46D+00
 IDIUse=3 WtCom= 8.65D-01 WtEn= 1.35D-01
 Coeff-Com: -0.381D+00 0.138D+01
 Coeff-En:   0.000D+00 0.100D+01
 Coeff:     -0.329D+00 0.133D+01
 Gap=     0.165 Goal=   None    Shift=    0.000
 RMSDP=6.70D-04 MaxDP=6.75D-02 DE=-3.12D-01 OVMax= 1.19D-01

 Cycle   3  Pass 1  IDiag  1:
 RMSU=  6.13D-04    CP:  9.81D-01  1.36D+00
 E= -3007.74002006962     Delta-E=       -0.232439696438 Rises=F Damp=F
 DIIS: error= 1.58D-02 at cycle   3 NSaved=   3.
 NSaved= 3 IEnMin= 3 EnMin= -3007.74002006962     IErMin= 2 ErrMin= 1.35D-02
 ErrMax= 1.58D-02  0.00D+00 EMaxC= 1.00D-01 BMatC= 1.24D-01 BMatP= 2.87D-01
 IDIUse=3 WtCom= 8.42D-01 WtEn= 1.58D-01
 Coeff-Com: -0.314D+00 0.688D+00 0.626D+00
 Coeff-En:   0.000D+00 0.000D+00 0.100D+01
 Coeff:     -0.265D+00 0.579D+00 0.685D+00
 Gap=     0.155 Goal=   None    Shift=    0.000
 RMSDP=3.91D-04 MaxDP=4.28D-02 DE=-2.32D-01 OVMax= 7.18D-02

 Cycle   4  Pass 1  IDiag  1:
 RMSU=  2.09D-04    CP:  9.77D-01  1.64D+00  5.82D-01
 E= -3007.82648376954     Delta-E=       -0.086463699923 Rises=F Damp=F
 DIIS: error= 5.75D-03 at cycle   4 NSaved=   4.
 NSaved= 4 IEnMin= 4 EnMin= -3007.82648376954     IErMin= 4 ErrMin= 5.75D-03
 ErrMax= 5.75D-03  0.00D+00 EMaxC= 1.00D-01 BMatC= 2.08D-02 BMatP= 1.24D-01
 IDIUse=3 WtCom= 9.42D-01 WtEn= 5.75D-02
 Coeff-Com: -0.116D+00 0.232D+00 0.380D+00 0.503D+00
 Coeff-En:   0.000D+00 0.000D+00 0.117D+00 0.883D+00
 Coeff:     -0.109D+00 0.219D+00 0.365D+00 0.525D+00
 Gap=     0.156 Goal=   None    Shift=    0.000
 RMSDP=1.29D-04 MaxDP=1.42D-02 DE=-8.65D-02 OVMax= 2.51D-02

 Cycle   5  Pass 1  IDiag  1:
 RMSU=  6.05D-05    CP:  9.77D-01  1.60D+00  7.13D-01  6.36D-01
 E= -3007.84313422659     Delta-E=       -0.016650457048 Rises=F Damp=F
 DIIS: error= 5.88D-04 at cycle   5 NSaved=   5.
 NSaved= 5 IEnMin= 5 EnMin= -3007.84313422659     IErMin= 5 ErrMin= 5.88D-04
 ErrMax= 5.88D-04  0.00D+00 EMaxC= 1.00D-01 BMatC= 3.95D-04 BMatP= 2.08D-02
 IDIUse=3 WtCom= 9.94D-01 WtEn= 5.88D-03
 Coeff-Com: -0.275D-01 0.522D-01 0.119D+00 0.223D+00 0.634D+00
 Coeff-En:   0.000D+00 0.000D+00 0.000D+00 0.000D+00 0.100D+01
 Coeff:     -0.273D-01 0.519D-01 0.118D+00 0.222D+00 0.636D+00
 Gap=     0.155 Goal=   None    Shift=    0.000
 RMSDP=2.46D-05 MaxDP=3.98D-03 DE=-1.67D-02 OVMax= 4.30D-03

 Cycle   6  Pass 1  IDiag  1:
 RMSU=  1.98D-05    CP:  9.77D-01  1.61D+00  7.15D-01  6.93D-01  8.89D-01
 E= -3007.84346510918     Delta-E=       -0.000330882587 Rises=F Damp=F
 DIIS: error= 2.41D-04 at cycle   6 NSaved=   6.
 NSaved= 6 IEnMin= 6 EnMin= -3007.84346510918     IErMin= 6 ErrMin= 2.41D-04
 ErrMax= 2.41D-04  0.00D+00 EMaxC= 1.00D-01 BMatC= 5.68D-05 BMatP= 3.95D-04
 IDIUse=3 WtCom= 9.98D-01 WtEn= 2.41D-03
 Coeff-Com:  0.986D-02-0.211D-01-0.162D-01 0.223D-02 0.285D+00 0.740D+00
 Coeff-En:   0.000D+00 0.000D+00 0.000D+00 0.000D+00 0.000D+00 0.100D+01
 Coeff:      0.984D-02-0.211D-01-0.161D-01 0.222D-02 0.285D+00 0.740D+00
 Gap=     0.156 Goal=   None    Shift=    0.000
 RMSDP=1.14D-05 MaxDP=1.18D-03 DE=-3.31D-04 OVMax= 4.92D-03

 Cycle   7  Pass 1  IDiag  1:
 RMSU=  7.75D-06    CP:  9.77D-01  1.61D+00  7.20D-01  7.04D-01  1.00D+00
                    CP:  9.28D-01
 E= -3007.84353614251     Delta-E=       -0.000071033335 Rises=F Damp=F
 DIIS: error= 5.71D-05 at cycle   7 NSaved=   7.
 NSaved= 7 IEnMin= 7 EnMin= -3007.84353614251     IErMin= 7 ErrMin= 5.71D-05
 ErrMax= 5.71D-05  0.00D+00 EMaxC= 1.00D-01 BMatC= 6.30D-06 BMatP= 5.68D-05
 IDIUse=1 WtCom= 1.00D+00 WtEn= 0.00D+00
 Coeff-Com:  0.641D-02-0.130D-01-0.169D-01-0.217D-01 0.441D-01 0.294D+00
 Coeff-Com:  0.707D+00
 Coeff:      0.641D-02-0.130D-01-0.169D-01-0.217D-01 0.441D-01 0.294D+00
 Coeff:      0.707D+00
 Gap=     0.156 Goal=   None    Shift=    0.000
 RMSDP=4.83D-06 MaxDP=9.07D-04 DE=-7.10D-05 OVMax= 1.59D-03

 Cycle   8  Pass 1  IDiag  1:
 RMSU=  3.36D-06    CP:  9.77D-01  1.61D+00  7.22D-01  7.09D-01  1.02D+00
                    CP:  1.07D+00  1.05D+00
 E= -3007.84354773383     Delta-E=       -0.000011591312 Rises=F Damp=F
 DIIS: error= 5.02D-05 at cycle   8 NSaved=   8.
 NSaved= 8 IEnMin= 8 EnMin= -3007.84354773383     IErMin= 8 ErrMin= 5.02D-05
 ErrMax= 5.02D-05  0.00D+00 EMaxC= 1.00D-01 BMatC= 1.28D-06 BMatP= 6.30D-06
 IDIUse=1 WtCom= 1.00D+00 WtEn= 0.00D+00
 Coeff-Com:  0.116D-02-0.212D-02-0.482D-02-0.111D-01-0.360D-01 0.145D-02
 Coeff-Com:  0.304D+00 0.747D+00
 Coeff:      0.116D-02-0.212D-02-0.482D-02-0.111D-01-0.360D-01 0.145D-02
 Coeff:      0.304D+00 0.747D+00
 Gap=     0.156 Goal=   None    Shift=    0.000
 RMSDP=2.84D-06 MaxDP=1.97D-04 DE=-1.16D-05 OVMax= 2.08D-03

 Cycle   9  Pass 1  IDiag  1:
 RMSU=  1.83D-06    CP:  9.77D-01  1.61D+00  7.23D-01  7.09D-01  1.04D+00
                    CP:  1.11D+00  1.27D+00  1.16D+00
 E= -3007.84355264868     Delta-E=       -0.000004914853 Rises=F Damp=F
 DIIS: error= 2.72D-05 at cycle   9 NSaved=   9.
 NSaved= 9 IEnMin= 9 EnMin= -3007.84355264868     IErMin= 9 ErrMin= 2.72D-05
 ErrMax= 2.72D-05  0.00D+00 EMaxC= 1.00D-01 BMatC= 4.14D-07 BMatP= 1.28D-06
 IDIUse=1 WtCom= 1.00D+00 WtEn= 0.00D+00
 Coeff-Com: -0.948D-03 0.197D-02 0.196D-02 0.866D-03-0.209D-01-0.546D-01
 Coeff-Com: -0.725D-01 0.285D+00 0.859D+00
 Coeff:     -0.948D-03 0.197D-02 0.196D-02 0.866D-03-0.209D-01-0.546D-01
 Coeff:     -0.725D-01 0.285D+00 0.859D+00
 Gap=     0.156 Goal=   None    Shift=    0.000
 RMSDP=2.19D-06 MaxDP=1.53D-04 DE=-4.91D-06 OVMax= 1.31D-03

 Cycle  10  Pass 1  IDiag  1:
 RMSU=  9.26D-07    CP:  9.77D-01  1.61D+00  7.23D-01  7.10D-01  1.04D+00
                    CP:  1.14D+00  1.39D+00  1.55D+00  1.47D+00
 E= -3007.84355520974     Delta-E=       -0.000002561061 Rises=F Damp=F
 DIIS: error= 2.25D-05 at cycle  10 NSaved=  10.
 NSaved=10 IEnMin=10 EnMin= -3007.84355520974     IErMin=10 ErrMin= 2.25D-05
 ErrMax= 2.25D-05  0.00D+00 EMaxC= 1.00D-01 BMatC= 1.35D-07 BMatP= 4.14D-07
 IDIUse=1 WtCom= 1.00D+00 WtEn= 0.00D+00
 Coeff-Com: -0.900D-03 0.175D-02 0.285D-02 0.508D-02 0.521D-02-0.211D-01
 Coeff-Com: -0.177D+00-0.138D+00 0.300D+00 0.102D+01
 Coeff:     -0.900D-03 0.175D-02 0.285D-02 0.508D-02 0.521D-02-0.211D-01
 Coeff:     -0.177D+00-0.138D+00 0.300D+00 0.102D+01
 Gap=     0.156 Goal=   None    Shift=    0.000
 RMSDP=2.18D-06 MaxDP=1.65D-04 DE=-2.56D-06 OVMax= 1.64D-03

 Cycle  11  Pass 1  IDiag  1:
 RMSU=  6.31D-07    CP:  9.77D-01  1.61D+00  7.23D-01  7.09D-01  1.05D+00
                    CP:  1.16D+00  1.52D+00  1.87D+00  2.20D+00  1.60D+00
 E= -3007.84355685773     Delta-E=       -0.000001647993 Rises=F Damp=F
 DIIS: error= 1.23D-05 at cycle  11 NSaved=  11.
 NSaved=11 IEnMin=11 EnMin= -3007.84355685773     IErMin=11 ErrMin= 1.23D-05
 ErrMax= 1.23D-05  0.00D+00 EMaxC= 1.00D-01 BMatC= 7.32D-08 BMatP= 1.35D-07
 IDIUse=1 WtCom= 1.00D+00 WtEn= 0.00D+00
 Coeff-Com: -0.768D-04 0.113D-03 0.566D-03 0.203D-02 0.880D-02 0.116D-01
 Coeff-Com: -0.626D-01-0.132D+00-0.223D+00 0.484D+00 0.910D+00
 Coeff:     -0.768D-04 0.113D-03 0.566D-03 0.203D-02 0.880D-02 0.116D-01
 Coeff:     -0.626D-01-0.132D+00-0.223D+00 0.484D+00 0.910D+00
 Gap=     0.156 Goal=   None    Shift=    0.000
 RMSDP=1.49D-06 MaxDP=1.15D-04 DE=-1.65D-06 OVMax= 1.02D-03

 Cycle  12  Pass 1  IDiag  1:
 RMSU=  3.25D-07    CP:  9.77D-01  1.61D+00  7.23D-01  7.09D-01  1.05D+00
                    CP:  1.17D+00  1.58D+00  2.10D+00  2.65D+00  2.31D+00
                    CP:  1.50D+00
 E= -3007.84355752773     Delta-E=       -0.000000669999 Rises=F Damp=F
 DIIS: error= 6.48D-06 at cycle  12 NSaved=  12.
 NSaved=12 IEnMin=12 EnMin= -3007.84355752773     IErMin=12 ErrMin= 6.48D-06
 ErrMax= 6.48D-06  0.00D+00 EMaxC= 1.00D-01 BMatC= 1.85D-08 BMatP= 7.32D-08
 IDIUse=1 WtCom= 1.00D+00 WtEn= 0.00D+00
 Coeff-Com:  0.418D-03-0.830D-03-0.123D-02-0.167D-02 0.176D-03 0.161D-01
 Coeff-Com:  0.600D-01 0.418D-01-0.259D+00-0.315D+00 0.300D+00 0.116D+01
 Coeff:      0.418D-03-0.830D-03-0.123D-02-0.167D-02 0.176D-03 0.161D-01
 Coeff:      0.600D-01 0.418D-01-0.259D+00-0.315D+00 0.300D+00 0.116D+01
 Gap=     0.156 Goal=   None    Shift=    0.000
 RMSDP=1.25D-06 MaxDP=9.51D-05 DE=-6.70D-07 OVMax= 9.08D-04

 Cycle  13  Pass 1  IDiag  1:
 RMSU=  2.11D-07    CP:  9.77D-01  1.61D+00  7.23D-01  7.09D-01  1.05D+00
                    CP:  1.18D+00  1.63D+00  2.24D+00  3.00D+00  2.93D+00
                    CP:  2.27D+00  1.52D+00
 E= -3007.84355778420     Delta-E=       -0.000000256468 Rises=F Damp=F
 DIIS: error= 2.15D-06 at cycle  13 NSaved=  13.
 NSaved=13 IEnMin=13 EnMin= -3007.84355778420     IErMin=13 ErrMin= 2.15D-06
 ErrMax= 2.15D-06  0.00D+00 EMaxC= 1.00D-01 BMatC= 4.57D-09 BMatP= 1.85D-08
 IDIUse=1 WtCom= 1.00D+00 WtEn= 0.00D+00
 Coeff-Com:  0.204D-03-0.399D-03-0.676D-03-0.115D-02-0.185D-02 0.465D-02
 Coeff-Com:  0.389D-01 0.506D-01-0.633D-01-0.245D+00-0.860D-01 0.521D+00
 Coeff-Com:  0.783D+00
 Coeff:      0.204D-03-0.399D-03-0.676D-03-0.115D-02-0.185D-02 0.465D-02
 Coeff:      0.389D-01 0.506D-01-0.633D-01-0.245D+00-0.860D-01 0.521D+00
 Coeff:      0.783D+00
 Gap=     0.156 Goal=   None    Shift=    0.000
 RMSDP=3.97D-07 MaxDP=3.14D-05 DE=-2.56D-07 OVMax= 2.69D-04

 Cycle  14  Pass 1  IDiag  1:
 RMSU=  2.27D-07    CP:  9.77D-01  1.61D+00  7.23D-01  7.09D-01  1.05D+00
                    CP:  1.18D+00  1.65D+00  2.28D+00  3.00D+00  3.00D+00
                    CP:  2.55D+00  1.87D+00  1.56D+00
 E= -3007.84355781127     Delta-E=       -0.000000027074 Rises=F Damp=F
 DIIS: error= 5.38D-07 at cycle  14 NSaved=  14.
 NSaved=14 IEnMin=14 EnMin= -3007.84355781127     IErMin=14 ErrMin= 5.38D-07
 ErrMax= 5.38D-07  0.00D+00 EMaxC= 1.00D-01 BMatC= 5.71D-10 BMatP= 4.57D-09
 IDIUse=1 WtCom= 1.00D+00 WtEn= 0.00D+00
 Coeff-Com: -0.104D-04 0.235D-04 0.496D-05-0.628D-04-0.663D-03-0.162D-02
 Coeff-Com:  0.990D-03 0.910D-02 0.281D-01-0.252D-01-0.834D-01-0.372D-01
 Coeff-Com:  0.240D+00 0.870D+00
 Coeff:     -0.104D-04 0.235D-04 0.496D-05-0.628D-04-0.663D-03-0.162D-02
 Coeff:      0.990D-03 0.910D-02 0.281D-01-0.252D-01-0.834D-01-0.372D-01
 Coeff:      0.240D+00 0.870D+00
 Gap=     0.156 Goal=   None    Shift=    0.000
 RMSDP=1.26D-07 MaxDP=2.12D-05 DE=-2.71D-08 OVMax= 8.36D-05

 Cycle  15  Pass 1  IDiag  1:
 RMSU=  4.46D-08    CP:  9.77D-01  1.61D+00  7.23D-01  7.09D-01  1.05D+00
                    CP:  1.18D+00  1.65D+00  2.29D+00  3.00D+00  3.00D+00
                    CP:  2.64D+00  1.98D+00  1.86D+00  1.25D+00
 E= -3007.84355781408     Delta-E=       -0.000000002801 Rises=F Damp=F
 DIIS: error= 4.33D-07 at cycle  15 NSaved=  15.
 NSaved=15 IEnMin=15 EnMin= -3007.84355781408     IErMin=15 ErrMin= 4.33D-07
 ErrMax= 4.33D-07  0.00D+00 EMaxC= 1.00D-01 BMatC= 2.04D-10 BMatP= 5.71D-10
 IDIUse=1 WtCom= 1.00D+00 WtEn= 0.00D+00
 Coeff-Com: -0.488D-04 0.969D-04 0.148D-03 0.212D-03 0.570D-04-0.174D-02
 Coeff-Com: -0.782D-02-0.632D-02 0.266D-01 0.385D-01-0.176D-01-0.124D+00
 Coeff-Com: -0.606D-01 0.435D+00 0.717D+00
 Coeff:     -0.488D-04 0.969D-04 0.148D-03 0.212D-03 0.570D-04-0.174D-02
 Coeff:     -0.782D-02-0.632D-02 0.266D-01 0.385D-01-0.176D-01-0.124D+00
 Coeff:     -0.606D-01 0.435D+00 0.717D+00
 Gap=     0.156 Goal=   None    Shift=    0.000
 RMSDP=3.71D-08 MaxDP=4.48D-06 DE=-2.80D-09 OVMax= 2.15D-05

 Cycle  16  Pass 1  IDiag  1:
 RMSU=  2.18D-08    CP:  9.77D-01  1.61D+00  7.23D-01  7.09D-01  1.05D+00
                    CP:  1.18D+00  1.65D+00  2.29D+00  3.00D+00  3.00D+00
                    CP:  2.66D+00  2.02D+00  1.94D+00  1.31D+00  1.06D+00
 E= -3007.84355781463     Delta-E=       -0.000000000549 Rises=F Damp=F
 DIIS: error= 2.32D-07 at cycle  16 NSaved=  16.
 NSaved=16 IEnMin=16 EnMin= -3007.84355781463     IErMin=16 ErrMin= 2.32D-07
 ErrMax= 2.32D-07  0.00D+00 EMaxC= 1.00D-01 BMatC= 2.78D-11 BMatP= 2.04D-10
 IDIUse=1 WtCom= 1.00D+00 WtEn= 0.00D+00
 Coeff-Com: -0.151D-04 0.293D-04 0.509D-04 0.816D-04 0.130D-03-0.315D-03
 Coeff-Com: -0.299D-02-0.364D-02 0.597D-02 0.174D-01 0.680D-02-0.391D-01
 Coeff-Com: -0.685D-01 0.146D-01 0.244D+00 0.825D+00
 Coeff:     -0.151D-04 0.293D-04 0.509D-04 0.816D-04 0.130D-03-0.315D-03
 Coeff:     -0.299D-02-0.364D-02 0.597D-02 0.174D-01 0.680D-02-0.391D-01
 Coeff:     -0.685D-01 0.146D-01 0.244D+00 0.825D+00
 Gap=     0.156 Goal=   None    Shift=    0.000
 RMSDP=1.86D-08 MaxDP=3.84D-06 DE=-5.49D-10 OVMax= 9.39D-06

 Cycle  17  Pass 1  IDiag  1:
 RMSU=  8.92D-09    CP:  9.77D-01  1.61D+00  7.23D-01  7.09D-01  1.05D+00
                    CP:  1.18D+00  1.65D+00  2.29D+00  3.00D+00  3.00D+00
                    CP:  2.67D+00  2.03D+00  1.97D+00  1.33D+00  1.22D+00
                    CP:  1.39D+00
 E= -3007.84355781478     Delta-E=       -0.000000000151 Rises=F Damp=F
 DIIS: error= 1.34D-07 at cycle  17 NSaved=  17.
 NSaved=17 IEnMin=17 EnMin= -3007.84355781478     IErMin=17 ErrMin= 1.34D-07
 ErrMax= 1.34D-07  0.00D+00 EMaxC= 1.00D-01 BMatC= 8.60D-12 BMatP= 2.78D-11
 IDIUse=1 WtCom= 1.00D+00 WtEn= 0.00D+00
 Coeff-Com:  0.680D-05-0.138D-04-0.193D-04-0.260D-04 0.337D-04 0.352D-03
 Coeff-Com:  0.875D-03 0.307D-03-0.494D-02-0.433D-02 0.768D-02 0.201D-01
 Coeff-Com: -0.107D-01-0.996D-01-0.993D-01 0.284D+00 0.905D+00
 Coeff:      0.680D-05-0.138D-04-0.193D-04-0.260D-04 0.337D-04 0.352D-03
 Coeff:      0.875D-03 0.307D-03-0.494D-02-0.433D-02 0.768D-02 0.201D-01
 Coeff:     -0.107D-01-0.996D-01-0.993D-01 0.284D+00 0.905D+00
 Gap=     0.156 Goal=   None    Shift=    0.000
 RMSDP=1.15D-08 MaxDP=7.87D-07 DE=-1.51D-10 OVMax= 7.28D-06

 Cycle  18  Pass 1  IDiag  1:
 RMSU=  5.22D-09    CP:  9.77D-01  1.61D+00  7.23D-01  7.09D-01  1.05D+00
                    CP:  1.18D+00  1.65D+00  2.29D+00  3.00D+00  3.00D+00
                    CP:  2.68D+00  2.03D+00  1.98D+00  1.34D+00  1.30D+00
                    CP:  1.75D+00  1.48D+00
 E= -3007.84355781484     Delta-E=       -0.000000000064 Rises=F Damp=F
 DIIS: error= 8.45D-08 at cycle  18 NSaved=  18.
 NSaved=18 IEnMin=18 EnMin= -3007.84355781484     IErMin=18 ErrMin= 8.45D-08
 ErrMax= 8.45D-08  0.00D+00 EMaxC= 1.00D-01 BMatC= 2.99D-12 BMatP= 8.60D-12
 IDIUse=1 WtCom= 1.00D+00 WtEn= 0.00D+00
 Coeff-Com:  0.708D-05-0.139D-04-0.233D-04-0.354D-04-0.261D-04 0.239D-03
 Coeff-Com:  0.121D-02 0.137D-02-0.353D-02-0.722D-02 0.557D-03 0.200D-01
 Coeff-Com:  0.154D-01-0.417D-01-0.116D+00-0.138D+00 0.360D+00 0.908D+00
 Coeff:      0.708D-05-0.139D-04-0.233D-04-0.354D-04-0.261D-04 0.239D-03
 Coeff:      0.121D-02 0.137D-02-0.353D-02-0.722D-02 0.557D-03 0.200D-01
 Coeff:      0.154D-01-0.417D-01-0.116D+00-0.138D+00 0.360D+00 0.908D+00
 Gap=     0.156 Goal=   None    Shift=    0.000
 RMSDP=8.54D-09 MaxDP=7.83D-07 DE=-6.37D-11 OVMax= 5.46D-06

 SCF Done:  E(RwB97XD) =  -3007.84355781     A.U. after   18 cycles
            NFock= 18  Conv=0.85D-08     -V/T= 2.0108
 KE= 2.975690381684D+03 PE=-2.610724217240D+04 EE= 1.056650504369D+04
 Leave Link  502 at Wed May  4 02:25:58 2022, MaxMem= 10066329600 cpu:            9232.6 elap:             403.0
 (Enter /sw/apps/gaussian-16.0/g16/l801.exe)
 DoSCS=F DFT=T ScalE2(SS,OS)=  1.000000  1.000000
 ExpMin= 3.36D-02 ExpMax= 4.95D+03 ExpMxC= 7.45D+02 IAcc=3 IRadAn=         5 AccDes= 0.00D+00
 HarFok:  IExCor=  205 AccDes= 0.00D+00 IRadAn=         5 IDoV=-2 UseB2=F ITyADJ=14
 ICtDFT= 12500011 ScaDFX=  1.000000  1.000000  1.000000  1.000000
 GSVD:  LWork=       -5460 too small for GESVD, short by       25550 words or       25550 for optimal perf.
 Largest valence mixing into a core orbital is  1.29D-04
 Largest core mixing into a valence orbital is  5.63D-05
 Range of M.O.s used for correlation:    71  1298
 NBasis=  1298 NAE=   246 NBE=   246 NFC=    70 NFV=     0
 NROrb=   1228 NOA=   176 NOB=   176 NVA=  1052 NVB=  1052
 Leave Link  801 at Wed May  4 02:25:59 2022, MaxMem= 10066329600 cpu:               6.6 elap:               0.3
 (Enter /sw/apps/gaussian-16.0/g16/l914.exe)
 RHF ground state
 Two-electron integrals replicated using symmetry.
 MDV= 10066329600 DFT=T DoStab=F Mixed=T DoRPA=T DoScal=F NonHer=T
 Making orbital integer symmetry assigments:
 Orbital symmetries:
       Occupied  (A) (A) (A) (A) (A) (A) (A) (A) (A) (A) (A) (A)
                 (A) (A) (A) (A) (A) (A) (A) (A) (A) (A) (A) (A)
                 (A) (A) (A) (A) (A) (A) (A) (A) (A) (A) (A) (A)
                 (A) (A) (A) (A) (A) (A) (A) (A) (A) (A) (A) (A)
                 (A) (A) (A) (A) (A) (A) (A) (A) (A) (A) (A) (A)
                 (A) (A) (A) (A) (A) (A) (A) (A) (A) (A) (A) (A)
                 (A) (A) (A) (A) (A) (A) (A) (A) (A) (A) (A) (A)
                 (A) (A) (A) (A) (A) (A) (A) (A) (A) (A) (A) (A)
                 (A) (A) (A) (A) (A) (A) (A) (A) (A) (A) (A) (A)
                 (A) (A) (A) (A) (A) (A) (A) (A) (A) (A) (A) (A)
                 (A) (A) (A) (A) (A) (A) (A) (A) (A) (A) (A) (A)
                 (A) (A) (A) (A) (A) (A) (A) (A) (A) (A) (A) (A)
                 (A) (A) (A) (A) (A) (A) (A) (A) (A) (A) (A) (A)
                 (A) (A) (A) (A) (A) (A) (A) (A) (A) (A) (A) (A)
                 (A) (A) (A) (A) (A) (A) (A) (A) (A) (A) (A) (A)
                 (A) (A) (A) (A) (A) (A) (A) (A) (A) (A) (A) (A)
                 (A) (A) (A) (A) (A) (A) (A) (A) (A) (A) (A) (A)
                 (A) (A) (A) (A) (A) (A) (A) (A) (A) (A) (A) (A)
                 (A) (A) (A) (A) (A) (A) (A) (A) (A) (A) (A) (A)
                 (A) (A) (A) (A) (A) (A) (A) (A) (A) (A) (A) (A)
                 (A) (A) (A) (A) (A) (A)
       Virtual   (A) (A) (A) (A) (A) (A) (A) (A) (A) (A) (A) (A)
                 (A) (A) (A) (A) (A) (A) (A) (A) (A) (A) (A) (A)
                 (A) (A) (A) (A) (A) (A) (A) (A) (A) (A) (A) (A)
                 (A) (A) (A) (A) (A) (A) (A) (A) (A) (A) (A) (A)
                 (A) (A) (A) (A) (A) (A) (A) (A) (A) (A) (A) (A)
                 (A) (A) (A) (A) (A) (A) (A) (A) (A) (A) (A) (A)
                 (A) (A) (A) (A) (A) (A) (A) (A) (A) (A) (A) (A)
                 (A) (A) (A) (A) (A) (A) (A) (A) (A) (A) (A) (A)
                 (A) (A) (A) (A) (A) (A) (A) (A) (A) (A) (A) (A)
                 (A) (A) (A) (A) (A) (A) (A) (A) (A) (A) (A) (A)
                 (A) (A) (A) (A) (A) (A) (A) (A) (A) (A) (A) (A)
                 (A) (A) (A) (A) (A) (A) (A) (A) (A) (A) (A) (A)
                 (A) (A) (A) (A) (A) (A) (A) (A) (A) (A) (A) (A)
                 (A) (A) (A) (A) (A) (A) (A) (A) (A) (A) (A) (A)
                 (A) (A) (A) (A) (A) (A) (A) (A) (A) (A) (A) (A)
                 (A) (A) (A) (A) (A) (A) (A) (A) (A) (A) (A) (A)
                 (A) (A) (A) (A) (A) (A) (A) (A) (A) (A) (A) (A)
                 (A) (A) (A) (A) (A) (A) (A) (A) (A) (A) (A) (A)
                 (A) (A) (A) (A) (A) (A) (A) (A) (A) (A) (A) (A)
                 (A) (A) (A) (A) (A) (A) (A) (A) (A) (A) (A) (A)
                 (A) (A) (A) (A) (A) (A) (A) (A) (A) (A) (A) (A)
                 (A) (A) (A) (A) (A) (A) (A) (A) (A) (A) (A) (A)
                 (A) (A) (A) (A) (A) (A) (A) (A) (A) (A) (A) (A)
                 (A) (A) (A) (A) (A) (A) (A) (A) (A) (A) (A) (A)
                 (A) (A) (A) (A) (A) (A) (A) (A) (A) (A) (A) (A)
                 (A) (A) (A) (A) (A) (A) (A) (A) (A) (A) (A) (A)
                 (A) (A) (A) (A) (A) (A) (A) (A) (A) (A) (A) (A)
                 (A) (A) (A) (A) (A) (A) (A) (A) (A) (A) (A) (A)
                 (A) (A) (A) (A) (A) (A) (A) (A) (A) (A) (A) (A)
                 (A) (A) (A) (A) (A) (A) (A) (A) (A) (A) (A) (A)
                 (A) (A) (A) (A) (A) (A) (A) (A) (A) (A) (A) (A)
                 (A) (A) (A) (A) (A) (A) (A) (A) (A) (A) (A) (A)
                 (A) (A) (A) (A) (A) (A) (A) (A) (A) (A) (A) (A)
                 (A) (A) (A) (A) (A) (A) (A) (A) (A) (A) (A) (A)
                 (A) (A) (A) (A) (A) (A) (A) (A) (A) (A) (A) (A)
                 (A) (A) (A) (A) (A) (A) (A) (A) (A) (A) (A) (A)
                 (A) (A) (A) (A) (A) (A) (A) (A) (A) (A) (A) (A)
                 (A) (A) (A) (A) (A) (A) (A) (A) (A) (A) (A) (A)
                 (A) (A) (A) (A) (A) (A) (A) (A) (A) (A) (A) (A)
                 (A) (A) (A) (A) (A) (A) (A) (A) (A) (A) (A) (A)
                 (A) (A) (A) (A) (A) (A) (A) (A) (A) (A) (A) (A)
                 (A) (A) (A) (A) (A) (A) (A) (A) (A) (A) (A) (A)
                 (A) (A) (A) (A) (A) (A) (A) (A) (A) (A) (A) (A)
                 (A) (A) (A) (A) (A) (A) (A) (A) (A) (A) (A) (A)
                 (A) (A) (A) (A) (A) (A) (A) (A) (A) (A) (A) (A)
                 (A) (A) (A) (A) (A) (A) (A) (A) (A) (A) (A) (A)
                 (A) (A) (A) (A) (A) (A) (A) (A) (A) (A) (A) (A)
                 (A) (A) (A) (A) (A) (A) (A) (A) (A) (A) (A) (A)
                 (A) (A) (A) (A) (A) (A) (A) (A) (A) (A) (A) (A)
                 (A) (A) (A) (A) (A) (A) (A) (A) (A) (A) (A) (A)
                 (A) (A) (A) (A) (A) (A) (A) (A) (A) (A) (A) (A)
                 (A) (A) (A) (A) (A) (A) (A) (A) (A) (A) (A) (A)
                 (A) (A) (A) (A) (A) (A) (A) (A) (A) (A) (A) (A)
                 (A) (A) (A) (A) (A) (A) (A) (A) (A) (A) (A) (A)
                 (A) (A) (A) (A) (A) (A) (A) (A) (A) (A) (A) (A)
                 (A) (A) (A) (A) (A) (A) (A) (A) (A) (A) (A) (A)
                 (A) (A) (A) (A) (A) (A) (A) (A) (A) (A) (A) (A)
                 (A) (A) (A) (A) (A) (A) (A) (A) (A) (A) (A) (A)
                 (A) (A) (A) (A) (A) (A) (A) (A) (A) (A) (A) (A)
                 (A) (A) (A) (A) (A) (A) (A) (A) (A) (A) (A) (A)
                 (A) (A) (A) (A) (A) (A) (A) (A) (A) (A) (A) (A)
                 (A) (A) (A) (A) (A) (A) (A) (A) (A) (A) (A) (A)
                 (A) (A) (A) (A) (A) (A) (A) (A) (A) (A) (A) (A)
                 (A) (A) (A) (A) (A) (A) (A) (A) (A) (A) (A) (A)
                 (A) (A) (A) (A) (A) (A) (A) (A) (A) (A) (A) (A)
                 (A) (A) (A) (A) (A) (A) (A) (A) (A) (A) (A) (A)
                 (A) (A) (A) (A) (A) (A) (A) (A) (A) (A) (A) (A)
                 (A) (A) (A) (A) (A) (A) (A) (A) (A) (A) (A) (A)
                 (A) (A) (A) (A) (A) (A) (A) (A) (A) (A) (A) (A)
                 (A) (A) (A) (A) (A) (A) (A) (A) (A) (A) (A) (A)
                 (A) (A) (A) (A) (A) (A) (A) (A) (A) (A) (A) (A)
                 (A) (A) (A) (A) (A) (A) (A) (A) (A) (A) (A) (A)
                 (A) (A) (A) (A) (A) (A) (A) (A) (A) (A) (A) (A)
                 (A) (A) (A) (A) (A) (A) (A) (A) (A) (A) (A) (A)
                 (A) (A) (A) (A) (A) (A) (A) (A) (A) (A) (A) (A)
                 (A) (A) (A) (A) (A) (A) (A) (A) (A) (A) (A) (A)
                 (A) (A) (A) (A) (A) (A) (A) (A) (A) (A) (A) (A)
                 (A) (A) (A) (A) (A) (A) (A) (A) (A) (A) (A) (A)
                 (A) (A) (A) (A) (A) (A) (A) (A) (A) (A) (A) (A)
                 (A) (A) (A) (A) (A) (A) (A) (A) (A) (A) (A) (A)
                 (A) (A) (A) (A) (A) (A) (A) (A) (A) (A) (A) (A)
                 (A) (A) (A) (A) (A) (A) (A) (A) (A) (A) (A) (A)
                 (A) (A) (A) (A) (A) (A) (A) (A) (A) (A) (A) (A)
                 (A) (A) (A) (A) (A) (A) (A) (A) (A) (A) (A) (A)
                 (A) (A) (A) (A) (A) (A) (A) (A) (A) (A) (A) (A)
                 (A) (A) (A) (A) (A) (A) (A) (A) (A) (A) (A) (A)
                 (A) (A) (A) (A) (A) (A) (A) (A) (A) (A) (A) (A)
                 (A) (A) (A) (A) (A) (A) (A) (A)
    20 initial guesses have been made.
 Convergence on wavefunction:    0.001000000000000
 Davidson Disk Diagonalization:  ConvIn= 1.00D-03 SkipCon=T Conv= 1.00D-03.
 Max sub-space:  2000 roots to seek:    20 dimension of matrix:       370304
 Iteration     1 Dimension    20 NMult     0 NNew     20
 CISAX will form    20 AO SS matrices at one time.
 NMat=    20 NSing=    20 JSym2X= 0.
 FoFJK:  IHMeth= 1 ICntrl=       0 DoSepK=T KAlg= 0 I1Cent=           0 FoldK=F
 IRaf=         1 NMat=      40 IRICut=       1 DoRegI=T DoRafI=F ISym2E= 0 IDoP0=3 IntGTp=3.
 FoFCou: FMM=T IPFlag=           0 FMFlag=      100000 FMFlg1=        2001
         NFxFlg=           0 DoJE=F BraDBF=F KetDBF=F FulRan=T
         wScrn=  0.000000 ICntrl=       500 IOpCl=  0 I1Cent=           0 NGrid=           0
         NMat0=   20 NMatS0=     20 NMatT0=    0 NMatD0=   20 NMtDS0=    0 NMtDT0=    0
 Symmetry not used in FoFCou.
 FMM levels:  10  Number of levels for PrismC:   9
 New state      4 was old state      7
 New state      5 was old state      6
 Excitation Energies [eV] at current iteration:
 Root      1 :     2.195115410599203
 Root      2 :     2.555611101319335
 Root      3 :     3.708164504641708
 Root      4 :     3.950958363189565
 Root      5 :     4.064370654153886
 Root      6 :     4.168344031686505
 Root      7 :     4.347900548432365
 Root      8 :     4.502168743925644
 Root      9 :     4.531825066301101
 Root     10 :     4.656145885641961
 Root     11 :     4.694417651518779
 Root     12 :     4.805424041241772
 Root     13 :     5.000153235500282
 Root     14 :     5.049220332442835
 Root     15 :     5.130259261503891
 Root     16 :     5.175463832452602
 Root     17 :     5.272229542030331
 Root     18 :     5.742591165694336
 Root     19 :     5.829318835233908
 Root     20 :     6.734999615860930
 Iteration     2 Dimension    30 NMult    20 NNew     10
 CISAX will form    10 AO SS matrices at one time.
 NMat=    10 NSing=    10 JSym2X= 0.
 Root      1 not converged, maximum delta is    0.077866738150667
 Root      2 not converged, maximum delta is    0.061359317043197
 Root      3 not converged, maximum delta is    0.061030264166270
 Root      4 not converged, maximum delta is    0.046217607690054
 Root      5 not converged, maximum delta is    0.221650844558097
 Excitation Energies [eV] at current iteration:
 Root      1 :     1.676759376967881   Change is   -0.518356033631321
 Root      2 :     2.123511537629573   Change is   -0.432099563689762
 Root      3 :     3.361318801456076   Change is   -0.346845703185632
 Root      4 :     3.534041886723972   Change is   -0.416916476465593
 Root      5 :     3.661277976424849   Change is   -0.403092677729037
 Iteration     3 Dimension    40 NMult    30 NNew     10
 CISAX will form    10 AO SS matrices at one time.
 NMat=    10 NSing=    10 JSym2X= 0.
 Root      1 not converged, maximum delta is    0.032085503282661
 Root      2 not converged, maximum delta is    0.020448167382206
 Root      3 not converged, maximum delta is    0.012023179171826
 Root      4 not converged, maximum delta is    0.138963470738776
 Root      5 not converged, maximum delta is    0.113021549270050
 Excitation Energies [eV] at current iteration:
 Root      1 :     1.630663636891122   Change is   -0.046095740076760
 Root      2 :     2.099489559340417   Change is   -0.024021978289157
 Root      3 :     3.347319741284137   Change is   -0.013999060171939
 Root      4 :     3.507523582187409   Change is   -0.026518304536563
 Root      5 :     3.527278775687339   Change is   -0.133999200737510
 Iteration     4 Dimension    50 NMult    40 NNew     10
 CISAX will form    10 AO SS matrices at one time.
 NMat=    10 NSing=    10 JSym2X= 0.
 Root      1 not converged, maximum delta is    0.007857885836341
 Root      2 not converged, maximum delta is    0.002653660636277
 Root      3 not converged, maximum delta is    0.006249013626296
 Root      4 not converged, maximum delta is    0.070175976203167
 Root      5 not converged, maximum delta is    0.056551292100589
 Excitation Energies [eV] at current iteration:
 Root      1 :     1.625376570491422   Change is   -0.005287066399699
 Root      2 :     2.096847052721187   Change is   -0.002642506619230
 Root      3 :     3.344693691393906   Change is   -0.002626049890231
 Root      4 :     3.497704161208785   Change is   -0.009819420978624
 Root      5 :     3.514184224114183   Change is   -0.013094551573156
 Iteration     5 Dimension    60 NMult    50 NNew     10
 CISAX will form    10 AO SS matrices at one time.
 NMat=    10 NSing=    10 JSym2X= 0.
 Root      1 not converged, maximum delta is    0.001457744633538
 Root      2 has converged.
 Root      3 not converged, maximum delta is    0.001991218565447
 Root      4 not converged, maximum delta is    0.015869161530381
 Root      5 not converged, maximum delta is    0.012209246368219
 Excitation Energies [eV] at current iteration:
 Root      1 :     1.624929257314521   Change is   -0.000447313176902
 Root      2 :     2.096631490624252   Change is   -0.000215562096935
 Root      3 :     3.344375462717199   Change is   -0.000318228676707
 Root      4 :     3.495386965308040   Change is   -0.002317195900744
 Root      5 :     3.512824276207035   Change is   -0.001359947907148
 Iteration     6 Dimension    68 NMult    60 NNew      8
 CISAX will form     8 AO SS matrices at one time.
 NMat=     8 NSing=     8 JSym2X= 0.
 Root      1 has converged.
 Root      2 has converged.
 Root      3 not converged, maximum delta is    0.001192885708934
 Root      4 not converged, maximum delta is    0.040468696478746
 Root      5 not converged, maximum delta is    0.023775019766774
 Excitation Energies [eV] at current iteration:
 Root      1 :     1.624887590516707   Change is   -0.000041666797814
 Root      2 :     2.096630213094378   Change is   -0.000001277529873
 Root      3 :     3.344327468286922   Change is   -0.000047994430277
 Root      4 :     3.493500473343625   Change is   -0.001886491964415
 Root      5 :     3.512366926959822   Change is   -0.000457349247213
 Iteration     7 Dimension    74 NMult    68 NNew      6
 CISAX will form     6 AO SS matrices at one time.
 NMat=     6 NSing=     6 JSym2X= 0.
 Root      1 has converged.
 Root      2 has converged.
 Root      3 not converged, maximum delta is    0.001139027668860
 Root      4 not converged, maximum delta is    0.055492928344298
 Root      5 not converged, maximum delta is    0.026642671987971
 Excitation Energies [eV] at current iteration:
 Root      1 :     1.624887187670799   Change is   -0.000000402845908
 Root      2 :     2.096629574474166   Change is   -0.000000638620212
 Root      3 :     3.344318348388905   Change is   -0.000009119898018
 Root      4 :     3.491764928591004   Change is   -0.001735544752621
 Root      5 :     3.511931447351261   Change is   -0.000435479608561
 Iteration     8 Dimension    80 NMult    74 NNew      6
 CISAX will form     6 AO SS matrices at one time.
 NMat=     6 NSing=     6 JSym2X= 0.
 Root      1 has converged.
 Root      2 has converged.
 Root      3 has converged.
 Root      4 not converged, maximum delta is    0.023300777825016
 Root      5 not converged, maximum delta is    0.015298911788552
 Excitation Energies [eV] at current iteration:
 Root      1 :     1.624887127349868   Change is   -0.000000060320931
 Root      2 :     2.096628571115196   Change is   -0.000001003358970
 Root      3 :     3.344316870661366   Change is   -0.000001477727538
 Root      4 :     3.491103235099305   Change is   -0.000661693491699
 Root      5 :     3.511734112751993   Change is   -0.000197334599268
 Iteration     9 Dimension    84 NMult    80 NNew      4
 CISAX will form     4 AO SS matrices at one time.
 NMat=     4 NSing=     4 JSym2X= 0.
 Root      1 has converged.
 Root      2 has converged.
 Root      3 has converged.
 Root      4 not converged, maximum delta is    0.003319269628685
 Root      5 not converged, maximum delta is    0.003445636522874
 Excitation Energies [eV] at current iteration:
 Root      1 :     1.624887053826907   Change is   -0.000000073522961
 Root      2 :     2.096628019074985   Change is   -0.000000552040211
 Root      3 :     3.344316837947964   Change is   -0.000000032713402
 Root      4 :     3.491008523267317   Change is   -0.000094711831988
 Root      5 :     3.511702629282736   Change is   -0.000031483469257
 Iteration    10 Dimension    88 NMult    84 NNew      4
 CISAX will form     4 AO SS matrices at one time.
 NMat=     4 NSing=     4 JSym2X= 0.
 Root      1 has converged.
 Root      2 has converged.
 Root      3 has converged.
 Root      4 has converged.
 Root      5 has converged.
 Excitation Energies [eV] at current iteration:
 Root      1 :     1.624886990030907   Change is   -0.000000063796001
 Root      2 :     2.096627951908075   Change is   -0.000000067166910
 Root      3 :     3.344316829327465   Change is   -0.000000008620500
 Root      4 :     3.490996604766797   Change is   -0.000011918500520
 Root      5 :     3.511698387813106   Change is   -0.000004241469630
 Convergence achieved on expansion vectors.
 ***********************************************************************
 Excited states from <AA,BB:AA,BB> singles matrix:
 ***********************************************************************
 
 1PDM for each excited state written to RWF  633
 Ground to excited state transition densities written to RWF  633
 Ground to excited state transition electric dipole moments (Au):
       state          X           Y           Z        Dip. S.      Osc.
         1        -1.5363      2.7710     -0.1247     10.0545      0.4003
         2         1.3769      1.1457      0.0627      3.2125      0.1650
         3        -0.2163     -0.0888     -0.0428      0.0565      0.0046
         4         0.5482     -0.0133      0.0020      0.3007      0.0257
         5        -0.2537     -0.0972      0.0638      0.0779      0.0067
 Ground to excited state transition velocity dipole moments (Au):
       state          X           Y           Z        Dip. S.      Osc.
         1         0.0896     -0.1613      0.0083      0.0341      0.3809
         2        -0.1003     -0.0841     -0.0045      0.0171      0.1483
         3         0.0280      0.0105      0.0054      0.0009      0.0050
         4        -0.0647     -0.0003      0.0003      0.0042      0.0217
         5         0.0298      0.0121     -0.0040      0.0010      0.0054
 Ground to excited state transition magnetic dipole moments (Au):
       state          X           Y           Z
         1         0.1234     -0.0273     -1.7273
         2         0.0098      0.1013     -0.1558
         3        -0.0029     -0.1470      1.1191
         4         0.3379     -0.1821     -0.4871
         5         0.0181     -0.5597      0.0610
 Ground to excited state transition velocity quadrupole moments (Au):
       state          XX          YY          ZZ          XY          XZ          YZ
         1         1.7793     -0.5700      0.0200     -1.4154      0.0571      0.1873
         2        -1.8614     -0.1612      0.0065     -0.9610     -0.0849      0.0353
         3         0.8303     -0.5255      0.0038      0.0122      0.0252     -0.0367
         4        -1.1380      0.2944     -0.0244     -0.1938     -0.0790     -0.1008
         5         0.4633      0.0394      0.0361      0.1813      0.0370      0.0514
 <0|del|b> * <b|rxdel|0> + <0|del|b> * <b|delr+rdel|0>
 Rotatory Strengths (R) in cgs (10**-40 erg-esu-cm/Gauss)
       state          XX          YY          ZZ    R(velocity)    E-M Angle
         1       -74.6968    149.4598    -62.4312      4.1106       89.81
         2       -48.6377    -37.5153      5.3996    -26.9178      111.17
         3        12.2184     13.8732     -0.9657      8.3753       82.68
         4        -0.5066    -42.5244    -77.9389    -40.3233      123.18
         5       -22.4342      6.9903    -20.0380    -11.8273      110.80
 1/2[<0|r|b>*<b|rxdel|0> + (<0|rxdel|b>*<b|r|0>)*]
 Rotatory Strengths (R) in cgs (10**-40 erg-esu-cm/Gauss)
       state          XX          YY          ZZ     R(length)
         1       134.0451     53.4185   -152.3389     11.7082
         2        -9.5643    -82.0949      6.9084    -28.2502
         3        -0.4363     -9.2279     33.8340      8.0566
         4      -131.0032     -1.7150      0.6928    -44.0085
         5         3.2520    -38.4631     -2.7539    -12.6550
  1/2[<0|del|b>*<b|r|0> + (<0|r|b>*<b|del|0>)*] (Au)
       state          X           Y           Z        Dip. S.   Osc.(frdel)
         1        -0.1377     -0.4470     -0.0010      0.5857      0.3905
         2        -0.1381     -0.0963     -0.0003      0.2347      0.1564
         3        -0.0061     -0.0009     -0.0002      0.0072      0.0048
         4        -0.0354      0.0000      0.0000      0.0354      0.0236
         5        -0.0075     -0.0012     -0.0003      0.0090      0.0060

 Excitation energies and oscillator strengths:
 
 Excited State   1:      Singlet-A      1.6249 eV  763.03 nm  f=0.4003  <S**2>=0.000
     245 -> 248       -0.16962
     246 -> 247        0.68732
     245 <- 248       -0.11166
 This state for optimization and/or second-order correction.
 Total Energy, E(TD-HF/TD-DFT) =  -3007.78384432    
 Copying the excited state density for this state as the 1-particle RhoCI density.
 
 Excited State   2:      Singlet-A      2.0966 eV  591.35 nm  f=0.1650  <S**2>=0.000
[...]
 Alpha virt. eigenvalues --    1.21875   1.23188   1.23367   1.23483   1.24346
 Alpha virt. eigenvalues --    1.24573   1.24925   1.25167   1.25367   1.26221
 Alpha virt. eigenvalues --    1.26480   1.27109   1.27712   1.27786   1.28155
 Alpha virt. eigenvalues --    1.28388   1.29294   1.29639   1.30546   1.31145
 Alpha virt. eigenvalues --    1.31533   1.32039   1.32256   1.32814   1.34158
 Alpha virt. eigenvalues --    1.34391   1.34665   1.34868   1.35349   1.35765
 Alpha virt. eigenvalues --    1.35897   1.36724   1.37276   1.37849   1.37930
 Alpha virt. eigenvalues --    1.38683   1.39182   1.39415   1.39723   1.39819
 Alpha virt. eigenvalues --    1.40412   1.41213   1.41418   1.42202   1.42555
 Alpha virt. eigenvalues --    1.42754   1.43077   1.43425   1.43717   1.44007
 Alpha virt. eigenvalues --    1.44494   1.44842   1.45000   1.45167   1.45571
 Alpha virt. eigenvalues --    1.45906   1.46649   1.46973   1.47475   1.47991
 Alpha virt. eigenvalues --    1.48158   1.48399   1.48754   1.48837   1.49111
 Alpha virt. eigenvalues --    1.50165   1.50242   1.50820   1.51710   1.52029
 Alpha virt. eigenvalues --    1.52103   1.52773   1.52861   1.53186   1.54026
 Alpha virt. eigenvalues --    1.54300   1.54908   1.55040   1.56418   1.56754
 Alpha virt. eigenvalues --    1.57437   1.57615   1.57994   1.58478   1.58576
 Alpha virt. eigenvalues --    1.59179   1.59320   1.59722   1.60054   1.60168
 Alpha virt. eigenvalues --    1.60266   1.60359   1.61034   1.61391   1.61549
 Alpha virt. eigenvalues --    1.61643   1.61935   1.62117   1.62307   1.62557
 Alpha virt. eigenvalues --    1.62809   1.63327   1.63433   1.63703   1.63864
 Alpha virt. eigenvalues --    1.64030   1.64365   1.64669   1.64868   1.65522
 Alpha virt. eigenvalues --    1.65759   1.66049   1.66516   1.66810   1.66985
 Alpha virt. eigenvalues --    1.67257   1.67600   1.67889   1.68370   1.69486
 Alpha virt. eigenvalues --    1.69886   1.70273   1.70313   1.70898   1.71043
 Alpha virt. eigenvalues --    1.71740   1.71971   1.72076   1.72549   1.72790
 Alpha virt. eigenvalues --    1.73029   1.73395   1.74007   1.74661   1.74951
 Alpha virt. eigenvalues --    1.75461   1.75917   1.76225   1.76990   1.77467
 Alpha virt. eigenvalues --    1.77668   1.77975   1.78264   1.78394   1.78542
 Alpha virt. eigenvalues --    1.79078   1.79366   1.79873   1.80042   1.80276
 Alpha virt. eigenvalues --    1.80372   1.80603   1.80744   1.80983   1.81285
 Alpha virt. eigenvalues --    1.81697   1.81826   1.82137   1.82607   1.82983
 Alpha virt. eigenvalues --    1.83250   1.83288   1.83681   1.83878   1.84223
 Alpha virt. eigenvalues --    1.84370   1.84458   1.84648   1.85311   1.85511
 Alpha virt. eigenvalues --    1.85610   1.85792   1.85864   1.86113   1.86292
 Alpha virt. eigenvalues --    1.86516   1.86793   1.86916   1.87189   1.87434
 Alpha virt. eigenvalues --    1.87592   1.87713   1.87787   1.88189   1.88280
 Alpha virt. eigenvalues --    1.88437   1.88627   1.88937   1.89011   1.89176
 Alpha virt. eigenvalues --    1.89259   1.89444   1.89643   1.89749   1.90227
 Alpha virt. eigenvalues --    1.90514   1.90617   1.90662   1.91138   1.91224
 Alpha virt. eigenvalues --    1.91342   1.91433   1.91613   1.91653   1.91771
 Alpha virt. eigenvalues --    1.92313   1.92702   1.92999   1.93279   1.93373
 Alpha virt. eigenvalues --    1.93666   1.93910   1.94083   1.94281   1.94359
 Alpha virt. eigenvalues --    1.94687   1.94812   1.95175   1.95299   1.95421
 Alpha virt. eigenvalues --    1.95610   1.95930   1.96385   1.96588   1.96837
 Alpha virt. eigenvalues --    1.97043   1.97221   1.97438   1.97588   1.97838
 Alpha virt. eigenvalues --    1.98071   1.98222   1.98777   1.98934   1.99025
 Alpha virt. eigenvalues --    1.99289   1.99743   1.99850   2.00200   2.00417
 Alpha virt. eigenvalues --    2.00594   2.00796   2.01065   2.01307   2.01441
 Alpha virt. eigenvalues --    2.01549   2.01910   2.02319   2.02495   2.02811
 Alpha virt. eigenvalues --    2.03077   2.03335   2.03930   2.03968   2.04350
 Alpha virt. eigenvalues --    2.04429   2.04655   2.04842   2.05140   2.05504
 Alpha virt. eigenvalues --    2.05726   2.05920   2.06602   2.06791   2.06983
 Alpha virt. eigenvalues --    2.07106   2.07294   2.07710   2.07812   2.08014
 Alpha virt. eigenvalues --    2.08257   2.08714   2.09552   2.10066   2.10374
 Alpha virt. eigenvalues --    2.10554   2.11308   2.11471   2.11563   2.11978
 Alpha virt. eigenvalues --    2.12183   2.12673   2.12802   2.12972   2.13448
 Alpha virt. eigenvalues --    2.13587   2.13778   2.13947   2.14273   2.14659
 Alpha virt. eigenvalues --    2.15136   2.15437   2.16035   2.16204   2.16554
 Alpha virt. eigenvalues --    2.16824   2.17124   2.17456   2.17636   2.17914
 Alpha virt. eigenvalues --    2.18033   2.18143   2.18339   2.18698   2.19444
 Alpha virt. eigenvalues --    2.19821   2.19992   2.20221   2.20425   2.20625
 Alpha virt. eigenvalues --    2.21170   2.21276   2.21532   2.22082   2.22412
 Alpha virt. eigenvalues --    2.22836   2.23188   2.23581   2.23991   2.24502
 Alpha virt. eigenvalues --    2.24571   2.25626   2.25971   2.26173   2.26380
 Alpha virt. eigenvalues --    2.27047   2.27469   2.27906   2.27986   2.28391
 Alpha virt. eigenvalues --    2.28543   2.29312   2.29548   2.29725   2.29811
 Alpha virt. eigenvalues --    2.30115   2.31410   2.31718   2.31741   2.32676
 Alpha virt. eigenvalues --    2.32857   2.33510   2.33650   2.33792   2.34549
 Alpha virt. eigenvalues --    2.35096   2.35425   2.35875   2.36239   2.36300
 Alpha virt. eigenvalues --    2.36341   2.37695   2.37819   2.38215   2.38477
 Alpha virt. eigenvalues --    2.39205   2.39613   2.39965   2.40146   2.40214
 Alpha virt. eigenvalues --    2.40976   2.41078   2.41196   2.41544   2.41675
 Alpha virt. eigenvalues --    2.42151   2.42380   2.42536   2.42825   2.43339
 Alpha virt. eigenvalues --    2.43647   2.44176   2.44528   2.44692   2.44935
 Alpha virt. eigenvalues --    2.45790   2.45963   2.46316   2.46484   2.46600
 Alpha virt. eigenvalues --    2.47534   2.48273   2.48319   2.48831   2.49035
 Alpha virt. eigenvalues --    2.49267   2.49373   2.49616   2.50060   2.50514
 Alpha virt. eigenvalues --    2.50821   2.51246   2.51316   2.52328   2.52585
 Alpha virt. eigenvalues --    2.53030   2.53597   2.53928   2.54340   2.55050
 Alpha virt. eigenvalues --    2.55129   2.55532   2.56137   2.56326   2.56510
 Alpha virt. eigenvalues --    2.56690   2.57085   2.57591   2.57758   2.58235
 Alpha virt. eigenvalues --    2.59694   2.60204   2.60643   2.61054   2.61113
 Alpha virt. eigenvalues --    2.61422   2.62108   2.62238   2.62436   2.62723
 Alpha virt. eigenvalues --    2.63177   2.63669   2.63786   2.64802   2.65090
 Alpha virt. eigenvalues --    2.66403   2.66534   2.66711   2.66970   2.67414
 Alpha virt. eigenvalues --    2.67441   2.67848   2.68269   2.68632   2.69359
 Alpha virt. eigenvalues --    2.69665   2.69911   2.70297   2.70457   2.70682
 Alpha virt. eigenvalues --    2.70927   2.71349   2.71446   2.71669   2.72298
 Alpha virt. eigenvalues --    2.73525   2.74738   2.75151   2.75392   2.76027
 Alpha virt. eigenvalues --    2.76168   2.76556   2.76798   2.77378   2.77931
 Alpha virt. eigenvalues --    2.78249   2.78468   2.79043   2.79374   2.79656
 Alpha virt. eigenvalues --    2.80274   2.80576   2.80648   2.81012   2.81237
 Alpha virt. eigenvalues --    2.81583   2.81853   2.82169   2.82891   2.83173
 Alpha virt. eigenvalues --    2.83861   2.84290   2.84554   2.85145   2.85432
 Alpha virt. eigenvalues --    2.85536   2.85810   2.86408   2.86556   2.87890
 Alpha virt. eigenvalues --    2.88232   2.89496   2.89717   2.89970   2.90674
 Alpha virt. eigenvalues --    2.90897   2.91201   2.91988   2.93541   2.93836
 Alpha virt. eigenvalues --    2.94181   2.94549   2.94808   2.95135   2.95489
 Alpha virt. eigenvalues --    2.96037   2.96092   2.96639   2.96845   2.97574
 Alpha virt. eigenvalues --    2.97827   2.98179   2.98560   2.98838   2.99396
 Alpha virt. eigenvalues --    3.00039   3.00140   3.00425   3.00826   3.01052
 Alpha virt. eigenvalues --    3.01185   3.01553   3.01610   3.02228   3.02500
 Alpha virt. eigenvalues --    3.02756   3.03065   3.03298   3.03467   3.03792
 Alpha virt. eigenvalues --    3.04435   3.04564   3.04643   3.05200   3.05525
 Alpha virt. eigenvalues --    3.05993   3.06188   3.06332   3.06805   3.06887
 Alpha virt. eigenvalues --    3.07188   3.07280   3.07543   3.07891   3.07989
 Alpha virt. eigenvalues --    3.09073   3.09216   3.09497   3.09756   3.09901
 Alpha virt. eigenvalues --    3.10077   3.10509   3.10955   3.11082   3.11583
 Alpha virt. eigenvalues --    3.12303   3.12370   3.12508   3.13728   3.13874
 Alpha virt. eigenvalues --    3.14287   3.14433   3.14730   3.15165   3.16191
 Alpha virt. eigenvalues --    3.17402   3.17565   3.17975   3.18193   3.19327
 Alpha virt. eigenvalues --    3.19540   3.19712   3.20614   3.20748   3.21436
 Alpha virt. eigenvalues --    3.22107   3.23730   3.24535   3.25724   3.25916
 Alpha virt. eigenvalues --    3.26436   3.27959   3.28857   3.30086   3.31554
 Alpha virt. eigenvalues --    3.31812   3.34847   3.45664   3.47528   3.50088
 Alpha virt. eigenvalues --    3.50898   3.53676   3.55552   3.56352   3.58230
 Alpha virt. eigenvalues --    3.62197   3.68869   3.69568   3.73184   3.73470
 Alpha virt. eigenvalues --    3.75219   3.78417
          Condensed to atoms (all electrons):
 Mulliken charges:
               1
     1  Mg   0.962014
     2  C    0.007474
     3  C   -0.084107
     4  C   -0.065026
     5  C   -0.075167
     6  N   -0.320645
     7  C   -0.013268
     8  C   -0.111603
     9  C   -0.088629
    10  C    0.089899
    11  C    0.029614
    12  C    0.047811
    13  C    0.017056
    14  C    0.173092
    15  O   -0.289640
    16  O   -0.343143
    17  N   -0.469565
    18  C    0.124758
    19  C   -0.170616
    20  C   -0.038989
    21  C    0.133918
    22  C    0.079094
    23  C    0.018695
    24  O   -0.220377
    25  C   -0.028846
    26  N   -0.398332
    27  C    0.061003
    28  C   -0.104770
    29  C   -0.034560
    30  C    0.063644
    31  C    0.026707
    32  C    0.003811
    33  C   -0.058645
    34  N   -0.409363
    35  C    0.103609
    36  C   -0.158268
    37  C   -0.061719
    38  C    0.139008
    39  C    0.102258
    40  C    0.099204
    41  O   -0.177236
    42  C   -0.131783
    43  C    0.282731
    44  O   -0.225639
    45  O   -0.378772
    46  C    0.143743
    47  C    0.286312
    48  C   -0.147891
    49  C   -0.268893
    50  C    0.054701
    51  C    0.043733
    52  C   -0.033846
    53  C    0.009382
    54  C   -0.166546
    55  C   -0.000407
    56  C    0.054127
    57  C   -0.068545
    58  C   -0.011381
    59  C   -0.199684
    60  C    0.038177
    61  C    0.003490
    62  C   -0.035375
    63  C   -0.006751
    64  C   -0.226739
    65  C   -0.014558
    66  C    0.013786
    67  H    0.003686
    68  H    0.024529
    69  H   -0.003630
    70  H    0.045452
    71  H    0.038630
    72  H    0.038345
    73  H    0.030495
    74  H    0.043931
    75  H    0.038835
    76  H    0.032604
    77  H    0.054329
    78  H    0.062111
    79  H    0.031974
    80  H    0.068090
    81  H    0.048649
    82  H    0.046559
    83  H    0.067527
    84  H    0.044098
    85  H    0.036782
    86  H    0.020031
    87  H    0.053295
    88  H    0.031691
    89  H    0.040334
    90  H    0.030915
    91  H    0.035355
    92  H    0.047899
    93  H    0.034745
    94  H    0.032241
    95  H    0.048140
    96  H    0.030631
    97  H    0.074744
    98  H    0.060021
    99  H    0.039899
   100  H    0.047467
   101  H    0.046797
   102  H    0.057156
   103  H    0.074407
   104  H    0.022421
   105  H    0.058258
   106  H    0.038656
   107  H    0.030495
   108  H    0.013360
   109  H    0.038198
   110  H    0.026972
   111  H    0.025594
   112  H    0.007709
   113  H    0.016571
   114  H    0.014328
   115  H    0.013592
   116  H    0.016495
   117  H    0.034036
   118  H    0.006702
   119  H    0.011495
   120  H    0.024355
   121  H    0.015209
   122  H    0.018726
   123  H    0.019971
   124  H    0.014526
   125  H    0.012368
   126  H    0.041766
   127  H    0.027293
   128  H    0.020573
   129  H    0.004670
   130  H    0.027675
   131  H    0.029304
   132  H    0.028833
   133  H    0.011112
   134  H    0.028090
   135  H    0.022108
   136  H    0.021412
   137  H    0.035385
   138  H    0.031519
   139  H    0.022229
   140  H    0.035704
 Sum of Mulliken charges =  -0.00000
 Mulliken charges with hydrogens summed into heavy atoms:
               1
     1  Mg   0.962014
     2  C    0.007474
     3  C   -0.080421
     4  C   -0.040497
     5  C   -0.078797
     6  N   -0.320645
     7  C   -0.013268
     8  C   -0.066150
     9  C   -0.049999
    10  C    0.089899
    11  C    0.142386
    12  C    0.119249
    13  C    0.133496
    14  C    0.173092
    15  O   -0.289640
    16  O   -0.343143
    17  N   -0.469565
    18  C    0.124758
    19  C   -0.170616
    20  C   -0.038989
    21  C    0.133918
    22  C    0.227807
    23  C    0.018695
    24  O   -0.220377
    25  C    0.129337
    26  N   -0.398332
    27  C    0.061003
    28  C   -0.067988
    29  C   -0.014528
    30  C    0.063644
    31  C    0.152027
    32  C    0.070080
    33  C    0.056240
    34  N   -0.409363
    35  C    0.103609
    36  C   -0.158268
    37  C   -0.061719
    38  C    0.139008
    39  C    0.255773
    40  C    0.099204
    41  O   -0.177236
    42  C   -0.071762
    43  C    0.282731
    44  O   -0.225639
    45  O   -0.378772
    46  C    0.277906
    47  C    0.417874
    48  C   -0.125470
    49  C   -0.268893
    50  C    0.182109
    51  C    0.095291
    52  C    0.018720
    53  C    0.033663
    54  C   -0.152219
    55  C    0.063716
    56  C    0.072324
    57  C   -0.028980
    58  C    0.027316
    59  C   -0.185157
    60  C    0.119603
    61  C    0.028734
    62  C    0.021604
    63  C    0.033194
    64  C   -0.198649
    65  C    0.064347
    66  C    0.103239
 Electronic spatial extent (au):  <R**2>=         122208.7237
 Charge=             -0.0000 electrons
 Dipole moment (field-independent basis, Debye):
    X=             -5.6155    Y=              3.9171    Z=              2.4447  Tot=              7.2700
 Quadrupole moment (field-independent basis, Debye-Ang):
   XX=           -377.6306   YY=           -441.5125   ZZ=           -397.1285
   XY=             33.8386   XZ=             19.5584   YZ=             -5.5401
 Traceless Quadrupole moment (field-independent basis, Debye-Ang):
   XX=             27.7933   YY=            -36.0886   ZZ=              8.2954
   XY=             33.8386   XZ=             19.5584   YZ=             -5.5401
 Octapole moment (field-independent basis, Debye-Ang**2):
  XXX=            433.1221  YYY=             41.8153  ZZZ=            -17.6414  XYY=           -322.6536
  XXY=             70.0474  XXZ=             67.8962  XZZ=             -2.0478  YZZ=            -41.3285
  YYZ=            -13.3331  XYZ=            -46.0767
 Hexadecapole moment (field-independent basis, Debye-Ang**3):
 XXXX=        -131844.8030 YYYY=         -28687.9109 ZZZZ=          -5289.7703 XXXY=           2577.4546
 XXXZ=            525.6876 YYYX=            207.3558 YYYZ=             67.2334 ZZZX=            118.2186
 ZZZY=            126.1741 XXYY=         -28701.8006 XXZZ=         -23657.6037 YYZZ=          -5041.6879
 XXYZ=            189.0643 YYXZ=             83.3818 ZZXY=            119.6430
 N-N= 9.557203189217D+03 E-N=-2.610724216463D+04  KE= 2.975690381684D+03
 Leave Link  601 at Wed May  4 02:46:56 2022, MaxMem= 10066329600 cpu:              12.0 elap:               0.6
 (Enter /sw/apps/gaussian-16.0/g16/l9999.exe)
 1\1\GINC-BP1-COMPUTE121\SP\RwB97XD TD-FC\def2SVP\C55H74Mg1N4O6\OF15641
 \04-May-2022\0\\#p wB97XD/Def2SVP td=(nstates=5)\\step_1251_chromophor
 e_24 TDDFT with wB97XD functional\\0,1\Mg,0,0.511,45.07,24.276\C,0,2.6
 78,44.307,26.956\C,0,-2.043,43.98,26.36\C,0,-1.457,45.159,21.592\C,0,3
 .256,45.569,22.26\N,0,0.279,44.412,26.456\C,0,1.359,44.222,27.343\C,0,
 0.805,44.039,28.728\C,0,-0.7,43.773,28.521\C,0,-0.861,44.095,27.013\C,
 0,-1.159,42.324,28.914\C,0,0.987,45.243,29.678\C,0,1.395,44.837,31.146
 \C,0,1.23,43.426,31.669\O,0,2.164,42.651,31.907\O,0,0.015,43.131,32.08
 4\N,0,-1.519,44.606,24.003\C,0,-2.42,44.087,24.954\C,0,-3.635,43.715,2
 4.261\C,0,-3.578,44.137,22.936\C,0,-2.123,44.652,22.758\C,0,-4.702,42.
 95,25.023\C,0,-4.577,44.052,21.854\O,0,-4.391,44.461,20.726\C,0,-5.909
 ,43.323,22.094\N,0,0.791,45.38,22.274\C,0,-0.175,45.488,21.325\C,0,0.4
 44,45.864,19.989\C,0,1.833,46.383,20.447\C,0,1.98,45.666,21.696\C,0,0.
 374,44.677,18.962\C,0,1.944,47.893,20.589\C,0,0.772,48.855,20.269\N,0,
 2.618,45.143,24.594\C,0,3.638,45.2,23.653\C,0,4.963,45.033,24.203\C,0,
 4.652,44.678,25.604\C,0,3.178,44.708,25.718\C,0,6.335,45.053,23.522\C,
 0,5.243,44.26,26.82\O,0,6.387,44.167,27.159\C,0,3.975,43.912,27.749\C,
 0,3.938,42.408,27.977\O,0,3.509,41.591,27.199\O,0,4.562,42.065,29.183\
 C,0,4.287,40.712,29.735\C,0,-0.229,41.897,32.884\C,0,-1.617,41.95,33.3
 7\C,0,-2.236,41.18,34.296\C,0,-1.674,39.902,34.916\C,0,-3.672,41.579,3
 4.735\C,0,-3.478,42.631,35.885\C,0,-4.166,43.936,35.622\C,0,-5.485,44.
 086,36.399\C,0,-5.563,45.505,36.908\C,0,-6.73,43.671,35.582\C,0,-7.356
 ,42.321,36.075\C,0,-8.869,42.455,36.558\C,0,-9.531,41.024,36.783\C,0,-
 10.383,40.581,35.581\C,0,-10.286,41.011,38.103\C,0,-10.567,39.576,38.5
 91\C,0,-12.155,39.343,38.838\C,0,-12.444,37.844,38.988\C,0,-13.157,37.
 414,37.65\C,0,-13.201,37.494,40.286\H,0,-2.93,43.8,26.971\H,0,-2.033,4
 4.982,20.682\H,0,4.063,45.816,21.566\H,0,1.368,43.216,29.167\H,0,-1.21
 2,44.468,29.185\H,0,-0.243,41.816,29.215\H,0,-1.548,41.813,28.033\H,0,
 -1.964,42.265,29.645\H,0,0.168,45.962,29.651\H,0,1.891,45.727,29.308\H
 ,0,0.898,45.553,31.801\H,0,2.467,45.002,31.258\H,0,-5.208,42.208,24.40
 5\H,0,-5.426,43.66,25.422\H,0,-4.133,42.324,25.71\H,0,-6.555,43.917,22
 .74\H,0,-5.81,42.295,22.444\H,0,-6.489,43.352,21.172\H,0,-0.203,46.643
 ,19.587\H,0,2.543,45.986,19.722\H,0,-0.031,43.791,19.452\H,0,1.327,44.
 413,18.503\H,0,-0.203,44.928,18.072\H,0,2.739,48.26,19.939\H,0,2.211,4
 8.192,21.603\H,0,0.576,49.152,19.239\H,0,0.931,49.73,20.899\H,0,-0.132
 ,48.394,20.668\H,0,6.685,46.085,23.567\H,0,6.096,44.906,22.469\H,0,7.0
 82,44.39,23.958\H,0,4.112,44.423,28.702\H,0,5.186,40.128,29.932\H,0,3.
 598,40.107,29.145\H,0,3.853,40.623,30.731\H,0,0.383,42.077,33.768\H,0,
 -0.005,40.954,32.388\H,0,-2.218,42.837,33.175\H,0,-2.412,39.106,34.812
 \H,0,-1.479,40.079,35.974\H,0,-0.676,39.749,34.506\H,0,-4.084,40.67,35
 .172\H,0,-4.314,42.001,33.961\H,0,-2.422,42.901,35.859\H,0,-3.642,42.1
 89,36.868\H,0,-4.352,44.094,34.56\H,0,-3.476,44.725,35.921\H,0,-5.39,4
 3.398,37.239\H,0,-6.589,45.836,37.064\H,0,-5.232,46.207,36.143\H,0,-5.
 011,45.766,37.811\H,0,-6.467,43.636,34.525\H,0,-7.49,44.452,35.598\H,0
 ,-6.821,41.828,36.887\H,0,-7.343,41.602,35.256\H,0,-9.371,43.011,35.76
 6\H,0,-8.847,43.063,37.463\H,0,-8.688,40.356,36.958\H,0,-10.371,41.369
 ,34.828\H,0,-11.426,40.381,35.827\H,0,-9.79,39.824,35.067\H,0,-11.103,
 41.732,38.134\H,0,-9.54,41.433,38.776\H,0,-10.126,39.486,39.583\H,0,-1
 0.149,38.835,37.909\H,0,-12.728,39.928,38.118\H,0,-12.35,39.783,39.816
 \H,0,-11.578,37.183,39.001\H,0,-14.068,36.826,37.761\H,0,-12.43,36.709
 ,37.247\H,0,-13.336,38.216,36.933\H,0,-12.478,36.841,40.777\H,0,-14.08
 7,36.94,39.976\H,0,-13.485,38.347,40.902\\Version=ES64L-G16RevA.03\Sta
 te=1-A\HF=-3007.8435578\RMSD=8.538e-09\PG=C01 [X(C55H74Mg1N4O6)]\\@


 E PUR SI MUOVE    -- GALILEO GALILEI
 Job cpu time:       0 days 10 hours 55 minutes  3.8 seconds.
 Elapsed time:       0 days  0 hours 27 minutes 50.8 seconds.
 File lengths (MBytes):  RWF=   8929 Int=      0 D2E=      0 Chk=    390 Scr=      1
 Normal termination of Gaussian 16 at Wed May  4 02:46:57 2022.
