 Entering Gaussian System, Link 0=g16
 Initial command:
 /sw/apps/gaussian-16.0/g16/l1.exe "/tmp/Gau-73308.inp" -scrdir="/tmp/"
 Entering Link 1 = /sw/apps/gaussian-16.0/g16/l1.exe PID=     73309.
  
 Copyright (c) 1988,1990,1992,1993,1995,1998,2003,2009,2016,
            Gaussian, Inc.  All Rights Reserved.
  
 This is part of the Gaussian(R) 16 program.  It is based on
 the Gaussian(R) 09 system (copyright 2009, Gaussian, Inc.),
 the Gaussian(R) 03 system (copyright 2003, Gaussian, Inc.),
 the Gaussian(R) 98 system (copyright 1998, Gaussian, Inc.),
 the Gaussian(R) 94 system (copyright 1995, Gaussian, Inc.),
 the Gaussian 92(TM) system (copyright 1992, Gaussian, Inc.),
 the Gaussian 90(TM) system (copyright 1990, Gaussian, Inc.),
 the Gaussian 88(TM) system (copyright 1988, Gaussian, Inc.),
 the Gaussian 86(TM) system (copyright 1986, Carnegie Mellon
 University), and the Gaussian 82(TM) system (copyright 1983,
 Carnegie Mellon University). Gaussian is a federally registered
 trademark of Gaussian, Inc.
  
 This software contains proprietary and confidential information,
 including trade secrets, belonging to Gaussian, Inc.
  
 This software is provided under written license and may be
 used, copied, transmitted, or stored only in accord with that
 written license.
  
 The following legend is applicable only to US Government
 contracts under FAR:
  
                    RESTRICTED RIGHTS LEGEND
  
 Use, reproduction and disclosure by the US Government is
 subject to restrictions as set forth in subparagraphs (a)
 and (c) of the Commercial Computer Software - Restricted
 Rights clause in FAR 52.227-19.
  
 Gaussian, Inc.
 340 Quinnipiac St., Bldg. 40, Wallingford CT 06492
  
  
 ---------------------------------------------------------------
 Warning -- This program may not be used in any manner that
 competes with the business of Gaussian, Inc. or will provide
 assistance to any competitor of Gaussian, Inc.  The licensee
 of this program is prohibited from giving any competitor of
 Gaussian, Inc. access to this program.  By using this program,
 the user acknowledges that Gaussian, Inc. is engaged in the
 business of creating and licensing software in the field of
 computational chemistry and represents and warrants to the
 licensee that it is not a competitor of Gaussian, Inc. and that
 it will not use this program in any manner prohibited above.
 ---------------------------------------------------------------
  

 Cite this work as:
 Gaussian 16, Revision A.03,
 M. J. Frisch, G. W. Trucks, H. B. Schlegel, G. E. Scuseria, 
 M. A. Robb, J. R. Cheeseman, G. Scalmani, V. Barone, 
 G. A. Petersson, H. Nakatsuji, X. Li, M. Caricato, A. V. Marenich, 
 J. Bloino, B. G. Janesko, R. Gomperts, B. Mennucci, H. P. Hratchian, 
 J. V. Ortiz, A. F. Izmaylov, J. L. Sonnenberg, D. Williams-Young, 
 F. Ding, F. Lipparini, F. Egidi, J. Goings, B. Peng, A. Petrone, 
 T. Henderson, D. Ranasinghe, V. G. Zakrzewski, J. Gao, N. Rega, 
 G. Zheng, W. Liang, M. Hada, M. Ehara, K. Toyota, R. Fukuda, 
 J. Hasegawa, M. Ishida, T. Nakajima, Y. Honda, O. Kitao, H. Nakai, 
 T. Vreven, K. Throssell, J. A. Montgomery, Jr., J. E. Peralta, 
 F. Ogliaro, M. J. Bearpark, J. J. Heyd, E. N. Brothers, K. N. Kudin, 
 V. N. Staroverov, T. A. Keith, R. Kobayashi, J. Normand, 
 K. Raghavachari, A. P. Rendell, J. C. Burant, S. S. Iyengar, 
 J. Tomasi, M. Cossi, J. M. Millam, M. Klene, C. Adamo, R. Cammi, 
 J. W. Ochterski, R. L. Martin, K. Morokuma, O. Farkas, 
 J. B. Foresman, and D. J. Fox, Gaussian, Inc., Wallingford CT, 2016.
 
 ******************************************
 Gaussian 16:  ES64L-G16RevA.03 25-Dec-2016
                 3-May-2022 
 ******************************************
 %nproc=24
 Will use up to   24 processors via shared memory.
 %mem=75GB
 -----------------------------------
 #p cam-b3lyp/Def2SVP td=(nstates=5)
 -----------------------------------
 1/38=1,172=1/1;
 2/12=2,17=6,18=5,40=1/2;
 3/5=43,7=101,11=9,25=1,30=1,74=-40/1,2,3,8;
 4//1;
 5/5=2,38=5/2;
 8/6=1,10=1,108=5/1;
 9/41=5,42=1,70=2/14;
 6/7=2,8=2,9=2,10=2/1;
 99/5=1,9=1/99;
 Leave Link    1 at Tue May  3 13:38:03 2022, MaxMem= 10066329600 cpu:               0.8 elap:               0.0
 (Enter /sw/apps/gaussian-16.0/g16/l101.exe)
 --------------------------------------------------------
 step_1001_chromophore_14 TDDFT with cam-b3lyp functional
 --------------------------------------------------------
 Symbolic Z-matrix:
 Charge =  0 Multiplicity = 1
 Mg                    46.387    44.799    43.806 
 C                     43.091    43.694    43.386 
 C                     47.514    41.503    43.278 
 C                     49.662    45.851    43.724 
 C                     45.268    48.019    43.939 
 N                     45.43     42.814    43.231 
 C                     44.102    42.614    43.197 
 C                     43.73     41.089    42.964 
 C                     45.12     40.41     43.237 
 C                     46.092    41.644    43.132 
 C                     45.166    39.809    44.617 
 C                     43.088    40.773    41.564 
 C                     43.641    41.525    40.342 
 C                     43.254    40.979    38.941 
 O                     42.372    40.185    38.727 
 O                     43.993    41.568    37.943 
 N                     48.372    43.816    43.53 
 C                     48.578    42.423    43.44 
 C                     49.984    42.166    43.483 
 C                     50.657    43.434    43.639 
 C                     49.531    44.437    43.665 
 C                     50.612    40.822    43.308 
 C                     52.165    43.538    43.786 
 O                     52.881    42.571    43.766 
 C                     52.849    44.883    43.842 
 N                     47.356    46.747    43.585 
 C                     48.645    46.861    43.898 
 C                     49.011    48.31     44.238 
 C                     47.583    49.04     44.03 
 C                     46.639    47.863    43.808 
 C                     49.636    48.375    45.735 
 C                     47.485    50.131    42.854 
 C                     47.584    51.57     43.283 
 N                     44.638    45.707    43.659 
 C                     44.287    47.023    43.751 
 C                     42.813    47.189    43.672 
 C                     42.324    45.888    43.526 
 C                     43.476    45.027    43.536 
 C                     42.026    48.426    43.672 
 C                     41.149    45.058    43.432 
 O                     39.982    45.4      43.429 
 C                     41.584    43.592    43.333 
 C                     40.986    42.878    44.501 
 O                     40.087    42.029    44.421 
 O                     41.544    43.403    45.677 
 C                     40.839    42.861    46.899 
 C                     43.352    41.395    36.639 
 C                     44.33     41.868    35.587 
 C                     45.212    41.139    34.844 
 C                     45.546    39.635    35.127 
 C                     46.023    41.864    33.852 
 C                     45.489    41.956    32.339 
 C                     44.844    43.326    31.94 
 C                     45.578    43.975    30.662 
 C                     46.321    45.241    31.043 
 C                     44.631    44.236    29.435 
 C                     44.594    43.013    28.46 
 C                     43.671    43.294    27.276 
 C                     44.48     43.831    26.041 
 C                     43.648    44.905    25.308 
 C                     44.856    42.743    25.016 
 C                     46.185    43.041    24.332 
 C                     46.387    42.682    22.829 
 C                     47.376    43.608    22.135 
 C                     46.709    44.78     21.306 
 C                     48.311    42.821    21.189 
 H                     47.748    40.452    43.455 
 H                     50.678    46.246    43.8 
 H                     44.905    49.003    44.244 
 H                     42.987    40.682    43.651 
 H                     45.415    39.621    42.545 
 H                     44.259    39.243    44.825 
 H                     45.442    40.527    45.39 
 H                     45.975    39.078    44.597 
 H                     42.051    41.007    41.803 
 H                     43.234    39.724    41.306 
 H                     44.728    41.555    40.418 
 H                     43.187    42.506    40.481 
 H                     51.167    40.742    42.373 
 H                     49.905    39.994    43.363 
 H                     51.117    40.659    44.26 
 H                     52.329    45.266    44.72 
 H                     52.823    45.471    42.925 
 H                     53.916    44.785    44.046 
 H                     49.668    48.649    43.437 
 H                     47.23     49.485    44.961 
 H                     49.143    49.205    46.24 
 H                     50.689    48.654    45.698 
 H                     49.479    47.427    46.25 
 H                     46.49     50.121    42.409 
 H                     48.189    50.003    42.032 
 H                     47.556    51.704    44.364 
 H                     46.709    52.131    42.955 
 H                     48.466    52.138    42.989 
 H                     41.492    48.581    44.61 
 H                     41.261    48.273    42.91 
 H                     42.487    49.401    43.514 
 H                     41.278    43.138    42.391 
 H                     40.904    41.773    46.901 
 H                     39.78     43.115    46.84 
 H                     41.262    43.25     47.826 
 H                     42.441    41.959    36.44 
 H                     43.194    40.35     36.372 
 H                     44.223    42.938    35.409 
 H                     45.11     39.106    34.279 
 H                     45.025    39.169    35.963 
 H                     46.607    39.384    35.118 
 H                     47.015    41.416    33.789 
 H                     46.102    42.886    34.222 
 H                     44.809    41.137    32.103 
 H                     46.305    41.779    31.639 
 H                     44.859    44.03     32.772 
 H                     43.763    43.243    31.824 
 H                     46.421    43.41     30.263 
 H                     45.637    45.984    31.454 
 H                     46.722    45.625    30.105 
 H                     47.125    45.031    31.749 
 H                     44.835    45.189    28.946 
 H                     43.581    44.246    29.727 
 H                     44.334    42.049    28.896 
 H                     45.648    42.95     28.187 
 H                     42.918    44.019    27.584 
 H                     42.952    42.495    27.095 
 H                     45.445    44.197    26.39 
 H                     44.469    45.512    24.927 
 H                     42.999    45.529    25.922 
 H                     43.006    44.527    24.511 
 H                     44.102    42.604    24.241 
 H                     44.972    41.754    25.46 
 H                     46.831    42.474    25.003 
 H                     46.502    44.066    24.527 
 H                     45.424    42.888    22.363 
 H                     46.674    41.644    22.658 
 H                     47.999    44.089    22.889 
 H                     45.692    44.874    21.686 
 H                     46.718    44.526    20.246 
 H                     47.188    45.719    21.586 
 H                     48.974    42.101    21.669 
 H                     48.996    43.533    20.728 
 H                     47.693    42.217    20.525 
 
 ITRead=  0  0  0  0  0  0  0  0  0  0  0  0  0  0  0  0  0  0  0  0
 ITRead=  0  0  0  0  0  0  0  0  0  0  0  0  0  0  0  0  0  0  0  0
 ITRead=  0  0  0  0  0  0  0  0  0  0  0  0  0  0  0  0  0  0  0  0
 ITRead=  0  0  0  0  0  0  0  0  0  0  0  0  0  0  0  0  0  0  0  0
 ITRead=  0  0  0  0  0  0  0  0  0  0  0  0  0  0  0  0  0  0  0  0
 ITRead=  0  0  0  0  0  0  0  0  0  0  0  0  0  0  0  0  0  0  0  0
 ITRead=  0  0  0  0  0  0  0  0  0  0  0  0  0  0  0  0  0  0  0  0
 MicOpt= -1 -1 -1 -1 -1 -1 -1 -1 -1 -1 -1 -1 -1 -1 -1 -1 -1 -1 -1 -1
 MicOpt= -1 -1 -1 -1 -1 -1 -1 -1 -1 -1 -1 -1 -1 -1 -1 -1 -1 -1 -1 -1
 MicOpt= -1 -1 -1 -1 -1 -1 -1 -1 -1 -1 -1 -1 -1 -1 -1 -1 -1 -1 -1 -1
 MicOpt= -1 -1 -1 -1 -1 -1 -1 -1 -1 -1 -1 -1 -1 -1 -1 -1 -1 -1 -1 -1
 MicOpt= -1 -1 -1 -1 -1 -1 -1 -1 -1 -1 -1 -1 -1 -1 -1 -1 -1 -1 -1 -1
 MicOpt= -1 -1 -1 -1 -1 -1 -1 -1 -1 -1 -1 -1 -1 -1 -1 -1 -1 -1 -1 -1
 MicOpt= -1 -1 -1 -1 -1 -1 -1 -1 -1 -1 -1 -1 -1 -1 -1 -1 -1 -1 -1 -1
 NAtoms=    140 NQM=      140 NQMF=       0 NMMI=      0 NMMIF=      0
                NMic=       0 NMicF=      0.
                    Isotopes and Nuclear Properties:
 (Nuclear quadrupole moments (NQMom) in fm**2, nuclear magnetic moments (NMagM)
  in nuclear magnetons)

  Atom         1           2           3           4           5           6           7           8           9          10
 IAtWgt=          24          12          12          12          12          14          12          12          12          12
 AtmWgt=  23.9850450  12.0000000  12.0000000  12.0000000  12.0000000  14.0030740  12.0000000  12.0000000  12.0000000  12.0000000
 NucSpn=           0           0           0           0           0           2           0           0           0           0
 AtZEff=  -0.0000000  -0.0000000  -0.0000000  -0.0000000  -0.0000000  -0.0000000  -0.0000000  -0.0000000  -0.0000000  -0.0000000
 NQMom=    0.0000000   0.0000000   0.0000000   0.0000000   0.0000000   2.0440000   0.0000000   0.0000000   0.0000000   0.0000000
 NMagM=    0.0000000   0.0000000   0.0000000   0.0000000   0.0000000   0.4037610   0.0000000   0.0000000   0.0000000   0.0000000
 AtZNuc=  12.0000000   6.0000000   6.0000000   6.0000000   6.0000000   7.0000000   6.0000000   6.0000000   6.0000000   6.0000000

  Atom        11          12          13          14          15          16          17          18          19          20
 IAtWgt=          12          12          12          12          16          16          14          12          12          12
 AtmWgt=  12.0000000  12.0000000  12.0000000  12.0000000  15.9949146  15.9949146  14.0030740  12.0000000  12.0000000  12.0000000
 NucSpn=           0           0           0           0           0           0           2           0           0           0
 AtZEff=  -0.0000000  -0.0000000  -0.0000000  -0.0000000  -0.0000000  -0.0000000  -0.0000000  -0.0000000  -0.0000000  -0.0000000
 NQMom=    0.0000000   0.0000000   0.0000000   0.0000000   0.0000000   0.0000000   2.0440000   0.0000000   0.0000000   0.0000000
 NMagM=    0.0000000   0.0000000   0.0000000   0.0000000   0.0000000   0.0000000   0.4037610   0.0000000   0.0000000   0.0000000
 AtZNuc=   6.0000000   6.0000000   6.0000000   6.0000000   8.0000000   8.0000000   7.0000000   6.0000000   6.0000000   6.0000000

  Atom        21          22          23          24          25          26          27          28          29          30
 IAtWgt=          12          12          12          16          12          14          12          12          12          12
 AtmWgt=  12.0000000  12.0000000  12.0000000  15.9949146  12.0000000  14.0030740  12.0000000  12.0000000  12.0000000  12.0000000
 NucSpn=           0           0           0           0           0           2           0           0           0           0
 AtZEff=  -0.0000000  -0.0000000  -0.0000000  -0.0000000  -0.0000000  -0.0000000  -0.0000000  -0.0000000  -0.0000000  -0.0000000
 NQMom=    0.0000000   0.0000000   0.0000000   0.0000000   0.0000000   2.0440000   0.0000000   0.0000000   0.0000000   0.0000000
 NMagM=    0.0000000   0.0000000   0.0000000   0.0000000   0.0000000   0.4037610   0.0000000   0.0000000   0.0000000   0.0000000
 AtZNuc=   6.0000000   6.0000000   6.0000000   8.0000000   6.0000000   7.0000000   6.0000000   6.0000000   6.0000000   6.0000000

  Atom        31          32          33          34          35          36          37          38          39          40
 IAtWgt=          12          12          12          14          12          12          12          12          12          12
 AtmWgt=  12.0000000  12.0000000  12.0000000  14.0030740  12.0000000  12.0000000  12.0000000  12.0000000  12.0000000  12.0000000
 NucSpn=           0           0           0           2           0           0           0           0           0           0
 AtZEff=  -0.0000000  -0.0000000  -0.0000000  -0.0000000  -0.0000000  -0.0000000  -0.0000000  -0.0000000  -0.0000000  -0.0000000
 NQMom=    0.0000000   0.0000000   0.0000000   2.0440000   0.0000000   0.0000000   0.0000000   0.0000000   0.0000000   0.0000000
 NMagM=    0.0000000   0.0000000   0.0000000   0.4037610   0.0000000   0.0000000   0.0000000   0.0000000   0.0000000   0.0000000
 AtZNuc=   6.0000000   6.0000000   6.0000000   7.0000000   6.0000000   6.0000000   6.0000000   6.0000000   6.0000000   6.0000000

  Atom        41          42          43          44          45          46          47          48          49          50
 IAtWgt=          16          12          12          16          16          12          12          12          12          12
 AtmWgt=  15.9949146  12.0000000  12.0000000  15.9949146  15.9949146  12.0000000  12.0000000  12.0000000  12.0000000  12.0000000
 NucSpn=           0           0           0           0           0           0           0           0           0           0
 AtZEff=  -0.0000000  -0.0000000  -0.0000000  -0.0000000  -0.0000000  -0.0000000  -0.0000000  -0.0000000  -0.0000000  -0.0000000
 NQMom=    0.0000000   0.0000000   0.0000000   0.0000000   0.0000000   0.0000000   0.0000000   0.0000000   0.0000000   0.0000000
 NMagM=    0.0000000   0.0000000   0.0000000   0.0000000   0.0000000   0.0000000   0.0000000   0.0000000   0.0000000   0.0000000
 AtZNuc=   8.0000000   6.0000000   6.0000000   8.0000000   8.0000000   6.0000000   6.0000000   6.0000000   6.0000000   6.0000000

  Atom        51          52          53          54          55          56          57          58          59          60
 IAtWgt=          12          12          12          12          12          12          12          12          12          12
 AtmWgt=  12.0000000  12.0000000  12.0000000  12.0000000  12.0000000  12.0000000  12.0000000  12.0000000  12.0000000  12.0000000
 NucSpn=           0           0           0           0           0           0           0           0           0           0
 AtZEff=  -0.0000000  -0.0000000  -0.0000000  -0.0000000  -0.0000000  -0.0000000  -0.0000000  -0.0000000  -0.0000000  -0.0000000
 NQMom=    0.0000000   0.0000000   0.0000000   0.0000000   0.0000000   0.0000000   0.0000000   0.0000000   0.0000000   0.0000000
 NMagM=    0.0000000   0.0000000   0.0000000   0.0000000   0.0000000   0.0000000   0.0000000   0.0000000   0.0000000   0.0000000
 AtZNuc=   6.0000000   6.0000000   6.0000000   6.0000000   6.0000000   6.0000000   6.0000000   6.0000000   6.0000000   6.0000000

  Atom        61          62          63          64          65          66          67          68          69          70
 IAtWgt=          12          12          12          12          12          12           1           1           1           1
 AtmWgt=  12.0000000  12.0000000  12.0000000  12.0000000  12.0000000  12.0000000   1.0078250   1.0078250   1.0078250   1.0078250
 NucSpn=           0           0           0           0           0           0           1           1           1           1
 AtZEff=  -0.0000000  -0.0000000  -0.0000000  -0.0000000  -0.0000000  -0.0000000  -0.0000000  -0.0000000  -0.0000000  -0.0000000
 NQMom=    0.0000000   0.0000000   0.0000000   0.0000000   0.0000000   0.0000000   0.0000000   0.0000000   0.0000000   0.0000000
 NMagM=    0.0000000   0.0000000   0.0000000   0.0000000   0.0000000   0.0000000   2.7928460   2.7928460   2.7928460   2.7928460
 AtZNuc=   6.0000000   6.0000000   6.0000000   6.0000000   6.0000000   6.0000000   1.0000000   1.0000000   1.0000000   1.0000000

  Atom        71          72          73          74          75          76          77          78          79          80
 IAtWgt=           1           1           1           1           1           1           1           1           1           1
 AtmWgt=   1.0078250   1.0078250   1.0078250   1.0078250   1.0078250   1.0078250   1.0078250   1.0078250   1.0078250   1.0078250
 NucSpn=           1           1           1           1           1           1           1           1           1           1
 AtZEff=  -0.0000000  -0.0000000  -0.0000000  -0.0000000  -0.0000000  -0.0000000  -0.0000000  -0.0000000  -0.0000000  -0.0000000
 NQMom=    0.0000000   0.0000000   0.0000000   0.0000000   0.0000000   0.0000000   0.0000000   0.0000000   0.0000000   0.0000000
 NMagM=    2.7928460   2.7928460   2.7928460   2.7928460   2.7928460   2.7928460   2.7928460   2.7928460   2.7928460   2.7928460
 AtZNuc=   1.0000000   1.0000000   1.0000000   1.0000000   1.0000000   1.0000000   1.0000000   1.0000000   1.0000000   1.0000000

  Atom        81          82          83          84          85          86          87          88          89          90
 IAtWgt=           1           1           1           1           1           1           1           1           1           1
 AtmWgt=   1.0078250   1.0078250   1.0078250   1.0078250   1.0078250   1.0078250   1.0078250   1.0078250   1.0078250   1.0078250
 NucSpn=           1           1           1           1           1           1           1           1           1           1
 AtZEff=  -0.0000000  -0.0000000  -0.0000000  -0.0000000  -0.0000000  -0.0000000  -0.0000000  -0.0000000  -0.0000000  -0.0000000
 NQMom=    0.0000000   0.0000000   0.0000000   0.0000000   0.0000000   0.0000000   0.0000000   0.0000000   0.0000000   0.0000000
 NMagM=    2.7928460   2.7928460   2.7928460   2.7928460   2.7928460   2.7928460   2.7928460   2.7928460   2.7928460   2.7928460
 AtZNuc=   1.0000000   1.0000000   1.0000000   1.0000000   1.0000000   1.0000000   1.0000000   1.0000000   1.0000000   1.0000000

  Atom        91          92          93          94          95          96          97          98          99         100
 IAtWgt=           1           1           1           1           1           1           1           1           1           1
 AtmWgt=   1.0078250   1.0078250   1.0078250   1.0078250   1.0078250   1.0078250   1.0078250   1.0078250   1.0078250   1.0078250
 NucSpn=           1           1           1           1           1           1           1           1           1           1
 AtZEff=  -0.0000000  -0.0000000  -0.0000000  -0.0000000  -0.0000000  -0.0000000  -0.0000000  -0.0000000  -0.0000000  -0.0000000
 NQMom=    0.0000000   0.0000000   0.0000000   0.0000000   0.0000000   0.0000000   0.0000000   0.0000000   0.0000000   0.0000000
 NMagM=    2.7928460   2.7928460   2.7928460   2.7928460   2.7928460   2.7928460   2.7928460   2.7928460   2.7928460   2.7928460
 AtZNuc=   1.0000000   1.0000000   1.0000000   1.0000000   1.0000000   1.0000000   1.0000000   1.0000000   1.0000000   1.0000000

  Atom       101         102         103         104         105         106         107         108         109         110
 IAtWgt=           1           1           1           1           1           1           1           1           1           1
 AtmWgt=   1.0078250   1.0078250   1.0078250   1.0078250   1.0078250   1.0078250   1.0078250   1.0078250   1.0078250   1.0078250
 NucSpn=           1           1           1           1           1           1           1           1           1           1
 AtZEff=  -0.0000000  -0.0000000  -0.0000000  -0.0000000  -0.0000000  -0.0000000  -0.0000000  -0.0000000  -0.0000000  -0.0000000
 NQMom=    0.0000000   0.0000000   0.0000000   0.0000000   0.0000000   0.0000000   0.0000000   0.0000000   0.0000000   0.0000000
 NMagM=    2.7928460   2.7928460   2.7928460   2.7928460   2.7928460   2.7928460   2.7928460   2.7928460   2.7928460   2.7928460
 AtZNuc=   1.0000000   1.0000000   1.0000000   1.0000000   1.0000000   1.0000000   1.0000000   1.0000000   1.0000000   1.0000000

  Atom       111         112         113         114         115         116         117         118         119         120
 IAtWgt=           1           1           1           1           1           1           1           1           1           1
 AtmWgt=   1.0078250   1.0078250   1.0078250   1.0078250   1.0078250   1.0078250   1.0078250   1.0078250   1.0078250   1.0078250
 NucSpn=           1           1           1           1           1           1           1           1           1           1
 AtZEff=  -0.0000000  -0.0000000  -0.0000000  -0.0000000  -0.0000000  -0.0000000  -0.0000000  -0.0000000  -0.0000000  -0.0000000
 NQMom=    0.0000000   0.0000000   0.0000000   0.0000000   0.0000000   0.0000000   0.0000000   0.0000000   0.0000000   0.0000000
 NMagM=    2.7928460   2.7928460   2.7928460   2.7928460   2.7928460   2.7928460   2.7928460   2.7928460   2.7928460   2.7928460
 AtZNuc=   1.0000000   1.0000000   1.0000000   1.0000000   1.0000000   1.0000000   1.0000000   1.0000000   1.0000000   1.0000000

  Atom       121         122         123         124         125         126         127         128         129         130
 IAtWgt=           1           1           1           1           1           1           1           1           1           1
 AtmWgt=   1.0078250   1.0078250   1.0078250   1.0078250   1.0078250   1.0078250   1.0078250   1.0078250   1.0078250   1.0078250
 NucSpn=           1           1           1           1           1           1           1           1           1           1
 AtZEff=  -0.0000000  -0.0000000  -0.0000000  -0.0000000  -0.0000000  -0.0000000  -0.0000000  -0.0000000  -0.0000000  -0.0000000
 NQMom=    0.0000000   0.0000000   0.0000000   0.0000000   0.0000000   0.0000000   0.0000000   0.0000000   0.0000000   0.0000000
 NMagM=    2.7928460   2.7928460   2.7928460   2.7928460   2.7928460   2.7928460   2.7928460   2.7928460   2.7928460   2.7928460
 AtZNuc=   1.0000000   1.0000000   1.0000000   1.0000000   1.0000000   1.0000000   1.0000000   1.0000000   1.0000000   1.0000000

  Atom       131         132         133         134         135         136         137         138         139         140
 IAtWgt=           1           1           1           1           1           1           1           1           1           1
 AtmWgt=   1.0078250   1.0078250   1.0078250   1.0078250   1.0078250   1.0078250   1.0078250   1.0078250   1.0078250   1.0078250
 NucSpn=           1           1           1           1           1           1           1           1           1           1
 AtZEff=  -0.0000000  -0.0000000  -0.0000000  -0.0000000  -0.0000000  -0.0000000  -0.0000000  -0.0000000  -0.0000000  -0.0000000
 NQMom=    0.0000000   0.0000000   0.0000000   0.0000000   0.0000000   0.0000000   0.0000000   0.0000000   0.0000000   0.0000000
 NMagM=    2.7928460   2.7928460   2.7928460   2.7928460   2.7928460   2.7928460   2.7928460   2.7928460   2.7928460   2.7928460
 AtZNuc=   1.0000000   1.0000000   1.0000000   1.0000000   1.0000000   1.0000000   1.0000000   1.0000000   1.0000000   1.0000000
 Leave Link  101 at Tue May  3 13:38:03 2022, MaxMem= 10066329600 cpu:               3.3 elap:               0.2
 (Enter /sw/apps/gaussian-16.0/g16/l202.exe)
 Stoichiometry    C55H74MgN4O6
 Framework group  C1[X(C55H74MgN4O6)]
 Deg. of freedom   414
 Full point group                 C1      NOp   1
 Largest Abelian subgroup         C1      NOp   1
 Largest concise Abelian subgroup C1      NOp   1
                         Standard orientation:                         
 ---------------------------------------------------------------------
 Center     Atomic      Atomic             Coordinates (Angstroms)
 Number     Number       Type             X           Y           Z
 ---------------------------------------------------------------------
      1         12           0        5.271240    0.821155    0.144256
      2          6           0        4.718637   -2.618053    0.501354
      3          6           0        4.489661    0.547775   -3.280204
      4          6           0        5.318954    4.242526   -0.217687
      5          6           0        5.653057    1.089105    3.523704
      6          7           0        4.522849   -0.827214   -1.237586
      7          6           0        4.455061   -2.120264   -0.879579
      8          6           0        4.092918   -3.064031   -2.102876
      9          6           0        4.327623   -2.079152   -3.303958
     10          6           0        4.336982   -0.688795   -2.565456
     11          6           0        5.654183   -2.341589   -3.966591
     12          6           0        2.663381   -3.714885   -2.033368
     13          6           0        1.514553   -2.851182   -1.486735
     14          6           0        0.068522   -3.361514   -1.730129
     15          8           0       -0.221471   -4.477944   -2.081758
     16          8           0       -0.867993   -2.403557   -1.423038
     17          7           0        4.941758    2.252361   -1.536750
     18          6           0        4.740564    1.883688   -2.883816
     19          6           0        4.780876    3.063568   -3.690657
     20          6           0        5.049180    4.182474   -2.818216
     21          6           0        5.142489    3.555913   -1.449539
     22          6           0        4.504557    3.104260   -5.158082
     23          6           0        5.224078    5.596298   -3.344525
     24          8           0        5.134296    5.862273   -4.514714
     25          6           0        5.399186    6.760796   -2.399381
     26          7           0        5.223505    2.501598    1.542948
     27          6           0        5.561763    3.711736    1.102908
     28          6           0        6.024225    4.614567    2.251900
     29          6           0        5.857977    3.612551    3.510340
     30          6           0        5.527790    2.285540    2.835234
     31          6           0        7.529622    5.144396    1.953707
     32          6           0        4.774205    4.015582    4.626524
     33          6           0        5.321020    4.666274    5.868360
     34          7           0        5.176144   -0.405378    1.690751
     35          6           0        5.371106   -0.200366    3.026221
     36          6           0        5.286560   -1.477434    3.780158
     37          6           0        5.027942   -2.441874    2.802400
     38          6           0        4.982494   -1.735979    1.550134
     39          6           0        5.377615   -1.698662    5.226638
     40          6           0        4.850721   -3.846088    2.528287
     41          8           0        4.860390   -4.775052    3.313012
     42          6           0        4.637591   -4.034409    1.022534
     43          6           0        5.735128   -4.921502    0.532532
     44          8           0        5.573939   -6.081688    0.128317
     45          8           0        6.957469   -4.253127    0.703183
     46          6           0        8.121512   -5.171203    0.409563
     47          6           0       -2.190124   -3.000243   -1.230261
     48          6           0       -3.186813   -1.868077   -1.121974
     49          6           0       -3.975395   -1.321784   -2.092086
     50          6           0       -3.812292   -1.635022   -3.618172
     51          6           0       -4.893830   -0.243501   -1.690599
     52          6           0       -6.401099   -0.626180   -1.285031
     53          6           0       -6.694889   -0.645978    0.252962
     54          6           0       -7.905583    0.344240    0.636277
     55          6           0       -7.412298    1.516155    1.462867
     56          6           0       -9.119427   -0.360865    1.343293
     57          6           0      -10.191828   -0.843180    0.311279
     58          6           0      -11.360864   -1.520234    1.023810
     59          6           0      -12.536901   -0.508509    1.271647
     60          6           0      -13.190273   -0.803371    2.638816
     61          6           0      -13.642615   -0.556632    0.198882
     62          6           0      -14.282299    0.809281   -0.020183
     63          6           0      -15.806880    0.917335   -0.324599
     64          6           0      -16.409517    2.225820    0.167261
     65          6           0      -17.148347    2.125612    1.563614
     66          6           0      -17.404455    2.806386   -0.863056
     67          1           0        4.582957    0.330371   -4.345435
     68          1           0        5.440473    5.326992   -0.274464
     69          1           0        6.032902    1.139792    4.546542
     70          1           0        4.734378   -3.938272   -2.220770
     71          1           0        3.577208   -2.095957   -4.094529
     72          1           0        5.803098   -3.408130   -4.129636
     73          1           0        6.487024   -1.835048   -3.477694
     74          1           0        5.584977   -1.895540   -4.959312
     75          1           0        2.907073   -4.579452   -1.416615
     76          1           0        2.322183   -3.992256   -3.030831
     77          1           0        1.607080   -1.848822   -1.905015
     78          1           0        1.727526   -2.877386   -0.418206
     79          1           0        3.573543    3.621702   -5.390715
     80          1           0        4.482154    2.121949   -5.630333
     81          1           0        5.446560    3.457208   -5.577554
     82          1           0        6.298703    6.399970   -1.900736
     83          1           0        4.533225    7.015338   -1.788948
     84          1           0        5.608511    7.687528   -2.935162
     85          1           0        5.262450    5.387956    2.350582
     86          1           0        6.817596    3.426968    3.994164
     87          1           0        8.094436    5.005166    2.874888
     88          1           0        7.529508    6.221077    1.784063
     89          1           0        7.963042    4.595745    1.117222
     90          1           0        4.316806    3.122073    5.051468
     91          1           0        3.953829    4.644792    4.281904
     92          1           0        6.408904    4.645752    5.926568
     93          1           0        5.028619    4.107159    6.757079
     94          1           0        5.086236    5.714656    6.049345
     95          1           0        6.318045   -2.166833    5.518927
     96          1           0        4.595617   -2.425168    5.450129
     97          1           0        5.306184   -0.877373    5.939724
     98          1           0        3.657585   -4.454398    0.798227
     99          1           0        8.035150   -5.550090   -0.608749
    100          1           0        8.069583   -6.034347    1.074216
    101          1           0        9.082782   -4.669756    0.528264
    102          1           0       -2.354200   -3.596896   -0.333208
    103          1           0       -2.543970   -3.553506   -2.100302
    104          1           0       -3.277873   -1.526874   -0.090799
    105          1           0       -4.706486   -2.208315   -3.864735
    106          1           0       -3.024258   -2.336818   -3.890161
    107          1           0       -3.827856   -0.765765   -4.276165
    108          1           0       -4.980270    0.485773   -2.496468
    109          1           0       -4.440267    0.223619   -0.816697
    110          1           0       -6.712403   -1.567021   -1.739747
    111          1           0       -7.102438    0.080163   -1.728188
    112          1           0       -5.807840   -0.386345    0.830717
    113          1           0       -6.831544   -1.662390    0.623282
    114          1           0       -8.338420    0.905374   -0.192490
    115          1           0       -6.950811    1.171526    2.388657
    116          1           0       -8.310285    2.079835    1.715818
    117          1           0       -6.715358    2.134639    0.896560
    118          1           0       -9.525906    0.231592    2.163485
    119          1           0       -8.841457   -1.329935    1.757418
    120          1           0       -9.839805   -1.488864   -0.492565
    121          1           0      -10.455156    0.107340   -0.154105
    122          1           0      -11.004407   -1.930532    1.968316
    123          1           0      -11.616231   -2.491159    0.599294
    124          1           0      -12.146375    0.505305    1.190078
    125          1           0      -13.509362    0.208889    2.886124
    126          1           0      -12.535784   -1.173116    3.427806
    127          1           0      -14.023977   -1.506473    2.609804
    128          1           0      -14.436275   -1.266854    0.431585
    129          1           0      -13.279714   -0.869014   -0.780625
    130          1           0      -13.651593    1.141117   -0.845495
    131          1           0      -13.999748    1.503100    0.772231
    132          1           0      -16.267074    0.141029    0.285755
    133          1           0      -16.058618    0.769359   -1.375211
    134          1           0      -15.610470    2.954984    0.300861
    135          1           0      -16.775358    1.216562    2.034818
    136          1           0      -18.225393    2.079482    1.402246
    137          1           0      -16.786006    2.929045    2.206084
    138          1           0      -16.976410    3.100778   -1.821430
    139          1           0      -17.796451    3.740228   -0.459363
    140          1           0      -18.123833    2.028181   -1.117079
 ---------------------------------------------------------------------
 Rotational constants (GHZ):           0.0351771           0.0090208           0.0085200
 Leave Link  202 at Tue May  3 13:38:03 2022, MaxMem= 10066329600 cpu:               0.2 elap:               0.0
 (Enter /sw/apps/gaussian-16.0/g16/l301.exe)
 Standard basis: def2SVP (5D, 7F)
 Ernie: Thresh=  0.10000D-02 Tol=  0.10000D-05 Strict=F.
 There are  1364 symmetry adapted cartesian basis functions of A   symmetry.
 There are  1298 symmetry adapted basis functions of A   symmetry.
  1298 basis functions,  2180 primitive gaussians,  1364 cartesian basis functions
   246 alpha electrons      246 beta electrons
       nuclear repulsion energy      9391.2777588235 Hartrees.
 IExCor=20419 DFT=T Ex+Corr=CAM-B3LYP ExCW=0 ScaHFX=  1.000000
 ScaDFX=  1.000000  1.000000  1.000000  0.810000 ScalE2=  1.000000  1.000000
 IRadAn=      5 IRanWt=     -1 IRanGd=            0 ICorTp=0 IEmpDi=  4
 HFx  wShort=  0.000000 wLong=  0.330000 cFull=  0.190000 cShort=  0.000000 cLong=  0.460000
 DFx  wShort=  0.000000 wLong=  0.330000 cFull=  0.190000 cShort=  0.000000 cLong=  0.460000
 NAtoms=  140 NActive=  140 NUniq=  140 SFac= 1.00D+00 NAtFMM=   60 NAOKFM=T Big=T
 Integral buffers will be    131072 words long.
 Raffenetti 1 integral format.
 Two-electron integral symmetry is turned on.
 Leave Link  301 at Tue May  3 13:38:04 2022, MaxMem= 10066329600 cpu:               1.4 elap:               0.1
 (Enter /sw/apps/gaussian-16.0/g16/l302.exe)
 NPDir=0 NMtPBC=     1 NCelOv=     1 NCel=       1 NClECP=     1 NCelD=      1
         NCelK=      1 NCelE2=     1 NClLst=     1 CellRange=     0.0.
 One-electron integrals computed using PRISM.
 One-electron integral symmetry used in STVInt
   1 Symmetry operations used in ECPInt.
 ECPInt:  NShTT=  192510 NPrTT=  683786 LenC2=   91366 LenP2D=  200395.
 LDataN:  DoStor=T MaxTD1= 4 Len=   56
 NBasis=  1298 RedAO= T EigKep=  2.83D-04  NBF=  1298
 NBsUse=  1298 1.00D-06 EigRej= -1.00D+00 NBFU=  1298
 Precomputing XC quadrature grid using
 IXCGrd= 4 IRadAn=           5 IRanWt=          -1 IRanGd=           0 AccXCQ= 0.00D+00.
 Generated NRdTot=       0 NPtTot=           0 NUsed=           0 NTot=          32
 NSgBfM=   971   971   971   971   971 MxSgAt=   140 MxSgA2=   140.
 Leave Link  302 at Tue May  3 13:38:07 2022, MaxMem= 10066329600 cpu:              78.5 elap:               3.3
 (Enter /sw/apps/gaussian-16.0/g16/l303.exe)
 DipDrv:  MaxL=1.
 Leave Link  303 at Tue May  3 13:38:07 2022, MaxMem= 10066329600 cpu:               5.9 elap:               0.3
 (Enter /sw/apps/gaussian-16.0/g16/l308.exe)
 Leave Link  308 at Tue May  3 13:38:08 2022, MaxMem= 10066329600 cpu:              10.0 elap:               0.5
 (Enter /sw/apps/gaussian-16.0/g16/l401.exe)
 ExpMin= 3.36D-02 ExpMax= 4.95D+03 ExpMxC= 7.45D+02 IAcc=3 IRadAn=         5 AccDes= 0.00D+00
 Harris functional with IExCor=20419 and IRadAn=       5 diagonalized for initial guess.
 HarFok:  IExCor=20419 AccDes= 0.00D+00 IRadAn=         5 IDoV= 1 UseB2=F ITyADJ=14
 ICtDFT=  3500011 ScaDFX=  1.000000  1.000000  1.000000  1.000000
 FoFCou: FMM=F IPFlag=           0 FMFlag=      100000 FMFlg1=        2001
         NFxFlg=           0 DoJE=T BraDBF=F KetDBF=T FulRan=T
         wScrn=  0.000000 ICntrl=       500 IOpCl=  0 I1Cent=   200000004 NGrid=           0
         NMat0=    1 NMatS0=      1 NMatT0=    0 NMatD0=    1 NMtDS0=    0 NMtDT0=    0
 Petite list used in FoFCou.
 Harris En= -2890.89110717458    
 JPrj=0 DoOrth=F DoCkMO=F.
 Leave Link  401 at Tue May  3 13:38:13 2022, MaxMem= 10066329600 cpu:             122.0 elap:               5.1
 (Enter /sw/apps/gaussian-16.0/g16/l502.exe)
 Integral symmetry usage will be decided dynamically.
 Closed shell SCF:
 Using DIIS extrapolation, IDIIS=  1040.
 NGot= 10066329600 LenX= 10062561258 LenY= 10060699398
 Requested convergence on RMS density matrix=1.00D-08 within 128 cycles.
 Requested convergence on MAX density matrix=1.00D-06.
 Requested convergence on             energy=1.00D-06.
 No special actions if energy rises.
 Fock matrices will be formed incrementally for  20 cycles.

 Cycle   1  Pass 1  IDiag  1:
 FoFJK:  IHMeth= 1 ICntrl=       0 DoSepK=T KAlg= 0 I1Cent=           0 FoldK=F
 IRaf=         1 NMat=       1 IRICut=       1 DoRegI=T DoRafI=F ISym2E= 0 IDoP0=0 IntGTp=1.
 FoFCou: FMM=T IPFlag=           0 FMFlag=      100000 FMFlg1=        2001
         NFxFlg=           0 DoJE=T BraDBF=F KetDBF=F FulRan=T
         wScrn=  0.000000 ICntrl=       500 IOpCl=  0 I1Cent=           0 NGrid=           0
         NMat0=    1 NMatS0=      1 NMatT0=    0 NMatD0=    1 NMtDS0=    0 NMtDT0=    0
 Symmetry not used in FoFCou.
 FMM levels:  10  Number of levels for PrismC:   9
 E= -3006.50103647536    
 DIIS: error= 1.96D-02 at cycle   1 NSaved=   1.
 NSaved= 1 IEnMin= 1 EnMin= -3006.50103647536     IErMin= 1 ErrMin= 1.96D-02
 ErrMax= 1.96D-02  0.00D+00 EMaxC= 1.00D-01 BMatC= 1.26D+00 BMatP= 1.26D+00
 IDIUse=3 WtCom= 8.04D-01 WtEn= 1.96D-01
 Coeff-Com:  0.100D+01
 Coeff-En:   0.100D+01
 Coeff:      0.100D+01
 Gap=     0.133 Goal=   None    Shift=    0.000
 GapD=    0.133 DampG=1.000 DampE=0.500 DampFc=0.5000 IDamp=-1.
 Damping current iteration by 5.00D-01
 RMSDP=1.52D-03 MaxDP=1.21D-01              OVMax= 2.06D-01

 Cycle   2  Pass 1  IDiag  1:
 RMSU=  7.52D-04    CP:  9.87D-01
 E= -3006.80659279301     Delta-E=       -0.305556317653 Rises=F Damp=T
 DIIS: error= 1.21D-02 at cycle   2 NSaved=   2.
 NSaved= 2 IEnMin= 2 EnMin= -3006.80659279301     IErMin= 2 ErrMin= 1.21D-02
 ErrMax= 1.21D-02  0.00D+00 EMaxC= 1.00D-01 BMatC= 2.32D-01 BMatP= 1.26D+00
 IDIUse=3 WtCom= 8.79D-01 WtEn= 1.21D-01
 Coeff-Com: -0.219D+00 0.122D+01
 Coeff-En:   0.000D+00 0.100D+01
 Coeff:     -0.193D+00 0.119D+01
 Gap=     0.140 Goal=   None    Shift=    0.000
 RMSDP=7.26D-04 MaxDP=1.31D-01 DE=-3.06D-01 OVMax= 2.09D-01

 Cycle   3  Pass 1  IDiag  1:
 RMSU=  7.14D-04    CP:  9.77D-01  1.12D+00
 E= -3007.02937190344     Delta-E=       -0.222779110421 Rises=F Damp=F
 DIIS: error= 1.56D-02 at cycle   3 NSaved=   3.
 NSaved= 3 IEnMin= 3 EnMin= -3007.02937190344     IErMin= 2 ErrMin= 1.21D-02
 ErrMax= 1.56D-02  0.00D+00 EMaxC= 1.00D-01 BMatC= 1.55D-01 BMatP= 2.32D-01
 IDIUse=3 WtCom= 8.44D-01 WtEn= 1.56D-01
 Coeff-Com: -0.267D+00 0.659D+00 0.608D+00
 Coeff-En:   0.000D+00 0.000D+00 0.100D+01
 Coeff:     -0.225D+00 0.556D+00 0.669D+00
 Gap=     0.131 Goal=   None    Shift=    0.000
 RMSDP=5.27D-04 MaxDP=5.31D-02 DE=-2.23D-01 OVMax= 1.47D-01

 Cycle   4  Pass 1  IDiag  1:
 RMSU=  2.84D-04    CP:  9.76D-01  1.48D+00  5.03D-01
 E= -3007.12730847492     Delta-E=       -0.097936571483 Rises=F Damp=F
 DIIS: error= 7.65D-03 at cycle   4 NSaved=   4.
 NSaved= 4 IEnMin= 4 EnMin= -3007.12730847492     IErMin= 4 ErrMin= 7.65D-03
 ErrMax= 7.65D-03  0.00D+00 EMaxC= 1.00D-01 BMatC= 4.56D-02 BMatP= 1.55D-01
 IDIUse=3 WtCom= 9.23D-01 WtEn= 7.65D-02
 Coeff-Com: -0.113D+00 0.233D+00 0.417D+00 0.463D+00
 Coeff-En:   0.000D+00 0.000D+00 0.252D+00 0.748D+00
 Coeff:     -0.104D+00 0.215D+00 0.404D+00 0.485D+00
 Gap=     0.127 Goal=   None    Shift=    0.000
 RMSDP=2.27D-04 MaxDP=5.02D-02 DE=-9.79D-02 OVMax= 7.00D-02

 Cycle   5  Pass 1  IDiag  1:
 RMSU=  9.01D-05    CP:  9.74D-01  1.41D+00  7.01D-01  5.02D-01
 E= -3007.16716215277     Delta-E=       -0.039853677854 Rises=F Damp=F
 DIIS: error= 1.27D-03 at cycle   5 NSaved=   5.
 NSaved= 5 IEnMin= 5 EnMin= -3007.16716215277     IErMin= 5 ErrMin= 1.27D-03
 ErrMax= 1.27D-03  0.00D+00 EMaxC= 1.00D-01 BMatC= 1.44D-03 BMatP= 4.56D-02
 IDIUse=3 WtCom= 9.87D-01 WtEn= 1.27D-02
 Coeff-Com: -0.457D-01 0.903D-01 0.199D+00 0.272D+00 0.484D+00
 Coeff-En:   0.000D+00 0.000D+00 0.000D+00 0.000D+00 0.100D+01
 Coeff:     -0.451D-01 0.891D-01 0.197D+00 0.269D+00 0.491D+00
 Gap=     0.127 Goal=   None    Shift=    0.000
 RMSDP=5.14D-05 MaxDP=1.17D-02 DE=-3.99D-02 OVMax= 2.06D-02

 Cycle   6  Pass 1  IDiag  1:
 RMSU=  3.13D-05    CP:  9.75D-01  1.41D+00  6.91D-01  5.76D-01  6.25D-01
 E= -3007.16846219455     Delta-E=       -0.001300041780 Rises=F Damp=F
 DIIS: error= 2.90D-04 at cycle   6 NSaved=   6.
 NSaved= 6 IEnMin= 6 EnMin= -3007.16846219455     IErMin= 6 ErrMin= 2.90D-04
 ErrMax= 2.90D-04  0.00D+00 EMaxC= 1.00D-01 BMatC= 1.48D-04 BMatP= 1.44D-03
 IDIUse=3 WtCom= 9.97D-01 WtEn= 2.90D-03
 Coeff-Com:  0.217D-02-0.637D-02 0.970D-02 0.304D-01 0.258D+00 0.706D+00
 Coeff-En:   0.000D+00 0.000D+00 0.000D+00 0.000D+00 0.699D-01 0.930D+00
 Coeff:      0.216D-02-0.635D-02 0.967D-02 0.303D-01 0.257D+00 0.707D+00
 Gap=     0.127 Goal=   None    Shift=    0.000
 RMSDP=1.88D-05 MaxDP=5.48D-03 DE=-1.30D-03 OVMax= 6.27D-03

 Cycle   7  Pass 1  IDiag  1:
 RMSU=  1.08D-05    CP:  9.74D-01  1.41D+00  6.99D-01  5.75D-01  7.60D-01
                    CP:  7.69D-01
 E= -3007.16861648455     Delta-E=       -0.000154289994 Rises=F Damp=F
 DIIS: error= 1.43D-04 at cycle   7 NSaved=   7.
 NSaved= 7 IEnMin= 7 EnMin= -3007.16861648455     IErMin= 7 ErrMin= 1.43D-04
 ErrMax= 1.43D-04  0.00D+00 EMaxC= 1.00D-01 BMatC= 1.90D-05 BMatP= 1.48D-04
 IDIUse=3 WtCom= 9.99D-01 WtEn= 1.43D-03
 Coeff-Com:  0.476D-02-0.104D-01-0.105D-01-0.762D-02 0.917D-01 0.369D+00
 Coeff-Com:  0.563D+00
 Coeff-En:   0.000D+00 0.000D+00 0.000D+00 0.000D+00 0.000D+00 0.000D+00
 Coeff-En:   0.100D+01
 Coeff:      0.476D-02-0.103D-01-0.105D-01-0.761D-02 0.916D-01 0.368D+00
 Coeff:      0.564D+00
 Gap=     0.127 Goal=   None    Shift=    0.000
 RMSDP=5.52D-06 MaxDP=5.53D-04 DE=-1.54D-04 OVMax= 2.26D-03

 Cycle   8  Pass 1  IDiag  1:
 RMSU=  3.94D-06    CP:  9.74D-01  1.41D+00  7.00D-01  5.78D-01  7.58D-01
                    CP:  8.67D-01  8.11D-01
 E= -3007.16863582378     Delta-E=       -0.000019339230 Rises=F Damp=F
 DIIS: error= 3.36D-05 at cycle   8 NSaved=   8.
 NSaved= 8 IEnMin= 8 EnMin= -3007.16863582378     IErMin= 8 ErrMin= 3.36D-05
 ErrMax= 3.36D-05  0.00D+00 EMaxC= 1.00D-01 BMatC= 2.23D-06 BMatP= 1.90D-05
 IDIUse=1 WtCom= 1.00D+00 WtEn= 0.00D+00
 Coeff-Com:  0.208D-02-0.411D-02-0.726D-02-0.108D-01-0.447D-02 0.417D-01
 Coeff-Com:  0.263D+00 0.720D+00
 Coeff:      0.208D-02-0.411D-02-0.726D-02-0.108D-01-0.447D-02 0.417D-01
 Coeff:      0.263D+00 0.720D+00
 Gap=     0.127 Goal=   None    Shift=    0.000
 RMSDP=2.60D-06 MaxDP=4.97D-04 DE=-1.93D-05 OVMax= 8.73D-04

 Cycle   9  Pass 1  IDiag  1:
 RMSU=  1.67D-06    CP:  9.74D-01  1.41D+00  7.00D-01  5.78D-01  7.70D-01
                    CP:  8.89D-01  9.45D-01  9.55D-01
 E= -3007.16863891747     Delta-E=       -0.000003093697 Rises=F Damp=F
 DIIS: error= 8.87D-06 at cycle   9 NSaved=   9.
 NSaved= 9 IEnMin= 9 EnMin= -3007.16863891747     IErMin= 9 ErrMin= 8.87D-06
 ErrMax= 8.87D-06  0.00D+00 EMaxC= 1.00D-01 BMatC= 3.20D-07 BMatP= 2.23D-06
 IDIUse=1 WtCom= 1.00D+00 WtEn= 0.00D+00
 Coeff-Com:  0.426D-03-0.737D-03-0.215D-02-0.451D-02-0.126D-01-0.270D-01
 Coeff-Com:  0.598D-01 0.333D+00 0.654D+00
 Coeff:      0.426D-03-0.737D-03-0.215D-02-0.451D-02-0.126D-01-0.270D-01
 Coeff:      0.598D-01 0.333D+00 0.654D+00
 Gap=     0.127 Goal=   None    Shift=    0.000
 RMSDP=1.13D-06 MaxDP=9.28D-05 DE=-3.09D-06 OVMax= 6.89D-04

 Cycle  10  Pass 1  IDiag  1:
 RMSU=  8.31D-07    CP:  9.74D-01  1.41D+00  7.01D-01  5.78D-01  7.72D-01
                    CP:  8.97D-01  9.70D-01  1.11D+00  9.34D-01
 E= -3007.16863953598     Delta-E=       -0.000000618509 Rises=F Damp=F
 DIIS: error= 6.90D-06 at cycle  10 NSaved=  10.
 NSaved=10 IEnMin=10 EnMin= -3007.16863953598     IErMin=10 ErrMin= 6.90D-06
 ErrMax= 6.90D-06  0.00D+00 EMaxC= 1.00D-01 BMatC= 9.72D-08 BMatP= 3.20D-07
 IDIUse=1 WtCom= 1.00D+00 WtEn= 0.00D+00
 Coeff-Com: -0.290D-03 0.620D-03 0.699D-03 0.198D-03-0.492D-02-0.264D-01
 Coeff-Com: -0.317D-01-0.695D-02 0.360D+00 0.709D+00
 Coeff:     -0.290D-03 0.620D-03 0.699D-03 0.198D-03-0.492D-02-0.264D-01
 Coeff:     -0.317D-01-0.695D-02 0.360D+00 0.709D+00
 Gap=     0.127 Goal=   None    Shift=    0.000
 RMSDP=6.93D-07 MaxDP=8.47D-05 DE=-6.19D-07 OVMax= 3.15D-04

 Cycle  11  Pass 1  IDiag  1:
 RMSU=  4.14D-07    CP:  9.74D-01  1.41D+00  7.01D-01  5.78D-01  7.73D-01
                    CP:  9.02D-01  9.95D-01  1.16D+00  1.17D+00  1.08D+00
 E= -3007.16863977399     Delta-E=       -0.000000238004 Rises=F Damp=F
 DIIS: error= 2.43D-06 at cycle  11 NSaved=  11.
 NSaved=11 IEnMin=11 EnMin= -3007.16863977399     IErMin=11 ErrMin= 2.43D-06
 ErrMax= 2.43D-06  0.00D+00 EMaxC= 1.00D-01 BMatC= 1.73D-08 BMatP= 9.72D-08
 IDIUse=1 WtCom= 1.00D+00 WtEn= 0.00D+00
 Coeff-Com: -0.233D-03 0.462D-03 0.821D-03 0.105D-02 0.871D-03-0.769D-02
 Coeff-Com: -0.283D-01-0.823D-01 0.659D-01 0.313D+00 0.737D+00
 Coeff:     -0.233D-03 0.462D-03 0.821D-03 0.105D-02 0.871D-03-0.769D-02
 Coeff:     -0.283D-01-0.823D-01 0.659D-01 0.313D+00 0.737D+00
 Gap=     0.127 Goal=   None    Shift=    0.000
 RMSDP=4.15D-07 MaxDP=3.68D-05 DE=-2.38D-07 OVMax= 2.84D-04

 Cycle  12  Pass 1  IDiag  1:
 RMSU=  1.99D-07    CP:  9.74D-01  1.41D+00  7.01D-01  5.78D-01  7.74D-01
                    CP:  9.04D-01  1.00D+00  1.20D+00  1.25D+00  1.39D+00
                    CP:  1.19D+00
 E= -3007.16863985006     Delta-E=       -0.000000076074 Rises=F Damp=F
 DIIS: error= 2.09D-06 at cycle  12 NSaved=  12.
 NSaved=12 IEnMin=12 EnMin= -3007.16863985006     IErMin=12 ErrMin= 2.09D-06
 ErrMax= 2.09D-06  0.00D+00 EMaxC= 1.00D-01 BMatC= 7.52D-09 BMatP= 1.73D-08
 IDIUse=1 WtCom= 1.00D+00 WtEn= 0.00D+00
 Coeff-Com: -0.422D-04 0.749D-04 0.225D-03 0.434D-03 0.178D-02 0.240D-02
 Coeff-Com: -0.397D-02-0.368D-01-0.279D-01-0.880D-01 0.350D+00 0.801D+00
 Coeff:     -0.422D-04 0.749D-04 0.225D-03 0.434D-03 0.178D-02 0.240D-02
 Coeff:     -0.397D-02-0.368D-01-0.279D-01-0.880D-01 0.350D+00 0.801D+00
 Gap=     0.128 Goal=   None    Shift=    0.000
 RMSDP=2.77D-07 MaxDP=2.17D-05 DE=-7.61D-08 OVMax= 1.66D-04

 Cycle  13  Pass 1  IDiag  1:
 RMSU=  1.04D-07    CP:  9.74D-01  1.41D+00  7.01D-01  5.78D-01  7.74D-01
                    CP:  9.05D-01  1.00D+00  1.22D+00  1.33D+00  1.53D+00
                    CP:  1.58D+00  1.39D+00
 E= -3007.16863988671     Delta-E=       -0.000000036649 Rises=F Damp=F
 DIIS: error= 1.24D-06 at cycle  13 NSaved=  13.
 NSaved=13 IEnMin=13 EnMin= -3007.16863988671     IErMin=13 ErrMin= 1.24D-06
 ErrMax= 1.24D-06  0.00D+00 EMaxC= 1.00D-01 BMatC= 2.28D-09 BMatP= 7.52D-09
 IDIUse=1 WtCom= 1.00D+00 WtEn= 0.00D+00
 Coeff-Com:  0.903D-04-0.184D-03-0.290D-03-0.302D-03 0.511D-03 0.444D-02
 Coeff-Com:  0.123D-01 0.202D-01-0.201D-01-0.234D+00-0.153D+00 0.314D+00
 Coeff-Com:  0.106D+01
 Coeff:      0.903D-04-0.184D-03-0.290D-03-0.302D-03 0.511D-03 0.444D-02
 Coeff:      0.123D-01 0.202D-01-0.201D-01-0.234D+00-0.153D+00 0.314D+00
 Coeff:      0.106D+01
 Gap=     0.128 Goal=   None    Shift=    0.000
 RMSDP=2.89D-07 MaxDP=2.25D-05 DE=-3.66D-08 OVMax= 2.00D-04

 Cycle  14  Pass 1  IDiag  1:
 RMSU=  5.89D-08    CP:  9.74D-01  1.41D+00  7.01D-01  5.78D-01  7.74D-01
                    CP:  9.06D-01  1.01D+00  1.23D+00  1.38D+00  1.71D+00
                    CP:  1.95D+00  2.09D+00  1.54D+00
 E= -3007.16863990657     Delta-E=       -0.000000019862 Rises=F Damp=F
 DIIS: error= 5.40D-07 at cycle  14 NSaved=  14.
 NSaved=14 IEnMin=14 EnMin= -3007.16863990657     IErMin=14 ErrMin= 5.40D-07
 ErrMax= 5.40D-07  0.00D+00 EMaxC= 1.00D-01 BMatC= 7.41D-10 BMatP= 2.28D-09
 IDIUse=1 WtCom= 1.00D+00 WtEn= 0.00D+00
 Coeff-Com:  0.609D-04-0.120D-03-0.228D-03-0.298D-03-0.297D-03 0.135D-02
 Coeff-Com:  0.760D-02 0.208D-01 0.700D-02-0.101D+00-0.175D+00-0.133D+00
 Coeff-Com:  0.542D+00 0.830D+00
 Coeff:      0.609D-04-0.120D-03-0.228D-03-0.298D-03-0.297D-03 0.135D-02
 Coeff:      0.760D-02 0.208D-01 0.700D-02-0.101D+00-0.175D+00-0.133D+00
 Coeff:      0.542D+00 0.830D+00
 Gap=     0.128 Goal=   None    Shift=    0.000
 RMSDP=1.50D-07 MaxDP=1.55D-05 DE=-1.99D-08 OVMax= 9.36D-05

 Cycle  15  Pass 1  IDiag  1:
 RMSU=  3.03D-08    CP:  9.74D-01  1.41D+00  7.01D-01  5.78D-01  7.73D-01
                    CP:  9.06D-01  1.01D+00  1.24D+00  1.41D+00  1.78D+00
                    CP:  2.16D+00  2.44D+00  2.03D+00  1.22D+00
 E= -3007.16863991079     Delta-E=       -0.000000004218 Rises=F Damp=F
 DIIS: error= 2.65D-07 at cycle  15 NSaved=  15.
 NSaved=15 IEnMin=15 EnMin= -3007.16863991079     IErMin=15 ErrMin= 2.65D-07
 ErrMax= 2.65D-07  0.00D+00 EMaxC= 1.00D-01 BMatC= 8.38D-11 BMatP= 7.41D-10
 IDIUse=1 WtCom= 1.00D+00 WtEn= 0.00D+00
 Coeff-Com:  0.180D-05-0.213D-05-0.188D-04-0.408D-04-0.231D-03-0.587D-03
 Coeff-Com: -0.233D-04 0.234D-02 0.966D-02 0.966D-02-0.226D-01-0.119D+00
 Coeff-Com: -0.151D-01 0.303D+00 0.833D+00
 Coeff:      0.180D-05-0.213D-05-0.188D-04-0.408D-04-0.231D-03-0.587D-03
 Coeff:     -0.233D-04 0.234D-02 0.966D-02 0.966D-02-0.226D-01-0.119D+00
 Coeff:     -0.151D-01 0.303D+00 0.833D+00
 Gap=     0.128 Goal=   None    Shift=    0.000
 RMSDP=4.45D-08 MaxDP=3.39D-06 DE=-4.22D-09 OVMax= 3.20D-05

 Cycle  16  Pass 1  IDiag  1:
 RMSU=  1.28D-08    CP:  9.74D-01  1.41D+00  7.01D-01  5.78D-01  7.73D-01
                    CP:  9.06D-01  1.01D+00  1.24D+00  1.41D+00  1.80D+00
                    CP:  2.21D+00  2.55D+00  2.18D+00  1.44D+00  1.08D+00
 E= -3007.16863991138     Delta-E=       -0.000000000586 Rises=F Damp=F
 DIIS: error= 8.81D-08 at cycle  16 NSaved=  16.
 NSaved=16 IEnMin=16 EnMin= -3007.16863991138     IErMin=16 ErrMin= 8.81D-08
 ErrMax= 8.81D-08  0.00D+00 EMaxC= 1.00D-01 BMatC= 2.68D-11 BMatP= 8.38D-11
 IDIUse=1 WtCom= 1.00D+00 WtEn= 0.00D+00
 Coeff-Com: -0.836D-05 0.172D-04 0.255D-04 0.246D-04-0.738D-04-0.515D-03
 Coeff-Com: -0.118D-02-0.225D-02 0.406D-02 0.209D-01 0.169D-01-0.426D-01
 Coeff-Com: -0.100D+00 0.248D-02 0.420D+00 0.682D+00
 Coeff:     -0.836D-05 0.172D-04 0.255D-04 0.246D-04-0.738D-04-0.515D-03
 Coeff:     -0.118D-02-0.225D-02 0.406D-02 0.209D-01 0.169D-01-0.426D-01
 Coeff:     -0.100D+00 0.248D-02 0.420D+00 0.682D+00
 Gap=     0.128 Goal=   None    Shift=    0.000
 RMSDP=1.83D-08 MaxDP=2.41D-06 DE=-5.86D-10 OVMax= 1.02D-05

 Cycle  17  Pass 1  IDiag  1:
 RMSU=  5.74D-09    CP:  9.74D-01  1.41D+00  7.01D-01  5.78D-01  7.73D-01
                    CP:  9.06D-01  1.01D+00  1.24D+00  1.41D+00  1.81D+00
                    CP:  2.23D+00  2.59D+00  2.25D+00  1.53D+00  1.24D+00
                    CP:  1.04D+00
 E= -3007.16863991156     Delta-E=       -0.000000000186 Rises=F Damp=F
 DIIS: error= 4.46D-08 at cycle  17 NSaved=  17.
 NSaved=17 IEnMin=17 EnMin= -3007.16863991156     IErMin=17 ErrMin= 4.46D-08
 ErrMax= 4.46D-08  0.00D+00 EMaxC= 1.00D-01 BMatC= 3.27D-12 BMatP= 2.68D-11
 IDIUse=1 WtCom= 1.00D+00 WtEn= 0.00D+00
 Coeff-Com: -0.373D-05 0.737D-05 0.140D-04 0.169D-04 0.105D-04-0.116D-03
 Coeff-Com: -0.463D-03-0.141D-02 0.241D-03 0.711D-02 0.116D-01 0.226D-02
 Coeff-Com: -0.383D-01-0.523D-01 0.412D-01 0.284D+00 0.747D+00
 Coeff:     -0.373D-05 0.737D-05 0.140D-04 0.169D-04 0.105D-04-0.116D-03
 Coeff:     -0.463D-03-0.141D-02 0.241D-03 0.711D-02 0.116D-01 0.226D-02
 Coeff:     -0.383D-01-0.523D-01 0.412D-01 0.284D+00 0.747D+00
 Gap=     0.128 Goal=   None    Shift=    0.000
 RMSDP=5.13D-09 MaxDP=4.21D-07 DE=-1.86D-10 OVMax= 3.35D-06

 SCF Done:  E(RCAM-B3LYP) =  -3007.16863991     A.U. after   17 cycles
            NFock= 17  Conv=0.51D-08     -V/T= 2.0109
 KE= 2.974851991864D+03 PE=-2.577325269164D+04 EE= 1.039995430104D+04
 Leave Link  502 at Tue May  3 13:43:59 2022, MaxMem= 10066329600 cpu:            7934.0 elap:             346.7
 (Enter /sw/apps/gaussian-16.0/g16/l801.exe)
 DoSCS=F DFT=T ScalE2(SS,OS)=  1.000000  1.000000
 ExpMin= 3.36D-02 ExpMax= 4.95D+03 ExpMxC= 7.45D+02 IAcc=3 IRadAn=         5 AccDes= 0.00D+00
 HarFok:  IExCor=  205 AccDes= 0.00D+00 IRadAn=         5 IDoV=-2 UseB2=F ITyADJ=14
 ICtDFT= 12500011 ScaDFX=  1.000000  1.000000  1.000000  1.000000
 GSVD:  LWork=       -5460 too small for GESVD, short by       25550 words or       25550 for optimal perf.
 Largest valence mixing into a core orbital is  1.67D-04
 Largest core mixing into a valence orbital is  4.98D-05
 Range of M.O.s used for correlation:    71  1298
 NBasis=  1298 NAE=   246 NBE=   246 NFC=    70 NFV=     0
 NROrb=   1228 NOA=   176 NOB=   176 NVA=  1052 NVB=  1052
 Leave Link  801 at Tue May  3 13:44:00 2022, MaxMem= 10066329600 cpu:               6.0 elap:               0.3
 (Enter /sw/apps/gaussian-16.0/g16/l914.exe)
 RHF ground state
 Two-electron integrals replicated using symmetry.
 MDV= 10066329600 DFT=T DoStab=F Mixed=T DoRPA=T DoScal=F NonHer=T
 Making orbital integer symmetry assigments:
 Orbital symmetries:
       Occupied  (A) (A) (A) (A) (A) (A) (A) (A) (A) (A) (A) (A)
                 (A) (A) (A) (A) (A) (A) (A) (A) (A) (A) (A) (A)
                 (A) (A) (A) (A) (A) (A) (A) (A) (A) (A) (A) (A)
                 (A) (A) (A) (A) (A) (A) (A) (A) (A) (A) (A) (A)
                 (A) (A) (A) (A) (A) (A) (A) (A) (A) (A) (A) (A)
                 (A) (A) (A) (A) (A) (A) (A) (A) (A) (A) (A) (A)
                 (A) (A) (A) (A) (A) (A) (A) (A) (A) (A) (A) (A)
                 (A) (A) (A) (A) (A) (A) (A) (A) (A) (A) (A) (A)
                 (A) (A) (A) (A) (A) (A) (A) (A) (A) (A) (A) (A)
                 (A) (A) (A) (A) (A) (A) (A) (A) (A) (A) (A) (A)
                 (A) (A) (A) (A) (A) (A) (A) (A) (A) (A) (A) (A)
                 (A) (A) (A) (A) (A) (A) (A) (A) (A) (A) (A) (A)
                 (A) (A) (A) (A) (A) (A) (A) (A) (A) (A) (A) (A)
                 (A) (A) (A) (A) (A) (A) (A) (A) (A) (A) (A) (A)
                 (A) (A) (A) (A) (A) (A) (A) (A) (A) (A) (A) (A)
                 (A) (A) (A) (A) (A) (A) (A) (A) (A) (A) (A) (A)
                 (A) (A) (A) (A) (A) (A) (A) (A) (A) (A) (A) (A)
                 (A) (A) (A) (A) (A) (A) (A) (A) (A) (A) (A) (A)
                 (A) (A) (A) (A) (A) (A) (A) (A) (A) (A) (A) (A)
                 (A) (A) (A) (A) (A) (A) (A) (A) (A) (A) (A) (A)
                 (A) (A) (A) (A) (A) (A)
       Virtual   (A) (A) (A) (A) (A) (A) (A) (A) (A) (A) (A) (A)
                 (A) (A) (A) (A) (A) (A) (A) (A) (A) (A) (A) (A)
                 (A) (A) (A) (A) (A) (A) (A) (A) (A) (A) (A) (A)
                 (A) (A) (A) (A) (A) (A) (A) (A) (A) (A) (A) (A)
                 (A) (A) (A) (A) (A) (A) (A) (A) (A) (A) (A) (A)
                 (A) (A) (A) (A) (A) (A) (A) (A) (A) (A) (A) (A)
                 (A) (A) (A) (A) (A) (A) (A) (A) (A) (A) (A) (A)
                 (A) (A) (A) (A) (A) (A) (A) (A) (A) (A) (A) (A)
                 (A) (A) (A) (A) (A) (A) (A) (A) (A) (A) (A) (A)
                 (A) (A) (A) (A) (A) (A) (A) (A) (A) (A) (A) (A)
                 (A) (A) (A) (A) (A) (A) (A) (A) (A) (A) (A) (A)
                 (A) (A) (A) (A) (A) (A) (A) (A) (A) (A) (A) (A)
                 (A) (A) (A) (A) (A) (A) (A) (A) (A) (A) (A) (A)
                 (A) (A) (A) (A) (A) (A) (A) (A) (A) (A) (A) (A)
                 (A) (A) (A) (A) (A) (A) (A) (A) (A) (A) (A) (A)
                 (A) (A) (A) (A) (A) (A) (A) (A) (A) (A) (A) (A)
                 (A) (A) (A) (A) (A) (A) (A) (A) (A) (A) (A) (A)
                 (A) (A) (A) (A) (A) (A) (A) (A) (A) (A) (A) (A)
                 (A) (A) (A) (A) (A) (A) (A) (A) (A) (A) (A) (A)
                 (A) (A) (A) (A) (A) (A) (A) (A) (A) (A) (A) (A)
                 (A) (A) (A) (A) (A) (A) (A) (A) (A) (A) (A) (A)
                 (A) (A) (A) (A) (A) (A) (A) (A) (A) (A) (A) (A)
                 (A) (A) (A) (A) (A) (A) (A) (A) (A) (A) (A) (A)
                 (A) (A) (A) (A) (A) (A) (A) (A) (A) (A) (A) (A)
                 (A) (A) (A) (A) (A) (A) (A) (A) (A) (A) (A) (A)
                 (A) (A) (A) (A) (A) (A) (A) (A) (A) (A) (A) (A)
                 (A) (A) (A) (A) (A) (A) (A) (A) (A) (A) (A) (A)
                 (A) (A) (A) (A) (A) (A) (A) (A) (A) (A) (A) (A)
                 (A) (A) (A) (A) (A) (A) (A) (A) (A) (A) (A) (A)
                 (A) (A) (A) (A) (A) (A) (A) (A) (A) (A) (A) (A)
                 (A) (A) (A) (A) (A) (A) (A) (A) (A) (A) (A) (A)
                 (A) (A) (A) (A) (A) (A) (A) (A) (A) (A) (A) (A)
                 (A) (A) (A) (A) (A) (A) (A) (A) (A) (A) (A) (A)
                 (A) (A) (A) (A) (A) (A) (A) (A) (A) (A) (A) (A)
                 (A) (A) (A) (A) (A) (A) (A) (A) (A) (A) (A) (A)
                 (A) (A) (A) (A) (A) (A) (A) (A) (A) (A) (A) (A)
                 (A) (A) (A) (A) (A) (A) (A) (A) (A) (A) (A) (A)
                 (A) (A) (A) (A) (A) (A) (A) (A) (A) (A) (A) (A)
                 (A) (A) (A) (A) (A) (A) (A) (A) (A) (A) (A) (A)
                 (A) (A) (A) (A) (A) (A) (A) (A) (A) (A) (A) (A)
                 (A) (A) (A) (A) (A) (A) (A) (A) (A) (A) (A) (A)
                 (A) (A) (A) (A) (A) (A) (A) (A) (A) (A) (A) (A)
                 (A) (A) (A) (A) (A) (A) (A) (A) (A) (A) (A) (A)
                 (A) (A) (A) (A) (A) (A) (A) (A) (A) (A) (A) (A)
                 (A) (A) (A) (A) (A) (A) (A) (A) (A) (A) (A) (A)
                 (A) (A) (A) (A) (A) (A) (A) (A) (A) (A) (A) (A)
                 (A) (A) (A) (A) (A) (A) (A) (A) (A) (A) (A) (A)
                 (A) (A) (A) (A) (A) (A) (A) (A) (A) (A) (A) (A)
                 (A) (A) (A) (A) (A) (A) (A) (A) (A) (A) (A) (A)
                 (A) (A) (A) (A) (A) (A) (A) (A) (A) (A) (A) (A)
                 (A) (A) (A) (A) (A) (A) (A) (A) (A) (A) (A) (A)
                 (A) (A) (A) (A) (A) (A) (A) (A) (A) (A) (A) (A)
                 (A) (A) (A) (A) (A) (A) (A) (A) (A) (A) (A) (A)
                 (A) (A) (A) (A) (A) (A) (A) (A) (A) (A) (A) (A)
                 (A) (A) (A) (A) (A) (A) (A) (A) (A) (A) (A) (A)
                 (A) (A) (A) (A) (A) (A) (A) (A) (A) (A) (A) (A)
                 (A) (A) (A) (A) (A) (A) (A) (A) (A) (A) (A) (A)
                 (A) (A) (A) (A) (A) (A) (A) (A) (A) (A) (A) (A)
                 (A) (A) (A) (A) (A) (A) (A) (A) (A) (A) (A) (A)
                 (A) (A) (A) (A) (A) (A) (A) (A) (A) (A) (A) (A)
                 (A) (A) (A) (A) (A) (A) (A) (A) (A) (A) (A) (A)
                 (A) (A) (A) (A) (A) (A) (A) (A) (A) (A) (A) (A)
                 (A) (A) (A) (A) (A) (A) (A) (A) (A) (A) (A) (A)
                 (A) (A) (A) (A) (A) (A) (A) (A) (A) (A) (A) (A)
                 (A) (A) (A) (A) (A) (A) (A) (A) (A) (A) (A) (A)
                 (A) (A) (A) (A) (A) (A) (A) (A) (A) (A) (A) (A)
                 (A) (A) (A) (A) (A) (A) (A) (A) (A) (A) (A) (A)
                 (A) (A) (A) (A) (A) (A) (A) (A) (A) (A) (A) (A)
                 (A) (A) (A) (A) (A) (A) (A) (A) (A) (A) (A) (A)
                 (A) (A) (A) (A) (A) (A) (A) (A) (A) (A) (A) (A)
                 (A) (A) (A) (A) (A) (A) (A) (A) (A) (A) (A) (A)
                 (A) (A) (A) (A) (A) (A) (A) (A) (A) (A) (A) (A)
                 (A) (A) (A) (A) (A) (A) (A) (A) (A) (A) (A) (A)
                 (A) (A) (A) (A) (A) (A) (A) (A) (A) (A) (A) (A)
                 (A) (A) (A) (A) (A) (A) (A) (A) (A) (A) (A) (A)
                 (A) (A) (A) (A) (A) (A) (A) (A) (A) (A) (A) (A)
                 (A) (A) (A) (A) (A) (A) (A) (A) (A) (A) (A) (A)
                 (A) (A) (A) (A) (A) (A) (A) (A) (A) (A) (A) (A)
                 (A) (A) (A) (A) (A) (A) (A) (A) (A) (A) (A) (A)
                 (A) (A) (A) (A) (A) (A) (A) (A) (A) (A) (A) (A)
                 (A) (A) (A) (A) (A) (A) (A) (A) (A) (A) (A) (A)
                 (A) (A) (A) (A) (A) (A) (A) (A) (A) (A) (A) (A)
                 (A) (A) (A) (A) (A) (A) (A) (A) (A) (A) (A) (A)
                 (A) (A) (A) (A) (A) (A) (A) (A) (A) (A) (A) (A)
                 (A) (A) (A) (A) (A) (A) (A) (A) (A) (A) (A) (A)
                 (A) (A) (A) (A) (A) (A) (A) (A) (A) (A) (A) (A)
                 (A) (A) (A) (A) (A) (A) (A) (A) (A) (A) (A) (A)
                 (A) (A) (A) (A) (A) (A) (A) (A)
    20 initial guesses have been made.
 Convergence on wavefunction:    0.001000000000000
 Davidson Disk Diagonalization:  ConvIn= 1.00D-03 SkipCon=T Conv= 1.00D-03.
 Max sub-space:  2000 roots to seek:    20 dimension of matrix:       370304
 Iteration     1 Dimension    20 NMult     0 NNew     20
 CISAX will form    20 AO SS matrices at one time.
 NMat=    20 NSing=    20 JSym2X= 0.
 FoFJK:  IHMeth= 1 ICntrl=       0 DoSepK=T KAlg= 0 I1Cent=           0 FoldK=F
 IRaf=         1 NMat=      40 IRICut=       1 DoRegI=T DoRafI=F ISym2E= 0 IDoP0=3 IntGTp=3.
 FoFCou: FMM=T IPFlag=           0 FMFlag=      100000 FMFlg1=        2001
         NFxFlg=           0 DoJE=F BraDBF=F KetDBF=F FulRan=T
         wScrn=  0.000000 ICntrl=       500 IOpCl=  0 I1Cent=           0 NGrid=           0
         NMat0=   20 NMatS0=     20 NMatT0=    0 NMatD0=   20 NMtDS0=    0 NMtDT0=    0
 Symmetry not used in FoFCou.
 FMM levels:  10  Number of levels for PrismC:   9
 New state      3 was old state      9
 New state      5 was old state      8
 Excitation Energies [eV] at current iteration:
 Root      1 :     2.217105939024584
 Root      2 :     2.630292394802376
 Root      3 :     3.709358056760315
 Root      4 :     3.782932848021880
 Root      5 :     4.106976918445993
 Root      6 :     4.164935983082098
 Root      7 :     4.273926237558379
 Root      8 :     4.333545672766415
 Root      9 :     4.375201167245257
 Root     10 :     4.407563251472021
 Root     11 :     4.510841537124923
 Root     12 :     4.638179492691945
 Root     13 :     4.700796697308084
 Root     14 :     4.739841580366143
 Root     15 :     5.010033757448589
 Root     16 :     5.072569549576289
 Root     17 :     5.202286324909353
 Root     18 :     5.339951890595850
 Root     19 :     5.739005947989614
 Root     20 :     6.340674364278491
 Iteration     2 Dimension    30 NMult    20 NNew     10
 CISAX will form    10 AO SS matrices at one time.
 NMat=    10 NSing=    10 JSym2X= 0.
 Root      1 not converged, maximum delta is    0.067492280067873
 Root      2 not converged, maximum delta is    0.051370274960018
 New state      3 was old state      4
 Root      3 not converged, maximum delta is    0.083601197750064
 New state      4 was old state      3
 Root      4 not converged, maximum delta is    0.128441336381733
 Root      5 not converged, maximum delta is    0.193882236008772
 Excitation Energies [eV] at current iteration:
 Root      1 :     1.775404043830616   Change is   -0.441701895193967
 Root      2 :     2.258998097753737   Change is   -0.371294297048639
 Root      3 :     3.410656132163626   Change is   -0.372276715858253
 Root      4 :     3.624617387427065   Change is   -0.084740669333250
 Root      5 :     3.714544305865386   Change is   -0.392432612580607
 Iteration     3 Dimension    40 NMult    30 NNew     10
 CISAX will form    10 AO SS matrices at one time.
 NMat=    10 NSing=    10 JSym2X= 0.
 Root      1 not converged, maximum delta is    0.016548334268920
 Root      2 not converged, maximum delta is    0.011990599386514
 Root      3 not converged, maximum delta is    0.078436076925159
 New state      4 was old state      5
 Root      4 not converged, maximum delta is    0.283113039417845
 New state      5 was old state      4
 Root      5 not converged, maximum delta is    0.424170311446092
 Excitation Energies [eV] at current iteration:
 Root      1 :     1.742927729464469   Change is   -0.032476314366147
 Root      2 :     2.238689418849792   Change is   -0.020308678903946
 Root      3 :     3.378612073619742   Change is   -0.032044058543884
 Root      4 :     3.582441969627690   Change is   -0.132102336237696
 Root      5 :     3.588625698291527   Change is   -0.035991689135539
 Iteration     4 Dimension    50 NMult    40 NNew     10
 CISAX will form    10 AO SS matrices at one time.
 NMat=    10 NSing=    10 JSym2X= 0.
 Root      1 not converged, maximum delta is    0.002107475049392
 Root      2 not converged, maximum delta is    0.003184840978506
 Root      3 not converged, maximum delta is    0.047216219261818
 New state      4 was old state      5
 Root      4 not converged, maximum delta is    0.275588304939074
 New state      5 was old state      4
 Root      5 not converged, maximum delta is    0.209200559373655
 Excitation Energies [eV] at current iteration:
 Root      1 :     1.739531899092466   Change is   -0.003395830372003
 Root      2 :     2.235721105822988   Change is   -0.002968313026803
 Root      3 :     3.370228010219639   Change is   -0.008384063400103
 Root      4 :     3.520215573479583   Change is   -0.068410124811944
 Root      5 :     3.568231285559624   Change is   -0.014210684068066
 Iteration     5 Dimension    60 NMult    50 NNew     10
 CISAX will form    10 AO SS matrices at one time.
 NMat=    10 NSing=    10 JSym2X= 0.
 Root      1 not converged, maximum delta is    0.001256771812541
 Root      2 has converged.
 Root      3 not converged, maximum delta is    0.012304280365452
 Root      4 not converged, maximum delta is    0.070504752603697
 Root      5 not converged, maximum delta is    0.009344355857988
 Excitation Energies [eV] at current iteration:
 Root      1 :     1.739198716330580   Change is   -0.000333182761886
 Root      2 :     2.235390356234204   Change is   -0.000330749588784
 Root      3 :     3.368735998901630   Change is   -0.001492011318009
 Root      4 :     3.502070368062953   Change is   -0.018145205416630
 Root      5 :     3.566177454136993   Change is   -0.002053831422631
 Iteration     6 Dimension    68 NMult    60 NNew      8
 CISAX will form     8 AO SS matrices at one time.
 NMat=     8 NSing=     8 JSym2X= 0.
 Root      1 has converged.
 Root      2 has converged.
 Root      3 not converged, maximum delta is    0.003301249029152
 Root      4 not converged, maximum delta is    0.030190219855041
 Root      5 not converged, maximum delta is    0.011650725250654
 Excitation Energies [eV] at current iteration:
 Root      1 :     1.739169411546484   Change is   -0.000029304784097
 Root      2 :     2.235387011443378   Change is   -0.000003344790827
 Root      3 :     3.368433924872047   Change is   -0.000302074029584
 Root      4 :     3.496171794163494   Change is   -0.005898573899459
 Root      5 :     3.565585621572198   Change is   -0.000591832564795
 Iteration     7 Dimension    74 NMult    68 NNew      6
 CISAX will form     6 AO SS matrices at one time.
 NMat=     6 NSing=     6 JSym2X= 0.
 Root      1 has converged.
 Root      2 has converged.
 Root      3 not converged, maximum delta is    0.001332285738669
 Root      4 not converged, maximum delta is    0.049908874437816
 Root      5 not converged, maximum delta is    0.037268417064152
 Excitation Energies [eV] at current iteration:
 Root      1 :     1.739169173019708   Change is   -0.000000238526776
 Root      2 :     2.235386210494402   Change is   -0.000000800948976
 Root      3 :     3.368399444084424   Change is   -0.000034480787623
 Root      4 :     3.493226620782329   Change is   -0.002945173381164
 Root      5 :     3.564866634539286   Change is   -0.000718987032912
 Iteration     8 Dimension    80 NMult    74 NNew      6
 CISAX will form     6 AO SS matrices at one time.
 NMat=     6 NSing=     6 JSym2X= 0.
 Root      1 has converged.
 Root      2 has converged.
 Root      3 has converged.
 Root      4 not converged, maximum delta is    0.025854242707511
 Root      5 not converged, maximum delta is    0.043215943320049
 Excitation Energies [eV] at current iteration:
 Root      1 :     1.739169092817933   Change is   -0.000000080201775
 Root      2 :     2.235385662536526   Change is   -0.000000547957876
 Root      3 :     3.368394790105059   Change is   -0.000004653979365
 Root      4 :     3.492035230653963   Change is   -0.001191390128366
 Root      5 :     3.564140507307875   Change is   -0.000726127231411
 Iteration     9 Dimension    84 NMult    80 NNew      4
 CISAX will form     4 AO SS matrices at one time.
 NMat=     4 NSing=     4 JSym2X= 0.
 Root      1 has converged.
 Root      2 has converged.
 Root      3 has converged.
 Root      4 not converged, maximum delta is    0.004367180220134
 Root      5 not converged, maximum delta is    0.012066912124396
 Excitation Energies [eV] at current iteration:
 Root      1 :     1.739169063575133   Change is   -0.000000029242800
 Root      2 :     2.235385476584528   Change is   -0.000000185951998
 Root      3 :     3.368394553131269   Change is   -0.000000236973790
 Root      4 :     3.491844045307651   Change is   -0.000191185346312
 Root      5 :     3.563941828235182   Change is   -0.000198679072693
 Iteration    10 Dimension    88 NMult    84 NNew      4
 CISAX will form     4 AO SS matrices at one time.
 NMat=     4 NSing=     4 JSym2X= 0.
 Root      1 has converged.
 Root      2 has converged.
 Root      3 has converged.
 Root      4 has converged.
 Root      5 not converged, maximum delta is    0.001802826424173
 Excitation Energies [eV] at current iteration:
 Root      1 :     1.739169035189401   Change is   -0.000000028385732
 Root      2 :     2.235385200654262   Change is   -0.000000275930266
 Root      3 :     3.368394510505490   Change is   -0.000000042625779
 Root      4 :     3.491821052450744   Change is   -0.000022992856907
 Root      5 :     3.563914120973160   Change is   -0.000027707262022
 Iteration    11 Dimension    90 NMult    88 NNew      2
 CISAX will form     2 AO SS matrices at one time.
 NMat=     2 NSing=     2 JSym2X= 0.
 Root      1 has converged.
 Root      2 has converged.
 Root      3 has converged.
 Root      4 has converged.
 Root      5 has converged.
 Excitation Energies [eV] at current iteration:
 Root      1 :     1.739169022614103   Change is   -0.000000012575299
 Root      2 :     2.235384604411192   Change is   -0.000000596243069
 Root      3 :     3.368394506132674   Change is   -0.000000004372815
 Root      4 :     3.491818720463590   Change is   -0.000002331987154
 Root      5 :     3.563910206977954   Change is   -0.000003913995206
 Convergence achieved on expansion vectors.
 ***********************************************************************
 Excited states from <AA,BB:AA,BB> singles matrix:
 ***********************************************************************
 
 1PDM for each excited state written to RWF  633
 Ground to excited state transition densities written to RWF  633
 Ground to excited state transition electric dipole moments (Au):
       state          X           Y           Z        Dip. S.      Osc.
         1        -0.0308      1.9301     -2.1964      8.5504      0.3643
         2         0.1309      0.9425      0.5348      1.1914      0.0652
         3         0.3870      0.8923      1.1312      2.2256      0.1837
         4         0.6124      2.0673      1.3493      6.4693      0.5534
         5        -0.0714     -0.4393      0.0211      0.1985      0.0173
 Ground to excited state transition velocity dipole moments (Au):
       state          X           Y           Z        Dip. S.      Osc.
         1         0.0010     -0.1195      0.1359      0.0327      0.3416
         2        -0.0098     -0.0720     -0.0400      0.0069      0.0559
         3        -0.0483     -0.1077     -0.1325      0.0315      0.1696
         4        -0.0736     -0.2571     -0.1654      0.0989      0.5137
         5         0.0110      0.0565     -0.0020      0.0033      0.0169
 Ground to excited state transition magnetic dipole moments (Au):
       state          X           Y           Z
         1        -0.1065     -1.2288     -1.0917
         2        -0.0704      0.4409     -0.7093
         3         0.2985      1.3735     -1.2831
         4        -0.7191      1.8611     -2.3309
         5         0.4076     -0.5220      1.1554
 Ground to excited state transition velocity quadrupole moments (Au):
       state          XX          YY          ZZ          XY          XZ          YZ
         1         0.0825     -0.3340      0.0153     -1.1967      1.3461      0.2376
         2        -0.1097     -0.1555     -0.0980     -0.7554     -0.3997     -0.0892
         3        -0.6601      0.0402     -0.1609     -1.1001     -1.3131     -0.5559
         4        -0.8714     -0.8647     -0.2188     -2.5970     -1.5441     -0.2644
         5         0.0908      0.3679      0.0881      0.5349     -0.0912     -0.1747
 <0|del|b> * <b|rxdel|0> + <0|del|b> * <b|delr+rdel|0>
 Rotatory Strengths (R) in cgs (10**-40 erg-esu-cm/Gauss)
       state          XX          YY          ZZ    R(velocity)    E-M Angle
         1       -18.6699     79.6798    -79.4705     -6.1535       90.32
         2        -8.4208     -1.2016    -13.5668     -7.7298       92.22
         3        75.5083    104.7532   -136.4052     14.6187       88.70
         4      -166.8334     78.0846   -132.4584    -73.7357       92.38
         5       -74.9552      3.5328    -76.2695    -49.2306      110.88
 1/2[<0|r|b>*<b|rxdel|0> + (<0|rxdel|b>*<b|r|0>)*]
 Rotatory Strengths (R) in cgs (10**-40 erg-esu-cm/Gauss)
       state          XX          YY          ZZ     R(length)
         1        -2.3176   1677.0968  -1695.6547     -6.9585
         2         6.5198   -293.8614    268.2496     -6.3640
         3       -81.6946   -866.6472   1026.4666     26.0416
         4       311.3998  -2720.7827   2224.1331    -61.7499
         5        20.5797   -162.1574    -17.2464    -52.9413
  1/2[<0|del|b>*<b|r|0> + (<0|r|b>*<b|del|0>)*] (Au)
       state          X           Y           Z        Dip. S.   Osc.(frdel)
         1        -0.0000     -0.2306     -0.2985      0.5291      0.3528
         2        -0.0013     -0.0679     -0.0214      0.0906      0.0604
         3        -0.0187     -0.0961     -0.1499      0.2647      0.1765
         4        -0.0450     -0.5316     -0.2232      0.7998      0.5332
         5        -0.0008     -0.0248     -0.0000      0.0257      0.0171

 Excitation energies and oscillator strengths:
 
 Excited State   1:      Singlet-A      1.7392 eV  712.89 nm  f=0.3643  <S**2>=0.000
     245 -> 248        0.20703
     246 -> 247        0.67779
     245 <- 248        0.11224
 This state for optimization and/or second-order correction.
 Total Energy, E(TD-HF/TD-DFT) =  -3007.10472663    
 Copying the excited state density for this state as the 1-particle RhoCI density.
 
 Excited State   2:      Singlet-A      2.2354 eV  554.64 nm  f=0.0652  <S**2>=0.000
     245 -> 247        0.61737
     246 -> 248       -0.33570
 
 Excited State   3:      Singlet-A      3.3684 eV  368.08 nm  f=0.1837  <S**2>=0.000
     244 -> 247        0.54333
     245 -> 247        0.16531
     246 -> 248        0.38377
 
[...]
 Alpha virt. eigenvalues --    1.21499   1.21767   1.22507   1.22706   1.23509
 Alpha virt. eigenvalues --    1.24136   1.24304   1.24612   1.25311   1.25507
 Alpha virt. eigenvalues --    1.26065   1.27028   1.27539   1.27859   1.28413
 Alpha virt. eigenvalues --    1.28922   1.29414   1.29443   1.30155   1.30597
 Alpha virt. eigenvalues --    1.31091   1.31428   1.31587   1.32828   1.33013
 Alpha virt. eigenvalues --    1.33231   1.33843   1.34021   1.34104   1.34811
 Alpha virt. eigenvalues --    1.35682   1.35940   1.36044   1.36360   1.36714
 Alpha virt. eigenvalues --    1.37861   1.38262   1.38822   1.39120   1.40036
 Alpha virt. eigenvalues --    1.40060   1.40261   1.40771   1.40945   1.41710
 Alpha virt. eigenvalues --    1.41897   1.42498   1.42613   1.43147   1.43235
 Alpha virt. eigenvalues --    1.43645   1.44468   1.44576   1.44817   1.45207
 Alpha virt. eigenvalues --    1.45830   1.46114   1.46616   1.46702   1.47019
 Alpha virt. eigenvalues --    1.47504   1.47834   1.48093   1.48871   1.49413
 Alpha virt. eigenvalues --    1.49505   1.49985   1.50053   1.50230   1.50633
 Alpha virt. eigenvalues --    1.51020   1.51249   1.52022   1.52666   1.53196
 Alpha virt. eigenvalues --    1.53856   1.54618   1.55429   1.55766   1.56076
 Alpha virt. eigenvalues --    1.56451   1.56956   1.57081   1.57251   1.57912
 Alpha virt. eigenvalues --    1.58009   1.58206   1.58684   1.58938   1.59213
 Alpha virt. eigenvalues --    1.59643   1.59785   1.60347   1.60496   1.60645
 Alpha virt. eigenvalues --    1.61236   1.61304   1.61570   1.61824   1.61857
 Alpha virt. eigenvalues --    1.62135   1.62569   1.62592   1.62857   1.62958
 Alpha virt. eigenvalues --    1.63594   1.63946   1.64006   1.64402   1.64617
 Alpha virt. eigenvalues --    1.64723   1.65023   1.65432   1.65639   1.66668
 Alpha virt. eigenvalues --    1.66886   1.67069   1.67260   1.67673   1.69782
 Alpha virt. eigenvalues --    1.70121   1.70658   1.71037   1.71256   1.71494
 Alpha virt. eigenvalues --    1.72343   1.72439   1.72916   1.73483   1.73692
 Alpha virt. eigenvalues --    1.74226   1.74329   1.74811   1.75091   1.75282
 Alpha virt. eigenvalues --    1.75811   1.75878   1.76143   1.76868   1.77204
 Alpha virt. eigenvalues --    1.77649   1.77770   1.78394   1.78639   1.78780
 Alpha virt. eigenvalues --    1.78883   1.78909   1.79106   1.79445   1.79807
 Alpha virt. eigenvalues --    1.80131   1.80292   1.80649   1.80995   1.81242
 Alpha virt. eigenvalues --    1.81268   1.81325   1.81403   1.81862   1.82010
 Alpha virt. eigenvalues --    1.82081   1.82588   1.82647   1.83186   1.83541
 Alpha virt. eigenvalues --    1.83967   1.84050   1.84138   1.84364   1.84458
 Alpha virt. eigenvalues --    1.84677   1.84780   1.84902   1.84983   1.85268
 Alpha virt. eigenvalues --    1.85307   1.85564   1.85736   1.85985   1.86177
 Alpha virt. eigenvalues --    1.86510   1.86720   1.86816   1.87019   1.87373
 Alpha virt. eigenvalues --    1.87382   1.87502   1.87776   1.88019   1.88306
 Alpha virt. eigenvalues --    1.88339   1.88424   1.88621   1.89041   1.89273
 Alpha virt. eigenvalues --    1.89334   1.89691   1.89939   1.90008   1.90293
 Alpha virt. eigenvalues --    1.90485   1.90727   1.90729   1.90835   1.90972
 Alpha virt. eigenvalues --    1.91054   1.91366   1.91602   1.91662   1.92193
 Alpha virt. eigenvalues --    1.92308   1.92530   1.92989   1.93355   1.93438
 Alpha virt. eigenvalues --    1.93680   1.93704   1.93760   1.94445   1.94555
 Alpha virt. eigenvalues --    1.94774   1.94932   1.95044   1.95730   1.96133
 Alpha virt. eigenvalues --    1.96411   1.96424   1.96789   1.97098   1.97295
 Alpha virt. eigenvalues --    1.97468   1.97872   1.98081   1.98611   1.98659
 Alpha virt. eigenvalues --    1.98861   1.99213   1.99466   1.99623   2.00010
 Alpha virt. eigenvalues --    2.00230   2.00299   2.00422   2.00630   2.00886
 Alpha virt. eigenvalues --    2.01207   2.01519   2.01847   2.01876   2.02304
 Alpha virt. eigenvalues --    2.02643   2.02911   2.03109   2.03383   2.03663
 Alpha virt. eigenvalues --    2.03953   2.04389   2.04860   2.04933   2.05228
 Alpha virt. eigenvalues --    2.05453   2.05999   2.06366   2.06427   2.06745
 Alpha virt. eigenvalues --    2.06812   2.07087   2.07463   2.07585   2.07614
 Alpha virt. eigenvalues --    2.08109   2.08457   2.08754   2.09105   2.09411
 Alpha virt. eigenvalues --    2.09785   2.09787   2.10154   2.10456   2.10514
 Alpha virt. eigenvalues --    2.10793   2.11065   2.11132   2.11800   2.12231
 Alpha virt. eigenvalues --    2.12556   2.12916   2.12975   2.13057   2.13633
 Alpha virt. eigenvalues --    2.13718   2.14430   2.14872   2.15198   2.15504
 Alpha virt. eigenvalues --    2.15898   2.15952   2.16109   2.16466   2.16829
 Alpha virt. eigenvalues --    2.17087   2.17462   2.18461   2.18552   2.19080
 Alpha virt. eigenvalues --    2.19345   2.20052   2.20065   2.20164   2.20217
 Alpha virt. eigenvalues --    2.20911   2.20994   2.21162   2.21765   2.22475
 Alpha virt. eigenvalues --    2.22596   2.22877   2.23215   2.23712   2.23795
 Alpha virt. eigenvalues --    2.24722   2.24764   2.25314   2.25890   2.26014
 Alpha virt. eigenvalues --    2.26839   2.27012   2.27791   2.28142   2.29051
 Alpha virt. eigenvalues --    2.29387   2.29820   2.30130   2.30455   2.30872
 Alpha virt. eigenvalues --    2.31301   2.31464   2.31643   2.31901   2.32711
 Alpha virt. eigenvalues --    2.33222   2.33443   2.33891   2.34211   2.34289
 Alpha virt. eigenvalues --    2.34938   2.35192   2.36101   2.36658   2.36951
 Alpha virt. eigenvalues --    2.37269   2.37495   2.37913   2.38186   2.38645
 Alpha virt. eigenvalues --    2.38898   2.39277   2.39634   2.40099   2.40397
 Alpha virt. eigenvalues --    2.40801   2.41155   2.41260   2.41509   2.42580
 Alpha virt. eigenvalues --    2.42816   2.43351   2.43557   2.43976   2.44323
 Alpha virt. eigenvalues --    2.44529   2.44568   2.44884   2.45185   2.45300
 Alpha virt. eigenvalues --    2.45692   2.46088   2.46351   2.46723   2.46807
 Alpha virt. eigenvalues --    2.47431   2.47874   2.47951   2.48676   2.49240
 Alpha virt. eigenvalues --    2.49271   2.49760   2.50349   2.50875   2.51276
 Alpha virt. eigenvalues --    2.51390   2.52196   2.52309   2.52617   2.52709
 Alpha virt. eigenvalues --    2.53250   2.53431   2.53655   2.54245   2.54653
 Alpha virt. eigenvalues --    2.54947   2.55686   2.56506   2.57315   2.57563
 Alpha virt. eigenvalues --    2.57990   2.58002   2.59003   2.59082   2.59337
 Alpha virt. eigenvalues --    2.59698   2.59798   2.60259   2.60496   2.61338
 Alpha virt. eigenvalues --    2.61647   2.62457   2.62514   2.63103   2.63443
 Alpha virt. eigenvalues --    2.64478   2.64664   2.65066   2.65795   2.66084
 Alpha virt. eigenvalues --    2.66509   2.66629   2.66800   2.66923   2.67670
 Alpha virt. eigenvalues --    2.68204   2.68708   2.68798   2.68937   2.69297
 Alpha virt. eigenvalues --    2.69672   2.70098   2.70472   2.70520   2.70764
 Alpha virt. eigenvalues --    2.71460   2.71721   2.71970   2.72597   2.73133
 Alpha virt. eigenvalues --    2.73250   2.74075   2.74199   2.74994   2.75479
 Alpha virt. eigenvalues --    2.75650   2.76143   2.77134   2.77210   2.77366
 Alpha virt. eigenvalues --    2.77579   2.77840   2.78297   2.78622   2.78682
 Alpha virt. eigenvalues --    2.79110   2.79601   2.80282   2.80537   2.81111
 Alpha virt. eigenvalues --    2.81224   2.81638   2.82530   2.83154   2.83319
 Alpha virt. eigenvalues --    2.84627   2.85066   2.85084   2.85671   2.86723
 Alpha virt. eigenvalues --    2.87181   2.87432   2.88375   2.88683   2.88967
 Alpha virt. eigenvalues --    2.89885   2.90220   2.91289   2.91392   2.91703
 Alpha virt. eigenvalues --    2.92615   2.92831   2.92904   2.93978   2.94138
 Alpha virt. eigenvalues --    2.94205   2.94540   2.94761   2.95284   2.95345
 Alpha virt. eigenvalues --    2.95929   2.96349   2.96574   2.97163   2.97511
 Alpha virt. eigenvalues --    2.97683   2.98027   2.98411   2.98797   2.98867
 Alpha virt. eigenvalues --    2.99268   2.99667   2.99822   2.99848   2.99887
 Alpha virt. eigenvalues --    3.00325   3.00514   3.01006   3.01163   3.01722
 Alpha virt. eigenvalues --    3.02063   3.02597   3.03027   3.03333   3.03687
 Alpha virt. eigenvalues --    3.03822   3.04176   3.04508   3.04673   3.04972
 Alpha virt. eigenvalues --    3.05133   3.05351   3.05721   3.06108   3.06384
 Alpha virt. eigenvalues --    3.06707   3.06926   3.07607   3.07973   3.08565
 Alpha virt. eigenvalues --    3.08929   3.09020   3.09585   3.10035   3.10423
 Alpha virt. eigenvalues --    3.10612   3.11030   3.11261   3.11965   3.12001
 Alpha virt. eigenvalues --    3.12407   3.12971   3.13848   3.14290   3.14818
 Alpha virt. eigenvalues --    3.15264   3.16088   3.16285   3.16697   3.17271
 Alpha virt. eigenvalues --    3.17663   3.18134   3.19763   3.20057   3.21003
 Alpha virt. eigenvalues --    3.22386   3.22858   3.23274   3.23366   3.24597
 Alpha virt. eigenvalues --    3.25361   3.25833   3.26470   3.27919   3.29074
 Alpha virt. eigenvalues --    3.30673   3.31904   3.37035   3.43091   3.46112
 Alpha virt. eigenvalues --    3.47924   3.49223   3.52112   3.54792   3.56444
 Alpha virt. eigenvalues --    3.61186   3.64130   3.68169   3.69684   3.71128
 Alpha virt. eigenvalues --    3.72824   3.73877
          Condensed to atoms (all electrons):
 Mulliken charges:
               1
     1  Mg   0.825707
     2  C   -0.096152
     3  C   -0.063769
     4  C   -0.051784
     5  C   -0.103487
     6  N   -0.215621
     7  C   -0.036856
     8  C   -0.024990
     9  C   -0.058098
    10  C   -0.019583
    11  C    0.072900
    12  C    0.028260
    13  C    0.027607
    14  C    0.177609
    15  O   -0.213032
    16  O   -0.324324
    17  N   -0.322070
    18  C    0.140964
    19  C   -0.155000
    20  C   -0.063644
    21  C    0.128065
    22  C    0.165021
    23  C   -0.023310
    24  O   -0.185170
    25  C    0.048645
    26  N   -0.263791
    27  C   -0.007649
    28  C   -0.033186
    29  C   -0.029433
    30  C    0.051166
    31  C    0.063809
    32  C    0.052002
    33  C   -0.013611
    34  N   -0.379546
    35  C    0.132586
    36  C   -0.161386
    37  C    0.037488
    38  C    0.147387
    39  C    0.103198
    40  C    0.003520
    41  O   -0.155387
    42  C    0.056445
    43  C    0.221350
    44  O   -0.217134
    45  O   -0.368658
    46  C    0.185569
    47  C    0.292110
    48  C   -0.169253
    49  C   -0.123763
    50  C    0.071212
    51  C    0.072513
    52  C    0.023342
    53  C    0.062835
    54  C   -0.109096
    55  C    0.036780
    56  C    0.026196
    57  C   -0.010957
    58  C    0.083748
    59  C   -0.124910
    60  C    0.051397
    61  C    0.068744
    62  C   -0.042439
    63  C    0.107834
    64  C   -0.174071
    65  C    0.047849
    66  C    0.024854
    67  H   -0.023016
    68  H   -0.039291
    69  H   -0.023680
    70  H    0.013283
    71  H    0.005687
    72  H    0.021584
    73  H    0.024979
    74  H    0.008636
    75  H    0.029302
    76  H    0.016858
    77  H    0.040702
    78  H    0.040789
    79  H    0.050094
    80  H   -0.021272
    81  H    0.030828
    82  H    0.029096
    83  H    0.050470
    84  H    0.017101
    85  H    0.018882
    86  H    0.002261
    87  H    0.014989
    88  H    0.024504
    89  H    0.033702
    90  H    0.008971
    91  H    0.012075
    92  H   -0.002966
    93  H    0.009343
    94  H    0.015441
    95  H    0.028486
    96  H    0.038611
    97  H    0.008985
    98  H    0.039770
    99  H    0.037650
   100  H    0.047064
   101  H    0.043179
   102  H    0.023570
   103  H    0.019111
   104  H   -0.006884
   105  H    0.010978
   106  H    0.021651
   107  H    0.028387
   108  H   -0.007452
   109  H    0.014060
   110  H   -0.001503
   111  H   -0.002633
   112  H   -0.012030
   113  H   -0.004149
   114  H   -0.002484
   115  H    0.005261
   116  H    0.002581
   117  H    0.009181
   118  H   -0.003351
   119  H   -0.007948
   120  H   -0.001300
   121  H   -0.009785
   122  H   -0.028722
   123  H   -0.017220
   124  H   -0.001713
   125  H    0.002715
   126  H    0.008709
   127  H    0.013401
   128  H   -0.015920
   129  H   -0.012584
   130  H   -0.005640
   131  H   -0.001199
   132  H   -0.013067
   133  H   -0.002933
   134  H   -0.003705
   135  H   -0.001154
   136  H    0.019572
   137  H    0.011640
   138  H    0.000800
   139  H    0.009236
   140  H    0.011873
 Sum of Mulliken charges =  -0.00000
 Mulliken charges with hydrogens summed into heavy atoms:
               1
     1  Mg   0.825707
     2  C   -0.096152
     3  C   -0.086785
     4  C   -0.091075
     5  C   -0.127167
     6  N   -0.215621
     7  C   -0.036856
     8  C   -0.011707
     9  C   -0.052411
    10  C   -0.019583
    11  C    0.128099
    12  C    0.074421
    13  C    0.109098
    14  C    0.177609
    15  O   -0.213032
    16  O   -0.324324
    17  N   -0.322070
    18  C    0.140964
    19  C   -0.155000
    20  C   -0.063644
    21  C    0.128065
    22  C    0.224671
    23  C   -0.023310
    24  O   -0.185170
    25  C    0.145313
    26  N   -0.263791
    27  C   -0.007649
    28  C   -0.014304
    29  C   -0.027172
    30  C    0.051166
    31  C    0.137004
    32  C    0.073048
    33  C    0.008208
    34  N   -0.379546
    35  C    0.132586
    36  C   -0.161386
    37  C    0.037488
    38  C    0.147387
    39  C    0.179280
    40  C    0.003520
    41  O   -0.155387
    42  C    0.096215
    43  C    0.221350
    44  O   -0.217134
    45  O   -0.368658
    46  C    0.313462
    47  C    0.334790
    48  C   -0.176137
    49  C   -0.123763
    50  C    0.132228
    51  C    0.079120
    52  C    0.019207
    53  C    0.046656
    54  C   -0.111580
    55  C    0.053802
    56  C    0.014897
    57  C   -0.022042
    58  C    0.037806
    59  C   -0.126623
    60  C    0.076222
    61  C    0.040240
    62  C   -0.049277
    63  C    0.091834
    64  C   -0.177776
    65  C    0.077908
    66  C    0.046763
 Electronic spatial extent (au):  <R**2>=         130514.0618
 Charge=              0.0000 electrons
 Dipole moment (field-independent basis, Debye):
    X=              2.5119    Y=              3.7830    Z=              1.8947  Tot=              4.9205
 Quadrupole moment (field-independent basis, Debye-Ang):
   XX=           -356.6145   YY=           -445.3595   ZZ=           -404.4869
   XY=              8.1248   XZ=             16.3551   YZ=             36.1762
 Traceless Quadrupole moment (field-independent basis, Debye-Ang):
   XX=             45.5391   YY=            -43.2058   ZZ=             -2.3333
   XY=              8.1248   XZ=             16.3551   YZ=             36.1762
 Octapole moment (field-independent basis, Debye-Ang**2):
  XXX=            649.1457  YYY=            221.3100  ZZZ=             61.9481  XYY=            -55.8650
  XXY=            -82.7026  XXZ=             40.6378  XZZ=             32.5409  YZZ=            -76.2948
  YYZ=            108.9027  XYZ=            217.2307
 Hexadecapole moment (field-independent basis, Debye-Ang**3):
 XXXX=        -141720.9611 YYYY=         -25163.5378 ZZZZ=         -15476.1978 XXXY=           -504.0236
 XXXZ=           1202.6954 YYYX=            546.8711 YYYZ=            927.0326 ZZZX=            779.5224
 ZZZY=            797.2392 XXYY=         -27352.9129 XXZZ=         -26422.8209 YYZZ=          -7456.9446
 XXYZ=           1038.3802 YYXZ=            397.4332 ZZXY=           -369.4238
 N-N= 9.391277758823D+03 E-N=-2.577325271620D+04  KE= 2.974851991864D+03
 Leave Link  601 at Tue May  3 14:04:10 2022, MaxMem= 10066329600 cpu:              12.9 elap:               0.6
 (Enter /sw/apps/gaussian-16.0/g16/l9999.exe)
 1\1\GINC-BP1-COMPUTE064\SP\RCAM-B3LYP TD-FC\def2SVP\C55H74Mg1N4O6\OF15
 641\03-May-2022\0\\#p cam-b3lyp/Def2SVP td=(nstates=5)\\step_1001_chro
 mophore_14 TDDFT with cam-b3lyp functional\\0,1\Mg,0,46.387,44.799,43.
 806\C,0,43.091,43.694,43.386\C,0,47.514,41.503,43.278\C,0,49.662,45.85
 1,43.724\C,0,45.268,48.019,43.939\N,0,45.43,42.814,43.231\C,0,44.102,4
 2.614,43.197\C,0,43.73,41.089,42.964\C,0,45.12,40.41,43.237\C,0,46.092
 ,41.644,43.132\C,0,45.166,39.809,44.617\C,0,43.088,40.773,41.564\C,0,4
 3.641,41.525,40.342\C,0,43.254,40.979,38.941\O,0,42.372,40.185,38.727\
 O,0,43.993,41.568,37.943\N,0,48.372,43.816,43.53\C,0,48.578,42.423,43.
 44\C,0,49.984,42.166,43.483\C,0,50.657,43.434,43.639\C,0,49.531,44.437
 ,43.665\C,0,50.612,40.822,43.308\C,0,52.165,43.538,43.786\O,0,52.881,4
 2.571,43.766\C,0,52.849,44.883,43.842\N,0,47.356,46.747,43.585\C,0,48.
 645,46.861,43.898\C,0,49.011,48.31,44.238\C,0,47.583,49.04,44.03\C,0,4
 6.639,47.863,43.808\C,0,49.636,48.375,45.735\C,0,47.485,50.131,42.854\
 C,0,47.584,51.57,43.283\N,0,44.638,45.707,43.659\C,0,44.287,47.023,43.
 751\C,0,42.813,47.189,43.672\C,0,42.324,45.888,43.526\C,0,43.476,45.02
 7,43.536\C,0,42.026,48.426,43.672\C,0,41.149,45.058,43.432\O,0,39.982,
 45.4,43.429\C,0,41.584,43.592,43.333\C,0,40.986,42.878,44.501\O,0,40.0
 87,42.029,44.421\O,0,41.544,43.403,45.677\C,0,40.839,42.861,46.899\C,0
 ,43.352,41.395,36.639\C,0,44.33,41.868,35.587\C,0,45.212,41.139,34.844
 \C,0,45.546,39.635,35.127\C,0,46.023,41.864,33.852\C,0,45.489,41.956,3
 2.339\C,0,44.844,43.326,31.94\C,0,45.578,43.975,30.662\C,0,46.321,45.2
 41,31.043\C,0,44.631,44.236,29.435\C,0,44.594,43.013,28.46\C,0,43.671,
 43.294,27.276\C,0,44.48,43.831,26.041\C,0,43.648,44.905,25.308\C,0,44.
 856,42.743,25.016\C,0,46.185,43.041,24.332\C,0,46.387,42.682,22.829\C,
 0,47.376,43.608,22.135\C,0,46.709,44.78,21.306\C,0,48.311,42.821,21.18
 9\H,0,47.748,40.452,43.455\H,0,50.678,46.246,43.8\H,0,44.905,49.003,44
 .244\H,0,42.987,40.682,43.651\H,0,45.415,39.621,42.545\H,0,44.259,39.2
 43,44.825\H,0,45.442,40.527,45.39\H,0,45.975,39.078,44.597\H,0,42.051,
 41.007,41.803\H,0,43.234,39.724,41.306\H,0,44.728,41.555,40.418\H,0,43
 .187,42.506,40.481\H,0,51.167,40.742,42.373\H,0,49.905,39.994,43.363\H
 ,0,51.117,40.659,44.26\H,0,52.329,45.266,44.72\H,0,52.823,45.471,42.92
 5\H,0,53.916,44.785,44.046\H,0,49.668,48.649,43.437\H,0,47.23,49.485,4
 4.961\H,0,49.143,49.205,46.24\H,0,50.689,48.654,45.698\H,0,49.479,47.4
 27,46.25\H,0,46.49,50.121,42.409\H,0,48.189,50.003,42.032\H,0,47.556,5
 1.704,44.364\H,0,46.709,52.131,42.955\H,0,48.466,52.138,42.989\H,0,41.
 492,48.581,44.61\H,0,41.261,48.273,42.91\H,0,42.487,49.401,43.514\H,0,
 41.278,43.138,42.391\H,0,40.904,41.773,46.901\H,0,39.78,43.115,46.84\H
 ,0,41.262,43.25,47.826\H,0,42.441,41.959,36.44\H,0,43.194,40.35,36.372
 \H,0,44.223,42.938,35.409\H,0,45.11,39.106,34.279\H,0,45.025,39.169,35
 .963\H,0,46.607,39.384,35.118\H,0,47.015,41.416,33.789\H,0,46.102,42.8
 86,34.222\H,0,44.809,41.137,32.103\H,0,46.305,41.779,31.639\H,0,44.859
 ,44.03,32.772\H,0,43.763,43.243,31.824\H,0,46.421,43.41,30.263\H,0,45.
 637,45.984,31.454\H,0,46.722,45.625,30.105\H,0,47.125,45.031,31.749\H,
 0,44.835,45.189,28.946\H,0,43.581,44.246,29.727\H,0,44.334,42.049,28.8
 96\H,0,45.648,42.95,28.187\H,0,42.918,44.019,27.584\H,0,42.952,42.495,
 27.095\H,0,45.445,44.197,26.39\H,0,44.469,45.512,24.927\H,0,42.999,45.
 529,25.922\H,0,43.006,44.527,24.511\H,0,44.102,42.604,24.241\H,0,44.97
 2,41.754,25.46\H,0,46.831,42.474,25.003\H,0,46.502,44.066,24.527\H,0,4
 5.424,42.888,22.363\H,0,46.674,41.644,22.658\H,0,47.999,44.089,22.889\
 H,0,45.692,44.874,21.686\H,0,46.718,44.526,20.246\H,0,47.188,45.719,21
 .586\H,0,48.974,42.101,21.669\H,0,48.996,43.533,20.728\H,0,47.693,42.2
 17,20.525\\Version=ES64L-G16RevA.03\State=1-A\HF=-3007.1686399\RMSD=5.
 126e-09\PG=C01 [X(C55H74Mg1N4O6)]\\@


 We find comfort among those who agree with us -- growth among those who don't.
 -- Frank A. Clark
 Job cpu time:       0 days 10 hours 15 minutes 14.3 seconds.
 Elapsed time:       0 days  0 hours 26 minutes  7.3 seconds.
 File lengths (MBytes):  RWF=   8929 Int=      0 D2E=      0 Chk=    390 Scr=      1
 Normal termination of Gaussian 16 at Tue May  3 14:04:11 2022.
