 Entering Gaussian System, Link 0=g16
 Initial command:
 /sw/apps/gaussian-16.0/g16/l1.exe "/tmp/Gau-185413.inp" -scrdir="/tmp/"
 Entering Link 1 = /sw/apps/gaussian-16.0/g16/l1.exe PID=    185414.
  
 Copyright (c) 1988,1990,1992,1993,1995,1998,2003,2009,2016,
            Gaussian, Inc.  All Rights Reserved.
  
 This is part of the Gaussian(R) 16 program.  It is based on
 the Gaussian(R) 09 system (copyright 2009, Gaussian, Inc.),
 the Gaussian(R) 03 system (copyright 2003, Gaussian, Inc.),
 the Gaussian(R) 98 system (copyright 1998, Gaussian, Inc.),
 the Gaussian(R) 94 system (copyright 1995, Gaussian, Inc.),
 the Gaussian 92(TM) system (copyright 1992, Gaussian, Inc.),
 the Gaussian 90(TM) system (copyright 1990, Gaussian, Inc.),
 the Gaussian 88(TM) system (copyright 1988, Gaussian, Inc.),
 the Gaussian 86(TM) system (copyright 1986, Carnegie Mellon
 University), and the Gaussian 82(TM) system (copyright 1983,
 Carnegie Mellon University). Gaussian is a federally registered
 trademark of Gaussian, Inc.
  
 This software contains proprietary and confidential information,
 including trade secrets, belonging to Gaussian, Inc.
  
 This software is provided under written license and may be
 used, copied, transmitted, or stored only in accord with that
 written license.
  
 The following legend is applicable only to US Government
 contracts under FAR:
  
                    RESTRICTED RIGHTS LEGEND
  
 Use, reproduction and disclosure by the US Government is
 subject to restrictions as set forth in subparagraphs (a)
 and (c) of the Commercial Computer Software - Restricted
 Rights clause in FAR 52.227-19.
  
 Gaussian, Inc.
 340 Quinnipiac St., Bldg. 40, Wallingford CT 06492
  
  
 ---------------------------------------------------------------
 Warning -- This program may not be used in any manner that
 competes with the business of Gaussian, Inc. or will provide
 assistance to any competitor of Gaussian, Inc.  The licensee
 of this program is prohibited from giving any competitor of
 Gaussian, Inc. access to this program.  By using this program,
 the user acknowledges that Gaussian, Inc. is engaged in the
 business of creating and licensing software in the field of
 computational chemistry and represents and warrants to the
 licensee that it is not a competitor of Gaussian, Inc. and that
 it will not use this program in any manner prohibited above.
 ---------------------------------------------------------------
  

 Cite this work as:
 Gaussian 16, Revision A.03,
 M. J. Frisch, G. W. Trucks, H. B. Schlegel, G. E. Scuseria, 
 M. A. Robb, J. R. Cheeseman, G. Scalmani, V. Barone, 
 G. A. Petersson, H. Nakatsuji, X. Li, M. Caricato, A. V. Marenich, 
 J. Bloino, B. G. Janesko, R. Gomperts, B. Mennucci, H. P. Hratchian, 
 J. V. Ortiz, A. F. Izmaylov, J. L. Sonnenberg, D. Williams-Young, 
 F. Ding, F. Lipparini, F. Egidi, J. Goings, B. Peng, A. Petrone, 
 T. Henderson, D. Ranasinghe, V. G. Zakrzewski, J. Gao, N. Rega, 
 G. Zheng, W. Liang, M. Hada, M. Ehara, K. Toyota, R. Fukuda, 
 J. Hasegawa, M. Ishida, T. Nakajima, Y. Honda, O. Kitao, H. Nakai, 
 T. Vreven, K. Throssell, J. A. Montgomery, Jr., J. E. Peralta, 
 F. Ogliaro, M. J. Bearpark, J. J. Heyd, E. N. Brothers, K. N. Kudin, 
 V. N. Staroverov, T. A. Keith, R. Kobayashi, J. Normand, 
 K. Raghavachari, A. P. Rendell, J. C. Burant, S. S. Iyengar, 
 J. Tomasi, M. Cossi, J. M. Millam, M. Klene, C. Adamo, R. Cammi, 
 J. W. Ochterski, R. L. Martin, K. Morokuma, O. Farkas, 
 J. B. Foresman, and D. J. Fox, Gaussian, Inc., Wallingford CT, 2016.
 
 ******************************************
 Gaussian 16:  ES64L-G16RevA.03 25-Dec-2016
                28-Apr-2022 
 ******************************************
 %nproc=24
 Will use up to   24 processors via shared memory.
 %mem=75GB
 --------------------------------
 #p wB97XD/Def2SVP td=(nstates=5)
 --------------------------------
 1/38=1,172=1/1;
 2/12=2,17=6,18=5,40=1/2;
 3/5=43,7=101,11=9,25=1,30=1,74=-58/1,2,3,8;
 4//1;
 5/5=2,38=5/2;
 8/6=1,10=1,108=5/1;
 9/41=5,42=1,70=2/14;
 6/7=2,8=2,9=2,10=2/1;
 99/5=1,9=1/99;
 Leave Link    1 at Thu Apr 28 04:36:19 2022, MaxMem= 10066329600 cpu:               0.7 elap:               0.0
 (Enter /sw/apps/gaussian-16.0/g16/l101.exe)
 -----------------------------------------------------
 step_1451_chromophore_15 TDDFT with wB97XD functional
 -----------------------------------------------------
 Symbolic Z-matrix:
 Charge =  0 Multiplicity = 1
 Mg                    46.746    34.337    27.908 
 C                     44.935    32.651    30.475 
 C                     46.919    37.113    30.111 
 C                     47.648    36.177    25.386 
 C                     45.797    31.699    25.817 
 N                     45.956    34.837    30.083 
 C                     45.439    33.893    30.947 
 C                     45.546    34.406    32.372 
 C                     45.839    35.894    32.257 
 C                     46.276    35.989    30.751 
 C                     44.698    36.808    32.827 
 C                     46.783    33.617    33.029 
 C                     47.279    33.937    34.403 
 C                     46.585    34.889    35.344 
 O                     45.387    34.897    35.625 
 O                     47.501    35.893    35.92 
 N                     47.353    36.403    27.781 
 C                     47.331    37.335    28.789 
 C                     48.077    38.471    28.291 
 C                     48.342    38.282    26.879 
 C                     47.787    36.919    26.621 
 C                     48.406    39.646    29.066 
 C                     49.1      39.149    25.893 
 O                     49.167    38.808    24.731 
 C                     49.707    40.436    26.322 
 N                     46.741    33.925    25.843 
 C                     47.23     34.824    25.018 
 C                     47.435    34.258    23.591 
 C                     46.801    32.827    23.694 
 C                     46.419    32.798    25.207 
 C                     46.858    35.248    22.491 
 C                     47.745    31.708    23.248 
 C                     47.184    30.391    22.759 
 N                     45.735    32.535    28.044 
 C                     45.409    31.559    27.097 
 C                     44.752    30.481    27.712 
 C                     44.492    30.911    28.987 
 C                     45.135    32.132    29.157 
 C                     44.298    29.153    27.066 
 C                     43.89     30.553    30.225 
 O                     43.314    29.564    30.588 
 C                     43.942    31.848    31.092 
 C                     44.054    31.412    32.561 
 O                     44.973    30.738    32.991 
 O                     42.993    31.979    33.269 
 C                     43.192    31.883    34.734 
 C                     46.816    36.839    36.815 
 C                     47.709    37.843    37.465 
 C                     47.409    38.992    38.083 
 C                     46.038    39.274    38.604 
 C                     48.479    39.925    38.489 
 C                     49.866    40.06     37.636 
 C                     50.223    41.566    37.596 
 C                     49.84     42.167    36.169 
 C                     50.819    41.599    35.122 
 C                     49.838    43.695    36.266 
 C                     48.433    44.226    36.511 
 C                     48.269    44.493    38.02 
 C                     47.379    45.807    38.154 
 C                     48.276    47.03     38.418 
 C                     46.29     45.62     39.308 
 C                     45.163    46.784    39.255 
 C                     43.713    46.345    39.494 
 C                     42.829    46.614    38.256 
 C                     41.394    46.591    38.7 
 C                     43.076    45.425    37.268 
 H                     47.022    37.986    30.759 
 H                     47.998    36.708    24.498 
 H                     45.468    30.799    25.294 
 H                     44.59     34.162    32.835 
 H                     46.742    36.162    32.805 
 H                     44.171    36.263    33.61 
 H                     43.995    37.067    32.035 
 H                     45.209    37.651    33.292 
 H                     47.6      33.979    32.406 
 H                     46.629    32.54     32.959 
 H                     48.287    34.348    34.34 
 H                     47.337    33.004    34.965 
 H                     49.473    39.863    29.01 
 H                     48.272    39.434    30.126 
 H                     47.851    40.544    28.795 
 H                     50.325    40.324    27.213 
 H                     48.84     41.041    26.585 
 H                     50.284    40.866    25.503 
 H                     48.511    34.176    23.434 
 H                     45.905    32.84     23.074 
 H                     46.125    35.884    22.988 
 H                     46.37     34.639    21.73 
 H                     47.587    35.885    21.99 
 H                     48.299    31.392    24.133 
 H                     48.46     32.065    22.507 
 H                     47.293    29.581    23.48 
 H                     47.754    30.198    21.85 
 H                     46.135    30.579    22.531 
 H                     43.813    29.346    26.109 
 H                     43.551    28.658    27.687 
 H                     45.127    28.482    26.839 
 H                     42.961    32.32     31.041 
 H                     42.999    30.88     35.115 
 H                     42.408    32.507    35.164 
 H                     44.167    32.245    35.059 
 H                     46.309    36.297    37.613 
 H                     46.016    37.371    36.3 
 H                     48.749    37.659    37.195 
 H                     45.294    38.967    37.869 
 H                     45.957    40.337    38.834 
 H                     45.811    38.778    39.547 
 H                     48.699    39.569    39.495 
 H                     48.054    40.928    38.534 
 H                     49.72     39.524    36.698 
 H                     50.617    39.509    38.203 
 H                     51.285    41.626    37.835 
 H                     49.705    42.157    38.351 
 H                     48.894    41.674    35.942 
 H                     51.082    42.403    34.436 
 H                     50.321    40.882    34.47 
 H                     51.789    41.224    35.449 
 H                     50.138    44.132    35.314 
 H                     50.617    43.88     37.006 
 H                     47.614    43.593    36.17 
 H                     48.473    45.176    35.977 
 H                     49.237    44.551    38.518 
 H                     47.784    43.597    38.409 
 H                     46.808    45.932    37.233 
 H                     48.402    47.473    37.43 
 H                     49.239    46.669    38.779 
 H                     47.881    47.708    39.175 
 H                     46.862    45.807    40.217 
 H                     45.915    44.597    39.297 
 H                     45.106    47.4      38.358 
 H                     45.477    47.484    40.029 
 H                     43.308    46.711    40.438 
 H                     43.676    45.28     39.722 
 H                     43.077    47.577    37.81 
 H                     41.028    47.616    38.634 
 H                     41.212    46.148    39.679 
 H                     40.8      46.036    37.974 
 H                     42.166    45.305    36.68 
 H                     43.196    44.464    37.768 
 H                     43.883    45.584    36.553 
 
 ITRead=  0  0  0  0  0  0  0  0  0  0  0  0  0  0  0  0  0  0  0  0
 ITRead=  0  0  0  0  0  0  0  0  0  0  0  0  0  0  0  0  0  0  0  0
 ITRead=  0  0  0  0  0  0  0  0  0  0  0  0  0  0  0  0  0  0  0  0
 ITRead=  0  0  0  0  0  0  0  0  0  0  0  0  0  0  0  0  0  0  0  0
 ITRead=  0  0  0  0  0  0  0  0  0  0  0  0  0  0  0  0  0  0  0  0
 ITRead=  0  0  0  0  0  0  0  0  0  0  0  0  0  0  0  0  0  0  0  0
 ITRead=  0  0  0  0  0  0  0  0  0  0  0  0  0  0  0  0  0  0  0  0
 MicOpt= -1 -1 -1 -1 -1 -1 -1 -1 -1 -1 -1 -1 -1 -1 -1 -1 -1 -1 -1 -1
 MicOpt= -1 -1 -1 -1 -1 -1 -1 -1 -1 -1 -1 -1 -1 -1 -1 -1 -1 -1 -1 -1
 MicOpt= -1 -1 -1 -1 -1 -1 -1 -1 -1 -1 -1 -1 -1 -1 -1 -1 -1 -1 -1 -1
 MicOpt= -1 -1 -1 -1 -1 -1 -1 -1 -1 -1 -1 -1 -1 -1 -1 -1 -1 -1 -1 -1
 MicOpt= -1 -1 -1 -1 -1 -1 -1 -1 -1 -1 -1 -1 -1 -1 -1 -1 -1 -1 -1 -1
 MicOpt= -1 -1 -1 -1 -1 -1 -1 -1 -1 -1 -1 -1 -1 -1 -1 -1 -1 -1 -1 -1
 MicOpt= -1 -1 -1 -1 -1 -1 -1 -1 -1 -1 -1 -1 -1 -1 -1 -1 -1 -1 -1 -1
 NAtoms=    140 NQM=      140 NQMF=       0 NMMI=      0 NMMIF=      0
                NMic=       0 NMicF=      0.
                    Isotopes and Nuclear Properties:
 (Nuclear quadrupole moments (NQMom) in fm**2, nuclear magnetic moments (NMagM)
  in nuclear magnetons)

  Atom         1           2           3           4           5           6           7           8           9          10
 IAtWgt=          24          12          12          12          12          14          12          12          12          12
 AtmWgt=  23.9850450  12.0000000  12.0000000  12.0000000  12.0000000  14.0030740  12.0000000  12.0000000  12.0000000  12.0000000
 NucSpn=           0           0           0           0           0           2           0           0           0           0
 AtZEff=  -0.0000000  -0.0000000  -0.0000000  -0.0000000  -0.0000000  -0.0000000  -0.0000000  -0.0000000  -0.0000000  -0.0000000
 NQMom=    0.0000000   0.0000000   0.0000000   0.0000000   0.0000000   2.0440000   0.0000000   0.0000000   0.0000000   0.0000000
 NMagM=    0.0000000   0.0000000   0.0000000   0.0000000   0.0000000   0.4037610   0.0000000   0.0000000   0.0000000   0.0000000
 AtZNuc=  12.0000000   6.0000000   6.0000000   6.0000000   6.0000000   7.0000000   6.0000000   6.0000000   6.0000000   6.0000000

  Atom        11          12          13          14          15          16          17          18          19          20
 IAtWgt=          12          12          12          12          16          16          14          12          12          12
 AtmWgt=  12.0000000  12.0000000  12.0000000  12.0000000  15.9949146  15.9949146  14.0030740  12.0000000  12.0000000  12.0000000
 NucSpn=           0           0           0           0           0           0           2           0           0           0
 AtZEff=  -0.0000000  -0.0000000  -0.0000000  -0.0000000  -0.0000000  -0.0000000  -0.0000000  -0.0000000  -0.0000000  -0.0000000
 NQMom=    0.0000000   0.0000000   0.0000000   0.0000000   0.0000000   0.0000000   2.0440000   0.0000000   0.0000000   0.0000000
 NMagM=    0.0000000   0.0000000   0.0000000   0.0000000   0.0000000   0.0000000   0.4037610   0.0000000   0.0000000   0.0000000
 AtZNuc=   6.0000000   6.0000000   6.0000000   6.0000000   8.0000000   8.0000000   7.0000000   6.0000000   6.0000000   6.0000000

  Atom        21          22          23          24          25          26          27          28          29          30
 IAtWgt=          12          12          12          16          12          14          12          12          12          12
 AtmWgt=  12.0000000  12.0000000  12.0000000  15.9949146  12.0000000  14.0030740  12.0000000  12.0000000  12.0000000  12.0000000
 NucSpn=           0           0           0           0           0           2           0           0           0           0
 AtZEff=  -0.0000000  -0.0000000  -0.0000000  -0.0000000  -0.0000000  -0.0000000  -0.0000000  -0.0000000  -0.0000000  -0.0000000
 NQMom=    0.0000000   0.0000000   0.0000000   0.0000000   0.0000000   2.0440000   0.0000000   0.0000000   0.0000000   0.0000000
 NMagM=    0.0000000   0.0000000   0.0000000   0.0000000   0.0000000   0.4037610   0.0000000   0.0000000   0.0000000   0.0000000
 AtZNuc=   6.0000000   6.0000000   6.0000000   8.0000000   6.0000000   7.0000000   6.0000000   6.0000000   6.0000000   6.0000000

  Atom        31          32          33          34          35          36          37          38          39          40
 IAtWgt=          12          12          12          14          12          12          12          12          12          12
 AtmWgt=  12.0000000  12.0000000  12.0000000  14.0030740  12.0000000  12.0000000  12.0000000  12.0000000  12.0000000  12.0000000
 NucSpn=           0           0           0           2           0           0           0           0           0           0
 AtZEff=  -0.0000000  -0.0000000  -0.0000000  -0.0000000  -0.0000000  -0.0000000  -0.0000000  -0.0000000  -0.0000000  -0.0000000
 NQMom=    0.0000000   0.0000000   0.0000000   2.0440000   0.0000000   0.0000000   0.0000000   0.0000000   0.0000000   0.0000000
 NMagM=    0.0000000   0.0000000   0.0000000   0.4037610   0.0000000   0.0000000   0.0000000   0.0000000   0.0000000   0.0000000
 AtZNuc=   6.0000000   6.0000000   6.0000000   7.0000000   6.0000000   6.0000000   6.0000000   6.0000000   6.0000000   6.0000000

  Atom        41          42          43          44          45          46          47          48          49          50
 IAtWgt=          16          12          12          16          16          12          12          12          12          12
 AtmWgt=  15.9949146  12.0000000  12.0000000  15.9949146  15.9949146  12.0000000  12.0000000  12.0000000  12.0000000  12.0000000
 NucSpn=           0           0           0           0           0           0           0           0           0           0
 AtZEff=  -0.0000000  -0.0000000  -0.0000000  -0.0000000  -0.0000000  -0.0000000  -0.0000000  -0.0000000  -0.0000000  -0.0000000
 NQMom=    0.0000000   0.0000000   0.0000000   0.0000000   0.0000000   0.0000000   0.0000000   0.0000000   0.0000000   0.0000000
 NMagM=    0.0000000   0.0000000   0.0000000   0.0000000   0.0000000   0.0000000   0.0000000   0.0000000   0.0000000   0.0000000
 AtZNuc=   8.0000000   6.0000000   6.0000000   8.0000000   8.0000000   6.0000000   6.0000000   6.0000000   6.0000000   6.0000000

  Atom        51          52          53          54          55          56          57          58          59          60
 IAtWgt=          12          12          12          12          12          12          12          12          12          12
 AtmWgt=  12.0000000  12.0000000  12.0000000  12.0000000  12.0000000  12.0000000  12.0000000  12.0000000  12.0000000  12.0000000
 NucSpn=           0           0           0           0           0           0           0           0           0           0
 AtZEff=  -0.0000000  -0.0000000  -0.0000000  -0.0000000  -0.0000000  -0.0000000  -0.0000000  -0.0000000  -0.0000000  -0.0000000
 NQMom=    0.0000000   0.0000000   0.0000000   0.0000000   0.0000000   0.0000000   0.0000000   0.0000000   0.0000000   0.0000000
 NMagM=    0.0000000   0.0000000   0.0000000   0.0000000   0.0000000   0.0000000   0.0000000   0.0000000   0.0000000   0.0000000
 AtZNuc=   6.0000000   6.0000000   6.0000000   6.0000000   6.0000000   6.0000000   6.0000000   6.0000000   6.0000000   6.0000000

  Atom        61          62          63          64          65          66          67          68          69          70
 IAtWgt=          12          12          12          12          12          12           1           1           1           1
 AtmWgt=  12.0000000  12.0000000  12.0000000  12.0000000  12.0000000  12.0000000   1.0078250   1.0078250   1.0078250   1.0078250
 NucSpn=           0           0           0           0           0           0           1           1           1           1
 AtZEff=  -0.0000000  -0.0000000  -0.0000000  -0.0000000  -0.0000000  -0.0000000  -0.0000000  -0.0000000  -0.0000000  -0.0000000
 NQMom=    0.0000000   0.0000000   0.0000000   0.0000000   0.0000000   0.0000000   0.0000000   0.0000000   0.0000000   0.0000000
 NMagM=    0.0000000   0.0000000   0.0000000   0.0000000   0.0000000   0.0000000   2.7928460   2.7928460   2.7928460   2.7928460
 AtZNuc=   6.0000000   6.0000000   6.0000000   6.0000000   6.0000000   6.0000000   1.0000000   1.0000000   1.0000000   1.0000000

  Atom        71          72          73          74          75          76          77          78          79          80
 IAtWgt=           1           1           1           1           1           1           1           1           1           1
 AtmWgt=   1.0078250   1.0078250   1.0078250   1.0078250   1.0078250   1.0078250   1.0078250   1.0078250   1.0078250   1.0078250
 NucSpn=           1           1           1           1           1           1           1           1           1           1
 AtZEff=  -0.0000000  -0.0000000  -0.0000000  -0.0000000  -0.0000000  -0.0000000  -0.0000000  -0.0000000  -0.0000000  -0.0000000
 NQMom=    0.0000000   0.0000000   0.0000000   0.0000000   0.0000000   0.0000000   0.0000000   0.0000000   0.0000000   0.0000000
 NMagM=    2.7928460   2.7928460   2.7928460   2.7928460   2.7928460   2.7928460   2.7928460   2.7928460   2.7928460   2.7928460
 AtZNuc=   1.0000000   1.0000000   1.0000000   1.0000000   1.0000000   1.0000000   1.0000000   1.0000000   1.0000000   1.0000000

  Atom        81          82          83          84          85          86          87          88          89          90
 IAtWgt=           1           1           1           1           1           1           1           1           1           1
 AtmWgt=   1.0078250   1.0078250   1.0078250   1.0078250   1.0078250   1.0078250   1.0078250   1.0078250   1.0078250   1.0078250
 NucSpn=           1           1           1           1           1           1           1           1           1           1
 AtZEff=  -0.0000000  -0.0000000  -0.0000000  -0.0000000  -0.0000000  -0.0000000  -0.0000000  -0.0000000  -0.0000000  -0.0000000
 NQMom=    0.0000000   0.0000000   0.0000000   0.0000000   0.0000000   0.0000000   0.0000000   0.0000000   0.0000000   0.0000000
 NMagM=    2.7928460   2.7928460   2.7928460   2.7928460   2.7928460   2.7928460   2.7928460   2.7928460   2.7928460   2.7928460
 AtZNuc=   1.0000000   1.0000000   1.0000000   1.0000000   1.0000000   1.0000000   1.0000000   1.0000000   1.0000000   1.0000000

  Atom        91          92          93          94          95          96          97          98          99         100
 IAtWgt=           1           1           1           1           1           1           1           1           1           1
 AtmWgt=   1.0078250   1.0078250   1.0078250   1.0078250   1.0078250   1.0078250   1.0078250   1.0078250   1.0078250   1.0078250
 NucSpn=           1           1           1           1           1           1           1           1           1           1
 AtZEff=  -0.0000000  -0.0000000  -0.0000000  -0.0000000  -0.0000000  -0.0000000  -0.0000000  -0.0000000  -0.0000000  -0.0000000
 NQMom=    0.0000000   0.0000000   0.0000000   0.0000000   0.0000000   0.0000000   0.0000000   0.0000000   0.0000000   0.0000000
 NMagM=    2.7928460   2.7928460   2.7928460   2.7928460   2.7928460   2.7928460   2.7928460   2.7928460   2.7928460   2.7928460
 AtZNuc=   1.0000000   1.0000000   1.0000000   1.0000000   1.0000000   1.0000000   1.0000000   1.0000000   1.0000000   1.0000000

  Atom       101         102         103         104         105         106         107         108         109         110
 IAtWgt=           1           1           1           1           1           1           1           1           1           1
 AtmWgt=   1.0078250   1.0078250   1.0078250   1.0078250   1.0078250   1.0078250   1.0078250   1.0078250   1.0078250   1.0078250
 NucSpn=           1           1           1           1           1           1           1           1           1           1
 AtZEff=  -0.0000000  -0.0000000  -0.0000000  -0.0000000  -0.0000000  -0.0000000  -0.0000000  -0.0000000  -0.0000000  -0.0000000
 NQMom=    0.0000000   0.0000000   0.0000000   0.0000000   0.0000000   0.0000000   0.0000000   0.0000000   0.0000000   0.0000000
 NMagM=    2.7928460   2.7928460   2.7928460   2.7928460   2.7928460   2.7928460   2.7928460   2.7928460   2.7928460   2.7928460
 AtZNuc=   1.0000000   1.0000000   1.0000000   1.0000000   1.0000000   1.0000000   1.0000000   1.0000000   1.0000000   1.0000000

  Atom       111         112         113         114         115         116         117         118         119         120
 IAtWgt=           1           1           1           1           1           1           1           1           1           1
 AtmWgt=   1.0078250   1.0078250   1.0078250   1.0078250   1.0078250   1.0078250   1.0078250   1.0078250   1.0078250   1.0078250
 NucSpn=           1           1           1           1           1           1           1           1           1           1
 AtZEff=  -0.0000000  -0.0000000  -0.0000000  -0.0000000  -0.0000000  -0.0000000  -0.0000000  -0.0000000  -0.0000000  -0.0000000
 NQMom=    0.0000000   0.0000000   0.0000000   0.0000000   0.0000000   0.0000000   0.0000000   0.0000000   0.0000000   0.0000000
 NMagM=    2.7928460   2.7928460   2.7928460   2.7928460   2.7928460   2.7928460   2.7928460   2.7928460   2.7928460   2.7928460
 AtZNuc=   1.0000000   1.0000000   1.0000000   1.0000000   1.0000000   1.0000000   1.0000000   1.0000000   1.0000000   1.0000000

  Atom       121         122         123         124         125         126         127         128         129         130
 IAtWgt=           1           1           1           1           1           1           1           1           1           1
 AtmWgt=   1.0078250   1.0078250   1.0078250   1.0078250   1.0078250   1.0078250   1.0078250   1.0078250   1.0078250   1.0078250
 NucSpn=           1           1           1           1           1           1           1           1           1           1
 AtZEff=  -0.0000000  -0.0000000  -0.0000000  -0.0000000  -0.0000000  -0.0000000  -0.0000000  -0.0000000  -0.0000000  -0.0000000
 NQMom=    0.0000000   0.0000000   0.0000000   0.0000000   0.0000000   0.0000000   0.0000000   0.0000000   0.0000000   0.0000000
 NMagM=    2.7928460   2.7928460   2.7928460   2.7928460   2.7928460   2.7928460   2.7928460   2.7928460   2.7928460   2.7928460
 AtZNuc=   1.0000000   1.0000000   1.0000000   1.0000000   1.0000000   1.0000000   1.0000000   1.0000000   1.0000000   1.0000000

  Atom       131         132         133         134         135         136         137         138         139         140
 IAtWgt=           1           1           1           1           1           1           1           1           1           1
 AtmWgt=   1.0078250   1.0078250   1.0078250   1.0078250   1.0078250   1.0078250   1.0078250   1.0078250   1.0078250   1.0078250
 NucSpn=           1           1           1           1           1           1           1           1           1           1
 AtZEff=  -0.0000000  -0.0000000  -0.0000000  -0.0000000  -0.0000000  -0.0000000  -0.0000000  -0.0000000  -0.0000000  -0.0000000
 NQMom=    0.0000000   0.0000000   0.0000000   0.0000000   0.0000000   0.0000000   0.0000000   0.0000000   0.0000000   0.0000000
 NMagM=    2.7928460   2.7928460   2.7928460   2.7928460   2.7928460   2.7928460   2.7928460   2.7928460   2.7928460   2.7928460
 AtZNuc=   1.0000000   1.0000000   1.0000000   1.0000000   1.0000000   1.0000000   1.0000000   1.0000000   1.0000000   1.0000000
 Leave Link  101 at Thu Apr 28 04:36:19 2022, MaxMem= 10066329600 cpu:               3.1 elap:               0.2
 (Enter /sw/apps/gaussian-16.0/g16/l202.exe)
 Stoichiometry    C55H74MgN4O6
 Framework group  C1[X(C55H74MgN4O6)]
 Deg. of freedom   414
 Full point group                 C1      NOp   1
 Largest Abelian subgroup         C1      NOp   1
 Largest concise Abelian subgroup C1      NOp   1
                         Standard orientation:                         
 ---------------------------------------------------------------------
 Center     Atomic      Atomic             Coordinates (Angstroms)
 Number     Number       Type             X           Y           Z
 ---------------------------------------------------------------------
      1         12           0       -4.717563    0.893655   -0.025106
      2          6           0       -4.137565   -2.587270    0.483392
      3          6           0       -1.194835    1.305350    0.075905
      4          6           0       -5.184300    4.089094    0.336850
      5          6           0       -8.086799    0.194142    0.600081
      6          7           0       -2.846005   -0.520760    0.293364
      7          6           0       -2.913153   -1.899074    0.267601
      8          6           0       -1.537784   -2.462046   -0.043309
      9          6           0       -0.562892   -1.312195    0.158296
     10          6           0       -1.551399   -0.091232    0.169961
     11          6           0        0.451050   -1.542854    1.333411
     12          6           0       -1.590358   -2.918922   -1.583711
     13          6           0       -0.375470   -3.420863   -2.296730
     14          6           0        0.941760   -3.695915   -1.616529
     15          8           0        1.111032   -4.343495   -0.583952
     16          8           0        2.084654   -3.068503   -2.308623
     17          7           0       -3.334837    2.546945    0.062281
     18          6           0       -1.964124    2.477642    0.101171
     19          6           0       -1.495298    3.828979   -0.120429
     20          6           0       -2.622216    4.737801   -0.058897
     21          6           0       -3.781526    3.811103    0.113116
     22          6           0       -0.108318    4.206601   -0.272673
     23          6           0       -2.688653    6.240748   -0.246476
     24          8           0       -3.751140    6.809980   -0.111904
     25          6           0       -1.459991    7.026463   -0.532660
     26          7           0       -6.472820    1.981887    0.385770
     27          6           0       -6.410524    3.294621    0.413952
     28          6           0       -7.815329    3.946662    0.422607
     29          6           0       -8.768765    2.708181    0.554706
     30          6           0       -7.727181    1.546691    0.510243
     31          6           0       -7.915835    5.082033    1.528889
     32          6           0       -9.844955    2.648189   -0.531769
     33          6           0      -11.135936    1.900499   -0.281452
     34          7           0       -5.920059   -0.753152    0.335243
     35          6           0       -7.288853   -0.888298    0.587828
     36          6           0       -7.631180   -2.244264    0.714819
     37          6           0       -6.431612   -2.905719    0.755297
     38          6           0       -5.432096   -1.978439    0.482699
     39          6           0       -9.038100   -2.854138    0.903621
     40          6           0       -5.823342   -4.184839    0.885956
     41          8           0       -6.279368   -5.286267    1.029353
     42          6           0       -4.294856   -3.898484    1.000618
     43          6           0       -3.556340   -5.100540    0.392130
     44          8           0       -3.698463   -5.458468   -0.763477
     45          8           0       -2.686442   -5.614377    1.355313
     46          6           0       -1.708766   -6.560488    0.768742
     47          6           0        3.365293   -3.313703   -1.626709
     48          6           0        4.560000   -2.743871   -2.316585
     49          6           0        5.798538   -2.525767   -1.857695
     50          6           0        6.325851   -3.221812   -0.646056
     51          6           0        6.775425   -1.772336   -2.669027
     52          6           0        6.306674   -0.583053   -3.686614
     53          6           0        7.349357    0.554175   -3.557742
     54          6           0        6.748740    1.729167   -2.661709
     55          6           0        5.635190    2.432908   -3.462978
     56          6           0        7.893405    2.650317   -2.231103
     57          6           0        8.399225    2.282829   -0.843620
     58          6           0        9.652893    1.400101   -0.999744
     59          6           0       10.646650    1.811851    0.174803
     60          6           0       11.721835    2.777970   -0.354937
     61          6           0       11.301214    0.507851    0.825753
     62          6           0       12.049620    0.853004    2.221673
     63          6           0       11.866837   -0.153822    3.364140
     64          6           0       11.151599    0.487101    4.574146
     65          6           0       11.407618   -0.380135    5.773832
     66          6           0        9.620821    0.465435    4.246850
     67          1           0       -0.117338    1.483231    0.074433
     68          1           0       -5.429962    5.151494    0.399792
     69          1           0       -9.101363   -0.171565    0.769456
     70          1           0       -1.409619   -3.297100    0.645240
     71          1           0        0.041511   -1.146228   -0.733157
     72          1           0        0.607085   -2.614517    1.456026
     73          1           0        0.050579   -1.130497    2.259769
     74          1           0        1.389757   -1.104698    0.994526
     75          1           0       -1.753091   -1.957019   -2.068399
     76          1           0       -2.402956   -3.627858   -1.743831
     77          1           0       -0.100717   -2.720416   -3.085932
     78          1           0       -0.631984   -4.369045   -2.770911
     79          1           0        0.036559    4.800373   -1.175535
     80          1           0        0.490426    3.321450   -0.483659
     81          1           0        0.315184    4.746880    0.573858
     82          1           0       -0.888313    6.610699   -1.362523
     83          1           0       -0.873256    6.905161    0.377237
     84          1           0       -1.721051    8.067127   -0.726197
     85          1           0       -7.952373    4.417403   -0.551441
     86          1           0       -9.226180    2.773485    1.541566
     87          1           0       -7.137267    4.879449    2.264814
     88          1           0       -8.899086    4.998169    1.991846
     89          1           0       -7.801004    6.106820    1.175566
     90          1           0       -9.423084    2.079762   -1.361777
     91          1           0      -10.097965    3.644483   -0.893900
     92          1           0      -11.191520    0.947186   -0.806738
     93          1           0      -11.899727    2.595663   -0.630454
     94          1           0      -11.196587    1.761488    0.797773
     95          1           0       -9.595603   -2.290806    1.652067
     96          1           0       -8.968347   -3.873159    1.284941
     97          1           0       -9.646900   -2.813899   -0.000124
     98          1           0       -4.027935   -3.943950    2.056285
     99          1           0       -2.150462   -7.533074    0.551026
    100          1           0       -0.987701   -6.746752    1.565173
    101          1           0       -1.194235   -6.159319   -0.103963
    102          1           0        3.534678   -4.385464   -1.525442
    103          1           0        3.350674   -2.945048   -0.600976
    104          1           0        4.269895   -2.278794   -3.258869
    105          1           0        5.566060   -3.228001    0.135410
    106          1           0        7.235098   -2.718815   -0.314854
    107          1           0        6.638844   -4.249676   -0.825843
    108          1           0        7.245017   -2.576557   -3.234610
    109          1           0        7.500920   -1.321014   -1.991810
    110          1           0        5.259448   -0.369939   -3.471311
    111          1           0        6.343344   -1.017261   -4.686219
    112          1           0        7.592823    0.851015   -4.578122
    113          1           0        8.285686    0.237184   -3.099011
    114          1           0        6.212357    1.190481   -1.879657
    115          1           0        5.722470    3.504762   -3.290663
    116          1           0        4.652925    2.203898   -3.050782
    117          1           0        5.632049    2.355414   -4.550378
    118          1           0        7.534659    3.674565   -2.133685
    119          1           0        8.571883    2.588207   -3.082264
    120          1           0        7.687174    1.778330   -0.190783
    121          1           0        8.690495    3.261894   -0.461717
    122          1           0       10.075895    1.488845   -2.000536
    123          1           0        9.283509    0.377156   -0.919111
    124          1           0       10.064243    2.274068    0.972966
    125          1           0       11.336587    3.761722   -0.086447
    126          1           0       11.752464    2.684445   -1.440444
    127          1           0       12.724509    2.563858    0.015951
    128          1           0       12.094825    0.255156    0.122361
    129          1           0       10.561907   -0.291370    0.869876
    130          1           0       11.845290    1.817071    2.686581
    131          1           0       13.100983    0.919025    1.942478
    132          1           0       12.782192   -0.695887    3.603743
    133          1           0       11.277591   -1.004965    3.023667
    134          1           0       11.520655    1.498062    4.746027
    135          1           0       12.071614    0.181324    6.431714
    136          1           0       11.784811   -1.379863    5.559164
    137          1           0       10.484060   -0.493578    6.341378
    138          1           0        9.092042    0.418464    5.198916
    139          1           0        9.302454   -0.435866    3.723189
    140          1           0        9.249582    1.352895    3.734649
 ---------------------------------------------------------------------
 Rotational constants (GHZ):           0.0402300           0.0121865           0.0104328
 Leave Link  202 at Thu Apr 28 04:36:19 2022, MaxMem= 10066329600 cpu:               0.2 elap:               0.0
 (Enter /sw/apps/gaussian-16.0/g16/l301.exe)
 Standard basis: def2SVP (5D, 7F)
 Ernie: Thresh=  0.10000D-02 Tol=  0.10000D-05 Strict=F.
 There are  1364 symmetry adapted cartesian basis functions of A   symmetry.
 There are  1298 symmetry adapted basis functions of A   symmetry.
  1298 basis functions,  2180 primitive gaussians,  1364 cartesian basis functions
   246 alpha electrons      246 beta electrons
       nuclear repulsion energy      9725.7546059743 Hartrees.
 IExCor= 4639 DFT=T Ex+Corr=wB97XD ExCW=0 ScaHFX=  1.000000
 ScaDFX=  1.000000  1.000000  1.000000  1.000000 ScalE2=  1.000000  1.000000
 IRadAn=      5 IRanWt=     -1 IRanGd=            0 ICorTp=0 IEmpDi=121
 HFx  wShort=  0.000000 wLong=  0.200000 cFull=  0.222036 cShort=  0.000000 cLong=  0.777964
 DFx  wShort=  0.000000 wLong=  0.200000 cFull=  0.000000 cShort=  0.000000 cLong=  1.000000
 NAtoms=  140 NActive=  140 NUniq=  140 SFac= 1.00D+00 NAtFMM=   60 NAOKFM=T Big=T
 Integral buffers will be    131072 words long.
 Raffenetti 1 integral format.
 Two-electron integral symmetry is turned on.
 R6Disp:  Grimme-D2 Dispersion energy=       -0.1362941079 Hartrees.
 Nuclear repulsion after empirical dispersion term =     9725.6183118664 Hartrees.
 Leave Link  301 at Thu Apr 28 04:36:19 2022, MaxMem= 10066329600 cpu:               1.3 elap:               0.1
 (Enter /sw/apps/gaussian-16.0/g16/l302.exe)
 NPDir=0 NMtPBC=     1 NCelOv=     1 NCel=       1 NClECP=     1 NCelD=      1
         NCelK=      1 NCelE2=     1 NClLst=     1 CellRange=     0.0.
 One-electron integrals computed using PRISM.
 One-electron integral symmetry used in STVInt
   1 Symmetry operations used in ECPInt.
 ECPInt:  NShTT=  192510 NPrTT=  683786 LenC2=   99257 LenP2D=  215338.
 LDataN:  DoStor=T MaxTD1= 4 Len=   56
 NBasis=  1298 RedAO= T EigKep=  2.53D-04  NBF=  1298
 NBsUse=  1298 1.00D-06 EigRej= -1.00D+00 NBFU=  1298
 Precomputing XC quadrature grid using
 IXCGrd= 4 IRadAn=           5 IRanWt=          -1 IRanGd=           0 AccXCQ= 0.00D+00.
 Generated NRdTot=       0 NPtTot=           0 NUsed=           0 NTot=          32
 NSgBfM=  1192  1192  1192  1192  1192 MxSgAt=   140 MxSgA2=   140.
 Leave Link  302 at Thu Apr 28 04:36:23 2022, MaxMem= 10066329600 cpu:              96.6 elap:               4.0
 (Enter /sw/apps/gaussian-16.0/g16/l303.exe)
 DipDrv:  MaxL=1.
 Leave Link  303 at Thu Apr 28 04:36:24 2022, MaxMem= 10066329600 cpu:               5.9 elap:               0.3
 (Enter /sw/apps/gaussian-16.0/g16/l308.exe)
 Leave Link  308 at Thu Apr 28 04:36:24 2022, MaxMem= 10066329600 cpu:               9.5 elap:               0.5
 (Enter /sw/apps/gaussian-16.0/g16/l401.exe)
 ExpMin= 3.36D-02 ExpMax= 4.95D+03 ExpMxC= 7.45D+02 IAcc=3 IRadAn=         5 AccDes= 0.00D+00
 Harris functional with IExCor= 4639 and IRadAn=       5 diagonalized for initial guess.
 HarFok:  IExCor= 4639 AccDes= 0.00D+00 IRadAn=         5 IDoV= 1 UseB2=F ITyADJ=14
 ICtDFT=  3500011 ScaDFX=  1.000000  1.000000  1.000000  1.000000
 FoFCou: FMM=F IPFlag=           0 FMFlag=      100000 FMFlg1=        2001
         NFxFlg=           0 DoJE=T BraDBF=F KetDBF=T FulRan=T
         wScrn=  0.000000 ICntrl=       500 IOpCl=  0 I1Cent=   200000004 NGrid=           0
         NMat0=    1 NMatS0=      1 NMatT0=    0 NMatD0=    1 NMtDS0=    0 NMtDT0=    0
 Petite list used in FoFCou.
 Harris En= -2877.99442998348    
 JPrj=0 DoOrth=F DoCkMO=F.
 Leave Link  401 at Thu Apr 28 04:36:30 2022, MaxMem= 10066329600 cpu:             138.7 elap:               5.8
 (Enter /sw/apps/gaussian-16.0/g16/l502.exe)
 Integral symmetry usage will be decided dynamically.
 Closed shell SCF:
 Using DIIS extrapolation, IDIIS=  1040.
 NGot= 10066329600 LenX= 10062561258 LenY= 10060699398
 Requested convergence on RMS density matrix=1.00D-08 within 128 cycles.
 Requested convergence on MAX density matrix=1.00D-06.
 Requested convergence on             energy=1.00D-06.
 No special actions if energy rises.
 Fock matrices will be formed incrementally for  20 cycles.

 Cycle   1  Pass 1  IDiag  1:
 FoFJK:  IHMeth= 1 ICntrl=       0 DoSepK=T KAlg= 0 I1Cent=           0 FoldK=F
 IRaf=         1 NMat=       1 IRICut=       1 DoRegI=T DoRafI=F ISym2E= 0 IDoP0=0 IntGTp=1.
 FoFCou: FMM=T IPFlag=           0 FMFlag=      100000 FMFlg1=        2001
         NFxFlg=           0 DoJE=T BraDBF=F KetDBF=F FulRan=T
         wScrn=  0.000000 ICntrl=       500 IOpCl=  0 I1Cent=           0 NGrid=           0
         NMat0=    1 NMatS0=      1 NMatT0=    0 NMatD0=    1 NMtDS0=    0 NMtDT0=    0
 Symmetry not used in FoFCou.
 FMM levels:  10  Number of levels for PrismC:   9
 E= -3007.16419207783    
 DIIS: error= 2.61D-02 at cycle   1 NSaved=   1.
 NSaved= 1 IEnMin= 1 EnMin= -3007.16419207783     IErMin= 1 ErrMin= 2.61D-02
 ErrMax= 2.61D-02  0.00D+00 EMaxC= 1.00D-01 BMatC= 1.51D+00 BMatP= 1.51D+00
 IDIUse=3 WtCom= 7.39D-01 WtEn= 2.61D-01
 Coeff-Com:  0.100D+01
 Coeff-En:   0.100D+01
 Coeff:      0.100D+01
 Gap=     0.164 Goal=   None    Shift=    0.000
 GapD=    0.164 DampG=1.000 DampE=0.500 DampFc=0.5000 IDamp=-1.
 Damping current iteration by 5.00D-01
 RMSDP=1.59D-03 MaxDP=1.56D-01              OVMax= 2.09D-01

 Cycle   2  Pass 1  IDiag  1:
 RMSU=  7.85D-04    CP:  9.85D-01
 E= -3007.49184090581     Delta-E=       -0.327648827977 Rises=F Damp=T
 DIIS: error= 1.44D-02 at cycle   2 NSaved=   2.
 NSaved= 2 IEnMin= 2 EnMin= -3007.49184090581     IErMin= 2 ErrMin= 1.44D-02
 ErrMax= 1.44D-02  0.00D+00 EMaxC= 1.00D-01 BMatC= 2.91D-01 BMatP= 1.51D+00
 IDIUse=3 WtCom= 8.56D-01 WtEn= 1.44D-01
 Coeff-Com: -0.326D+00 0.133D+01
 Coeff-En:   0.000D+00 0.100D+01
 Coeff:     -0.279D+00 0.128D+01
 Gap=     0.187 Goal=   None    Shift=    0.000
 RMSDP=7.43D-04 MaxDP=9.70D-02 DE=-3.28D-01 OVMax= 1.77D-01

 Cycle   3  Pass 1  IDiag  1:
 RMSU=  7.07D-04    CP:  9.77D-01  1.27D+00
 E= -3007.73269903111     Delta-E=       -0.240858125297 Rises=F Damp=F
 DIIS: error= 1.36D-02 at cycle   3 NSaved=   3.
 NSaved= 3 IEnMin= 3 EnMin= -3007.73269903111     IErMin= 3 ErrMin= 1.36D-02
 ErrMax= 1.36D-02  0.00D+00 EMaxC= 1.00D-01 BMatC= 1.45D-01 BMatP= 2.91D-01
 IDIUse=3 WtCom= 8.64D-01 WtEn= 1.36D-01
 Coeff-Com: -0.303D+00 0.677D+00 0.626D+00
 Coeff-En:   0.000D+00 0.000D+00 0.100D+01
 Coeff:     -0.262D+00 0.585D+00 0.677D+00
 Gap=     0.166 Goal=   None    Shift=    0.000
 RMSDP=4.65D-04 MaxDP=5.84D-02 DE=-2.41D-01 OVMax= 1.15D-01

 Cycle   4  Pass 1  IDiag  1:
 RMSU=  2.38D-04    CP:  9.72D-01  1.60D+00  5.67D-01
 E= -3007.84058813824     Delta-E=       -0.107889107132 Rises=F Damp=F
 DIIS: error= 5.07D-03 at cycle   4 NSaved=   4.
 NSaved= 4 IEnMin= 4 EnMin= -3007.84058813824     IErMin= 4 ErrMin= 5.07D-03
 ErrMax= 5.07D-03  0.00D+00 EMaxC= 1.00D-01 BMatC= 2.23D-02 BMatP= 1.45D-01
 IDIUse=3 WtCom= 9.49D-01 WtEn= 5.07D-02
 Coeff-Com: -0.111D+00 0.223D+00 0.371D+00 0.517D+00
 Coeff-En:   0.000D+00 0.000D+00 0.108D+00 0.892D+00
 Coeff:     -0.105D+00 0.212D+00 0.358D+00 0.536D+00
 Gap=     0.164 Goal=   None    Shift=    0.000
 RMSDP=1.45D-04 MaxDP=1.61D-02 DE=-1.08D-01 OVMax= 3.28D-02

 Cycle   5  Pass 1  IDiag  1:
 RMSU=  6.32D-05    CP:  9.72D-01  1.55D+00  7.03D-01  6.61D-01
 E= -3007.85932048062     Delta-E=       -0.018732342380 Rises=F Damp=F
 DIIS: error= 5.04D-04 at cycle   5 NSaved=   5.
 NSaved= 5 IEnMin= 5 EnMin= -3007.85932048062     IErMin= 5 ErrMin= 5.04D-04
 ErrMax= 5.04D-04  0.00D+00 EMaxC= 1.00D-01 BMatC= 4.93D-04 BMatP= 2.23D-02
 IDIUse=3 WtCom= 9.95D-01 WtEn= 5.04D-03
 Coeff-Com: -0.298D-01 0.566D-01 0.125D+00 0.236D+00 0.612D+00
 Coeff-En:   0.000D+00 0.000D+00 0.000D+00 0.000D+00 0.100D+01
 Coeff:     -0.296D-01 0.563D-01 0.124D+00 0.235D+00 0.614D+00
 Gap=     0.163 Goal=   None    Shift=    0.000
 RMSDP=2.84D-05 MaxDP=6.73D-03 DE=-1.87D-02 OVMax= 5.47D-03

 Cycle   6  Pass 1  IDiag  1:
 RMSU=  2.39D-05    CP:  9.72D-01  1.56D+00  7.03D-01  7.15D-01  8.84D-01
 E= -3007.85972256893     Delta-E=       -0.000402088310 Rises=F Damp=F
 DIIS: error= 2.33D-04 at cycle   6 NSaved=   6.
 NSaved= 6 IEnMin= 6 EnMin= -3007.85972256893     IErMin= 6 ErrMin= 2.33D-04
 ErrMax= 2.33D-04  0.00D+00 EMaxC= 1.00D-01 BMatC= 7.20D-05 BMatP= 4.93D-04
 IDIUse=3 WtCom= 9.98D-01 WtEn= 2.33D-03
 Coeff-Com:  0.104D-01-0.224D-01-0.195D-01-0.460D-02 0.280D+00 0.756D+00
 Coeff-En:   0.000D+00 0.000D+00 0.000D+00 0.000D+00 0.000D+00 0.100D+01
 Coeff:      0.104D-01-0.223D-01-0.195D-01-0.459D-02 0.279D+00 0.757D+00
 Gap=     0.164 Goal=   None    Shift=    0.000
 RMSDP=1.33D-05 MaxDP=1.20D-03 DE=-4.02D-04 OVMax= 4.87D-03

 Cycle   7  Pass 1  IDiag  1:
 RMSU=  8.74D-06    CP:  9.72D-01  1.56D+00  7.08D-01  7.32D-01  1.00D+00
                    CP:  9.37D-01
 E= -3007.85981323412     Delta-E=       -0.000090665193 Rises=F Damp=F
 DIIS: error= 6.32D-05 at cycle   7 NSaved=   7.
 NSaved= 7 IEnMin= 7 EnMin= -3007.85981323412     IErMin= 7 ErrMin= 6.32D-05
 ErrMax= 6.32D-05  0.00D+00 EMaxC= 1.00D-01 BMatC= 6.41D-06 BMatP= 7.20D-05
 IDIUse=1 WtCom= 1.00D+00 WtEn= 0.00D+00
 Coeff-Com:  0.627D-02-0.127D-01-0.169D-01-0.229D-01 0.419D-01 0.274D+00
 Coeff-Com:  0.730D+00
 Coeff:      0.627D-02-0.127D-01-0.169D-01-0.229D-01 0.419D-01 0.274D+00
 Coeff:      0.730D+00
 Gap=     0.164 Goal=   None    Shift=    0.000
 RMSDP=5.38D-06 MaxDP=1.29D-03 DE=-9.07D-05 OVMax= 1.61D-03

 Cycle   8  Pass 1  IDiag  1:
 RMSU=  3.65D-06    CP:  9.72D-01  1.56D+00  7.10D-01  7.38D-01  1.02D+00
                    CP:  1.07D+00  1.08D+00
 E= -3007.85982532504     Delta-E=       -0.000012090923 Rises=F Damp=F
 DIIS: error= 2.54D-05 at cycle   8 NSaved=   8.
 NSaved= 8 IEnMin= 8 EnMin= -3007.85982532504     IErMin= 8 ErrMin= 2.54D-05
 ErrMax= 2.54D-05  0.00D+00 EMaxC= 1.00D-01 BMatC= 1.74D-06 BMatP= 6.41D-06
 IDIUse=1 WtCom= 1.00D+00 WtEn= 0.00D+00
 Coeff-Com:  0.121D-02-0.219D-02-0.472D-02-0.112D-01-0.355D-01-0.105D-01
 Coeff-Com:  0.355D+00 0.708D+00
 Coeff:      0.121D-02-0.219D-02-0.472D-02-0.112D-01-0.355D-01-0.105D-01
 Coeff:      0.355D+00 0.708D+00
 Gap=     0.164 Goal=   None    Shift=    0.000
 RMSDP=2.82D-06 MaxDP=2.14D-04 DE=-1.21D-05 OVMax= 1.36D-03

 Cycle   9  Pass 1  IDiag  1:
 RMSU=  1.74D-06    CP:  9.72D-01  1.56D+00  7.10D-01  7.40D-01  1.04D+00
                    CP:  1.11D+00  1.27D+00  1.12D+00
 E= -3007.85982991094     Delta-E=       -0.000004585894 Rises=F Damp=F
 DIIS: error= 1.47D-05 at cycle   9 NSaved=   9.
 NSaved= 9 IEnMin= 9 EnMin= -3007.85982991094     IErMin= 9 ErrMin= 1.47D-05
 ErrMax= 1.47D-05  0.00D+00 EMaxC= 1.00D-01 BMatC= 3.40D-07 BMatP= 1.74D-06
 IDIUse=1 WtCom= 1.00D+00 WtEn= 0.00D+00
 Coeff-Com: -0.802D-03 0.169D-02 0.174D-02 0.413D-03-0.215D-01-0.576D-01
 Coeff-Com: -0.152D-01 0.264D+00 0.828D+00
 Coeff:     -0.802D-03 0.169D-02 0.174D-02 0.413D-03-0.215D-01-0.576D-01
 Coeff:     -0.152D-01 0.264D+00 0.828D+00
 Gap=     0.164 Goal=   None    Shift=    0.000
 RMSDP=1.97D-06 MaxDP=2.74D-04 DE=-4.59D-06 OVMax= 9.71D-04

 Cycle  10  Pass 1  IDiag  1:
 RMSU=  8.63D-07    CP:  9.72D-01  1.56D+00  7.10D-01  7.41D-01  1.04D+00
                    CP:  1.13D+00  1.37D+00  1.43D+00  1.38D+00
 E= -3007.85983166304     Delta-E=       -0.000001752098 Rises=F Damp=F
 DIIS: error= 1.29D-05 at cycle  10 NSaved=  10.
 NSaved=10 IEnMin=10 EnMin= -3007.85983166304     IErMin=10 ErrMin= 1.29D-05
 ErrMax= 1.29D-05  0.00D+00 EMaxC= 1.00D-01 BMatC= 9.60D-08 BMatP= 3.40D-07
 IDIUse=1 WtCom= 1.00D+00 WtEn= 0.00D+00
 Coeff-Com: -0.704D-03 0.137D-02 0.224D-02 0.378D-02 0.253D-02-0.199D-01
 Coeff-Com: -0.122D+00-0.110D+00 0.291D+00 0.950D+00
 Coeff:     -0.704D-03 0.137D-02 0.224D-02 0.378D-02 0.253D-02-0.199D-01
 Coeff:     -0.122D+00-0.110D+00 0.291D+00 0.950D+00
 Gap=     0.164 Goal=   None    Shift=    0.000
 RMSDP=1.58D-06 MaxDP=1.23D-04 DE=-1.75D-06 OVMax= 1.02D-03

 Cycle  11  Pass 1  IDiag  1:
 RMSU=  5.21D-07    CP:  9.72D-01  1.56D+00  7.10D-01  7.42D-01  1.04D+00
                    CP:  1.15D+00  1.45D+00  1.65D+00  1.89D+00  1.51D+00
 E= -3007.85983257799     Delta-E=       -0.000000914952 Rises=F Damp=F
 DIIS: error= 7.25D-06 at cycle  11 NSaved=  11.
 NSaved=11 IEnMin=11 EnMin= -3007.85983257799     IErMin=11 ErrMin= 7.25D-06
 ErrMax= 7.25D-06  0.00D+00 EMaxC= 1.00D-01 BMatC= 4.16D-08 BMatP= 9.60D-08
 IDIUse=1 WtCom= 1.00D+00 WtEn= 0.00D+00
 Coeff-Com: -0.691D-04 0.108D-03 0.447D-03 0.146D-02 0.635D-02 0.758D-02
 Coeff-Com: -0.448D-01-0.106D+00-0.137D+00 0.408D+00 0.864D+00
 Coeff:     -0.691D-04 0.108D-03 0.447D-03 0.146D-02 0.635D-02 0.758D-02
 Coeff:     -0.448D-01-0.106D+00-0.137D+00 0.408D+00 0.864D+00
 Gap=     0.164 Goal=   None    Shift=    0.000
 RMSDP=1.00D-06 MaxDP=7.54D-05 DE=-9.15D-07 OVMax= 5.87D-04

 Cycle  12  Pass 1  IDiag  1:
 RMSU=  2.77D-07    CP:  9.72D-01  1.56D+00  7.10D-01  7.42D-01  1.04D+00
                    CP:  1.15D+00  1.49D+00  1.79D+00  2.18D+00  2.08D+00
                    CP:  1.48D+00
 E= -3007.85983292392     Delta-E=       -0.000000345934 Rises=F Damp=F
 DIIS: error= 4.82D-06 at cycle  12 NSaved=  12.
 NSaved=12 IEnMin=12 EnMin= -3007.85983292392     IErMin=12 ErrMin= 4.82D-06
 ErrMax= 4.82D-06  0.00D+00 EMaxC= 1.00D-01 BMatC= 1.33D-08 BMatP= 4.16D-08
 IDIUse=1 WtCom= 1.00D+00 WtEn= 0.00D+00
 Coeff-Com:  0.308D-03-0.612D-03-0.889D-03-0.117D-02 0.800D-03 0.124D-01
 Coeff-Com:  0.425D-01 0.222D-01-0.205D+00-0.302D+00 0.298D+00 0.113D+01
 Coeff:      0.308D-03-0.612D-03-0.889D-03-0.117D-02 0.800D-03 0.124D-01
 Coeff:      0.425D-01 0.222D-01-0.205D+00-0.302D+00 0.298D+00 0.113D+01
 Gap=     0.164 Goal=   None    Shift=    0.000
 RMSDP=8.84D-07 MaxDP=6.47D-05 DE=-3.46D-07 OVMax= 5.70D-04

 Cycle  13  Pass 1  IDiag  1:
 RMSU=  1.60D-07    CP:  9.72D-01  1.56D+00  7.10D-01  7.42D-01  1.04D+00
                    CP:  1.15D+00  1.51D+00  1.88D+00  2.44D+00  2.59D+00
                    CP:  2.25D+00  1.61D+00
 E= -3007.85983308624     Delta-E=       -0.000000162314 Rises=F Damp=F
 DIIS: error= 1.62D-06 at cycle  13 NSaved=  13.
 NSaved=13 IEnMin=13 EnMin= -3007.85983308624     IErMin=13 ErrMin= 1.62D-06
 ErrMax= 1.62D-06  0.00D+00 EMaxC= 1.00D-01 BMatC= 3.91D-09 BMatP= 1.33D-08
 IDIUse=1 WtCom= 1.00D+00 WtEn= 0.00D+00
 Coeff-Com:  0.177D-03-0.345D-03-0.577D-03-0.970D-03-0.139D-02 0.404D-02
 Coeff-Com:  0.330D-01 0.413D-01-0.672D-01-0.260D+00-0.902D-01 0.562D+00
 Coeff-Com:  0.779D+00
 Coeff:      0.177D-03-0.345D-03-0.577D-03-0.970D-03-0.139D-02 0.404D-02
 Coeff:      0.330D-01 0.413D-01-0.672D-01-0.260D+00-0.902D-01 0.562D+00
 Coeff:      0.779D+00
 Gap=     0.164 Goal=   None    Shift=    0.000
 RMSDP=3.69D-07 MaxDP=2.51D-05 DE=-1.62D-07 OVMax= 2.19D-04

 Cycle  14  Pass 1  IDiag  1:
 RMSU=  7.47D-08    CP:  9.72D-01  1.56D+00  7.10D-01  7.43D-01  1.04D+00
                    CP:  1.15D+00  1.52D+00  1.91D+00  2.54D+00  2.80D+00
                    CP:  2.59D+00  2.00D+00  1.19D+00
 E= -3007.85983311184     Delta-E=       -0.000000025610 Rises=F Damp=F
 DIIS: error= 5.91D-07 at cycle  14 NSaved=  14.
 NSaved=14 IEnMin=14 EnMin= -3007.85983311184     IErMin=14 ErrMin= 5.91D-07
 ErrMax= 5.91D-07  0.00D+00 EMaxC= 1.00D-01 BMatC= 6.34D-10 BMatP= 3.91D-09
 IDIUse=1 WtCom= 1.00D+00 WtEn= 0.00D+00
 Coeff-Com:  0.173D-05-0.480D-06-0.295D-04-0.108D-03-0.696D-03-0.118D-02
 Coeff-Com:  0.287D-02 0.110D-01 0.193D-01-0.286D-01-0.989D-01-0.320D-01
 Coeff-Com:  0.282D+00 0.846D+00
 Coeff:      0.173D-05-0.480D-06-0.295D-04-0.108D-03-0.696D-03-0.118D-02
 Coeff:      0.287D-02 0.110D-01 0.193D-01-0.286D-01-0.989D-01-0.320D-01
 Coeff:      0.282D+00 0.846D+00
 Gap=     0.164 Goal=   None    Shift=    0.000
 RMSDP=1.18D-07 MaxDP=1.27D-05 DE=-2.56D-08 OVMax= 6.57D-05

 Cycle  15  Pass 1  IDiag  1:
 RMSU=  3.63D-08    CP:  9.72D-01  1.56D+00  7.10D-01  7.43D-01  1.04D+00
                    CP:  1.15D+00  1.53D+00  1.91D+00  2.56D+00  2.86D+00
                    CP:  2.71D+00  2.16D+00  1.45D+00  1.18D+00
 E= -3007.85983311491     Delta-E=       -0.000000003069 Rises=F Damp=F
 DIIS: error= 3.57D-07 at cycle  15 NSaved=  15.
 NSaved=15 IEnMin=15 EnMin= -3007.85983311491     IErMin=15 ErrMin= 3.57D-07
 ErrMax= 3.57D-07  0.00D+00 EMaxC= 1.00D-01 BMatC= 1.65D-10 BMatP= 6.34D-10
 IDIUse=1 WtCom= 1.00D+00 WtEn= 0.00D+00
 Coeff-Com: -0.358D-04 0.713D-04 0.106D-03 0.152D-03-0.409D-04-0.133D-02
 Coeff-Com: -0.563D-02-0.395D-02 0.205D-01 0.387D-01-0.232D-01-0.122D+00
 Coeff-Com: -0.448D-01 0.375D+00 0.767D+00
 Coeff:     -0.358D-04 0.713D-04 0.106D-03 0.152D-03-0.409D-04-0.133D-02
 Coeff:     -0.563D-02-0.395D-02 0.205D-01 0.387D-01-0.232D-01-0.122D+00
 Coeff:     -0.448D-01 0.375D+00 0.767D+00
 Gap=     0.164 Goal=   None    Shift=    0.000
 RMSDP=4.92D-08 MaxDP=3.40D-06 DE=-3.07D-09 OVMax= 3.12D-05

 Cycle  16  Pass 1  IDiag  1:
 RMSU=  2.00D-08    CP:  9.72D-01  1.56D+00  7.10D-01  7.43D-01  1.04D+00
                    CP:  1.15D+00  1.53D+00  1.92D+00  2.57D+00  2.88D+00
                    CP:  2.75D+00  2.22D+00  1.55D+00  1.43D+00  1.17D+00
 E= -3007.85983311563     Delta-E=       -0.000000000713 Rises=F Damp=F
 DIIS: error= 1.71D-07 at cycle  16 NSaved=  16.
 NSaved=16 IEnMin=16 EnMin= -3007.85983311563     IErMin=16 ErrMin= 1.71D-07
 ErrMax= 1.71D-07  0.00D+00 EMaxC= 1.00D-01 BMatC= 4.48D-11 BMatP= 1.65D-10
 IDIUse=1 WtCom= 1.00D+00 WtEn= 0.00D+00
 Coeff-Com: -0.130D-04 0.253D-04 0.432D-04 0.747D-04 0.115D-03-0.222D-03
 Coeff-Com: -0.270D-02-0.333D-02 0.489D-02 0.207D-01 0.787D-02-0.373D-01
 Coeff-Com: -0.773D-01-0.277D-01 0.318D+00 0.797D+00
 Coeff:     -0.130D-04 0.253D-04 0.432D-04 0.747D-04 0.115D-03-0.222D-03
 Coeff:     -0.270D-02-0.333D-02 0.489D-02 0.207D-01 0.787D-02-0.373D-01
 Coeff:     -0.773D-01-0.277D-01 0.318D+00 0.797D+00
 Gap=     0.164 Goal=   None    Shift=    0.000
 RMSDP=2.37D-08 MaxDP=2.93D-06 DE=-7.13D-10 OVMax= 1.41D-05

 Cycle  17  Pass 1  IDiag  1:
 RMSU=  9.70D-09    CP:  9.72D-01  1.56D+00  7.10D-01  7.43D-01  1.04D+00
                    CP:  1.15D+00  1.53D+00  1.92D+00  2.57D+00  2.89D+00
                    CP:  2.76D+00  2.24D+00  1.61D+00  1.55D+00  1.49D+00
                    CP:  1.43D+00
 E= -3007.85983311604     Delta-E=       -0.000000000415 Rises=F Damp=F
 DIIS: error= 1.31D-07 at cycle  17 NSaved=  17.
 NSaved=17 IEnMin=17 EnMin= -3007.85983311604     IErMin=17 ErrMin= 1.31D-07
 ErrMax= 1.31D-07  0.00D+00 EMaxC= 1.00D-01 BMatC= 1.32D-11 BMatP= 4.48D-11
 IDIUse=1 WtCom= 1.00D+00 WtEn= 0.00D+00
 Coeff-Com:  0.846D-05-0.171D-04-0.249D-04-0.310D-04 0.420D-04 0.429D-03
 Coeff-Com:  0.110D-02 0.577D-03-0.611D-02-0.805D-02 0.854D-02 0.367D-01
 Coeff-Com: -0.903D-02-0.139D+00-0.138D+00 0.117D+00 0.114D+01
 Coeff:      0.846D-05-0.171D-04-0.249D-04-0.310D-04 0.420D-04 0.429D-03
 Coeff:      0.110D-02 0.577D-03-0.611D-02-0.805D-02 0.854D-02 0.367D-01
 Coeff:     -0.903D-02-0.139D+00-0.138D+00 0.117D+00 0.114D+01
 Gap=     0.164 Goal=   None    Shift=    0.000
 RMSDP=2.27D-08 MaxDP=1.69D-06 DE=-4.15D-10 OVMax= 1.57D-05

 Cycle  18  Pass 1  IDiag  1:
 RMSU=  6.01D-09    CP:  9.72D-01  1.56D+00  7.10D-01  7.43D-01  1.04D+00
                    CP:  1.15D+00  1.53D+00  1.91D+00  2.57D+00  2.89D+00
                    CP:  2.77D+00  2.25D+00  1.64D+00  1.66D+00  1.79D+00
                    CP:  2.10D+00  1.77D+00
 E= -3007.85983311615     Delta-E=       -0.000000000109 Rises=F Damp=F
 DIIS: error= 8.45D-08 at cycle  18 NSaved=  18.
 NSaved=18 IEnMin=18 EnMin= -3007.85983311615     IErMin=18 ErrMin= 8.45D-08
 ErrMax= 8.45D-08  0.00D+00 EMaxC= 1.00D-01 BMatC= 7.21D-12 BMatP= 1.32D-11
 IDIUse=1 WtCom= 1.00D+00 WtEn= 0.00D+00
 Coeff-Com:  0.841D-05-0.165D-04-0.278D-04-0.418D-04-0.365D-04 0.266D-03
 Coeff-Com:  0.145D-02 0.177D-02-0.437D-02-0.114D-01-0.906D-03 0.315D-01
 Coeff-Com:  0.264D-01-0.475D-01-0.158D+00-0.342D+00 0.501D+00 0.100D+01
 Coeff:      0.841D-05-0.165D-04-0.278D-04-0.418D-04-0.365D-04 0.266D-03
 Coeff:      0.145D-02 0.177D-02-0.437D-02-0.114D-01-0.906D-03 0.315D-01
 Coeff:      0.264D-01-0.475D-01-0.158D+00-0.342D+00 0.501D+00 0.100D+01
 Gap=     0.164 Goal=   None    Shift=    0.000
 RMSDP=1.83D-08 MaxDP=1.30D-06 DE=-1.09D-10 OVMax= 1.24D-05

 Cycle  19  Pass 1  IDiag  1:
 RMSU=  3.89D-09    CP:  9.72D-01  1.56D+00  7.10D-01  7.43D-01  1.04D+00
                    CP:  1.15D+00  1.53D+00  1.91D+00  2.57D+00  2.89D+00
                    CP:  2.77D+00  2.25D+00  1.66D+00  1.72D+00  2.03D+00
                    CP:  2.63D+00  2.63D+00  1.53D+00
 E= -3007.85983311626     Delta-E=       -0.000000000115 Rises=F Damp=F
 DIIS: error= 4.58D-08 at cycle  19 NSaved=  19.
 NSaved=19 IEnMin=19 EnMin= -3007.85983311626     IErMin=19 ErrMin= 4.58D-08
 ErrMax= 4.58D-08  0.00D+00 EMaxC= 1.00D-01 BMatC= 2.37D-12 BMatP= 7.21D-12
 IDIUse=1 WtCom= 1.00D+00 WtEn= 0.00D+00
 Coeff-Com: -0.126D-06 0.458D-06-0.148D-05-0.368D-05-0.389D-04-0.694D-04
 Coeff-Com:  0.932D-04 0.613D-03 0.640D-03-0.165D-02-0.465D-02-0.178D-02
 Coeff-Com:  0.151D-01 0.398D-01 0.772D-02-0.236D+00-0.245D+00 0.416D+00
 Coeff-Com:  0.101D+01
 Coeff:     -0.126D-06 0.458D-06-0.148D-05-0.368D-05-0.389D-04-0.694D-04
 Coeff:      0.932D-04 0.613D-03 0.640D-03-0.165D-02-0.465D-02-0.178D-02
 Coeff:      0.151D-01 0.398D-01 0.772D-02-0.236D+00-0.245D+00 0.416D+00
 Coeff:      0.101D+01
 Gap=     0.164 Goal=   None    Shift=    0.000
 RMSDP=1.24D-08 MaxDP=9.31D-07 DE=-1.15D-10 OVMax= 8.50D-06

 Cycle  20  Pass 1  IDiag  1:
 RMSU=  3.04D-09    CP:  9.72D-01  1.56D+00  7.10D-01  7.43D-01  1.04D+00
                    CP:  1.15D+00  1.53D+00  1.91D+00  2.57D+00  2.89D+00
                    CP:  2.78D+00  2.26D+00  1.67D+00  1.76D+00  2.18D+00
                    CP:  2.98D+00  3.00D+00  2.22D+00  1.33D+00
 E= -3007.85983311622     Delta-E=        0.000000000042 Rises=F Damp=F
 DIIS: error= 1.81D-08 at cycle  20 NSaved=  20.
 NSaved=20 IEnMin=19 EnMin= -3007.85983311626     IErMin=20 ErrMin= 1.81D-08
 ErrMax= 1.81D-08  0.00D+00 EMaxC= 1.00D-01 BMatC= 5.95D-13 BMatP= 2.37D-12
 IDIUse=1 WtCom= 1.00D+00 WtEn= 0.00D+00
 Coeff-Com: -0.274D-05 0.545D-05 0.820D-05 0.123D-04-0.761D-05-0.114D-03
 Coeff-Com: -0.444D-03-0.239D-03 0.169D-02 0.295D-02-0.158D-02-0.104D-01
 Coeff-Com: -0.165D-02 0.310D-01 0.571D-01-0.203D-01-0.256D+00-0.117D+00
 Coeff-Com:  0.459D+00 0.856D+00
 Coeff:     -0.274D-05 0.545D-05 0.820D-05 0.123D-04-0.761D-05-0.114D-03
 Coeff:     -0.444D-03-0.239D-03 0.169D-02 0.295D-02-0.158D-02-0.104D-01
 Coeff:     -0.165D-02 0.310D-01 0.571D-01-0.203D-01-0.256D+00-0.117D+00
 Coeff:      0.459D+00 0.856D+00
 Gap=     0.164 Goal=   None    Shift=    0.000
 RMSDP=5.67D-09 MaxDP=4.31D-07 DE= 4.18D-11 OVMax= 3.82D-06

 SCF Done:  E(RwB97XD) =  -3007.85983312     A.U. after   20 cycles
            NFock= 20  Conv=0.57D-08     -V/T= 2.0107
 KE= 2.976060078966D+03 PE=-2.644405469357D+04 EE= 1.073451646962D+04
 Leave Link  502 at Thu Apr 28 04:44:07 2022, MaxMem= 10066329600 cpu:           10535.1 elap:             457.1
 (Enter /sw/apps/gaussian-16.0/g16/l801.exe)
 DoSCS=F DFT=T ScalE2(SS,OS)=  1.000000  1.000000
 ExpMin= 3.36D-02 ExpMax= 4.95D+03 ExpMxC= 7.45D+02 IAcc=3 IRadAn=         5 AccDes= 0.00D+00
 HarFok:  IExCor=  205 AccDes= 0.00D+00 IRadAn=         5 IDoV=-2 UseB2=F ITyADJ=14
 ICtDFT= 12500011 ScaDFX=  1.000000  1.000000  1.000000  1.000000
 GSVD:  LWork=       -5460 too small for GESVD, short by       25550 words or       25550 for optimal perf.
 Largest valence mixing into a core orbital is  1.31D-04
 Largest core mixing into a valence orbital is  5.30D-05
 Range of M.O.s used for correlation:    71  1298
 NBasis=  1298 NAE=   246 NBE=   246 NFC=    70 NFV=     0
 NROrb=   1228 NOA=   176 NOB=   176 NVA=  1052 NVB=  1052
 Leave Link  801 at Thu Apr 28 04:44:08 2022, MaxMem= 10066329600 cpu:               6.6 elap:               0.3
 (Enter /sw/apps/gaussian-16.0/g16/l914.exe)
 RHF ground state
 Two-electron integrals replicated using symmetry.
 MDV= 10066329600 DFT=T DoStab=F Mixed=T DoRPA=T DoScal=F NonHer=T
 Making orbital integer symmetry assigments:
 Orbital symmetries:
       Occupied  (A) (A) (A) (A) (A) (A) (A) (A) (A) (A) (A) (A)
                 (A) (A) (A) (A) (A) (A) (A) (A) (A) (A) (A) (A)
                 (A) (A) (A) (A) (A) (A) (A) (A) (A) (A) (A) (A)
                 (A) (A) (A) (A) (A) (A) (A) (A) (A) (A) (A) (A)
                 (A) (A) (A) (A) (A) (A) (A) (A) (A) (A) (A) (A)
                 (A) (A) (A) (A) (A) (A) (A) (A) (A) (A) (A) (A)
                 (A) (A) (A) (A) (A) (A) (A) (A) (A) (A) (A) (A)
                 (A) (A) (A) (A) (A) (A) (A) (A) (A) (A) (A) (A)
                 (A) (A) (A) (A) (A) (A) (A) (A) (A) (A) (A) (A)
                 (A) (A) (A) (A) (A) (A) (A) (A) (A) (A) (A) (A)
                 (A) (A) (A) (A) (A) (A) (A) (A) (A) (A) (A) (A)
                 (A) (A) (A) (A) (A) (A) (A) (A) (A) (A) (A) (A)
                 (A) (A) (A) (A) (A) (A) (A) (A) (A) (A) (A) (A)
                 (A) (A) (A) (A) (A) (A) (A) (A) (A) (A) (A) (A)
                 (A) (A) (A) (A) (A) (A) (A) (A) (A) (A) (A) (A)
                 (A) (A) (A) (A) (A) (A) (A) (A) (A) (A) (A) (A)
                 (A) (A) (A) (A) (A) (A) (A) (A) (A) (A) (A) (A)
                 (A) (A) (A) (A) (A) (A) (A) (A) (A) (A) (A) (A)
                 (A) (A) (A) (A) (A) (A) (A) (A) (A) (A) (A) (A)
                 (A) (A) (A) (A) (A) (A) (A) (A) (A) (A) (A) (A)
                 (A) (A) (A) (A) (A) (A)
       Virtual   (A) (A) (A) (A) (A) (A) (A) (A) (A) (A) (A) (A)
                 (A) (A) (A) (A) (A) (A) (A) (A) (A) (A) (A) (A)
                 (A) (A) (A) (A) (A) (A) (A) (A) (A) (A) (A) (A)
                 (A) (A) (A) (A) (A) (A) (A) (A) (A) (A) (A) (A)
                 (A) (A) (A) (A) (A) (A) (A) (A) (A) (A) (A) (A)
                 (A) (A) (A) (A) (A) (A) (A) (A) (A) (A) (A) (A)
                 (A) (A) (A) (A) (A) (A) (A) (A) (A) (A) (A) (A)
                 (A) (A) (A) (A) (A) (A) (A) (A) (A) (A) (A) (A)
                 (A) (A) (A) (A) (A) (A) (A) (A) (A) (A) (A) (A)
                 (A) (A) (A) (A) (A) (A) (A) (A) (A) (A) (A) (A)
                 (A) (A) (A) (A) (A) (A) (A) (A) (A) (A) (A) (A)
                 (A) (A) (A) (A) (A) (A) (A) (A) (A) (A) (A) (A)
                 (A) (A) (A) (A) (A) (A) (A) (A) (A) (A) (A) (A)
                 (A) (A) (A) (A) (A) (A) (A) (A) (A) (A) (A) (A)
                 (A) (A) (A) (A) (A) (A) (A) (A) (A) (A) (A) (A)
                 (A) (A) (A) (A) (A) (A) (A) (A) (A) (A) (A) (A)
                 (A) (A) (A) (A) (A) (A) (A) (A) (A) (A) (A) (A)
                 (A) (A) (A) (A) (A) (A) (A) (A) (A) (A) (A) (A)
                 (A) (A) (A) (A) (A) (A) (A) (A) (A) (A) (A) (A)
                 (A) (A) (A) (A) (A) (A) (A) (A) (A) (A) (A) (A)
                 (A) (A) (A) (A) (A) (A) (A) (A) (A) (A) (A) (A)
                 (A) (A) (A) (A) (A) (A) (A) (A) (A) (A) (A) (A)
                 (A) (A) (A) (A) (A) (A) (A) (A) (A) (A) (A) (A)
                 (A) (A) (A) (A) (A) (A) (A) (A) (A) (A) (A) (A)
                 (A) (A) (A) (A) (A) (A) (A) (A) (A) (A) (A) (A)
                 (A) (A) (A) (A) (A) (A) (A) (A) (A) (A) (A) (A)
                 (A) (A) (A) (A) (A) (A) (A) (A) (A) (A) (A) (A)
                 (A) (A) (A) (A) (A) (A) (A) (A) (A) (A) (A) (A)
                 (A) (A) (A) (A) (A) (A) (A) (A) (A) (A) (A) (A)
                 (A) (A) (A) (A) (A) (A) (A) (A) (A) (A) (A) (A)
                 (A) (A) (A) (A) (A) (A) (A) (A) (A) (A) (A) (A)
                 (A) (A) (A) (A) (A) (A) (A) (A) (A) (A) (A) (A)
                 (A) (A) (A) (A) (A) (A) (A) (A) (A) (A) (A) (A)
                 (A) (A) (A) (A) (A) (A) (A) (A) (A) (A) (A) (A)
                 (A) (A) (A) (A) (A) (A) (A) (A) (A) (A) (A) (A)
                 (A) (A) (A) (A) (A) (A) (A) (A) (A) (A) (A) (A)
                 (A) (A) (A) (A) (A) (A) (A) (A) (A) (A) (A) (A)
                 (A) (A) (A) (A) (A) (A) (A) (A) (A) (A) (A) (A)
                 (A) (A) (A) (A) (A) (A) (A) (A) (A) (A) (A) (A)
                 (A) (A) (A) (A) (A) (A) (A) (A) (A) (A) (A) (A)
                 (A) (A) (A) (A) (A) (A) (A) (A) (A) (A) (A) (A)
                 (A) (A) (A) (A) (A) (A) (A) (A) (A) (A) (A) (A)
                 (A) (A) (A) (A) (A) (A) (A) (A) (A) (A) (A) (A)
                 (A) (A) (A) (A) (A) (A) (A) (A) (A) (A) (A) (A)
                 (A) (A) (A) (A) (A) (A) (A) (A) (A) (A) (A) (A)
                 (A) (A) (A) (A) (A) (A) (A) (A) (A) (A) (A) (A)
                 (A) (A) (A) (A) (A) (A) (A) (A) (A) (A) (A) (A)
                 (A) (A) (A) (A) (A) (A) (A) (A) (A) (A) (A) (A)
                 (A) (A) (A) (A) (A) (A) (A) (A) (A) (A) (A) (A)
                 (A) (A) (A) (A) (A) (A) (A) (A) (A) (A) (A) (A)
                 (A) (A) (A) (A) (A) (A) (A) (A) (A) (A) (A) (A)
                 (A) (A) (A) (A) (A) (A) (A) (A) (A) (A) (A) (A)
                 (A) (A) (A) (A) (A) (A) (A) (A) (A) (A) (A) (A)
                 (A) (A) (A) (A) (A) (A) (A) (A) (A) (A) (A) (A)
                 (A) (A) (A) (A) (A) (A) (A) (A) (A) (A) (A) (A)
                 (A) (A) (A) (A) (A) (A) (A) (A) (A) (A) (A) (A)
                 (A) (A) (A) (A) (A) (A) (A) (A) (A) (A) (A) (A)
                 (A) (A) (A) (A) (A) (A) (A) (A) (A) (A) (A) (A)
                 (A) (A) (A) (A) (A) (A) (A) (A) (A) (A) (A) (A)
                 (A) (A) (A) (A) (A) (A) (A) (A) (A) (A) (A) (A)
                 (A) (A) (A) (A) (A) (A) (A) (A) (A) (A) (A) (A)
                 (A) (A) (A) (A) (A) (A) (A) (A) (A) (A) (A) (A)
                 (A) (A) (A) (A) (A) (A) (A) (A) (A) (A) (A) (A)
                 (A) (A) (A) (A) (A) (A) (A) (A) (A) (A) (A) (A)
                 (A) (A) (A) (A) (A) (A) (A) (A) (A) (A) (A) (A)
                 (A) (A) (A) (A) (A) (A) (A) (A) (A) (A) (A) (A)
                 (A) (A) (A) (A) (A) (A) (A) (A) (A) (A) (A) (A)
                 (A) (A) (A) (A) (A) (A) (A) (A) (A) (A) (A) (A)
                 (A) (A) (A) (A) (A) (A) (A) (A) (A) (A) (A) (A)
                 (A) (A) (A) (A) (A) (A) (A) (A) (A) (A) (A) (A)
                 (A) (A) (A) (A) (A) (A) (A) (A) (A) (A) (A) (A)
                 (A) (A) (A) (A) (A) (A) (A) (A) (A) (A) (A) (A)
                 (A) (A) (A) (A) (A) (A) (A) (A) (A) (A) (A) (A)
                 (A) (A) (A) (A) (A) (A) (A) (A) (A) (A) (A) (A)
                 (A) (A) (A) (A) (A) (A) (A) (A) (A) (A) (A) (A)
                 (A) (A) (A) (A) (A) (A) (A) (A) (A) (A) (A) (A)
                 (A) (A) (A) (A) (A) (A) (A) (A) (A) (A) (A) (A)
                 (A) (A) (A) (A) (A) (A) (A) (A) (A) (A) (A) (A)
                 (A) (A) (A) (A) (A) (A) (A) (A) (A) (A) (A) (A)
                 (A) (A) (A) (A) (A) (A) (A) (A) (A) (A) (A) (A)
                 (A) (A) (A) (A) (A) (A) (A) (A) (A) (A) (A) (A)
                 (A) (A) (A) (A) (A) (A) (A) (A) (A) (A) (A) (A)
                 (A) (A) (A) (A) (A) (A) (A) (A) (A) (A) (A) (A)
                 (A) (A) (A) (A) (A) (A) (A) (A) (A) (A) (A) (A)
                 (A) (A) (A) (A) (A) (A) (A) (A) (A) (A) (A) (A)
                 (A) (A) (A) (A) (A) (A) (A) (A) (A) (A) (A) (A)
                 (A) (A) (A) (A) (A) (A) (A) (A) (A) (A) (A) (A)
                 (A) (A) (A) (A) (A) (A) (A) (A)
    20 initial guesses have been made.
 Convergence on wavefunction:    0.001000000000000
 Davidson Disk Diagonalization:  ConvIn= 1.00D-03 SkipCon=T Conv= 1.00D-03.
 Max sub-space:  2000 roots to seek:    20 dimension of matrix:       370304
 Iteration     1 Dimension    20 NMult     0 NNew     20
 CISAX will form    20 AO SS matrices at one time.
 NMat=    20 NSing=    20 JSym2X= 0.
 FoFJK:  IHMeth= 1 ICntrl=       0 DoSepK=T KAlg= 0 I1Cent=           0 FoldK=F
 IRaf=         1 NMat=      40 IRICut=       1 DoRegI=T DoRafI=F ISym2E= 0 IDoP0=3 IntGTp=3.
 FoFCou: FMM=T IPFlag=           0 FMFlag=      100000 FMFlg1=        2001
         NFxFlg=           0 DoJE=F BraDBF=F KetDBF=F FulRan=T
         wScrn=  0.000000 ICntrl=       500 IOpCl=  0 I1Cent=           0 NGrid=           0
         NMat0=   20 NMatS0=     20 NMatT0=    0 NMatD0=   20 NMtDS0=    0 NMtDT0=    0
 Symmetry not used in FoFCou.
 FMM levels:  10  Number of levels for PrismC:   9
 New state      3 was old state      5
 New state      4 was old state      7
 New state      5 was old state     12
 Excitation Energies [eV] at current iteration:
 Root      1 :     2.217278588367836
 Root      2 :     2.566779001652674
 Root      3 :     3.872793651426758
 Root      4 :     4.059915526386205
 Root      5 :     4.184886840728014
 Root      6 :     4.296714270922791
 Root      7 :     4.443531523445685
 Root      8 :     4.444784383437894
 Root      9 :     4.471353234736211
 Root     10 :     4.692812014643288
 Root     11 :     4.730874313015719
 Root     12 :     4.820407815375980
 Root     13 :     4.898033288139789
 Root     14 :     5.064569851556187
 Root     15 :     5.227428130418961
 Root     16 :     5.319627965275401
 Root     17 :     5.462522580181073
 Root     18 :     5.672018727352681
 Root     19 :     5.797474445318157
 Root     20 :     6.622610456380392
 Iteration     2 Dimension    30 NMult    20 NNew     10
 CISAX will form    10 AO SS matrices at one time.
 NMat=    10 NSing=    10 JSym2X= 0.
 Root      1 not converged, maximum delta is    0.075556420002303
 Root      2 not converged, maximum delta is    0.061926685613604
 Root      3 not converged, maximum delta is    0.126827676839716
 Root      4 not converged, maximum delta is    0.169005176464253
 Root      5 not converged, maximum delta is    0.045800809680549
 Excitation Energies [eV] at current iteration:
 Root      1 :     1.746700479187360   Change is   -0.470578109180476
 Root      2 :     2.145363268772819   Change is   -0.421415732879855
 Root      3 :     3.446462399527569   Change is   -0.426331251899190
 Root      4 :     3.587160908586678   Change is   -0.472754617799526
 Root      5 :     4.083981744865171   Change is   -0.100905095862843
 Iteration     3 Dimension    40 NMult    30 NNew     10
 CISAX will form    10 AO SS matrices at one time.
 NMat=    10 NSing=    10 JSym2X= 0.
 Root      1 not converged, maximum delta is    0.017680220609086
 Root      2 not converged, maximum delta is    0.013277744516748
 Root      3 not converged, maximum delta is    0.099291876041783
 Root      4 not converged, maximum delta is    0.146282601075158
 Root      5 not converged, maximum delta is    0.549073139017819
 Excitation Energies [eV] at current iteration:
 Root      1 :     1.711625537646605   Change is   -0.035074941540755
 Root      2 :     2.124108412034457   Change is   -0.021254856738362
 Root      3 :     3.417974931894121   Change is   -0.028487467633448
 Root      4 :     3.516965409341752   Change is   -0.070195499244926
 Root      5 :     3.920526361152276   Change is   -0.163455383712895
 Iteration     4 Dimension    50 NMult    40 NNew     10
 CISAX will form    10 AO SS matrices at one time.
 NMat=    10 NSing=    10 JSym2X= 0.
 Root      1 not converged, maximum delta is    0.004933654624863
 Root      2 not converged, maximum delta is    0.004424669358933
 Root      3 not converged, maximum delta is    0.020877086914638
 Root      4 not converged, maximum delta is    0.058863976413812
 Root      5 not converged, maximum delta is    0.078234316718635
 Excitation Energies [eV] at current iteration:
 Root      1 :     1.707895560560017   Change is   -0.003729977086588
 Root      2 :     2.121527524284499   Change is   -0.002580887749958
 Root      3 :     3.411952451623686   Change is   -0.006022480270435
 Root      4 :     3.497865759732931   Change is   -0.019099649608821
 Root      5 :     3.818878663663385   Change is   -0.101647697488891
 Iteration     5 Dimension    60 NMult    50 NNew     10
 CISAX will form    10 AO SS matrices at one time.
 NMat=    10 NSing=    10 JSym2X= 0.
 Root      1 not converged, maximum delta is    0.001174097366249
 Root      2 has converged.
 Root      3 not converged, maximum delta is    0.003757999454156
 Root      4 not converged, maximum delta is    0.046220408366231
 Root      5 not converged, maximum delta is    0.549153615570567
 Excitation Energies [eV] at current iteration:
 Root      1 :     1.707528822823880   Change is   -0.000366737736137
 Root      2 :     2.121297910202714   Change is   -0.000229614081784
 Root      3 :     3.411192101635290   Change is   -0.000760349988396
 Root      4 :     3.491187523049359   Change is   -0.006678236683572
 Root      5 :     3.733116589743627   Change is   -0.085762073919758
 Iteration     6 Dimension    68 NMult    60 NNew      8
 CISAX will form     8 AO SS matrices at one time.
 NMat=     8 NSing=     8 JSym2X= 0.
 Root      1 has converged.
 Root      2 has converged.
 Root      3 not converged, maximum delta is    0.001072936320546
 Root      4 not converged, maximum delta is    0.021629787029130
 Root      5 not converged, maximum delta is    0.088124663254821
 Excitation Energies [eV] at current iteration:
 Root      1 :     1.707498857761157   Change is   -0.000029965062723
 Root      2 :     2.121295084138382   Change is   -0.000002826064332
 Root      3 :     3.411091683437729   Change is   -0.000100418197561
 Root      4 :     3.489139056698426   Change is   -0.002048466350933
 Root      5 :     3.683079200161762   Change is   -0.050037389581864
 Iteration     7 Dimension    74 NMult    68 NNew      6
 CISAX will form     6 AO SS matrices at one time.
 NMat=     6 NSing=     6 JSym2X= 0.
 Root      1 has converged.
 Root      2 has converged.
 Root      3 has converged.
 Root      4 not converged, maximum delta is    0.003127703234267
 Root      5 not converged, maximum delta is    0.010282250059367
 Excitation Energies [eV] at current iteration:
 Root      1 :     1.707498721673703   Change is   -0.000000136087453
 Root      2 :     2.121294036378488   Change is   -0.000001047759895
 Root      3 :     3.411078332222548   Change is   -0.000013351215181
 Root      4 :     3.488850381530428   Change is   -0.000288675167998
 Root      5 :     3.676934342541452   Change is   -0.006144857620310
 Iteration     8 Dimension    78 NMult    74 NNew      4
 CISAX will form     4 AO SS matrices at one time.
 NMat=     4 NSing=     4 JSym2X= 0.
 Root      1 has converged.
 Root      2 has converged.
 Root      3 has converged.
 Root      4 has converged.
 Root      5 not converged, maximum delta is    0.003943804555823
 Excitation Energies [eV] at current iteration:
 Root      1 :     1.707498667606778   Change is   -0.000000054066926
 Root      2 :     2.121293776862531   Change is   -0.000000259515957
 Root      3 :     3.411077444086660   Change is   -0.000000888135888
 Root      4 :     3.488801353605940   Change is   -0.000049027924488
 Root      5 :     3.676021971405403   Change is   -0.000912371136049
 Iteration     9 Dimension    80 NMult    78 NNew      2
 CISAX will form     2 AO SS matrices at one time.
 NMat=     2 NSing=     2 JSym2X= 0.
 Root      1 has converged.
 Root      2 has converged.
 Root      3 has converged.
 Root      4 has converged.
 Root      5 not converged, maximum delta is    0.003065592056068
 Excitation Energies [eV] at current iteration:
 Root      1 :     1.707498586962608   Change is   -0.000000080644169
 Root      2 :     2.121293485333839   Change is   -0.000000291528692
 Root      3 :     3.411077307397003   Change is   -0.000000136689657
 Root      4 :     3.488791553333601   Change is   -0.000009800272339
 Root      5 :     3.675846759908235   Change is   -0.000175211497168
 Iteration    10 Dimension    82 NMult    80 NNew      2
 CISAX will form     2 AO SS matrices at one time.
 NMat=     2 NSing=     2 JSym2X= 0.
 Root      1 has converged.
 Root      2 has converged.
 Root      3 has converged.
 Root      4 has converged.
 Root      5 not converged, maximum delta is    0.004848336848362
 Excitation Energies [eV] at current iteration:
 Root      1 :     1.707498539327321   Change is   -0.000000047635287
 Root      2 :     2.121293283474287   Change is   -0.000000201859551
 Root      3 :     3.411076834806457   Change is   -0.000000472590546
 Root      4 :     3.488783005326977   Change is   -0.000008548006624
 Root      5 :     3.675745560792662   Change is   -0.000101199115573
 Iteration    11 Dimension    84 NMult    82 NNew      2
 CISAX will form     2 AO SS matrices at one time.
 NMat=     2 NSing=     2 JSym2X= 0.
 Root      1 has converged.
 Root      2 has converged.
 Root      3 has converged.
 Root      4 not converged, maximum delta is    0.001000176048404
 Root      5 not converged, maximum delta is    0.007001744565929
 Excitation Energies [eV] at current iteration:
 Root      1 :     1.707498537428097   Change is   -0.000000001899224
 Root      2 :     2.121293105615027   Change is   -0.000000177859261
 Root      3 :     3.411076161790475   Change is   -0.000000673015982
 Root      4 :     3.488775328900075   Change is   -0.000007676426902
 Root      5 :     3.675648609192489   Change is   -0.000096951600173
 Iteration    12 Dimension    88 NMult    84 NNew      4
 CISAX will form     4 AO SS matrices at one time.
 NMat=     4 NSing=     4 JSym2X= 0.
 Root      1 has converged.
 Root      2 has converged.
 Root      3 has converged.
 Root      4 has converged.
 Root      5 not converged, maximum delta is    0.005095815780829
 Excitation Energies [eV] at current iteration:
 Root      1 :     1.707498514334289   Change is   -0.000000023093808
 Root      2 :     2.121292804423561   Change is   -0.000000301191465
 Root      3 :     3.411075731806780   Change is   -0.000000429983694
 Root      4 :     3.488769157284262   Change is   -0.000006171615813
 Root      5 :     3.675592115070463   Change is   -0.000056494122026
 Iteration    13 Dimension    90 NMult    88 NNew      2
 CISAX will form     2 AO SS matrices at one time.
 NMat=     2 NSing=     2 JSym2X= 0.
 Root      1 has converged.
 Root      2 has converged.
 Root      3 has converged.
 Root      4 has converged.
 Root      5 not converged, maximum delta is    0.001623328262244
 Excitation Energies [eV] at current iteration:
 Root      1 :     1.707498513184008   Change is   -0.000000001150281
[...]
 Alpha virt. eigenvalues --    1.35677   1.36239   1.36891   1.37312   1.37893
 Alpha virt. eigenvalues --    1.38461   1.38840   1.39188   1.39544   1.39859
 Alpha virt. eigenvalues --    1.40192   1.40536   1.41080   1.41133   1.41643
 Alpha virt. eigenvalues --    1.42096   1.42781   1.43377   1.43565   1.43593
 Alpha virt. eigenvalues --    1.43863   1.44043   1.44989   1.45284   1.45789
 Alpha virt. eigenvalues --    1.46507   1.46610   1.46912   1.47005   1.47402
 Alpha virt. eigenvalues --    1.47955   1.48397   1.48887   1.49197   1.49845
 Alpha virt. eigenvalues --    1.50024   1.50381   1.51067   1.51133   1.51925
 Alpha virt. eigenvalues --    1.52015   1.52974   1.53210   1.53296   1.53429
 Alpha virt. eigenvalues --    1.54150   1.56054   1.56199   1.57053   1.57329
 Alpha virt. eigenvalues --    1.57835   1.57968   1.58302   1.58415   1.58631
 Alpha virt. eigenvalues --    1.58779   1.59566   1.59791   1.60319   1.60567
 Alpha virt. eigenvalues --    1.60924   1.61018   1.61219   1.61507   1.61736
 Alpha virt. eigenvalues --    1.61976   1.62163   1.62308   1.62632   1.63099
 Alpha virt. eigenvalues --    1.63356   1.63484   1.63890   1.64021   1.64292
 Alpha virt. eigenvalues --    1.64474   1.64574   1.64965   1.65552   1.65811
 Alpha virt. eigenvalues --    1.66049   1.66473   1.66666   1.66753   1.67168
 Alpha virt. eigenvalues --    1.67703   1.68021   1.68167   1.68425   1.68957
 Alpha virt. eigenvalues --    1.69165   1.69336   1.69950   1.70541   1.70807
 Alpha virt. eigenvalues --    1.70950   1.71452   1.71678   1.71827   1.72162
 Alpha virt. eigenvalues --    1.73627   1.73715   1.74073   1.74827   1.75038
 Alpha virt. eigenvalues --    1.75764   1.75871   1.76412   1.76540   1.77308
 Alpha virt. eigenvalues --    1.77466   1.77807   1.78275   1.78530   1.78578
 Alpha virt. eigenvalues --    1.79264   1.79612   1.80116   1.80231   1.80469
 Alpha virt. eigenvalues --    1.80712   1.80991   1.81023   1.81493   1.81649
 Alpha virt. eigenvalues --    1.81929   1.82141   1.82541   1.82694   1.82883
 Alpha virt. eigenvalues --    1.83263   1.83394   1.83846   1.84342   1.84446
 Alpha virt. eigenvalues --    1.84944   1.85026   1.85162   1.85320   1.85556
 Alpha virt. eigenvalues --    1.85671   1.85785   1.85901   1.86252   1.86375
 Alpha virt. eigenvalues --    1.86645   1.86828   1.87127   1.87203   1.87264
 Alpha virt. eigenvalues --    1.87404   1.87578   1.87737   1.87916   1.88119
 Alpha virt. eigenvalues --    1.88408   1.88636   1.88766   1.88897   1.89136
 Alpha virt. eigenvalues --    1.89180   1.89423   1.90055   1.90118   1.90183
 Alpha virt. eigenvalues --    1.90349   1.90604   1.90700   1.90792   1.90831
 Alpha virt. eigenvalues --    1.91197   1.91374   1.91431   1.91725   1.92059
 Alpha virt. eigenvalues --    1.92197   1.92376   1.92798   1.92830   1.93006
 Alpha virt. eigenvalues --    1.93351   1.93768   1.93873   1.94053   1.94220
 Alpha virt. eigenvalues --    1.94404   1.94829   1.94884   1.95223   1.95444
 Alpha virt. eigenvalues --    1.95713   1.95896   1.96061   1.96109   1.96449
 Alpha virt. eigenvalues --    1.96606   1.96688   1.97008   1.97786   1.97845
 Alpha virt. eigenvalues --    1.97914   1.98209   1.98351   1.98573   1.98640
 Alpha virt. eigenvalues --    1.98907   1.99361   1.99875   2.00122   2.00381
 Alpha virt. eigenvalues --    2.00525   2.00698   2.00901   2.01339   2.01929
 Alpha virt. eigenvalues --    2.02308   2.02362   2.02455   2.02824   2.03024
 Alpha virt. eigenvalues --    2.03228   2.03515   2.03838   2.03952   2.04128
 Alpha virt. eigenvalues --    2.04678   2.04791   2.04958   2.05061   2.05632
 Alpha virt. eigenvalues --    2.06004   2.06155   2.06784   2.06813   2.07065
 Alpha virt. eigenvalues --    2.07288   2.07441   2.07621   2.08128   2.08722
 Alpha virt. eigenvalues --    2.08969   2.09163   2.09493   2.09949   2.10979
 Alpha virt. eigenvalues --    2.11119   2.11222   2.11610   2.11909   2.12209
 Alpha virt. eigenvalues --    2.12375   2.13175   2.13218   2.13872   2.13981
 Alpha virt. eigenvalues --    2.14387   2.14617   2.15064   2.15136   2.15568
 Alpha virt. eigenvalues --    2.16008   2.16121   2.16516   2.16752   2.16917
 Alpha virt. eigenvalues --    2.17083   2.17295   2.17766   2.18053   2.18531
 Alpha virt. eigenvalues --    2.19161   2.19418   2.19499   2.19531   2.19728
 Alpha virt. eigenvalues --    2.20000   2.20312   2.20551   2.20646   2.20887
 Alpha virt. eigenvalues --    2.21529   2.21903   2.21909   2.22129   2.22970
 Alpha virt. eigenvalues --    2.23280   2.23588   2.24083   2.24447   2.24579
 Alpha virt. eigenvalues --    2.24767   2.25470   2.26066   2.26720   2.26730
 Alpha virt. eigenvalues --    2.26888   2.27654   2.28089   2.29445   2.29871
 Alpha virt. eigenvalues --    2.29975   2.30063   2.30453   2.30507   2.31438
 Alpha virt. eigenvalues --    2.31783   2.31837   2.32432   2.32735   2.33285
 Alpha virt. eigenvalues --    2.33656   2.33842   2.34364   2.35283   2.35505
 Alpha virt. eigenvalues --    2.35548   2.35760   2.35964   2.36394   2.36939
 Alpha virt. eigenvalues --    2.37384   2.37616   2.38037   2.38229   2.39075
 Alpha virt. eigenvalues --    2.39436   2.39869   2.40299   2.40432   2.40769
 Alpha virt. eigenvalues --    2.41002   2.41202   2.41499   2.41844   2.42481
 Alpha virt. eigenvalues --    2.42716   2.43053   2.43412   2.43767   2.43881
 Alpha virt. eigenvalues --    2.44488   2.44859   2.45084   2.45225   2.45446
 Alpha virt. eigenvalues --    2.45891   2.46167   2.46366   2.46875   2.48380
 Alpha virt. eigenvalues --    2.48650   2.48957   2.49083   2.49163   2.49397
 Alpha virt. eigenvalues --    2.49971   2.50323   2.50587   2.50667   2.51161
 Alpha virt. eigenvalues --    2.51538   2.52135   2.52639   2.52986   2.53319
 Alpha virt. eigenvalues --    2.53634   2.53817   2.53848   2.54171   2.54651
 Alpha virt. eigenvalues --    2.54753   2.55626   2.55885   2.56093   2.57110
 Alpha virt. eigenvalues --    2.57281   2.57809   2.57857   2.58037   2.58586
 Alpha virt. eigenvalues --    2.59523   2.60027   2.60427   2.61298   2.61608
 Alpha virt. eigenvalues --    2.62152   2.62802   2.63252   2.63584   2.64142
 Alpha virt. eigenvalues --    2.64489   2.64646   2.65157   2.65454   2.65629
 Alpha virt. eigenvalues --    2.65977   2.66445   2.66564   2.66873   2.67631
 Alpha virt. eigenvalues --    2.68327   2.68539   2.68889   2.69431   2.69773
 Alpha virt. eigenvalues --    2.70460   2.70729   2.71238   2.71504   2.71927
 Alpha virt. eigenvalues --    2.72229   2.72801   2.72992   2.73337   2.73655
 Alpha virt. eigenvalues --    2.74302   2.74566   2.74817   2.75398   2.75471
 Alpha virt. eigenvalues --    2.76215   2.76404   2.76790   2.77275   2.77421
 Alpha virt. eigenvalues --    2.77627   2.78105   2.79267   2.79395   2.79627
 Alpha virt. eigenvalues --    2.80342   2.80357   2.80753   2.81537   2.81950
 Alpha virt. eigenvalues --    2.82027   2.82503   2.82780   2.83169   2.83731
 Alpha virt. eigenvalues --    2.84487   2.85513   2.85778   2.85937   2.86071
 Alpha virt. eigenvalues --    2.86785   2.86985   2.87431   2.88205   2.89024
 Alpha virt. eigenvalues --    2.89382   2.89632   2.90448   2.90785   2.91007
 Alpha virt. eigenvalues --    2.91601   2.91827   2.92213   2.93152   2.93469
 Alpha virt. eigenvalues --    2.93694   2.94686   2.95226   2.95708   2.95806
 Alpha virt. eigenvalues --    2.96140   2.96371   2.97282   2.97696   2.97894
 Alpha virt. eigenvalues --    2.98330   2.99229   2.99440   3.00046   3.00407
 Alpha virt. eigenvalues --    3.00601   3.00840   3.00883   3.01164   3.01213
 Alpha virt. eigenvalues --    3.01855   3.02114   3.02192   3.02342   3.02769
 Alpha virt. eigenvalues --    3.03079   3.03266   3.03377   3.03752   3.04058
 Alpha virt. eigenvalues --    3.04231   3.04328   3.04857   3.04970   3.05212
 Alpha virt. eigenvalues --    3.05839   3.05937   3.06263   3.06391   3.06662
 Alpha virt. eigenvalues --    3.06814   3.07053   3.07268   3.07709   3.08217
 Alpha virt. eigenvalues --    3.08294   3.08492   3.08849   3.09486   3.09612
 Alpha virt. eigenvalues --    3.09842   3.10416   3.10564   3.10931   3.11659
 Alpha virt. eigenvalues --    3.11876   3.12252   3.13261   3.13558   3.13742
 Alpha virt. eigenvalues --    3.14640   3.15243   3.15380   3.15851   3.16012
 Alpha virt. eigenvalues --    3.16235   3.16787   3.17694   3.17755   3.18973
 Alpha virt. eigenvalues --    3.20222   3.21191   3.21897   3.22434   3.23528
 Alpha virt. eigenvalues --    3.24128   3.24796   3.25010   3.25013   3.25790
 Alpha virt. eigenvalues --    3.27455   3.29049   3.30337   3.31078   3.32019
 Alpha virt. eigenvalues --    3.33161   3.35514   3.40753   3.44327   3.47378
 Alpha virt. eigenvalues --    3.51057   3.51781   3.56483   3.59036   3.60182
 Alpha virt. eigenvalues --    3.61071   3.65025   3.68679   3.69829   3.73888
 Alpha virt. eigenvalues --    3.75315   3.80309
          Condensed to atoms (all electrons):
 Mulliken charges:
               1
     1  Mg   0.956880
     2  C   -0.005896
     3  C   -0.098318
     4  C   -0.046453
     5  C   -0.097991
     6  N   -0.312350
     7  C   -0.008827
     8  C   -0.076403
     9  C   -0.086140
    10  C    0.029646
    11  C    0.034618
    12  C    0.014129
    13  C    0.038878
    14  C    0.213380
    15  O   -0.261324
    16  O   -0.422282
    17  N   -0.435458
    18  C    0.180392
    19  C   -0.174375
    20  C   -0.065754
    21  C    0.128231
    22  C    0.064834
    23  C    0.030730
    24  O   -0.225801
    25  C    0.006470
    26  N   -0.331099
    27  C    0.029110
    28  C   -0.123056
    29  C   -0.022499
    30  C    0.066980
    31  C    0.008364
    32  C   -0.045160
    33  C   -0.028480
    34  N   -0.437346
    35  C    0.096830
    36  C   -0.171024
    37  C   -0.033086
    38  C    0.147812
    39  C    0.072016
    40  C    0.121609
    41  O   -0.184475
    42  C   -0.112279
    43  C    0.253380
    44  O   -0.240170
    45  O   -0.375434
    46  C    0.141614
    47  C    0.263007
    48  C   -0.150991
    49  C   -0.215950
    50  C    0.026589
    51  C    0.015318
    52  C   -0.028451
    53  C   -0.013877
    54  C   -0.203717
    55  C    0.013334
    56  C    0.031147
    57  C   -0.026710
    58  C   -0.012182
    59  C   -0.202022
    60  C    0.020784
    61  C   -0.002997
    62  C   -0.015895
    63  C    0.001220
    64  C   -0.231878
    65  C    0.022116
    66  C   -0.006350
    67  H   -0.002284
    68  H    0.016117
    69  H   -0.022596
    70  H    0.034828
    71  H    0.030527
    72  H    0.056416
    73  H    0.047141
    74  H    0.038031
    75  H    0.028865
    76  H    0.072184
    77  H    0.055663
    78  H    0.077305
    79  H    0.036883
    80  H    0.024499
    81  H    0.063394
    82  H    0.049549
    83  H    0.054426
    84  H    0.059037
    85  H    0.050528
    86  H    0.029175
    87  H    0.047437
    88  H    0.032922
    89  H    0.054876
    90  H    0.029034
    91  H    0.035406
    92  H    0.046893
    93  H    0.037392
    94  H    0.029135
    95  H    0.037646
    96  H    0.060802
    97  H    0.049479
    98  H    0.080419
    99  H    0.058869
   100  H    0.052170
   101  H    0.054357
   102  H    0.040819
   103  H    0.039113
   104  H    0.028545
   105  H    0.038501
   106  H    0.023544
   107  H    0.056239
   108  H    0.048217
   109  H    0.018138
   110  H    0.033735
   111  H    0.024469
   112  H    0.019803
   113  H    0.017542
   114  H    0.016078
   115  H    0.007295
   116  H    0.025857
   117  H    0.030746
   118  H    0.009521
   119  H    0.026061
   120  H    0.035461
   121  H    0.022118
   122  H    0.024218
   123  H    0.014926
   124  H    0.028816
   125  H    0.033452
   126  H    0.023019
   127  H    0.036315
   128  H    0.017816
   129  H    0.021904
   130  H    0.016511
   131  H    0.019057
   132  H    0.013100
   133  H    0.002187
   134  H    0.030819
   135  H    0.028211
   136  H    0.034934
   137  H    0.010371
   138  H    0.018160
   139  H    0.026240
   140  H    0.034703
 Sum of Mulliken charges =  -0.00000
 Mulliken charges with hydrogens summed into heavy atoms:
               1
     1  Mg   0.956880
     2  C   -0.005896
     3  C   -0.100602
     4  C   -0.030336
     5  C   -0.120588
     6  N   -0.312350
     7  C   -0.008827
     8  C   -0.041576
     9  C   -0.055613
    10  C    0.029646
    11  C    0.176205
    12  C    0.115178
    13  C    0.171846
    14  C    0.213380
    15  O   -0.261324
    16  O   -0.422282
    17  N   -0.435458
    18  C    0.180392
    19  C   -0.174375
    20  C   -0.065754
    21  C    0.128231
    22  C    0.189610
    23  C    0.030730
    24  O   -0.225801
    25  C    0.169483
    26  N   -0.331099
    27  C    0.029110
    28  C   -0.072528
    29  C    0.006676
    30  C    0.066980
    31  C    0.143598
    32  C    0.019280
    33  C    0.084939
    34  N   -0.437346
    35  C    0.096830
    36  C   -0.171024
    37  C   -0.033086
    38  C    0.147812
    39  C    0.219943
    40  C    0.121609
    41  O   -0.184475
    42  C   -0.031860
    43  C    0.253380
    44  O   -0.240170
    45  O   -0.375434
    46  C    0.307009
    47  C    0.342939
    48  C   -0.122446
    49  C   -0.215950
    50  C    0.144873
    51  C    0.081672
    52  C    0.029753
    53  C    0.023468
    54  C   -0.187638
    55  C    0.077233
    56  C    0.066729
    57  C    0.030870
    58  C    0.026962
    59  C   -0.173207
    60  C    0.113570
    61  C    0.036722
    62  C    0.019673
    63  C    0.016507
    64  C   -0.201059
    65  C    0.095633
    66  C    0.072752
 Electronic spatial extent (au):  <R**2>=         102787.1391
 Charge=              0.0000 electrons
 Dipole moment (field-independent basis, Debye):
    X=              4.1874    Y=              3.6126    Z=             -1.3810  Tot=              5.7002
 Quadrupole moment (field-independent basis, Debye-Ang):
   XX=           -375.5033   YY=           -432.5973   ZZ=           -401.1905
   XY=            -26.1709   XZ=              2.7105   YZ=             -0.6954
 Traceless Quadrupole moment (field-independent basis, Debye-Ang):
   XX=             27.5938   YY=            -29.5003   ZZ=              1.9066
   XY=            -26.1709   XZ=              2.7105   YZ=             -0.6954
 Octapole moment (field-independent basis, Debye-Ang**2):
  XXX=           -266.2953  YYY=            -48.9732  ZZZ=            -23.4497  XYY=            289.9660
  XXY=            208.9327  XXZ=            -25.7012  XZZ=             -3.7662  YZZ=            -10.2150
  YYZ=             -5.7784  XYZ=              4.9481
 Hexadecapole moment (field-independent basis, Debye-Ang**3):
 XXXX=        -102452.0482 YYYY=         -26531.1426 ZZZZ=          -8375.8636 XXXY=          -2002.2899
 XXXZ=           -213.0562 YYYX=           -413.7311 YYYZ=            -67.3879 ZZZX=            -98.4164
 ZZZY=             48.4421 XXYY=         -23390.4511 XXZZ=         -19231.5489 YYZZ=          -5654.2676
 XXYZ=            207.9720 YYXZ=             54.2168 ZZXY=             65.5097
 N-N= 9.725618311866D+03 E-N=-2.644405470131D+04  KE= 2.976060078966D+03
 Leave Link  601 at Thu Apr 28 05:12:26 2022, MaxMem= 10066329600 cpu:              11.5 elap:               0.6
 (Enter /sw/apps/gaussian-16.0/g16/l9999.exe)
 1\1\GINC-BP1-COMPUTE134\SP\RwB97XD TD-FC\def2SVP\C55H74Mg1N4O6\OF15641
 \28-Apr-2022\0\\#p wB97XD/Def2SVP td=(nstates=5)\\step_1451_chromophor
 e_15 TDDFT with wB97XD functional\\0,1\Mg,0,46.746,34.337,27.908\C,0,4
 4.935,32.651,30.475\C,0,46.919,37.113,30.111\C,0,47.648,36.177,25.386\
 C,0,45.797,31.699,25.817\N,0,45.956,34.837,30.083\C,0,45.439,33.893,30
 .947\C,0,45.546,34.406,32.372\C,0,45.839,35.894,32.257\C,0,46.276,35.9
 89,30.751\C,0,44.698,36.808,32.827\C,0,46.783,33.617,33.029\C,0,47.279
 ,33.937,34.403\C,0,46.585,34.889,35.344\O,0,45.387,34.897,35.625\O,0,4
 7.501,35.893,35.92\N,0,47.353,36.403,27.781\C,0,47.331,37.335,28.789\C
 ,0,48.077,38.471,28.291\C,0,48.342,38.282,26.879\C,0,47.787,36.919,26.
 621\C,0,48.406,39.646,29.066\C,0,49.1,39.149,25.893\O,0,49.167,38.808,
 24.731\C,0,49.707,40.436,26.322\N,0,46.741,33.925,25.843\C,0,47.23,34.
 824,25.018\C,0,47.435,34.258,23.591\C,0,46.801,32.827,23.694\C,0,46.41
 9,32.798,25.207\C,0,46.858,35.248,22.491\C,0,47.745,31.708,23.248\C,0,
 47.184,30.391,22.759\N,0,45.735,32.535,28.044\C,0,45.409,31.559,27.097
 \C,0,44.752,30.481,27.712\C,0,44.492,30.911,28.987\C,0,45.135,32.132,2
 9.157\C,0,44.298,29.153,27.066\C,0,43.89,30.553,30.225\O,0,43.314,29.5
 64,30.588\C,0,43.942,31.848,31.092\C,0,44.054,31.412,32.561\O,0,44.973
 ,30.738,32.991\O,0,42.993,31.979,33.269\C,0,43.192,31.883,34.734\C,0,4
 6.816,36.839,36.815\C,0,47.709,37.843,37.465\C,0,47.409,38.992,38.083\
 C,0,46.038,39.274,38.604\C,0,48.479,39.925,38.489\C,0,49.866,40.06,37.
 636\C,0,50.223,41.566,37.596\C,0,49.84,42.167,36.169\C,0,50.819,41.599
 ,35.122\C,0,49.838,43.695,36.266\C,0,48.433,44.226,36.511\C,0,48.269,4
 4.493,38.02\C,0,47.379,45.807,38.154\C,0,48.276,47.03,38.418\C,0,46.29
 ,45.62,39.308\C,0,45.163,46.784,39.255\C,0,43.713,46.345,39.494\C,0,42
 .829,46.614,38.256\C,0,41.394,46.591,38.7\C,0,43.076,45.425,37.268\H,0
 ,47.022,37.986,30.759\H,0,47.998,36.708,24.498\H,0,45.468,30.799,25.29
 4\H,0,44.59,34.162,32.835\H,0,46.742,36.162,32.805\H,0,44.171,36.263,3
 3.61\H,0,43.995,37.067,32.035\H,0,45.209,37.651,33.292\H,0,47.6,33.979
 ,32.406\H,0,46.629,32.54,32.959\H,0,48.287,34.348,34.34\H,0,47.337,33.
 004,34.965\H,0,49.473,39.863,29.01\H,0,48.272,39.434,30.126\H,0,47.851
 ,40.544,28.795\H,0,50.325,40.324,27.213\H,0,48.84,41.041,26.585\H,0,50
 .284,40.866,25.503\H,0,48.511,34.176,23.434\H,0,45.905,32.84,23.074\H,
 0,46.125,35.884,22.988\H,0,46.37,34.639,21.73\H,0,47.587,35.885,21.99\
 H,0,48.299,31.392,24.133\H,0,48.46,32.065,22.507\H,0,47.293,29.581,23.
 48\H,0,47.754,30.198,21.85\H,0,46.135,30.579,22.531\H,0,43.813,29.346,
 26.109\H,0,43.551,28.658,27.687\H,0,45.127,28.482,26.839\H,0,42.961,32
 .32,31.041\H,0,42.999,30.88,35.115\H,0,42.408,32.507,35.164\H,0,44.167
 ,32.245,35.059\H,0,46.309,36.297,37.613\H,0,46.016,37.371,36.3\H,0,48.
 749,37.659,37.195\H,0,45.294,38.967,37.869\H,0,45.957,40.337,38.834\H,
 0,45.811,38.778,39.547\H,0,48.699,39.569,39.495\H,0,48.054,40.928,38.5
 34\H,0,49.72,39.524,36.698\H,0,50.617,39.509,38.203\H,0,51.285,41.626,
 37.835\H,0,49.705,42.157,38.351\H,0,48.894,41.674,35.942\H,0,51.082,42
 .403,34.436\H,0,50.321,40.882,34.47\H,0,51.789,41.224,35.449\H,0,50.13
 8,44.132,35.314\H,0,50.617,43.88,37.006\H,0,47.614,43.593,36.17\H,0,48
 .473,45.176,35.977\H,0,49.237,44.551,38.518\H,0,47.784,43.597,38.409\H
 ,0,46.808,45.932,37.233\H,0,48.402,47.473,37.43\H,0,49.239,46.669,38.7
 79\H,0,47.881,47.708,39.175\H,0,46.862,45.807,40.217\H,0,45.915,44.597
 ,39.297\H,0,45.106,47.4,38.358\H,0,45.477,47.484,40.029\H,0,43.308,46.
 711,40.438\H,0,43.676,45.28,39.722\H,0,43.077,47.577,37.81\H,0,41.028,
 47.616,38.634\H,0,41.212,46.148,39.679\H,0,40.8,46.036,37.974\H,0,42.1
 66,45.305,36.68\H,0,43.196,44.464,37.768\H,0,43.883,45.584,36.553\\Ver
 sion=ES64L-G16RevA.03\State=1-A\HF=-3007.8598331\RMSD=5.673e-09\PG=C01
  [X(C55H74Mg1N4O6)]\\@


 LET US LEARN TO DREAM, GENTLEMEN, THEN PERHAPS WE SHALL
 DISCOVER THE TRUTH;  BUT LET US BEWARE OF PUBLISHING
 OUR DREAMS ABROAD BEFORE THEY HAVE BEEN SCRUTINIZED
 BY OUR VIGILANT INTELLECT ... LET US ALWAYS ALLOW
 THE FRUIT TO HANG UNTIL IT IS RIPE.  UNRIPE FRUIT
 BRINGS EVEN THE GROWER BUT LITTLE PROFIT; IT DAMAGES
 THE HEALTH OF THOSE WHO CONSUME IT; IT ENDANGERS
 PARTICULARLY THE YOUTH WHO CANNOT YET DISTINGUISH
 BETWEEN RIPE AND UNRIPE FRUIT.

                                  -- KEKULE, 1890
 Job cpu time:       0 days 14 hours 13 minutes 10.6 seconds.
 Elapsed time:       0 days  0 hours 36 minutes  7.3 seconds.
 File lengths (MBytes):  RWF=   8929 Int=      0 D2E=      0 Chk=    390 Scr=      1
 Normal termination of Gaussian 16 at Thu Apr 28 05:12:27 2022.
