 Entering Gaussian System, Link 0=g16
 Initial command:
 /sw/apps/gaussian-16.0/g16/l1.exe "/tmp/Gau-57516.inp" -scrdir="/tmp/"
 Entering Link 1 = /sw/apps/gaussian-16.0/g16/l1.exe PID=     57517.
  
 Copyright (c) 1988,1990,1992,1993,1995,1998,2003,2009,2016,
            Gaussian, Inc.  All Rights Reserved.
  
 This is part of the Gaussian(R) 16 program.  It is based on
 the Gaussian(R) 09 system (copyright 2009, Gaussian, Inc.),
 the Gaussian(R) 03 system (copyright 2003, Gaussian, Inc.),
 the Gaussian(R) 98 system (copyright 1998, Gaussian, Inc.),
 the Gaussian(R) 94 system (copyright 1995, Gaussian, Inc.),
 the Gaussian 92(TM) system (copyright 1992, Gaussian, Inc.),
 the Gaussian 90(TM) system (copyright 1990, Gaussian, Inc.),
 the Gaussian 88(TM) system (copyright 1988, Gaussian, Inc.),
 the Gaussian 86(TM) system (copyright 1986, Carnegie Mellon
 University), and the Gaussian 82(TM) system (copyright 1983,
 Carnegie Mellon University). Gaussian is a federally registered
 trademark of Gaussian, Inc.
  
 This software contains proprietary and confidential information,
 including trade secrets, belonging to Gaussian, Inc.
  
 This software is provided under written license and may be
 used, copied, transmitted, or stored only in accord with that
 written license.
  
 The following legend is applicable only to US Government
 contracts under FAR:
  
                    RESTRICTED RIGHTS LEGEND
  
 Use, reproduction and disclosure by the US Government is
 subject to restrictions as set forth in subparagraphs (a)
 and (c) of the Commercial Computer Software - Restricted
 Rights clause in FAR 52.227-19.
  
 Gaussian, Inc.
 340 Quinnipiac St., Bldg. 40, Wallingford CT 06492
  
  
 ---------------------------------------------------------------
 Warning -- This program may not be used in any manner that
 competes with the business of Gaussian, Inc. or will provide
 assistance to any competitor of Gaussian, Inc.  The licensee
 of this program is prohibited from giving any competitor of
 Gaussian, Inc. access to this program.  By using this program,
 the user acknowledges that Gaussian, Inc. is engaged in the
 business of creating and licensing software in the field of
 computational chemistry and represents and warrants to the
 licensee that it is not a competitor of Gaussian, Inc. and that
 it will not use this program in any manner prohibited above.
 ---------------------------------------------------------------
  

 Cite this work as:
 Gaussian 16, Revision A.03,
 M. J. Frisch, G. W. Trucks, H. B. Schlegel, G. E. Scuseria, 
 M. A. Robb, J. R. Cheeseman, G. Scalmani, V. Barone, 
 G. A. Petersson, H. Nakatsuji, X. Li, M. Caricato, A. V. Marenich, 
 J. Bloino, B. G. Janesko, R. Gomperts, B. Mennucci, H. P. Hratchian, 
 J. V. Ortiz, A. F. Izmaylov, J. L. Sonnenberg, D. Williams-Young, 
 F. Ding, F. Lipparini, F. Egidi, J. Goings, B. Peng, A. Petrone, 
 T. Henderson, D. Ranasinghe, V. G. Zakrzewski, J. Gao, N. Rega, 
 G. Zheng, W. Liang, M. Hada, M. Ehara, K. Toyota, R. Fukuda, 
 J. Hasegawa, M. Ishida, T. Nakajima, Y. Honda, O. Kitao, H. Nakai, 
 T. Vreven, K. Throssell, J. A. Montgomery, Jr., J. E. Peralta, 
 F. Ogliaro, M. J. Bearpark, J. J. Heyd, E. N. Brothers, K. N. Kudin, 
 V. N. Staroverov, T. A. Keith, R. Kobayashi, J. Normand, 
 K. Raghavachari, A. P. Rendell, J. C. Burant, S. S. Iyengar, 
 J. Tomasi, M. Cossi, J. M. Millam, M. Klene, C. Adamo, R. Cammi, 
 J. W. Ochterski, R. L. Martin, K. Morokuma, O. Farkas, 
 J. B. Foresman, and D. J. Fox, Gaussian, Inc., Wallingford CT, 2016.
 
 ******************************************
 Gaussian 16:  ES64L-G16RevA.03 25-Dec-2016
                 4-May-2022 
 ******************************************
 %nproc=24
 Will use up to   24 processors via shared memory.
 %mem=50gb
 --------------------
 #p ZINDO=(nstates=5)
 --------------------
 1/38=1,172=1/1;
 2/12=2,17=6,18=5,40=1/2;
 3/5=2,25=1,41=400000/1,2,3,8;
 4/5=3,35=1/1;
 5/5=2,35=1,38=5/2;
 8/6=1,108=5/1;
 9/41=5,42=1,49=10/14;
 6/7=2,8=2,9=2,10=2/1;
 99/5=1,9=1/99;
 Leave Link    1 at Wed May  4 21:27:48 2022, MaxMem=  6710886400 cpu:               0.8 elap:               0.0
 (Enter /sw/apps/gaussian-16.0/g16/l101.exe)
 -----------------------------
 step_451_chromophore_11 ZINDO
 -----------------------------
 Symbolic Z-matrix:
 Charge =  0 Multiplicity = 1
 Mg                    53.169    23.461    44.132 
 C                     50.319    25.383    43.868 
 C                     51.278    20.694    44.003 
 C                     55.956    21.71     43.872 
 C                     54.986    26.402    44.515 
 N                     51.1      23.107    43.67 
 C                     50.092    24.029    43.658 
 C                     48.696    23.362    43.688 
 C                     49.083    21.932    44.242 
 C                     50.585    21.856    43.907 
 C                     48.771    21.646    45.785 
 C                     48.       23.429    42.232 
 C                     48.827    22.687    41.143 
 C                     49.141    23.56     39.913 
 O                     49.977    24.435    39.829 
 O                     48.263    23.158    38.884 
 N                     53.592    21.465    43.824 
 C                     52.639    20.468    43.87 
 C                     53.304    19.185    43.687 
 C                     54.712    19.431    43.65 
 C                     54.811    20.926    43.818 
 C                     52.558    17.816    43.686 
 C                     55.789    18.435    43.476 
 O                     55.431    17.253    43.42 
 C                     57.287    18.748    43.357 
 N                     55.197    23.969    44.104 
 C                     56.169    23.07     44.042 
 C                     57.512    23.661    43.913 
 C                     57.237    25.228    44.225 
 C                     55.731    25.219    44.257 
 C                     58.625    23.077    44.811 
 C                     57.848    26.184    43.152 
 C                     58.7      27.326    43.666 
 N                     52.806    25.484    44.24 
 C                     53.615    26.542    44.56 
 C                     52.763    27.699    44.82 
 C                     51.481    27.242    44.542 
 C                     51.588    25.91     44.123 
 C                     53.145    29.106    45.204 
 C                     50.108    27.715    44.52 
 O                     49.649    28.814    44.861 
 C                     49.268    26.551    43.917 
 C                     48.915    27.032    42.584 
 O                     49.672    27.14     41.631 
 O                     47.565    27.236    42.561 
 C                     47.096    27.744    41.267 
 C                     48.482    23.828    37.643 
 C                     49.586    23.179    36.972 
 C                     49.767    21.797    36.747 
 C                     48.758    20.715    36.894 
 C                     51.041    21.424    36.06 
 C                     51.014    20.591    34.768 
 C                     52.342    20.054    34.368 
 C                     52.508    18.496    34.602 
 C                     53.095    18.167    35.983 
 C                     53.423    17.771    33.512 
 C                     52.575    16.79     32.563 
 C                     53.435    15.679    32.051 
 C                     52.659    14.537    31.352 
 C                     51.989    13.519    32.302 
 C                     53.498    13.928    30.12 
 C                     53.148    14.594    28.775 
 C                     54.037    14.24     27.631 
 C                     53.53     13.003    26.798 
 C                     54.587    11.862    26.563 
 C                     52.945    13.496    25.411 
 H                     50.678    19.808    44.217 
 H                     56.857    21.105    43.755 
 H                     55.585    27.305    44.654 
 H                     48.053    23.893    44.39 
 H                     48.564    21.118    43.735 
 H                     48.015    20.865    45.705 
 H                     48.353    22.458    46.381 
 H                     49.669    21.253    46.26 
 H                     47.736    24.435    41.905 
 H                     47.019    22.976    42.376 
 H                     48.28     21.784    40.872 
 H                     49.8      22.299    41.445 
 H                     52.621    17.244    42.761 
 H                     51.52     17.876    44.013 
 H                     52.908    17.143    44.469 
 H                     57.528    19.405    42.521 
 H                     57.79     17.806    43.137 
 H                     57.648    19.262    44.248 
 H                     57.756    23.572    42.854 
 H                     57.566    25.429    45.245 
 H                     58.4      22.072    45.166 
 H                     58.854    23.579    45.751 
 H                     59.534    23.022    44.212 
 H                     56.99     26.688    42.706 
 H                     58.297    25.699    42.286 
 H                     59.367    27.047    44.482 
 H                     58.094    28.215    43.84 
 H                     59.423    27.486    42.866 
 H                     54.182    29.256    45.504 
 H                     52.577    29.57     46.01 
 H                     52.979    29.743    44.335 
 H                     48.361    26.387    44.499 
 H                     46.009    27.81     41.323 
 H                     47.218    27.141    40.367 
 H                     47.492    28.743    41.084 
 H                     48.528    24.916    37.594 
 H                     47.585    23.671    37.043 
 H                     50.403    23.847    36.698 
 H                     48.504    20.399    35.882 
 H                     47.857    21.217    37.247 
 H                     49.042    19.858    37.505 
 H                     51.457    20.781    36.836 
 H                     51.712    22.262    35.869 
 H                     50.731    21.246    33.944 
 H                     50.237    19.837    34.897 
 H                     53.096    20.42     35.064 
 H                     52.608    20.414    33.374 
 H                     51.468    18.174    34.657 
 H                     53.407    17.129    36.096 
 H                     52.324    18.282    36.744 
 H                     53.88     18.874    36.25 
 H                     54.208    17.211    34.02 
 H                     53.857    18.529    32.86 
 H                     52.397    17.295    31.614 
 H                     51.665    16.381    33.002 
 H                     53.867    15.217    32.939 
 H                     54.268    16.06     31.46 
 H                     51.723    14.793    30.856 
 H                     51.057    13.159    31.866 
 H                     51.79     14.115    33.192 
 H                     52.616    12.711    32.68 
 H                     53.277    12.862    30.061 
 H                     54.545    14.105    30.367 
 H                     53.096    15.682    28.815 
 H                     52.157    14.269    28.456 
 H                     54.952    13.842    28.07 
 H                     54.287    15.047    26.941 
 H                     52.751    12.383    27.243 
 H                     54.672    11.137    27.373 
 H                     55.59     12.287    26.542 
 H                     54.5      11.23     25.68 
 H                     53.541    14.212    24.845 
 H                     51.949    13.933    25.487 
 H                     52.772    12.647    24.751 
 
 ITRead=  0  0  0  0  0  0  0  0  0  0  0  0  0  0  0  0  0  0  0  0
 ITRead=  0  0  0  0  0  0  0  0  0  0  0  0  0  0  0  0  0  0  0  0
 ITRead=  0  0  0  0  0  0  0  0  0  0  0  0  0  0  0  0  0  0  0  0
 ITRead=  0  0  0  0  0  0  0  0  0  0  0  0  0  0  0  0  0  0  0  0
 ITRead=  0  0  0  0  0  0  0  0  0  0  0  0  0  0  0  0  0  0  0  0
 ITRead=  0  0  0  0  0  0  0  0  0  0  0  0  0  0  0  0  0  0  0  0
 ITRead=  0  0  0  0  0  0  0  0  0  0  0  0  0  0  0  0  0  0  0  0
 MicOpt= -1 -1 -1 -1 -1 -1 -1 -1 -1 -1 -1 -1 -1 -1 -1 -1 -1 -1 -1 -1
 MicOpt= -1 -1 -1 -1 -1 -1 -1 -1 -1 -1 -1 -1 -1 -1 -1 -1 -1 -1 -1 -1
 MicOpt= -1 -1 -1 -1 -1 -1 -1 -1 -1 -1 -1 -1 -1 -1 -1 -1 -1 -1 -1 -1
 MicOpt= -1 -1 -1 -1 -1 -1 -1 -1 -1 -1 -1 -1 -1 -1 -1 -1 -1 -1 -1 -1
 MicOpt= -1 -1 -1 -1 -1 -1 -1 -1 -1 -1 -1 -1 -1 -1 -1 -1 -1 -1 -1 -1
 MicOpt= -1 -1 -1 -1 -1 -1 -1 -1 -1 -1 -1 -1 -1 -1 -1 -1 -1 -1 -1 -1
 MicOpt= -1 -1 -1 -1 -1 -1 -1 -1 -1 -1 -1 -1 -1 -1 -1 -1 -1 -1 -1 -1
 NAtoms=    140 NQM=      140 NQMF=       0 NMMI=      0 NMMIF=      0
                NMic=       0 NMicF=      0.
                    Isotopes and Nuclear Properties:
 (Nuclear quadrupole moments (NQMom) in fm**2, nuclear magnetic moments (NMagM)
  in nuclear magnetons)

  Atom         1           2           3           4           5           6           7           8           9          10
 IAtWgt=          24          12          12          12          12          14          12          12          12          12
 AtmWgt=  23.9850450  12.0000000  12.0000000  12.0000000  12.0000000  14.0030740  12.0000000  12.0000000  12.0000000  12.0000000
 NucSpn=           0           0           0           0           0           2           0           0           0           0
 AtZEff=  -0.0000000  -0.0000000  -0.0000000  -0.0000000  -0.0000000  -0.0000000  -0.0000000  -0.0000000  -0.0000000  -0.0000000
 NQMom=    0.0000000   0.0000000   0.0000000   0.0000000   0.0000000   2.0440000   0.0000000   0.0000000   0.0000000   0.0000000
 NMagM=    0.0000000   0.0000000   0.0000000   0.0000000   0.0000000   0.4037610   0.0000000   0.0000000   0.0000000   0.0000000
 AtZNuc=  12.0000000   6.0000000   6.0000000   6.0000000   6.0000000   7.0000000   6.0000000   6.0000000   6.0000000   6.0000000

  Atom        11          12          13          14          15          16          17          18          19          20
 IAtWgt=          12          12          12          12          16          16          14          12          12          12
 AtmWgt=  12.0000000  12.0000000  12.0000000  12.0000000  15.9949146  15.9949146  14.0030740  12.0000000  12.0000000  12.0000000
 NucSpn=           0           0           0           0           0           0           2           0           0           0
 AtZEff=  -0.0000000  -0.0000000  -0.0000000  -0.0000000  -0.0000000  -0.0000000  -0.0000000  -0.0000000  -0.0000000  -0.0000000
 NQMom=    0.0000000   0.0000000   0.0000000   0.0000000   0.0000000   0.0000000   2.0440000   0.0000000   0.0000000   0.0000000
 NMagM=    0.0000000   0.0000000   0.0000000   0.0000000   0.0000000   0.0000000   0.4037610   0.0000000   0.0000000   0.0000000
 AtZNuc=   6.0000000   6.0000000   6.0000000   6.0000000   8.0000000   8.0000000   7.0000000   6.0000000   6.0000000   6.0000000

  Atom        21          22          23          24          25          26          27          28          29          30
 IAtWgt=          12          12          12          16          12          14          12          12          12          12
 AtmWgt=  12.0000000  12.0000000  12.0000000  15.9949146  12.0000000  14.0030740  12.0000000  12.0000000  12.0000000  12.0000000
 NucSpn=           0           0           0           0           0           2           0           0           0           0
 AtZEff=  -0.0000000  -0.0000000  -0.0000000  -0.0000000  -0.0000000  -0.0000000  -0.0000000  -0.0000000  -0.0000000  -0.0000000
 NQMom=    0.0000000   0.0000000   0.0000000   0.0000000   0.0000000   2.0440000   0.0000000   0.0000000   0.0000000   0.0000000
 NMagM=    0.0000000   0.0000000   0.0000000   0.0000000   0.0000000   0.4037610   0.0000000   0.0000000   0.0000000   0.0000000
 AtZNuc=   6.0000000   6.0000000   6.0000000   8.0000000   6.0000000   7.0000000   6.0000000   6.0000000   6.0000000   6.0000000

  Atom        31          32          33          34          35          36          37          38          39          40
 IAtWgt=          12          12          12          14          12          12          12          12          12          12
 AtmWgt=  12.0000000  12.0000000  12.0000000  14.0030740  12.0000000  12.0000000  12.0000000  12.0000000  12.0000000  12.0000000
 NucSpn=           0           0           0           2           0           0           0           0           0           0
 AtZEff=  -0.0000000  -0.0000000  -0.0000000  -0.0000000  -0.0000000  -0.0000000  -0.0000000  -0.0000000  -0.0000000  -0.0000000
 NQMom=    0.0000000   0.0000000   0.0000000   2.0440000   0.0000000   0.0000000   0.0000000   0.0000000   0.0000000   0.0000000
 NMagM=    0.0000000   0.0000000   0.0000000   0.4037610   0.0000000   0.0000000   0.0000000   0.0000000   0.0000000   0.0000000
 AtZNuc=   6.0000000   6.0000000   6.0000000   7.0000000   6.0000000   6.0000000   6.0000000   6.0000000   6.0000000   6.0000000

  Atom        41          42          43          44          45          46          47          48          49          50
 IAtWgt=          16          12          12          16          16          12          12          12          12          12
 AtmWgt=  15.9949146  12.0000000  12.0000000  15.9949146  15.9949146  12.0000000  12.0000000  12.0000000  12.0000000  12.0000000
 NucSpn=           0           0           0           0           0           0           0           0           0           0
 AtZEff=  -0.0000000  -0.0000000  -0.0000000  -0.0000000  -0.0000000  -0.0000000  -0.0000000  -0.0000000  -0.0000000  -0.0000000
 NQMom=    0.0000000   0.0000000   0.0000000   0.0000000   0.0000000   0.0000000   0.0000000   0.0000000   0.0000000   0.0000000
 NMagM=    0.0000000   0.0000000   0.0000000   0.0000000   0.0000000   0.0000000   0.0000000   0.0000000   0.0000000   0.0000000
 AtZNuc=   8.0000000   6.0000000   6.0000000   8.0000000   8.0000000   6.0000000   6.0000000   6.0000000   6.0000000   6.0000000

  Atom        51          52          53          54          55          56          57          58          59          60
 IAtWgt=          12          12          12          12          12          12          12          12          12          12
 AtmWgt=  12.0000000  12.0000000  12.0000000  12.0000000  12.0000000  12.0000000  12.0000000  12.0000000  12.0000000  12.0000000
 NucSpn=           0           0           0           0           0           0           0           0           0           0
 AtZEff=  -0.0000000  -0.0000000  -0.0000000  -0.0000000  -0.0000000  -0.0000000  -0.0000000  -0.0000000  -0.0000000  -0.0000000
 NQMom=    0.0000000   0.0000000   0.0000000   0.0000000   0.0000000   0.0000000   0.0000000   0.0000000   0.0000000   0.0000000
 NMagM=    0.0000000   0.0000000   0.0000000   0.0000000   0.0000000   0.0000000   0.0000000   0.0000000   0.0000000   0.0000000
 AtZNuc=   6.0000000   6.0000000   6.0000000   6.0000000   6.0000000   6.0000000   6.0000000   6.0000000   6.0000000   6.0000000

  Atom        61          62          63          64          65          66          67          68          69          70
 IAtWgt=          12          12          12          12          12          12           1           1           1           1
 AtmWgt=  12.0000000  12.0000000  12.0000000  12.0000000  12.0000000  12.0000000   1.0078250   1.0078250   1.0078250   1.0078250
 NucSpn=           0           0           0           0           0           0           1           1           1           1
 AtZEff=  -0.0000000  -0.0000000  -0.0000000  -0.0000000  -0.0000000  -0.0000000  -0.0000000  -0.0000000  -0.0000000  -0.0000000
 NQMom=    0.0000000   0.0000000   0.0000000   0.0000000   0.0000000   0.0000000   0.0000000   0.0000000   0.0000000   0.0000000
 NMagM=    0.0000000   0.0000000   0.0000000   0.0000000   0.0000000   0.0000000   2.7928460   2.7928460   2.7928460   2.7928460
 AtZNuc=   6.0000000   6.0000000   6.0000000   6.0000000   6.0000000   6.0000000   1.0000000   1.0000000   1.0000000   1.0000000

  Atom        71          72          73          74          75          76          77          78          79          80
 IAtWgt=           1           1           1           1           1           1           1           1           1           1
 AtmWgt=   1.0078250   1.0078250   1.0078250   1.0078250   1.0078250   1.0078250   1.0078250   1.0078250   1.0078250   1.0078250
 NucSpn=           1           1           1           1           1           1           1           1           1           1
 AtZEff=  -0.0000000  -0.0000000  -0.0000000  -0.0000000  -0.0000000  -0.0000000  -0.0000000  -0.0000000  -0.0000000  -0.0000000
 NQMom=    0.0000000   0.0000000   0.0000000   0.0000000   0.0000000   0.0000000   0.0000000   0.0000000   0.0000000   0.0000000
 NMagM=    2.7928460   2.7928460   2.7928460   2.7928460   2.7928460   2.7928460   2.7928460   2.7928460   2.7928460   2.7928460
 AtZNuc=   1.0000000   1.0000000   1.0000000   1.0000000   1.0000000   1.0000000   1.0000000   1.0000000   1.0000000   1.0000000

  Atom        81          82          83          84          85          86          87          88          89          90
 IAtWgt=           1           1           1           1           1           1           1           1           1           1
 AtmWgt=   1.0078250   1.0078250   1.0078250   1.0078250   1.0078250   1.0078250   1.0078250   1.0078250   1.0078250   1.0078250
 NucSpn=           1           1           1           1           1           1           1           1           1           1
 AtZEff=  -0.0000000  -0.0000000  -0.0000000  -0.0000000  -0.0000000  -0.0000000  -0.0000000  -0.0000000  -0.0000000  -0.0000000
 NQMom=    0.0000000   0.0000000   0.0000000   0.0000000   0.0000000   0.0000000   0.0000000   0.0000000   0.0000000   0.0000000
 NMagM=    2.7928460   2.7928460   2.7928460   2.7928460   2.7928460   2.7928460   2.7928460   2.7928460   2.7928460   2.7928460
 AtZNuc=   1.0000000   1.0000000   1.0000000   1.0000000   1.0000000   1.0000000   1.0000000   1.0000000   1.0000000   1.0000000

  Atom        91          92          93          94          95          96          97          98          99         100
 IAtWgt=           1           1           1           1           1           1           1           1           1           1
 AtmWgt=   1.0078250   1.0078250   1.0078250   1.0078250   1.0078250   1.0078250   1.0078250   1.0078250   1.0078250   1.0078250
 NucSpn=           1           1           1           1           1           1           1           1           1           1
 AtZEff=  -0.0000000  -0.0000000  -0.0000000  -0.0000000  -0.0000000  -0.0000000  -0.0000000  -0.0000000  -0.0000000  -0.0000000
 NQMom=    0.0000000   0.0000000   0.0000000   0.0000000   0.0000000   0.0000000   0.0000000   0.0000000   0.0000000   0.0000000
 NMagM=    2.7928460   2.7928460   2.7928460   2.7928460   2.7928460   2.7928460   2.7928460   2.7928460   2.7928460   2.7928460
 AtZNuc=   1.0000000   1.0000000   1.0000000   1.0000000   1.0000000   1.0000000   1.0000000   1.0000000   1.0000000   1.0000000

  Atom       101         102         103         104         105         106         107         108         109         110
 IAtWgt=           1           1           1           1           1           1           1           1           1           1
 AtmWgt=   1.0078250   1.0078250   1.0078250   1.0078250   1.0078250   1.0078250   1.0078250   1.0078250   1.0078250   1.0078250
 NucSpn=           1           1           1           1           1           1           1           1           1           1
 AtZEff=  -0.0000000  -0.0000000  -0.0000000  -0.0000000  -0.0000000  -0.0000000  -0.0000000  -0.0000000  -0.0000000  -0.0000000
 NQMom=    0.0000000   0.0000000   0.0000000   0.0000000   0.0000000   0.0000000   0.0000000   0.0000000   0.0000000   0.0000000
 NMagM=    2.7928460   2.7928460   2.7928460   2.7928460   2.7928460   2.7928460   2.7928460   2.7928460   2.7928460   2.7928460
 AtZNuc=   1.0000000   1.0000000   1.0000000   1.0000000   1.0000000   1.0000000   1.0000000   1.0000000   1.0000000   1.0000000

  Atom       111         112         113         114         115         116         117         118         119         120
 IAtWgt=           1           1           1           1           1           1           1           1           1           1
 AtmWgt=   1.0078250   1.0078250   1.0078250   1.0078250   1.0078250   1.0078250   1.0078250   1.0078250   1.0078250   1.0078250
 NucSpn=           1           1           1           1           1           1           1           1           1           1
 AtZEff=  -0.0000000  -0.0000000  -0.0000000  -0.0000000  -0.0000000  -0.0000000  -0.0000000  -0.0000000  -0.0000000  -0.0000000
 NQMom=    0.0000000   0.0000000   0.0000000   0.0000000   0.0000000   0.0000000   0.0000000   0.0000000   0.0000000   0.0000000
 NMagM=    2.7928460   2.7928460   2.7928460   2.7928460   2.7928460   2.7928460   2.7928460   2.7928460   2.7928460   2.7928460
 AtZNuc=   1.0000000   1.0000000   1.0000000   1.0000000   1.0000000   1.0000000   1.0000000   1.0000000   1.0000000   1.0000000

  Atom       121         122         123         124         125         126         127         128         129         130
 IAtWgt=           1           1           1           1           1           1           1           1           1           1
 AtmWgt=   1.0078250   1.0078250   1.0078250   1.0078250   1.0078250   1.0078250   1.0078250   1.0078250   1.0078250   1.0078250
 NucSpn=           1           1           1           1           1           1           1           1           1           1
 AtZEff=  -0.0000000  -0.0000000  -0.0000000  -0.0000000  -0.0000000  -0.0000000  -0.0000000  -0.0000000  -0.0000000  -0.0000000
 NQMom=    0.0000000   0.0000000   0.0000000   0.0000000   0.0000000   0.0000000   0.0000000   0.0000000   0.0000000   0.0000000
 NMagM=    2.7928460   2.7928460   2.7928460   2.7928460   2.7928460   2.7928460   2.7928460   2.7928460   2.7928460   2.7928460
 AtZNuc=   1.0000000   1.0000000   1.0000000   1.0000000   1.0000000   1.0000000   1.0000000   1.0000000   1.0000000   1.0000000

  Atom       131         132         133         134         135         136         137         138         139         140
 IAtWgt=           1           1           1           1           1           1           1           1           1           1
 AtmWgt=   1.0078250   1.0078250   1.0078250   1.0078250   1.0078250   1.0078250   1.0078250   1.0078250   1.0078250   1.0078250
 NucSpn=           1           1           1           1           1           1           1           1           1           1
 AtZEff=  -0.0000000  -0.0000000  -0.0000000  -0.0000000  -0.0000000  -0.0000000  -0.0000000  -0.0000000  -0.0000000  -0.0000000
 NQMom=    0.0000000   0.0000000   0.0000000   0.0000000   0.0000000   0.0000000   0.0000000   0.0000000   0.0000000   0.0000000
 NMagM=    2.7928460   2.7928460   2.7928460   2.7928460   2.7928460   2.7928460   2.7928460   2.7928460   2.7928460   2.7928460
 AtZNuc=   1.0000000   1.0000000   1.0000000   1.0000000   1.0000000   1.0000000   1.0000000   1.0000000   1.0000000   1.0000000
 Leave Link  101 at Wed May  4 21:27:48 2022, MaxMem=  6710886400 cpu:               2.9 elap:               0.1
 (Enter /sw/apps/gaussian-16.0/g16/l202.exe)
 Stoichiometry    C55H74MgN4O6
 Framework group  C1[X(C55H74MgN4O6)]
 Deg. of freedom   414
 Full point group                 C1      NOp   1
 Largest Abelian subgroup         C1      NOp   1
 Largest concise Abelian subgroup C1      NOp   1
                         Standard orientation:                         
 ---------------------------------------------------------------------
 Center     Atomic      Atomic             Coordinates (Angstroms)
 Number     Number       Type             X           Y           Z
 ---------------------------------------------------------------------
      1         12           0       -4.392708    1.365400    0.502640
      2          6           0       -5.418926   -1.923794    0.382823
      3          6           0       -2.709704    0.705407    3.327657
      4          6           0       -3.049027    4.371968    0.265910
      5          6           0       -6.385732    1.975237   -2.281890
      6          7           0       -3.881364   -0.454362    1.525633
      7          6           0       -4.453598   -1.682622    1.351804
      8          6           0       -4.128936   -2.643913    2.520188
      9          6           0       -3.711691   -1.599198    3.631971
     10          6           0       -3.346279   -0.363472    2.787306
     11          6           0       -4.792617   -1.282723    4.768382
     12          6           0       -3.022088   -3.732047    2.073316
     13          6           0       -1.677972   -3.073218    1.649393
     14          6           0       -1.197222   -3.509087    0.252066
     15          8           0       -1.621045   -3.131468   -0.820013
     16          8           0       -0.161186   -4.447769    0.443993
     17          7           0       -2.945203    2.383256    1.564012
     18          6           0       -2.422345    1.937063    2.760618
     19          6           0       -1.490599    2.939408    3.259575
     20          6           0       -1.559162    4.066049    2.381892
     21          6           0       -2.578829    3.647331    1.353298
     22          6           0       -0.701973    2.798128    4.597031
     23          6           0       -0.791130    5.324049    2.480808
     24          8           0       -0.056195    5.434758    3.468755
     25          6           0       -0.830525    6.478683    1.470164
     26          7           0       -4.603072    2.938724   -0.858253
     27          6           0       -3.986243    4.103824   -0.720798
     28          6           0       -4.187990    5.016221   -1.859394
     29          6           0       -5.378866    4.288944   -2.684827
     30          6           0       -5.450385    2.986717   -1.931017
     31          6           0       -4.525089    6.487072   -1.528956
     32          6           0       -5.063520    4.130637   -4.206037
     33          6           0       -6.126044    4.609560   -5.173478
     34          7           0       -5.693459    0.327367   -0.708349
     35          6           0       -6.551618    0.739419   -1.693246
     36          6           0       -7.476763   -0.355207   -1.972625
     37          6           0       -7.025406   -1.391532   -1.165182
     38          6           0       -5.893817   -0.932129   -0.479844
     39          6           0       -8.608163   -0.426357   -2.966557
     40          6           0       -7.335302   -2.774268   -0.846829
     41          8           0       -8.277755   -3.478626   -1.234676
     42          6           0       -6.187769   -3.262321    0.085413
     43          6           0       -5.414042   -4.166817   -0.760810
     44          8           0       -4.686496   -3.843722   -1.687745
     45          8           0       -5.562573   -5.429422   -0.262399
     46          6           0       -4.840170   -6.433133   -1.051804
     47          6           0        0.445758   -4.894335   -0.768087
     48          6           0        1.408067   -3.897559   -1.181192
     49          6           0        2.415938   -3.294216   -0.397940
     50          6           0        2.906203   -3.726046    0.937566
     51          6           0        3.232943   -2.256898   -1.098403
     52          6           0        4.765273   -2.373603   -1.145591
     53          6           0        5.450844   -1.138217   -1.610098
     54          6           0        6.193818   -0.338839   -0.461769
     55          6           0        5.299173    0.728372    0.186801
     56          6           0        7.531629    0.390209   -0.941041
     57          6           0        8.848295   -0.281260   -0.310497
     58          6           0        9.948938    0.724421   -0.195354
     59          6           0       11.162739    0.254059    0.641538
     60          6           0       10.981079    0.345506    2.173322
     61          6           0       12.543201    0.829053    0.044604
     62          6           0       13.216789   -0.145589   -0.941010
     63          6           0       14.376754    0.405463   -1.699426
     64          6           0       15.763822    0.163642   -0.993260
     65          6           0       16.666332    1.439196   -0.812162
     66          6           0       16.565946   -0.964878   -1.762730
     67          1           0       -2.375821    0.578690    4.358800
     68          1           0       -2.565031    5.348174    0.200445
     69          1           0       -7.013476    2.205084   -3.145974
     70          1           0       -5.030418   -3.184265    2.809264
     71          1           0       -2.838310   -1.907397    4.207492
     72          1           0       -4.290093   -1.676789    5.651603
     73          1           0       -5.768166   -1.764486    4.694273
     74          1           0       -4.910476   -0.203169    4.852945
     75          1           0       -3.365765   -4.440179    1.318932
     76          1           0       -2.902073   -4.375006    2.945386
     77          1           0       -0.942367   -3.298903    2.421409
     78          1           0       -1.657203   -1.984091    1.606404
     79          1           0        0.383403    2.777400    4.505896
     80          1           0       -1.035694    1.971203    5.223768
     81          1           0       -0.919688    3.599703    5.303144
     82          1           0       -0.540637    6.182786    0.461682
     83          1           0       -0.077087    7.200733    1.785997
     84          1           0       -1.839723    6.880812    1.379567
     85          1           0       -3.275653    4.931535   -2.450502
     86          1           0       -6.306923    4.820209   -2.471494
     87          1           0       -4.221119    6.776411   -0.523690
     88          1           0       -5.571028    6.793684   -1.522108
     89          1           0       -3.980096    7.114416   -2.234313
     90          1           0       -5.033544    3.053682   -4.374457
     91          1           0       -4.064133    4.433092   -4.516727
     92          1           0       -6.593544    5.551387   -4.885396
     93          1           0       -6.814525    3.802926   -5.424811
     94          1           0       -5.553516    4.931382   -6.043519
     95          1           0       -8.903172    0.517350   -3.425094
     96          1           0       -9.550892   -0.843687   -2.613495
     97          1           0       -8.293693   -1.080649   -3.779881
     98          1           0       -6.588949   -3.811533    0.937287
     99          1           0       -4.961298   -7.389814   -0.542735
    100          1           0       -3.754471   -6.382942   -1.136834
    101          1           0       -5.273017   -6.517088   -2.048750
    102          1           0       -0.159544   -5.275352   -1.590704
    103          1           0        0.990808   -5.806910   -0.524397
    104          1           0        1.259267   -3.518708   -2.192686
    105          1           0        3.898684   -4.146392    0.773836
    106          1           0        2.293699   -4.590055    1.195910
    107          1           0        2.933787   -2.967251    1.719803
    108          1           0        3.005277   -1.411048   -0.449261
    109          1           0        2.911496   -2.043062   -2.118164
    110          1           0        5.028909   -3.122750   -1.892159
    111          1           0        5.083060   -2.730754   -0.165621
    112          1           0        4.699634   -0.398521   -1.884729
    113          1           0        6.044987   -1.350868   -2.499011
    114          1           0        6.305554   -1.110030    0.300523
    115          1           0        5.835492    1.423478    0.832360
    116          1           0        4.593018    0.249837    0.864397
    117          1           0        4.691285    1.233833   -0.563095
    118          1           0        7.482603    1.443665   -0.665879
    119          1           0        7.620187    0.282748   -2.022075
    120          1           0        9.305064   -0.921799   -1.064408
    121          1           0        8.707476   -0.786395    0.645071
    122          1           0        9.524284    1.551736    0.373707
    123          1           0       10.225946    1.125222   -1.170524
    124          1           0       11.377561   -0.814146    0.662442
    125          1           0       11.513701   -0.470648    2.661714
    126          1           0        9.904960    0.227535    2.295664
    127          1           0       11.178483    1.312819    2.636153
    128          1           0       13.216299    1.015228    0.881835
    129          1           0       12.275094    1.754855   -0.464862
    130          1           0       12.536625   -0.584394   -1.670992
    131          1           0       13.632578   -0.989766   -0.389692
    132          1           0       14.291378    1.490479   -1.637777
    133          1           0       14.460501    0.107108   -2.745285
    134          1           0       15.747959   -0.146466    0.052133
    135          1           0       16.448803    2.037115    0.073346
    136          1           0       16.464832    2.150268   -1.612692
    137          1           0       17.748495    1.322945   -0.766442
    138          1           0       16.615828   -0.888269   -2.848948
    139          1           0       16.211467   -1.974215   -1.552152
    140          1           0       17.594842   -1.005594   -1.407703
 ---------------------------------------------------------------------
 Rotational constants (GHZ):           0.0394407           0.0111640           0.0099711
 Leave Link  202 at Wed May  4 21:27:48 2022, MaxMem=  6710886400 cpu:               0.2 elap:               0.0
 (Enter /sw/apps/gaussian-16.0/g16/l301.exe)
 Standard basis: VSTO-6G (5D, 7F)
 Ernie: Thresh=  0.10000D-02 Tol=  0.10000D-05 Strict=F.
 There are   338 symmetry adapted cartesian basis functions of A   symmetry.
 There are   338 symmetry adapted basis functions of A   symmetry.
   338 basis functions,  2028 primitive gaussians,   338 cartesian basis functions
   176 alpha electrons      176 beta electrons
       nuclear repulsion energy      4907.9083726625 Hartrees.
 IExCor=    0 DFT=F Ex=HF Corr=None ExCW=0 ScaHFX=  1.000000
 ScaDFX=  1.000000  1.000000  1.000000  1.000000 ScalE2=  1.000000  1.000000
 IRadAn=      5 IRanWt=     -1 IRanGd=            0 ICorTp=0 IEmpDi=  4
 Integral buffers will be    131072 words long.
 Regular integral format.
 Two-electron integral symmetry is turned off.
 Leave Link  301 at Wed May  4 21:27:48 2022, MaxMem=  6710886400 cpu:               1.2 elap:               0.1
 (Enter /sw/apps/gaussian-16.0/g16/l302.exe)
 Do NDO integrals.
 NPDir=0 NMtPBC=     1 NCelOv=     1 NCel=       1 NClECP=     1 NCelD=      1
         NCelK=      1 NCelE2=     1 NClLst=     1 CellRange=     0.0.
 One-electron integrals computed using PRISM.
 Generate ZINDO/S integrals.
 NDO Nuclear repulsion=  4414.283346052599 Hartrees.
 NBasis=   338 RedAO= F EigKep=  0.00D+00  NBF=   338
 NBsUse=   338 1.00D-04 EigRej=  0.00D+00 NBFU=   338
 Leave Link  302 at Wed May  4 21:27:49 2022, MaxMem=  6710886400 cpu:               8.4 elap:               0.4
 (Enter /sw/apps/gaussian-16.0/g16/l303.exe)
 DipDrv:  MaxL=1.
 DipDrv:  will hold  3 matrices at once.
 Leave Link  303 at Wed May  4 21:27:49 2022, MaxMem=  6710886400 cpu:               0.5 elap:               0.0
 (Enter /sw/apps/gaussian-16.0/g16/l308.exe)
 Leave Link  308 at Wed May  4 21:27:49 2022, MaxMem=  6710886400 cpu:               5.8 elap:               0.3
 (Enter /sw/apps/gaussian-16.0/g16/l401.exe)
 Simple Huckel Guess.
 JPrj=0 DoOrth=F DoCkMO=F.
 Leave Link  401 at Wed May  4 21:27:49 2022, MaxMem=  6710886400 cpu:               2.5 elap:               0.1
 (Enter /sw/apps/gaussian-16.0/g16/l502.exe)
 Two-electron integral symmetry not used.
 Closed shell SCF:
 Using DIIS extrapolation, IDIIS=  1040.
 Overlap will be assumed to be unity.
 NGot=  6710886400 LenX=  6710643598 LenY=  6710528913
 Requested convergence on RMS density matrix=1.00D-08 within 128 cycles.
 Requested convergence on MAX density matrix=1.00D-06.
 Requested convergence on             energy=1.00D-06.
 No special actions if energy rises.
 Fock matrices will be formed incrementally for  20 cycles.

 Cycle   1  Pass 1  IDiag  1:
 E= -472.555151652979    
 DIIS: error= 5.27D-02 at cycle   1 NSaved=   1.
 NSaved= 1 IEnMin= 1 EnMin= -472.555151652979     IErMin= 1 ErrMin= 5.27D-02
 ErrMax= 5.27D-02  0.00D+00 EMaxC= 1.00D-01 BMatC= 8.38D-01 BMatP= 8.38D-01
 IDIUse=3 WtCom= 4.73D-01 WtEn= 5.27D-01
 Coeff-Com:  0.100D+01
 Coeff-En:   0.100D+01
 Coeff:      0.100D+01
 GapD=    2.000 DampG=2.000 DampE=0.500 DampFc=1.0000 IDamp=-1.
 RMSDP=4.04D-03 MaxDP=1.57D-01              OVMax= 0.00D+00

 Cycle   2  Pass 1  IDiag  1:
 RMSU=  4.04D-03    CP:  9.95D-01
 E= -474.403192782594     Delta-E=       -1.848041129615 Rises=F Damp=F
 DIIS: error= 2.03D-02 at cycle   2 NSaved=   2.
 NSaved= 2 IEnMin= 2 EnMin= -474.403192782594     IErMin= 2 ErrMin= 2.03D-02
 ErrMax= 2.03D-02  0.00D+00 EMaxC= 1.00D-01 BMatC= 5.29D-02 BMatP= 8.38D-01
 IDIUse=3 WtCom= 7.97D-01 WtEn= 2.03D-01
 Coeff-Com: -0.716D-01 0.107D+01
 Coeff-En:   0.000D+00 0.100D+01
 Coeff:     -0.571D-01 0.106D+01
 RMSDP=1.11D-03 MaxDP=4.45D-02 DE=-1.85D+00 OVMax= 0.00D+00

 Cycle   3  Pass 1  IDiag  1:
 RMSU=  1.04D-03    CP:  9.93D-01  1.09D+00
 E= -474.506147860779     Delta-E=       -0.102955078186 Rises=F Damp=F
 DIIS: error= 8.32D-03 at cycle   3 NSaved=   3.
 NSaved= 3 IEnMin= 3 EnMin= -474.506147860779     IErMin= 3 ErrMin= 8.32D-03
 ErrMax= 8.32D-03  0.00D+00 EMaxC= 1.00D-01 BMatC= 7.16D-03 BMatP= 5.29D-02
 IDIUse=3 WtCom= 9.17D-01 WtEn= 8.32D-02
 Coeff-Com: -0.677D-01 0.239D+00 0.829D+00
 Coeff-En:   0.000D+00 0.000D+00 0.100D+01
 Coeff:     -0.621D-01 0.219D+00 0.843D+00
 RMSDP=3.73D-04 MaxDP=1.45D-02 DE=-1.03D-01 OVMax= 0.00D+00

 Cycle   4  Pass 1  IDiag  1:
 RMSU=  2.39D-04    CP:  9.93D-01  1.16D+00  9.25D-01
 E= -474.518987239579     Delta-E=       -0.012839378800 Rises=F Damp=F
 DIIS: error= 1.14D-03 at cycle   4 NSaved=   4.
 NSaved= 4 IEnMin= 4 EnMin= -474.518987239579     IErMin= 4 ErrMin= 1.14D-03
 ErrMax= 1.14D-03  0.00D+00 EMaxC= 1.00D-01 BMatC= 3.01D-04 BMatP= 7.16D-03
 IDIUse=3 WtCom= 9.89D-01 WtEn= 1.14D-02
 Coeff-Com:  0.119D-03-0.341D-01 0.275D-01 0.101D+01
 Coeff-En:   0.000D+00 0.000D+00 0.000D+00 0.100D+01
 Coeff:      0.118D-03-0.337D-01 0.272D-01 0.101D+01
 RMSDP=1.20D-04 MaxDP=4.66D-03 DE=-1.28D-02 OVMax= 0.00D+00

 Cycle   5  Pass 1  IDiag  1:
 RMSU=  7.64D-05    CP:  9.92D-01  1.17D+00  1.01D+00  1.10D+00
 E= -474.519959289800     Delta-E=       -0.000972050220 Rises=F Damp=F
 DIIS: error= 6.33D-04 at cycle   5 NSaved=   5.
 NSaved= 5 IEnMin= 5 EnMin= -474.519959289800     IErMin= 5 ErrMin= 6.33D-04
 ErrMax= 6.33D-04  0.00D+00 EMaxC= 1.00D-01 BMatC= 4.99D-05 BMatP= 3.01D-04
 IDIUse=3 WtCom= 9.94D-01 WtEn= 6.33D-03
 Coeff-Com:  0.604D-02-0.246D-01-0.915D-01 0.172D+00 0.938D+00
 Coeff-En:   0.000D+00 0.000D+00 0.000D+00 0.000D+00 0.100D+01
 Coeff:      0.600D-02-0.245D-01-0.909D-01 0.171D+00 0.938D+00
 RMSDP=5.41D-05 MaxDP=2.28D-03 DE=-9.72D-04 OVMax= 0.00D+00

 Cycle   6  Pass 1  IDiag  1:
 RMSU=  2.80D-05    CP:  9.92D-01  1.17D+00  1.02D+00  1.27D+00  1.11D+00
 E= -474.520127681496     Delta-E=       -0.000168391696 Rises=F Damp=F
 DIIS: error= 1.66D-04 at cycle   6 NSaved=   6.
 NSaved= 6 IEnMin= 6 EnMin= -474.520127681496     IErMin= 6 ErrMin= 1.66D-04
 ErrMax= 1.66D-04  0.00D+00 EMaxC= 1.00D-01 BMatC= 5.97D-06 BMatP= 4.99D-05
 IDIUse=3 WtCom= 9.98D-01 WtEn= 1.66D-03
 Coeff-Com: -0.351D-04 0.489D-02-0.144D-01-0.105D+00 0.819D-01 0.103D+01
 Coeff-En:   0.000D+00 0.000D+00 0.000D+00 0.000D+00 0.000D+00 0.100D+01
 Coeff:     -0.351D-04 0.488D-02-0.143D-01-0.105D+00 0.818D-01 0.103D+01
 RMSDP=2.29D-05 MaxDP=9.10D-04 DE=-1.68D-04 OVMax= 0.00D+00

 Cycle   7  Pass 1  IDiag  1:
 RMSU=  1.06D-05    CP:  9.92D-01  1.17D+00  1.03D+00  1.31D+00  1.30D+00
                    CP:  1.30D+00
 E= -474.520152990481     Delta-E=       -0.000025308985 Rises=F Damp=F
 DIIS: error= 6.42D-05 at cycle   7 NSaved=   7.
 NSaved= 7 IEnMin= 7 EnMin= -474.520152990481     IErMin= 7 ErrMin= 6.42D-05
 ErrMax= 6.42D-05  0.00D+00 EMaxC= 1.00D-01 BMatC= 5.78D-07 BMatP= 5.97D-06
 IDIUse=1 WtCom= 1.00D+00 WtEn= 0.00D+00
 Coeff-Com: -0.563D-03 0.251D-02 0.721D-02-0.169D-01-0.785D-01-0.163D-01
 Coeff-Com:  0.110D+01
 Coeff:     -0.563D-03 0.251D-02 0.721D-02-0.169D-01-0.785D-01-0.163D-01
 Coeff:      0.110D+01
 RMSDP=1.30D-05 MaxDP=6.26D-04 DE=-2.53D-05 OVMax= 0.00D+00

 Cycle   8  Pass 1  IDiag  1:
 RMSU=  4.95D-06    CP:  9.92D-01  1.17D+00  1.03D+00  1.32D+00  1.36D+00
                    CP:  1.58D+00  1.66D+00
 E= -474.520158937247     Delta-E=       -0.000005946767 Rises=F Damp=F
 DIIS: error= 4.04D-05 at cycle   8 NSaved=   8.
 NSaved= 8 IEnMin= 8 EnMin= -474.520158937247     IErMin= 8 ErrMin= 4.04D-05
 ErrMax= 4.04D-05  0.00D+00 EMaxC= 1.00D-01 BMatC= 2.33D-07 BMatP= 5.78D-07
 IDIUse=1 WtCom= 1.00D+00 WtEn= 0.00D+00
 Coeff-Com:  0.364D-04-0.909D-03 0.218D-02 0.170D-01-0.848D-02-0.177D+00
 Coeff-Com:  0.553D-01 0.111D+01
 Coeff:      0.364D-04-0.909D-03 0.218D-02 0.170D-01-0.848D-02-0.177D+00
 Coeff:      0.553D-01 0.111D+01
 RMSDP=9.63D-06 MaxDP=3.82D-04 DE=-5.95D-06 OVMax= 0.00D+00

 Cycle   9  Pass 1  IDiag  1:
 RMSU=  2.50D-06    CP:  9.92D-01  1.17D+00  1.03D+00  1.33D+00  1.39D+00
                    CP:  1.74D+00  2.28D+00  1.74D+00
 E= -474.520161844783     Delta-E=       -0.000002907535 Rises=F Damp=F
 DIIS: error= 2.38D-05 at cycle   9 NSaved=   9.
 NSaved= 9 IEnMin= 9 EnMin= -474.520161844783     IErMin= 9 ErrMin= 2.38D-05
 ErrMax= 2.38D-05  0.00D+00 EMaxC= 1.00D-01 BMatC= 1.03D-07 BMatP= 2.33D-07
 IDIUse=1 WtCom= 1.00D+00 WtEn= 0.00D+00
 Coeff-Com:  0.191D-03-0.798D-03-0.254D-02 0.294D-02 0.330D-01 0.106D-01
 Coeff-Com: -0.388D+00-0.157D+00 0.150D+01
 Coeff:      0.191D-03-0.798D-03-0.254D-02 0.294D-02 0.330D-01 0.106D-01
 Coeff:     -0.388D+00-0.157D+00 0.150D+01
 RMSDP=1.14D-05 MaxDP=4.87D-04 DE=-2.91D-06 OVMax= 0.00D+00

 Cycle  10  Pass 1  IDiag  1:
 RMSU=  1.40D-06    CP:  9.92D-01  1.17D+00  1.03D+00  1.34D+00  1.41D+00
                    CP:  1.91D+00  2.99D+00  2.92D+00  2.22D+00
 E= -474.520164117381     Delta-E=       -0.000002272598 Rises=F Damp=F
 DIIS: error= 1.26D-05 at cycle  10 NSaved=  10.
 NSaved=10 IEnMin=10 EnMin= -474.520164117381     IErMin=10 ErrMin= 1.26D-05
 ErrMax= 1.26D-05  0.00D+00 EMaxC= 1.00D-01 BMatC= 4.17D-08 BMatP= 1.03D-07
 IDIUse=1 WtCom= 1.00D+00 WtEn= 0.00D+00
 Coeff-Com: -0.809D-04 0.656D-03-0.240D-04-0.971D-02-0.433D-03 0.646D-01
 Coeff-Com:  0.109D+00-0.372D+00-0.655D+00 0.186D+01
 Coeff:     -0.809D-04 0.656D-03-0.240D-04-0.971D-02-0.433D-03 0.646D-01
 Coeff:      0.109D+00-0.372D+00-0.655D+00 0.186D+01
 RMSDP=1.11D-05 MaxDP=4.13D-04 DE=-2.27D-06 OVMax= 0.00D+00

 Cycle  11  Pass 1  IDiag  1:
 RMSU=  8.93D-06    CP:  9.92D-01  1.17D+00  1.03D+00  1.34D+00  1.43D+00
                    CP:  2.06D+00  3.00D+00  3.00D+00  3.00D+00  2.48D+00
 E= -474.520165354558     Delta-E=       -0.000001237177 Rises=F Damp=F
 DIIS: error= 7.10D-06 at cycle  11 NSaved=  11.
 NSaved=11 IEnMin=11 EnMin= -474.520165354558     IErMin=11 ErrMin= 7.10D-06
 ErrMax= 7.10D-06  0.00D+00 EMaxC= 1.00D-01 BMatC= 1.21D-08 BMatP= 4.17D-08
 IDIUse=1 WtCom= 1.00D+00 WtEn= 0.00D+00
 Coeff-Com: -0.435D-04 0.152D-03 0.836D-03-0.792D-03-0.701D-02-0.131D-01
 Coeff-Com:  0.103D+00 0.140D+00-0.520D+00-0.116D+00 0.141D+01
 Coeff:     -0.435D-04 0.152D-03 0.836D-03-0.792D-03-0.701D-02-0.131D-01
 Coeff:      0.103D+00 0.140D+00-0.520D+00-0.116D+00 0.141D+01
 RMSDP=6.05D-06 MaxDP=2.03D-04 DE=-1.24D-06 OVMax= 0.00D+00

 Cycle  12  Pass 1  IDiag  1:
 RMSU=  1.89D-06    CP:  9.92D-01  1.17D+00  1.03D+00  1.34D+00  1.44D+00
                    CP:  2.13D+00  3.00D+00  3.00D+00  3.00D+00  3.00D+00
                    CP:  1.57D+00
 E= -474.520165667590     Delta-E=       -0.000000313032 Rises=F Damp=F
 DIIS: error= 3.93D-06 at cycle  12 NSaved=  12.
 NSaved=12 IEnMin=12 EnMin= -474.520165667590     IErMin=12 ErrMin= 3.93D-06
 ErrMax= 3.93D-06  0.00D+00 EMaxC= 1.00D-01 BMatC= 3.54D-09 BMatP= 1.21D-08
 IDIUse=1 WtCom= 1.00D+00 WtEn= 0.00D+00
 Coeff-Com:  0.269D-04-0.202D-03 0.796D-05 0.251D-02 0.191D-02-0.197D-01
 Coeff-Com: -0.404D-01 0.122D+00 0.208D+00-0.526D+00-0.105D+00 0.136D+01
 Coeff:      0.269D-04-0.202D-03 0.796D-05 0.251D-02 0.191D-02-0.197D-01
 Coeff:     -0.404D-01 0.122D+00 0.208D+00-0.526D+00-0.105D+00 0.136D+01
 RMSDP=2.55D-06 MaxDP=7.62D-05 DE=-3.13D-07 OVMax= 0.00D+00

 Cycle  13  Pass 1  IDiag  1:
 RMSU=  6.87D-07    CP:  9.92D-01  1.17D+00  1.03D+00  1.35D+00  1.44D+00
                    CP:  2.15D+00  3.00D+00  3.00D+00  3.00D+00  3.00D+00
                    CP:  1.78D+00  1.81D+00
 E= -474.520165745254     Delta-E=       -0.000000077664 Rises=F Damp=F
 DIIS: error= 2.19D-06 at cycle  13 NSaved=  13.
 NSaved=13 IEnMin=13 EnMin= -474.520165745254     IErMin=13 ErrMin= 2.19D-06
 ErrMax= 2.19D-06  0.00D+00 EMaxC= 1.00D-01 BMatC= 1.31D-09 BMatP= 3.54D-09
 IDIUse=1 WtCom= 1.00D+00 WtEn= 0.00D+00
 Coeff-Com:  0.194D-05 0.224D-04-0.208D-03-0.543D-03 0.162D-02 0.732D-02
 Coeff-Com: -0.115D-01-0.777D-01 0.871D-01 0.145D+00-0.244D+00-0.489D+00
 Coeff-Com:  0.158D+01
 Coeff:      0.194D-05 0.224D-04-0.208D-03-0.543D-03 0.162D-02 0.732D-02
 Coeff:     -0.115D-01-0.777D-01 0.871D-01 0.145D+00-0.244D+00-0.489D+00
 Coeff:      0.158D+01
 RMSDP=1.55D-06 MaxDP=4.96D-05 DE=-7.77D-08 OVMax= 0.00D+00

 Cycle  14  Pass 1  IDiag  1:
 RMSU=  3.40D-07    CP:  9.92D-01  1.17D+00  1.03D+00  1.35D+00  1.44D+00
                    CP:  2.15D+00  3.00D+00  3.00D+00  3.00D+00  3.00D+00
                    CP:  1.86D+00  2.35D+00  2.18D+00
 E= -474.520165780095     Delta-E=       -0.000000034842 Rises=F Damp=F
 DIIS: error= 1.69D-06 at cycle  14 NSaved=  14.
 NSaved=14 IEnMin=14 EnMin= -474.520165780095     IErMin=14 ErrMin= 1.69D-06
 ErrMax= 1.69D-06  0.00D+00 EMaxC= 1.00D-01 BMatC= 7.86D-10 BMatP= 1.31D-09
 IDIUse=1 WtCom= 1.00D+00 WtEn= 0.00D+00
 Coeff-Com: -0.228D-04 0.149D-03 0.810D-04-0.165D-02-0.242D-02 0.112D-01
 Coeff-Com:  0.402D-01-0.852D-01-0.135D+00 0.262D+00 0.216D+00-0.886D+00
 Coeff-Com: -0.284D+00 0.186D+01
 Coeff:     -0.228D-04 0.149D-03 0.810D-04-0.165D-02-0.242D-02 0.112D-01
 Coeff:      0.402D-01-0.852D-01-0.135D+00 0.262D+00 0.216D+00-0.886D+00
 Coeff:     -0.284D+00 0.186D+01
 RMSDP=1.88D-06 MaxDP=6.40D-05 DE=-3.48D-08 OVMax= 0.00D+00

 Cycle  15  Pass 1  IDiag  1:
 RMSU=  5.58D-07    CP:  9.92D-01  1.17D+00  1.03D+00  1.35D+00  1.44D+00
                    CP:  2.16D+00  3.00D+00  3.00D+00  3.00D+00  3.00D+00
                    CP:  1.94D+00  2.97D+00  3.00D+00  2.45D+00
 E= -474.520165805569     Delta-E=       -0.000000025474 Rises=F Damp=F
 DIIS: error= 8.01D-07 at cycle  15 NSaved=  15.
 NSaved=15 IEnMin=15 EnMin= -474.520165805569     IErMin=15 ErrMin= 8.01D-07
 ErrMax= 8.01D-07  0.00D+00 EMaxC= 1.00D-01 BMatC= 1.75D-10 BMatP= 7.86D-10
 IDIUse=1 WtCom= 1.00D+00 WtEn= 0.00D+00
 Coeff-Com: -0.232D-05 0.372D-05 0.904D-04 0.924D-04-0.112D-02-0.105D-02
 Coeff-Com:  0.105D-01 0.713D-02-0.187D-01-0.444D-01 0.132D+00 0.939D-01
 Coeff-Com: -0.514D+00 0.623D-02 0.133D+01
 Coeff:     -0.232D-05 0.372D-05 0.904D-04 0.924D-04-0.112D-02-0.105D-02
 Coeff:      0.105D-01 0.713D-02-0.187D-01-0.444D-01 0.132D+00 0.939D-01
 Coeff:     -0.514D+00 0.623D-02 0.133D+01
 RMSDP=7.85D-07 MaxDP=2.68D-05 DE=-2.55D-08 OVMax= 0.00D+00

 Cycle  16  Pass 1  IDiag  1:
 RMSU=  4.28D-07    CP:  9.92D-01  1.17D+00  1.03D+00  1.35D+00  1.44D+00
                    CP:  2.16D+00  3.00D+00  3.00D+00  3.00D+00  3.00D+00
                    CP:  1.96D+00  3.00D+00  3.00D+00  3.00D+00  1.96D+00
 E= -474.520165810568     Delta-E=       -0.000000004999 Rises=F Damp=F
 DIIS: error= 4.46D-07 at cycle  16 NSaved=  16.
 NSaved=16 IEnMin=16 EnMin= -474.520165810568     IErMin=16 ErrMin= 4.46D-07
 ErrMax= 4.46D-07  0.00D+00 EMaxC= 1.00D-01 BMatC= 6.12D-11 BMatP= 1.75D-10
 IDIUse=1 WtCom= 1.00D+00 WtEn= 0.00D+00
 Coeff-Com:  0.666D-05-0.442D-04-0.117D-04 0.531D-03 0.349D-03-0.307D-02
 Coeff-Com: -0.987D-02 0.185D-01 0.481D-01-0.924D-01-0.473D-01 0.260D+00
 Coeff-Com:  0.171D-01-0.641D+00 0.346D+00 0.110D+01
 Coeff:      0.666D-05-0.442D-04-0.117D-04 0.531D-03 0.349D-03-0.307D-02
 Coeff:     -0.987D-02 0.185D-01 0.481D-01-0.924D-01-0.473D-01 0.260D+00
 Coeff:      0.171D-01-0.641D+00 0.346D+00 0.110D+01
 RMSDP=5.49D-07 MaxDP=1.88D-05 DE=-5.00D-09 OVMax= 0.00D+00

 Cycle  17  Pass 1  IDiag  1:
 RMSU=  8.95D-08    CP:  9.92D-01  1.17D+00  1.03D+00  1.35D+00  1.44D+00
                    CP:  2.17D+00  3.00D+00  3.00D+00  3.00D+00  3.00D+00
                    CP:  1.98D+00  3.00D+00  3.00D+00  3.00D+00  2.54D+00
                    CP:  1.83D+00
 E= -474.520165811688     Delta-E=       -0.000000001120 Rises=F Damp=F
 DIIS: error= 1.64D-07 at cycle  17 NSaved=  17.
 NSaved=17 IEnMin=17 EnMin= -474.520165811688     IErMin=17 ErrMin= 1.64D-07
 ErrMax= 1.64D-07  0.00D+00 EMaxC= 1.00D-01 BMatC= 3.45D-12 BMatP= 6.12D-11
 IDIUse=1 WtCom= 1.00D+00 WtEn= 0.00D+00
 Coeff-Com:  0.801D-06-0.370D-05-0.165D-04 0.367D-04 0.144D-03-0.415D-04
 Coeff-Com: -0.212D-02-0.355D-03 0.902D-02-0.325D-02-0.176D-01 0.884D-02
 Coeff-Com:  0.708D-01-0.501D-01-0.101D+00-0.667D-03 0.109D+01
 Coeff:      0.801D-06-0.370D-05-0.165D-04 0.367D-04 0.144D-03-0.415D-04
 Coeff:     -0.212D-02-0.355D-03 0.902D-02-0.325D-02-0.176D-01 0.884D-02
 Coeff:      0.708D-01-0.501D-01-0.101D+00-0.667D-03 0.109D+01
 RMSDP=3.57D-08 MaxDP=1.15D-06 DE=-1.12D-09 OVMax= 0.00D+00

 Cycle  18  Pass 1  IDiag  1:
 RMSU=  2.38D-08    CP:  9.92D-01  1.17D+00  1.03D+00  1.35D+00  1.44D+00
                    CP:  2.17D+00  3.00D+00  3.00D+00  3.00D+00  3.00D+00
                    CP:  1.98D+00  3.00D+00  3.00D+00  3.00D+00  2.57D+00
                    CP:  1.85D+00  1.10D+00
 E= -474.520165811724     Delta-E=       -0.000000000035 Rises=F Damp=F
 DIIS: error= 9.95D-08 at cycle  18 NSaved=  18.
 NSaved=18 IEnMin=18 EnMin= -474.520165811724     IErMin=18 ErrMin= 9.95D-08
 ErrMax= 9.95D-08  0.00D+00 EMaxC= 1.00D-01 BMatC= 7.11D-13 BMatP= 3.45D-12
 IDIUse=1 WtCom= 1.00D+00 WtEn= 0.00D+00
 Coeff-Com: -0.118D-05 0.796D-05-0.144D-06-0.890D-04-0.627D-04 0.576D-03
 Coeff-Com:  0.163D-02-0.342D-02-0.773D-02 0.151D-01 0.786D-02-0.445D-01
 Coeff-Com: -0.237D-02 0.108D+00-0.511D-01-0.218D+00 0.224D-02 0.119D+01
 Coeff:     -0.118D-05 0.796D-05-0.144D-06-0.890D-04-0.627D-04 0.576D-03
 Coeff:      0.163D-02-0.342D-02-0.773D-02 0.151D-01 0.786D-02-0.445D-01
 Coeff:     -0.237D-02 0.108D+00-0.511D-01-0.218D+00 0.224D-02 0.119D+01
 RMSDP=2.71D-08 MaxDP=8.72D-07 DE=-3.55D-11 OVMax= 0.00D+00

 Cycle  19  Pass 1  IDiag  1:
 RMSU=  7.14D-09    CP:  9.92D-01  1.17D+00  1.03D+00  1.35D+00  1.44D+00
                    CP:  2.17D+00  3.00D+00  3.00D+00  3.00D+00  3.00D+00
                    CP:  1.98D+00  3.00D+00  3.00D+00  3.00D+00  2.59D+00
                    CP:  1.89D+00  1.16D+00  1.46D+00
 E= -474.520165811735     Delta-E=       -0.000000000011 Rises=F Damp=F
 DIIS: error= 4.86D-08 at cycle  19 NSaved=  19.
 NSaved=19 IEnMin=19 EnMin= -474.520165811735     IErMin=19 ErrMin= 4.86D-08
 ErrMax= 4.86D-08  0.00D+00 EMaxC= 1.00D-01 BMatC= 1.08D-13 BMatP= 7.11D-13
 IDIUse=1 WtCom= 1.00D+00 WtEn= 0.00D+00
 Coeff-Com: -0.108D-06 0.528D-06 0.283D-05-0.427D-05-0.244D-04 0.411D-05
 Coeff-Com:  0.260D-03 0.164D-03-0.109D-02 0.194D-03 0.228D-02 0.854D-03
 Coeff-Com: -0.118D-01 0.196D-02 0.225D-01 0.674D-02-0.196D+00-0.125D-01
 Coeff-Com:  0.119D+01
 Coeff:     -0.108D-06 0.528D-06 0.283D-05-0.427D-05-0.244D-04 0.411D-05
 Coeff:      0.260D-03 0.164D-03-0.109D-02 0.194D-03 0.228D-02 0.854D-03
 Coeff:     -0.118D-01 0.196D-02 0.225D-01 0.674D-02-0.196D+00-0.125D-01
 Coeff:      0.119D+01
 RMSDP=7.11D-09 MaxDP=4.12D-07 DE=-1.09D-11 OVMax= 0.00D+00

 SCF Done:  E(RZINDO/S) =  -474.520165812     A.U. after   19 cycles
            NFock= 19  Conv=0.71D-08     -V/T= 0.9501
 KE=-9.503690328349D+03 PE=-7.291728252312D-07 EE= 4.614886817214D+03
 Leave Link  502 at Wed May  4 21:27:50 2022, MaxMem=  6710886400 cpu:              18.4 elap:               0.8
 (Enter /sw/apps/gaussian-16.0/g16/l801.exe)
 Range of M.O.s used for correlation:     1   338
 NBasis=   338 NAE=   176 NBE=   176 NFC=     0 NFV=     0
 NROrb=    338 NOA=   176 NOB=   176 NVA=   162 NVB=   162
 Leave Link  801 at Wed May  4 21:27:50 2022, MaxMem=  6710886400 cpu:               0.6 elap:               0.0
 (Enter /sw/apps/gaussian-16.0/g16/l914.exe)
 RHF ground state
 Two-electron integral symmetry not used.
 MDV=  6710886400 DFT=F DoStab=F Mixed=F DoRPA=F DoScal=F NonHer=F
 Making orbital integer symmetry assigments:
 Orbital symmetries:
       Occupied  (A) (A) (A) (A) (A) (A) (A) (A) (A) (A) (A) (A)
                 (A) (A) (A) (A) (A) (A) (A) (A) (A) (A) (A) (A)
                 (A) (A) (A) (A) (A) (A) (A) (A) (A) (A) (A) (A)
                 (A) (A) (A) (A) (A) (A) (A) (A) (A) (A) (A) (A)
                 (A) (A) (A) (A) (A) (A) (A) (A) (A) (A) (A) (A)
                 (A) (A) (A) (A) (A) (A) (A) (A) (A) (A) (A) (A)
                 (A) (A) (A) (A) (A) (A) (A) (A) (A) (A) (A) (A)
                 (A) (A) (A) (A) (A) (A) (A) (A) (A) (A) (A) (A)
                 (A) (A) (A) (A) (A) (A) (A) (A) (A) (A) (A) (A)
                 (A) (A) (A) (A) (A) (A) (A) (A) (A) (A) (A) (A)
                 (A) (A) (A) (A) (A) (A) (A) (A) (A) (A) (A) (A)
                 (A) (A) (A) (A) (A) (A) (A) (A) (A) (A) (A) (A)
                 (A) (A) (A) (A) (A) (A) (A) (A) (A) (A) (A) (A)
                 (A) (A) (A) (A) (A) (A) (A) (A) (A) (A) (A) (A)
                 (A) (A) (A) (A) (A) (A) (A) (A)
       Virtual   (A) (A) (A) (A) (A) (A) (A) (A) (A) (A) (A) (A)
                 (A) (A) (A) (A) (A) (A) (A) (A) (A) (A) (A) (A)
                 (A) (A) (A) (A) (A) (A) (A) (A) (A) (A) (A) (A)
                 (A) (A) (A) (A) (A) (A) (A) (A) (A) (A) (A) (A)
                 (A) (A) (A) (A) (A) (A) (A) (A) (A) (A) (A) (A)
                 (A) (A) (A) (A) (A) (A) (A) (A) (A) (A) (A) (A)
                 (A) (A) (A) (A) (A) (A) (A) (A) (A) (A) (A) (A)
                 (A) (A) (A) (A) (A) (A) (A) (A) (A) (A) (A) (A)
                 (A) (A) (A) (A) (A) (A) (A) (A) (A) (A) (A) (A)
                 (A) (A) (A) (A) (A) (A) (A) (A) (A) (A) (A) (A)
                 (A) (A) (A) (A) (A) (A) (A) (A) (A) (A) (A) (A)
                 (A) (A) (A) (A) (A) (A) (A) (A) (A) (A) (A) (A)
                 (A) (A) (A) (A) (A) (A) (A) (A) (A) (A) (A) (A)
                 (A) (A) (A) (A) (A) (A)
    20 initial guesses have been made.
 Convergence on wavefunction:    0.001000000000000
 Davidson Disk Diagonalization:  ConvIn= 1.00D-03 SkipCon=T Conv= 1.00D-03.
 Max sub-space:  2000 roots to seek:    20 dimension of matrix:        57024
 Iteration     1 Dimension    20 NMult     0 NNew     20
 CISAX will form    20 AO SS matrices at one time.
 NMat=    20 NSing=    20 JSym2X= 0.
 New state      3 was old state      4
 New state      4 was old state      3
 New state      5 was old state      9
 Excitation Energies [eV] at current iteration:
 Root      1 :     1.620127018428141
 Root      2 :     2.164683278994939
 Root      3 :     3.233506821285852
 Root      4 :     3.421768452146316
 Root      5 :     3.468400801532005
 Root      6 :     3.580809515049705
 Root      7 :     3.673011198484398
 Root      8 :     3.815301211811952
 Root      9 :     3.819687077535346
 Root     10 :     4.072111279340565
 Root     11 :     4.191388470015142
 Root     12 :     4.242210996762109
 Root     13 :     4.265610233426020
 Root     14 :     4.361969894227068
 Root     15 :     4.457377291993244
 Root     16 :     4.469947528973436
 Root     17 :     4.550778687004568
 Root     18 :     4.666132384855527
 Root     19 :     4.731129945246453
 Root     20 :     5.475166338051648
 Iteration     2 Dimension    40 NMult    20 NNew     20
 CISAX will form    20 AO SS matrices at one time.
 NMat=    20 NSing=    20 JSym2X= 0.
 Root      1 not converged, maximum delta is    0.038990886592238
 Root      2 not converged, maximum delta is    0.027215046269274
 Root      3 not converged, maximum delta is    0.187104976833105
 Root      4 not converged, maximum delta is    0.251836665486916
 New state      5 was old state      6
 Root      5 not converged, maximum delta is    0.251708322465020
 Excitation Energies [eV] at current iteration:
 Root      1 :     1.261976661529949   Change is   -0.358150356898192
 Root      2 :     1.972923822028322   Change is   -0.191759456966618
 Root      3 :     3.013256800008334   Change is   -0.220250021277518
 Root      4 :     3.073769819955523   Change is   -0.347998632190794
 Root      5 :     3.356038635863392   Change is   -0.224770879186314
 Root      6 :     3.398252681696702   Change is   -0.274758516787695
 Root      7 :     3.456603652780903   Change is   -0.011797148751102
 Root      8 :     3.556179030043402   Change is   -0.259122181768550
 Root      9 :     3.566504343401277   Change is   -0.253182734134069
 Root     10 :     3.643930861812729   Change is   -0.826016667160707
 Root     11 :     3.669447542228045   Change is   -0.402663737112520
 Root     12 :     3.788034246995384   Change is   -0.477575986430637
 Root     13 :     3.893115829571882   Change is   -0.349095167190228
 Root     14 :     4.076364599107025   Change is   -0.381012692886219
 Root     15 :     4.184859201387884   Change is   -0.006529268627259
 Root     16 :     4.192864246843851   Change is   -0.357914440160716
 Root     17 :     4.303727976294224   Change is   -0.427401968952229
 Root     18 :     4.319949321316041   Change is   -0.042020572911027
 Root     19 :     4.478805052393287   Change is   -0.187327332462241
 Root     20 :     5.467725228357855   Change is   -0.007441109693793
 Iteration     3 Dimension    45 NMult    40 NNew      5
 CISAX will form     5 AO SS matrices at one time.
 NMat=     5 NSing=     5 JSym2X= 0.
 Root      1 not converged, maximum delta is    0.009896143249328
 Root      2 not converged, maximum delta is    0.017459193263397
 Root      3 not converged, maximum delta is    0.026218809196332
 Root      4 not converged, maximum delta is    0.034495872831437
 Root      5 not converged, maximum delta is    0.054898286395438
 Excitation Energies [eV] at current iteration:
 Root      1 :     1.245136594346254   Change is   -0.016840067183695
 Root      2 :     1.946827169896414   Change is   -0.026096652131907
 Root      3 :     2.984171855326707   Change is   -0.029084944681627
 Root      4 :     3.055741197624780   Change is   -0.018028622330743
 Root      5 :     3.306175782798639   Change is   -0.049862853064753
 Iteration     4 Dimension    50 NMult    45 NNew      5
 CISAX will form     5 AO SS matrices at one time.
 NMat=     5 NSing=     5 JSym2X= 0.
 Root      1 not converged, maximum delta is    0.002665561087147
 Root      2 not converged, maximum delta is    0.003452254099864
 Root      3 not converged, maximum delta is    0.011702329883023
 Root      4 not converged, maximum delta is    0.023165360003952
 Root      5 not converged, maximum delta is    0.373435364282794
 Excitation Energies [eV] at current iteration:
 Root      1 :     1.244327672123136   Change is   -0.000808922223118
 Root      2 :     1.946116490735643   Change is   -0.000710679160771
 Root      3 :     2.981439921690534   Change is   -0.002731933636172
 Root      4 :     3.052831789000699   Change is   -0.002909408624081
 Root      5 :     3.115876687621823   Change is   -0.190299095176816
 Iteration     5 Dimension    55 NMult    50 NNew      5
 CISAX will form     5 AO SS matrices at one time.
 NMat=     5 NSing=     5 JSym2X= 0.
 Root      1 has converged.
 Root      2 has converged.
 New state      3 was old state      5
 Root      3 not converged, maximum delta is    0.139473927267813
 New state      4 was old state      3
 Root      4 not converged, maximum delta is    0.083385165528708
 New state      5 was old state      4
 Root      5 not converged, maximum delta is    0.034829602549102
 Excitation Energies [eV] at current iteration:
 Root      1 :     1.244274676821807   Change is   -0.000052995301329
 Root      2 :     1.946071678566332   Change is   -0.000044812169310
 Root      3 :     2.951003920778489   Change is   -0.164872766843333
 Root      4 :     2.983135190292688   Change is    0.001695268602153
 Root      5 :     3.051408991370849   Change is   -0.001422797629850
 Iteration     6 Dimension    58 NMult    55 NNew      3
 CISAX will form     3 AO SS matrices at one time.
 NMat=     3 NSing=     3 JSym2X= 0.
 Root      1 has converged.
 Root      2 has converged.
 Root      3 not converged, maximum delta is    0.066176619027041
 Root      4 not converged, maximum delta is    0.030067773676292
 Root      5 not converged, maximum delta is    0.251608647294985
 Excitation Energies [eV] at current iteration:
 Root      1 :     1.244274383745481   Change is   -0.000000293076327
 Root      2 :     1.946070531737225   Change is   -0.000001146829107
 Root      3 :     2.912723693367495   Change is   -0.038280227410994
 Root      4 :     2.982141103000355   Change is   -0.000994087292332
 Root      5 :     3.026058612068921   Change is   -0.025350379301928
 Iteration     7 Dimension    61 NMult    58 NNew      3
 CISAX will form     3 AO SS matrices at one time.
 NMat=     3 NSing=     3 JSym2X= 0.
 Root      1 has converged.
 Root      2 has converged.
 Root      3 not converged, maximum delta is    0.036637085592347
 Root      4 not converged, maximum delta is    0.099397781311441
 Root      5 not converged, maximum delta is    0.287620225651299
 Excitation Energies [eV] at current iteration:
 Root      1 :     1.244274362870964   Change is   -0.000000020874516
 Root      2 :     1.946070414420104   Change is   -0.000000117317121
 Root      3 :     2.905008151073328   Change is   -0.007715542294167
 Root      4 :     2.981481952081281   Change is   -0.000659150919075
 Root      5 :     2.987846673809214   Change is   -0.038211938259706
 Iteration     8 Dimension    64 NMult    61 NNew      3
 CISAX will form     3 AO SS matrices at one time.
 NMat=     3 NSing=     3 JSym2X= 0.
 Root      1 has converged.
 Root      2 has converged.
 Root      3 not converged, maximum delta is    0.005273058221025
 Root      4 not converged, maximum delta is    0.122445172326759
 Root      5 not converged, maximum delta is    0.221651689371376
 Excitation Energies [eV] at current iteration:
 Root      1 :     1.244274350671005   Change is   -0.000000012199959
 Root      2 :     1.946070409953681   Change is   -0.000000004466423
 Root      3 :     2.904193668231133   Change is   -0.000814482842195
 Root      4 :     2.980336007934898   Change is   -0.001145944146382
 Root      5 :     2.984290057006756   Change is   -0.003556616802458
 Iteration     9 Dimension    67 NMult    64 NNew      3
 CISAX will form     3 AO SS matrices at one time.
 NMat=     3 NSing=     3 JSym2X= 0.
 Root      1 has converged.
 Root      2 has converged.
 Root      3 has converged.
 Root      4 not converged, maximum delta is    0.027187154585163
 Root      5 not converged, maximum delta is    0.033011528775656
 Excitation Energies [eV] at current iteration:
 Root      1 :     1.244274313663555   Change is   -0.000000037007450
 Root      2 :     1.946070394745787   Change is   -0.000000015207894
 Root      3 :     2.904093995849008   Change is   -0.000099672382125
 Root      4 :     2.980051310316031   Change is   -0.000284697618867
 Root      5 :     2.984002595451738   Change is   -0.000287461555019
 Iteration    10 Dimension    69 NMult    67 NNew      2
 CISAX will form     2 AO SS matrices at one time.
 NMat=     2 NSing=     2 JSym2X= 0.
 Root      1 has converged.
 Root      2 has converged.
 Root      3 has converged.
 Root      4 not converged, maximum delta is    0.005058013536139
 Root      5 not converged, maximum delta is    0.005615551799544
 Excitation Energies [eV] at current iteration:
 Root      1 :     1.244274274595420   Change is   -0.000000039068135
 Root      2 :     1.946070343115454   Change is   -0.000000051630333
 Root      3 :     2.904081791728973   Change is   -0.000012204120035
 Root      4 :     2.979994553565031   Change is   -0.000056756751000
 Root      5 :     2.983957730634392   Change is   -0.000044864817345
 Iteration    11 Dimension    71 NMult    69 NNew      2
 CISAX will form     2 AO SS matrices at one time.
 NMat=     2 NSing=     2 JSym2X= 0.
 Root      1 has converged.
 Root      2 has converged.
 Root      3 has converged.
 Root      4 not converged, maximum delta is    0.001499177466399
 Root      5 not converged, maximum delta is    0.001632505448885
 Excitation Energies [eV] at current iteration:
 Root      1 :     1.244274271668794   Change is   -0.000000002926626
 Root      2 :     1.946070331972834   Change is   -0.000000011142621
 Root      3 :     2.904075473454459   Change is   -0.000006318274513
 Root      4 :     2.979977107907706   Change is   -0.000017445657325
 Root      5 :     2.983945280322333   Change is   -0.000012450312059
 Iteration    12 Dimension    73 NMult    71 NNew      2
 CISAX will form     2 AO SS matrices at one time.
 NMat=     2 NSing=     2 JSym2X= 0.
 Root      1 has converged.
 Root      2 has converged.
 Root      3 has converged.
 Root      4 has converged.
 Root      5 has converged.
 Excitation Energies [eV] at current iteration:
 Root      1 :     1.244274252198404   Change is   -0.000000019470389
 Root      2 :     1.946070319186569   Change is   -0.000000012786264
 Root      3 :     2.904071998081597   Change is   -0.000003475372863
 Root      4 :     2.979972519537594   Change is   -0.000004588370112
 Root      5 :     2.983942112947898   Change is   -0.000003167374435
 Convergence achieved on expansion vectors.
 ***********************************************************************
 Excited states from <AA,BB:AA,BB> singles matrix:
 ***********************************************************************
 
 1PDM for each excited state written to RWF  633
 Ground to excited state transition densities written to RWF  633
 Ground to excited state transition electric dipole moments (Au):
       state          X           Y           Z        Dip. S.      Osc.
         1         2.9410      1.8432      2.7967     19.8685      0.6057
         2        -0.1062     -0.5480      0.1478      0.3334      0.0159
         3        -0.0177      0.1523     -0.1169      0.0372      0.0026
         4        -0.0496     -0.5584      0.3080      0.4091      0.0299
         5        -0.1331     -1.7577      0.9070      3.9297      0.2873
 Ground to excited state transition velocity dipole moments (Au):
       state          X           Y           Z        Dip. S.      Osc.
         1         0.0552     -0.0025      0.0510      0.0057      0.0824
         2         0.0042      0.0147     -0.0063      0.0003      0.0026
         3        -0.0020      0.0008      0.0074      0.0001      0.0004
         4        -0.0012      0.0203     -0.0149      0.0006      0.0039
         5        -0.0021      0.0519     -0.0192      0.0031      0.0187
 Ground to excited state transition magnetic dipole moments (Au):
       state          X           Y           Z
         1        -0.1126      0.3938      0.2281
         2        -0.1518      0.0016     -0.0821
         3        -0.4993     -0.0789     -0.4723
         4        -0.2325     -0.6120     -0.5681
         5         0.3532      0.0362     -0.6474
 Ground to excited state transition velocity quadrupole moments (Au):
       state          XX          YY          ZZ          XY          XZ          YZ
         1        -0.9353      0.0693      0.0013      0.0757     -0.3019      0.0046
         2        -0.0300      0.0445     -0.0576     -0.0511      0.0780      0.0298
         3         0.0031      0.1279     -0.0008      0.0123     -0.0271      0.1318
         4        -0.1302      0.0246      0.1135     -0.4807      0.1014     -0.2979
         5        -0.1925      0.1082      0.1769     -0.7618      0.1284     -0.4430
 <0|del|b> * <b|rxdel|0> + <0|del|b> * <b|delr+rdel|0>
 Rotatory Strengths (R) in cgs (10**-40 erg-esu-cm/Gauss)
       state          XX          YY          ZZ    R(velocity)    E-M Angle
         1       106.1016     13.9792    -51.8500     22.7436       82.81
         2        -1.4114     -1.5635      2.0254     -0.3165       90.00
         3       -11.4551     -9.4865      3.9177     -5.6746      118.70
         4         3.6573      6.2265    -33.6684     -7.9282       99.72
         5        71.9782     -6.4910     22.2203     29.2358       70.58
 1/2[<0|r|b>*<b|rxdel|0> + (<0|rxdel|b>*<b|r|0>)*]
 Rotatory Strengths (R) in cgs (10**-40 erg-esu-cm/Gauss)
       state          XX          YY          ZZ     R(length)
         1       234.1686   -513.2730   -451.1388   -243.4144
         2       -11.3963      0.6008      8.5733     -0.7407
         3        -6.2532      8.4945    -39.0567    -12.2718
         4        -8.1525   -241.6674    123.7436    -42.0254
         5        33.2478     45.0309    415.2463    164.5083
  1/2[<0|del|b>*<b|r|0> + (<0|r|b>*<b|del|0>)*] (Au)
       state          X           Y           Z        Dip. S.   Osc.(frdel)
         1         0.1624     -0.0047      0.1426     -0.3003     -0.2002
         2        -0.0004     -0.0081     -0.0009      0.0094      0.0063
         3         0.0000      0.0001     -0.0009      0.0007      0.0005
         4         0.0001     -0.0113     -0.0046      0.0158      0.0106
         5         0.0003     -0.0912     -0.0174      0.1084      0.0723

 Excitation energies and oscillator strengths:
 
 Excited State   1:      Singlet-A      1.2443 eV  996.44 nm  f=0.6057  <S**2>=0.000
     175 ->178        -0.18821
     176 ->177         0.66377
 This state for optimization and/or second-order correction.
 Total Energy, E(CIS/TDA) =  -474.474439574    
 Copying the excited state density for this state as the 1-particle RhoCI density.
 
 Excited State   2:      Singlet-A      1.9461 eV  637.10 nm  f=0.0159  <S**2>=0.000
     175 ->177         0.52172
     176 ->178         0.45449
 
 Excited State   3:      Singlet-A      2.9041 eV  426.93 nm  f=0.0026  <S**2>=0.000
     168 ->177         0.11228
     168 ->179         0.10730
     168 ->180        -0.14152
     169 ->177         0.22701
     169 ->178        -0.12561
     169 ->179         0.20958
     169 ->180        -0.29332
     169 ->186         0.14435
     169 ->187         0.10163
     170 ->177        -0.19473
     170 ->179        -0.14872
     170 ->180         0.23005
     170 ->186        -0.10431
 
 Excited State   4:      Singlet-A      2.9800 eV  416.06 nm  f=0.0299  <S**2>=0.000
     169 ->177        -0.12076
     169 ->179         0.19700
     169 ->180         0.10576
     170 ->177        -0.21015
     170 ->179         0.26342
     170 ->180         0.15306
     170 ->186         0.10752
     176 ->178        -0.10126
     176 ->179         0.42743
 
 Excited State   5:      Singlet-A      2.9839 eV  415.50 nm  f=0.2873  <S**2>=0.000
     169 ->177         0.13244
     169 ->179        -0.11670
     170 ->177         0.13877
     170 ->179        -0.23289
     170 ->186        -0.10051
     175 ->177         0.20272
     176 ->178        -0.27862
     176 ->179         0.39206
     176 ->180        -0.10440
 SavETr:  write IOETrn=   770 NScale= 10 NData=  16 NLR=1 NState=    5 LETran=     100.
 Leave Link  914 at Wed May  4 21:27:54 2022, MaxMem=  6710886400 cpu:             104.3 elap:               4.4
 (Enter /sw/apps/gaussian-16.0/g16/l601.exe)
 Copying SCF densities to generalized density rwf, IOpCl= 0 IROHF=0.

 **********************************************************************

            Population analysis using the SCF density.

 **********************************************************************

 Orbital symmetries:
       Occupied  (A) (A) (A) (A) (A) (A) (A) (A) (A) (A) (A) (A)
                 (A) (A) (A) (A) (A) (A) (A) (A) (A) (A) (A) (A)
                 (A) (A) (A) (A) (A) (A) (A) (A) (A) (A) (A) (A)
                 (A) (A) (A) (A) (A) (A) (A) (A) (A) (A) (A) (A)
                 (A) (A) (A) (A) (A) (A) (A) (A) (A) (A) (A) (A)
                 (A) (A) (A) (A) (A) (A) (A) (A) (A) (A) (A) (A)
                 (A) (A) (A) (A) (A) (A) (A) (A) (A) (A) (A) (A)
                 (A) (A) (A) (A) (A) (A) (A) (A) (A) (A) (A) (A)
                 (A) (A) (A) (A) (A) (A) (A) (A) (A) (A) (A) (A)
                 (A) (A) (A) (A) (A) (A) (A) (A) (A) (A) (A) (A)
                 (A) (A) (A) (A) (A) (A) (A) (A) (A) (A) (A) (A)
                 (A) (A) (A) (A) (A) (A) (A) (A) (A) (A) (A) (A)
                 (A) (A) (A) (A) (A) (A) (A) (A) (A) (A) (A) (A)
                 (A) (A) (A) (A) (A) (A) (A) (A) (A) (A) (A) (A)
                 (A) (A) (A) (A) (A) (A) (A) (A)
       Virtual   (A) (A) (A) (A) (A) (A) (A) (A) (A) (A) (A) (A)
                 (A) (A) (A) (A) (A) (A) (A) (A) (A) (A) (A) (A)
                 (A) (A) (A) (A) (A) (A) (A) (A) (A) (A) (A) (A)
                 (A) (A) (A) (A) (A) (A) (A) (A) (A) (A) (A) (A)
                 (A) (A) (A) (A) (A) (A) (A) (A) (A) (A) (A) (A)
                 (A) (A) (A) (A) (A) (A) (A) (A) (A) (A) (A) (A)
                 (A) (A) (A) (A) (A) (A) (A) (A) (A) (A) (A) (A)
                 (A) (A) (A) (A) (A) (A) (A) (A) (A) (A) (A) (A)
                 (A) (A) (A) (A) (A) (A) (A) (A) (A) (A) (A) (A)
                 (A) (A) (A) (A) (A) (A) (A) (A) (A) (A) (A) (A)
                 (A) (A) (A) (A) (A) (A) (A) (A) (A) (A) (A) (A)
                 (A) (A) (A) (A) (A) (A) (A) (A) (A) (A) (A) (A)
                 (A) (A) (A) (A) (A) (A) (A) (A) (A) (A) (A) (A)
                 (A) (A) (A) (A) (A) (A)
 The electronic state is 1-A.
 Alpha  occ. eigenvalues --   -1.87636  -1.83255  -1.81633  -1.73724  -1.73557
 Alpha  occ. eigenvalues --   -1.71279  -1.63897  -1.60940  -1.58542  -1.58401
 Alpha  occ. eigenvalues --   -1.54772  -1.50771  -1.48381  -1.48077  -1.46499
 Alpha  occ. eigenvalues --   -1.43379  -1.42429  -1.40687  -1.38383  -1.38223
 Alpha  occ. eigenvalues --   -1.35513  -1.33004  -1.32391  -1.31050  -1.28383
 Alpha  occ. eigenvalues --   -1.27427  -1.27101  -1.23117  -1.21357  -1.18597
 Alpha  occ. eigenvalues --   -1.18060  -1.15724  -1.15340  -1.13929  -1.13165
 Alpha  occ. eigenvalues --   -1.12984  -1.10449  -1.09774  -1.05936  -1.04109
 Alpha  occ. eigenvalues --   -1.02409  -1.01416  -1.00033  -0.97815  -0.96344
 Alpha  occ. eigenvalues --   -0.95848  -0.94460  -0.92984  -0.92208  -0.91362
 Alpha  occ. eigenvalues --   -0.90826  -0.90541  -0.89159  -0.88403  -0.87433
 Alpha  occ. eigenvalues --   -0.86358  -0.85466  -0.83530  -0.81539  -0.79609
 Alpha  occ. eigenvalues --   -0.79438  -0.78700  -0.77724  -0.76748  -0.76448
 Alpha  occ. eigenvalues --   -0.75944  -0.75094  -0.74970  -0.73763  -0.73529
 Alpha  occ. eigenvalues --   -0.73226  -0.72368  -0.72033  -0.71394  -0.70812
 Alpha  occ. eigenvalues --   -0.70459  -0.69532  -0.69178  -0.68602  -0.68363
 Alpha  occ. eigenvalues --   -0.67807  -0.66872  -0.66001  -0.65832  -0.64798
 Alpha  occ. eigenvalues --   -0.64452  -0.64076  -0.63600  -0.63326  -0.62881
 Alpha  occ. eigenvalues --   -0.62637  -0.62274  -0.62214  -0.62041  -0.61384
 Alpha  occ. eigenvalues --   -0.61153  -0.60880  -0.60500  -0.59852  -0.59692
 Alpha  occ. eigenvalues --   -0.59576  -0.59221  -0.58336  -0.58244  -0.58101
 Alpha  occ. eigenvalues --   -0.57318  -0.57020  -0.56312  -0.56059  -0.55952
 Alpha  occ. eigenvalues --   -0.55800  -0.55284  -0.55053  -0.54955  -0.54798
 Alpha  occ. eigenvalues --   -0.54157  -0.53862  -0.53797  -0.53198  -0.52956
 Alpha  occ. eigenvalues --   -0.52575  -0.52502  -0.51855  -0.51793  -0.51617
 Alpha  occ. eigenvalues --   -0.51313  -0.50884  -0.50559  -0.50192  -0.49913
 Alpha  occ. eigenvalues --   -0.49577  -0.49400  -0.49209  -0.49031  -0.48756
 Alpha  occ. eigenvalues --   -0.48461  -0.48209  -0.47758  -0.47586  -0.47221
 Alpha  occ. eigenvalues --   -0.47032  -0.46994  -0.46756  -0.46419  -0.46150
 Alpha  occ. eigenvalues --   -0.46050  -0.45880  -0.45696  -0.45411  -0.45197
 Alpha  occ. eigenvalues --   -0.44895  -0.44860  -0.44816  -0.44391  -0.44149
 Alpha  occ. eigenvalues --   -0.43962  -0.43506  -0.42696  -0.42630  -0.41740
 Alpha  occ. eigenvalues --   -0.41540  -0.41127  -0.40573  -0.39313  -0.38584
 Alpha  occ. eigenvalues --   -0.38011  -0.37029  -0.35233  -0.35103  -0.34857
 Alpha  occ. eigenvalues --   -0.33111  -0.32737  -0.32513  -0.29862  -0.26857
 Alpha  occ. eigenvalues --   -0.21521
 Alpha virt. eigenvalues --   -0.08246  -0.02013  -0.00584   0.01090   0.02517
 Alpha virt. eigenvalues --    0.02797   0.03014   0.03364   0.04782   0.05265
 Alpha virt. eigenvalues --    0.06403   0.07374   0.07553   0.07989   0.08328
 Alpha virt. eigenvalues --    0.08557   0.09046   0.09454   0.09629   0.09851
 Alpha virt. eigenvalues --    0.10050   0.10158   0.10468   0.10644   0.10836
 Alpha virt. eigenvalues --    0.11122   0.11354   0.11665   0.11914   0.12291
 Alpha virt. eigenvalues --    0.12458   0.13224   0.13295   0.13651   0.13732
 Alpha virt. eigenvalues --    0.13843   0.14190   0.14438   0.14483   0.14565
 Alpha virt. eigenvalues --    0.14950   0.15306   0.15835   0.15958   0.16052
 Alpha virt. eigenvalues --    0.16135   0.16511   0.16811   0.17031   0.17074
 Alpha virt. eigenvalues --    0.17567   0.17879   0.18091   0.18149   0.18712
 Alpha virt. eigenvalues --    0.18772   0.19032   0.19317   0.19554   0.19834
 Alpha virt. eigenvalues --    0.19873   0.20072   0.20163   0.20898   0.21385
 Alpha virt. eigenvalues --    0.21812   0.22649   0.23233   0.23366   0.23631
 Alpha virt. eigenvalues --    0.23679   0.23875   0.23967   0.24150   0.24166
 Alpha virt. eigenvalues --    0.24277   0.24324   0.24476   0.24652   0.24714
 Alpha virt. eigenvalues --    0.25002   0.25071   0.25087   0.25154   0.25197
 Alpha virt. eigenvalues --    0.25382   0.25463   0.25510   0.25578   0.25653
 Alpha virt. eigenvalues --    0.25710   0.25737   0.25928   0.26007   0.26039
 Alpha virt. eigenvalues --    0.26041   0.26121   0.26298   0.26394   0.26411
 Alpha virt. eigenvalues --    0.26445   0.26579   0.26614   0.26615   0.26642
 Alpha virt. eigenvalues --    0.26732   0.26896   0.26917   0.27104   0.27113
 Alpha virt. eigenvalues --    0.27192   0.27629   0.27648   0.27918   0.27947
 Alpha virt. eigenvalues --    0.28134   0.28662   0.28817   0.29060   0.29966
 Alpha virt. eigenvalues --    0.30234   0.30284   0.30915   0.31481   0.31759
 Alpha virt. eigenvalues --    0.32070   0.32793   0.33609   0.33711   0.34680
 Alpha virt. eigenvalues --    0.34996   0.35145   0.35291   0.35560   0.35783
 Alpha virt. eigenvalues --    0.36477   0.36721   0.37323   0.37533   0.38275
 Alpha virt. eigenvalues --    0.40283   0.40394   0.40808   0.41033   0.41412
 Alpha virt. eigenvalues --    0.41513   0.42119   0.42163   0.42513   0.42851
 Alpha virt. eigenvalues --    0.43781   0.44453   0.45753   0.46244   0.47713
 Alpha virt. eigenvalues --    0.47903   0.48035   0.48279   0.50882   0.53482
 Alpha virt. eigenvalues --    0.55029   0.56940
          Condensed to atoms (all electrons):
 Mulliken charges:
               1
     1  Mg   0.429342
     2  C   -0.042751
     3  C   -0.067415
     4  C   -0.086757
     5  C   -0.055275
     6  N   -0.294487
     7  C    0.126460
     8  C   -0.001143
     9  C   -0.002150
    10  C    0.128918
    11  C   -0.053981
    12  C   -0.015385
    13  C    0.005775
    14  C    0.466425
    15  O   -0.484058
    16  O   -0.274439
    17  N   -0.313138
    18  C    0.106381
    19  C    0.033572
    20  C   -0.048666
    21  C    0.123802
    22  C   -0.040762
    23  C    0.325345
    24  O   -0.532186
    25  C   -0.027947
    26  N   -0.256146
    27  C    0.143689
    28  C    0.002467
    29  C   -0.003179
    30  C    0.110450
    31  C   -0.053096
    32  C   -0.029845
    33  C   -0.056820
    34  N   -0.306761
    35  C    0.094259
    36  C    0.039803
    37  C   -0.051634
    38  C    0.145901
    39  C   -0.036936
    40  C    0.334173
    41  O   -0.531668
    42  C    0.054131
    43  C    0.498098
    44  O   -0.513978
    45  O   -0.263582
    46  C    0.073660
    47  C    0.115071
    48  C   -0.085739
    49  C   -0.014919
    50  C   -0.037355
    51  C   -0.024131
    52  C   -0.027532
    53  C   -0.036581
    54  C   -0.022490
    55  C   -0.055659
    56  C   -0.041125
    57  C   -0.042154
    58  C   -0.024116
    59  C   -0.030833
    60  C   -0.057633
    61  C   -0.035659
    62  C   -0.025555
    63  C   -0.027528
    64  C   -0.013292
    65  C   -0.064044
    66  C   -0.062396
    67  H    0.022508
    68  H    0.015590
    69  H    0.024374
    70  H    0.023575
    71  H    0.023951
    72  H    0.017676
    73  H    0.029369
    74  H    0.028924
    75  H    0.039393
    76  H    0.016662
    77  H    0.027847
    78  H    0.048090
    79  H    0.042663
    80  H    0.013592
    81  H    0.031984
    82  H    0.032478
    83  H    0.038033
    84  H    0.039359
    85  H    0.040100
    86  H    0.037142
    87  H    0.017183
    88  H    0.025029
    89  H    0.016962
    90  H    0.015877
    91  H    0.028096
    92  H    0.020165
    93  H    0.031577
    94  H    0.012107
    95  H    0.014893
    96  H    0.036187
    97  H    0.036334
    98  H    0.054725
    99  H    0.017306
   100  H    0.048065
   101  H    0.047596
   102  H    0.048944
   103  H    0.018003
   104  H    0.031313
   105  H    0.027757
   106  H    0.018904
   107  H    0.036427
   108  H    0.021648
   109  H    0.023205
   110  H    0.011454
   111  H    0.022887
   112  H    0.015804
   113  H    0.022543
   114  H    0.022802
   115  H    0.019355
   116  H    0.005726
   117  H    0.022618
   118  H    0.028092
   119  H    0.021947
   120  H    0.017748
   121  H    0.032553
   122  H    0.009797
   123  H    0.021433
   124  H    0.015630
   125  H    0.022729
   126  H    0.012975
   127  H    0.019521
   128  H    0.021819
   129  H    0.021533
   130  H    0.016437
   131  H    0.014833
   132  H    0.013342
   133  H    0.028177
   134  H    0.024905
   135  H    0.011745
   136  H    0.009437
   137  H    0.021439
   138  H    0.022197
   139  H    0.012528
   140  H    0.009584
 Sum of Mulliken charges =  -0.00000
 Mulliken charges with hydrogens summed into heavy atoms:
               1
     1  Mg   0.429342
     2  C   -0.042751
     3  C   -0.044907
     4  C   -0.071167
     5  C   -0.030901
     6  N   -0.294487
     7  C    0.126460
     8  C    0.022431
     9  C    0.021801
    10  C    0.128918
    11  C    0.021989
    12  C    0.040671
    13  C    0.081712
    14  C    0.466425
    15  O   -0.484058
    16  O   -0.274439
    17  N   -0.313138
    18  C    0.106381
    19  C    0.033572
    20  C   -0.048666
    21  C    0.123802
    22  C    0.047476
    23  C    0.325345
    24  O   -0.532186
    25  C    0.081922
    26  N   -0.256146
    27  C    0.143689
    28  C    0.042567
    29  C    0.033963
    30  C    0.110450
    31  C    0.006078
    32  C    0.014129
    33  C    0.007029
    34  N   -0.306761
    35  C    0.094259
    36  C    0.039803
    37  C   -0.051634
    38  C    0.145901
    39  C    0.050479
    40  C    0.334173
    41  O   -0.531668
    42  C    0.108856
    43  C    0.498098
    44  O   -0.513978
    45  O   -0.263582
    46  C    0.186628
    47  C    0.182018
    48  C   -0.054425
    49  C   -0.014919
    50  C    0.045732
    51  C    0.020721
    52  C    0.006810
    53  C    0.001766
    54  C    0.000312
    55  C   -0.007960
    56  C    0.008914
    57  C    0.008146
    58  C    0.007113
    59  C   -0.015203
    60  C   -0.002408
    61  C    0.007692
    62  C    0.005715
    63  C    0.013991
    64  C    0.011613
    65  C   -0.021422
    66  C   -0.018087
 Charge=              0.0000 electrons
 Dipole moment (field-independent basis, Debye):
    X=             -0.5136    Y=              1.7327    Z=              2.0865  Tot=              2.7604
 N-N= 4.414283346053D+03 E-N= 0.000000000000D+00  KE=-9.503690328349D+03
 Leave Link  601 at Wed May  4 21:27:54 2022, MaxMem=  6710886400 cpu:               0.8 elap:               0.0
 (Enter /sw/apps/gaussian-16.0/g16/l9999.exe)
 1\1\GINC-BP1-COMPUTE123\SP\RZINDO CIS\STO-3G\C55H74Mg1N4O6\OF15641\04-
 May-2022\0\\#p ZINDO=(nstates=5)\\step_451_chromophore_11 ZINDO\\0,1\M
 g,0,53.169,23.461,44.132\C,0,50.319,25.383,43.868\C,0,51.278,20.694,44
 .003\C,0,55.956,21.71,43.872\C,0,54.986,26.402,44.515\N,0,51.1,23.107,
 43.67\C,0,50.092,24.029,43.658\C,0,48.696,23.362,43.688\C,0,49.083,21.
 932,44.242\C,0,50.585,21.856,43.907\C,0,48.771,21.646,45.785\C,0,48.,2
 3.429,42.232\C,0,48.827,22.687,41.143\C,0,49.141,23.56,39.913\O,0,49.9
 77,24.435,39.829\O,0,48.263,23.158,38.884\N,0,53.592,21.465,43.824\C,0
 ,52.639,20.468,43.87\C,0,53.304,19.185,43.687\C,0,54.712,19.431,43.65\
 C,0,54.811,20.926,43.818\C,0,52.558,17.816,43.686\C,0,55.789,18.435,43
 .476\O,0,55.431,17.253,43.42\C,0,57.287,18.748,43.357\N,0,55.197,23.96
 9,44.104\C,0,56.169,23.07,44.042\C,0,57.512,23.661,43.913\C,0,57.237,2
 5.228,44.225\C,0,55.731,25.219,44.257\C,0,58.625,23.077,44.811\C,0,57.
 848,26.184,43.152\C,0,58.7,27.326,43.666\N,0,52.806,25.484,44.24\C,0,5
 3.615,26.542,44.56\C,0,52.763,27.699,44.82\C,0,51.481,27.242,44.542\C,
 0,51.588,25.91,44.123\C,0,53.145,29.106,45.204\C,0,50.108,27.715,44.52
 \O,0,49.649,28.814,44.861\C,0,49.268,26.551,43.917\C,0,48.915,27.032,4
 2.584\O,0,49.672,27.14,41.631\O,0,47.565,27.236,42.561\C,0,47.096,27.7
 44,41.267\C,0,48.482,23.828,37.643\C,0,49.586,23.179,36.972\C,0,49.767
 ,21.797,36.747\C,0,48.758,20.715,36.894\C,0,51.041,21.424,36.06\C,0,51
 .014,20.591,34.768\C,0,52.342,20.054,34.368\C,0,52.508,18.496,34.602\C
 ,0,53.095,18.167,35.983\C,0,53.423,17.771,33.512\C,0,52.575,16.79,32.5
 63\C,0,53.435,15.679,32.051\C,0,52.659,14.537,31.352\C,0,51.989,13.519
 ,32.302\C,0,53.498,13.928,30.12\C,0,53.148,14.594,28.775\C,0,54.037,14
 .24,27.631\C,0,53.53,13.003,26.798\C,0,54.587,11.862,26.563\C,0,52.945
 ,13.496,25.411\H,0,50.678,19.808,44.217\H,0,56.857,21.105,43.755\H,0,5
 5.585,27.305,44.654\H,0,48.053,23.893,44.39\H,0,48.564,21.118,43.735\H
 ,0,48.015,20.865,45.705\H,0,48.353,22.458,46.381\H,0,49.669,21.253,46.
 26\H,0,47.736,24.435,41.905\H,0,47.019,22.976,42.376\H,0,48.28,21.784,
 40.872\H,0,49.8,22.299,41.445\H,0,52.621,17.244,42.761\H,0,51.52,17.87
 6,44.013\H,0,52.908,17.143,44.469\H,0,57.528,19.405,42.521\H,0,57.79,1
 7.806,43.137\H,0,57.648,19.262,44.248\H,0,57.756,23.572,42.854\H,0,57.
 566,25.429,45.245\H,0,58.4,22.072,45.166\H,0,58.854,23.579,45.751\H,0,
 59.534,23.022,44.212\H,0,56.99,26.688,42.706\H,0,58.297,25.699,42.286\
 H,0,59.367,27.047,44.482\H,0,58.094,28.215,43.84\H,0,59.423,27.486,42.
 866\H,0,54.182,29.256,45.504\H,0,52.577,29.57,46.01\H,0,52.979,29.743,
 44.335\H,0,48.361,26.387,44.499\H,0,46.009,27.81,41.323\H,0,47.218,27.
 141,40.367\H,0,47.492,28.743,41.084\H,0,48.528,24.916,37.594\H,0,47.58
 5,23.671,37.043\H,0,50.403,23.847,36.698\H,0,48.504,20.399,35.882\H,0,
 47.857,21.217,37.247\H,0,49.042,19.858,37.505\H,0,51.457,20.781,36.836
 \H,0,51.712,22.262,35.869\H,0,50.731,21.246,33.944\H,0,50.237,19.837,3
 4.897\H,0,53.096,20.42,35.064\H,0,52.608,20.414,33.374\H,0,51.468,18.1
 74,34.657\H,0,53.407,17.129,36.096\H,0,52.324,18.282,36.744\H,0,53.88,
 18.874,36.25\H,0,54.208,17.211,34.02\H,0,53.857,18.529,32.86\H,0,52.39
 7,17.295,31.614\H,0,51.665,16.381,33.002\H,0,53.867,15.217,32.939\H,0,
 54.268,16.06,31.46\H,0,51.723,14.793,30.856\H,0,51.057,13.159,31.866\H
 ,0,51.79,14.115,33.192\H,0,52.616,12.711,32.68\H,0,53.277,12.862,30.06
 1\H,0,54.545,14.105,30.367\H,0,53.096,15.682,28.815\H,0,52.157,14.269,
 28.456\H,0,54.952,13.842,28.07\H,0,54.287,15.047,26.941\H,0,52.751,12.
 383,27.243\H,0,54.672,11.137,27.373\H,0,55.59,12.287,26.542\H,0,54.5,1
 1.23,25.68\H,0,53.541,14.212,24.845\H,0,51.949,13.933,25.487\H,0,52.77
 2,12.647,24.751\\Version=ES64L-G16RevA.03\State=1-A\HF=-474.5201658\RM
 SD=7.112e-09\PG=C01 [X(C55H74Mg1N4O6)]\\@


 AND THIS OUR LIFE, EXEMPT FROM PUBLIC HAUNT,
 FINDS TONGUES IN TREES, BOOKS IN THE RUNNING BROOKS,
 SERMONS IN STONES, AND GOOD IN EVERYTHING.
 I WOULD NOT CHANGE IT. -- W. SHAKESPEARE
 AS YOU LIKE IT, ACT II, SCENE 1.
 Job cpu time:       0 days  0 hours  2 minutes 27.5 seconds.
 Elapsed time:       0 days  0 hours  0 minutes  6.4 seconds.
 File lengths (MBytes):  RWF=   1263 Int=      0 D2E=      0 Chk=     38 Scr=      1
 Normal termination of Gaussian 16 at Wed May  4 21:27:55 2022.
