 Entering Gaussian System, Link 0=g16
 Initial command:
 /sw/apps/gaussian-16.0/g16/l1.exe "/tmp/Gau-51318.inp" -scrdir="/tmp/"
 Entering Link 1 = /sw/apps/gaussian-16.0/g16/l1.exe PID=     51320.
  
 Copyright (c) 1988,1990,1992,1993,1995,1998,2003,2009,2016,
            Gaussian, Inc.  All Rights Reserved.
  
 This is part of the Gaussian(R) 16 program.  It is based on
 the Gaussian(R) 09 system (copyright 2009, Gaussian, Inc.),
 the Gaussian(R) 03 system (copyright 2003, Gaussian, Inc.),
 the Gaussian(R) 98 system (copyright 1998, Gaussian, Inc.),
 the Gaussian(R) 94 system (copyright 1995, Gaussian, Inc.),
 the Gaussian 92(TM) system (copyright 1992, Gaussian, Inc.),
 the Gaussian 90(TM) system (copyright 1990, Gaussian, Inc.),
 the Gaussian 88(TM) system (copyright 1988, Gaussian, Inc.),
 the Gaussian 86(TM) system (copyright 1986, Carnegie Mellon
 University), and the Gaussian 82(TM) system (copyright 1983,
 Carnegie Mellon University). Gaussian is a federally registered
 trademark of Gaussian, Inc.
  
 This software contains proprietary and confidential information,
 including trade secrets, belonging to Gaussian, Inc.
  
 This software is provided under written license and may be
 used, copied, transmitted, or stored only in accord with that
 written license.
  
 The following legend is applicable only to US Government
 contracts under FAR:
  
                    RESTRICTED RIGHTS LEGEND
  
 Use, reproduction and disclosure by the US Government is
 subject to restrictions as set forth in subparagraphs (a)
 and (c) of the Commercial Computer Software - Restricted
 Rights clause in FAR 52.227-19.
  
 Gaussian, Inc.
 340 Quinnipiac St., Bldg. 40, Wallingford CT 06492
  
  
 ---------------------------------------------------------------
 Warning -- This program may not be used in any manner that
 competes with the business of Gaussian, Inc. or will provide
 assistance to any competitor of Gaussian, Inc.  The licensee
 of this program is prohibited from giving any competitor of
 Gaussian, Inc. access to this program.  By using this program,
 the user acknowledges that Gaussian, Inc. is engaged in the
 business of creating and licensing software in the field of
 computational chemistry and represents and warrants to the
 licensee that it is not a competitor of Gaussian, Inc. and that
 it will not use this program in any manner prohibited above.
 ---------------------------------------------------------------
  

 Cite this work as:
 Gaussian 16, Revision A.03,
 M. J. Frisch, G. W. Trucks, H. B. Schlegel, G. E. Scuseria, 
 M. A. Robb, J. R. Cheeseman, G. Scalmani, V. Barone, 
 G. A. Petersson, H. Nakatsuji, X. Li, M. Caricato, A. V. Marenich, 
 J. Bloino, B. G. Janesko, R. Gomperts, B. Mennucci, H. P. Hratchian, 
 J. V. Ortiz, A. F. Izmaylov, J. L. Sonnenberg, D. Williams-Young, 
 F. Ding, F. Lipparini, F. Egidi, J. Goings, B. Peng, A. Petrone, 
 T. Henderson, D. Ranasinghe, V. G. Zakrzewski, J. Gao, N. Rega, 
 G. Zheng, W. Liang, M. Hada, M. Ehara, K. Toyota, R. Fukuda, 
 J. Hasegawa, M. Ishida, T. Nakajima, Y. Honda, O. Kitao, H. Nakai, 
 T. Vreven, K. Throssell, J. A. Montgomery, Jr., J. E. Peralta, 
 F. Ogliaro, M. J. Bearpark, J. J. Heyd, E. N. Brothers, K. N. Kudin, 
 V. N. Staroverov, T. A. Keith, R. Kobayashi, J. Normand, 
 K. Raghavachari, A. P. Rendell, J. C. Burant, S. S. Iyengar, 
 J. Tomasi, M. Cossi, J. M. Millam, M. Klene, C. Adamo, R. Cammi, 
 J. W. Ochterski, R. L. Martin, K. Morokuma, O. Farkas, 
 J. B. Foresman, and D. J. Fox, Gaussian, Inc., Wallingford CT, 2016.
 
 ******************************************
 Gaussian 16:  ES64L-G16RevA.03 25-Dec-2016
                30-Apr-2022 
 ******************************************
 %nproc=24
 Will use up to   24 processors via shared memory.
 %mem=75GB
 -----------------------------------
 #p cam-b3lyp/Def2SVP td=(nstates=5)
 -----------------------------------
 1/38=1,172=1/1;
 2/12=2,17=6,18=5,40=1/2;
 3/5=43,7=101,11=9,25=1,30=1,74=-40/1,2,3,8;
 4//1;
 5/5=2,38=5/2;
 8/6=1,10=1,108=5/1;
 9/41=5,42=1,70=2/14;
 6/7=2,8=2,9=2,10=2/1;
 99/5=1,9=1/99;
 Leave Link    1 at Sat Apr 30 00:49:00 2022, MaxMem= 10066329600 cpu:               0.6 elap:               0.0
 (Enter /sw/apps/gaussian-16.0/g16/l101.exe)
 -----------------------------------------------------
 step_51_chromophore_5 TDDFT with cam-b3lyp functional
 -----------------------------------------------------
 Symbolic Z-matrix:
 Charge =  0 Multiplicity = 1
 Mg                    24.643   -6.258     45.52 
 C                     27.137   -3.85      44.439 
 C                     22.465   -5.02      43.355 
 C                     22.777   -8.966     46.174 
 C                     27.349   -7.781     47.154 
 N                     24.823   -4.632     43.986 
 C                     25.844   -3.699     43.81 
 C                     25.431   -2.693     42.767 
 C                     23.85    -2.988     42.686 
 C                     23.666   -4.295     43.406 
 C                     22.942   -1.896     43.285 
 C                     26.185   -2.828     41.409 
 C                     26.771   -1.483     40.984 
 C                     25.821   -0.561     40.176 
 O                     24.864    0.047     40.561 
 O                     26.26    -0.543     38.892 
 N                     22.798   -6.929     44.844 
 C                     22.048   -6.239     44.008 
 C                     20.761   -6.855     43.883 
 C                     20.813   -8.007     44.68 
 C                     22.184   -8.065     45.23 
 C                     19.678   -6.127     43.178 
 C                     19.616   -8.939     45.012 
 O                     18.553   -8.574     44.598 
 C                     19.625   -10.155    45.926 
 N                     25.037   -8.143     46.392 
 C                     24.02    -9.033     46.679 
 C                     24.426   -10.185    47.578 
 C                     25.966   -9.885     47.658 
 C                     26.138   -8.516     47.062 
 C                     23.639   -10.066    48.89 
 C                     26.809   -10.946    46.911 
 C                     28.068   -11.452    47.759 
 N                     26.658   -5.815     45.964 
 C                     27.656   -6.541     46.605 
 C                     28.906   -5.884     46.72 
 C                     28.735   -4.837     45.84 
 C                     27.397   -4.879     45.372 
 C                     30.256   -6.502     47.343 
 C                     29.413   -3.715     45.216 
 O                     30.574   -3.297     45.415 
 C                     28.422   -3.115     44.246 
 C                     28.275   -1.695     44.668 
 O                     28.799   -0.724     44.118 
 O                     27.368   -1.509     45.669 
 C                     27.176   -0.127     46.133 
 C                     25.536    0.188     37.891 
 C                     24.467   -0.702     37.44 
 C                     24.506   -1.94      36.858 
 C                     25.815   -2.776     36.653 
 C                     23.224   -2.674     36.589 
 C                     23.106   -3.176     35.088 
 C                     22.404   -4.503     34.958 
 C                     22.281   -4.923     33.516 
 C                     21.001   -5.726     33.271 
 C                     23.478   -5.705     33.054 
 C                     23.627   -5.553     31.514 
 C                     24.73    -4.453     31.144 
 C                     24.411   -3.584     29.953 
 C                     23.698   -2.321     30.398 
 C                     25.715   -3.225     29.202 
 C                     25.733   -3.814     27.764 
 C                     24.95    -3.001     26.669 
 C                     23.929   -3.953     25.935 
 C                     24.369   -4.262     24.5 
 C                     22.531   -3.279     25.955 
 H                     21.855   -4.636     42.534 
 H                     22.198   -9.839     46.481 
 H                     28.172   -8.214     47.726 
 H                     25.604   -1.711     43.207 
 H                     23.585   -3.062     41.631 
 H                     23.539   -1.077     43.685 
 H                     22.424   -2.287     44.161 
 H                     22.181   -1.504     42.61 
 H                     25.475   -3.164     40.653 
 H                     26.999   -3.533     41.575 
 H                     27.669   -1.781     40.442 
 H                     26.994   -0.862     41.851 
 H                     20.002   -5.734     42.214 
 H                     19.354   -5.252     43.743 
 H                     18.773   -6.714     43.019 
 H                     20.016   -9.904     46.912 
 H                     20.321   -10.816    45.41 
 H                     18.569   -10.414    45.997 
 H                     24.182   -11.135    47.103 
 H                     26.228   -9.945     48.714 
 H                     22.596   -10.247    48.63 
 H                     23.92    -9.12      49.353 
 H                     23.956   -10.969    49.411 
 H                     27.105   -10.48     45.972 
 H                     26.244   -11.825    46.6 
 H                     28.042   -12.537    47.869 
 H                     28.011   -11.2      48.818 
 H                     29.034   -11.125    47.375 
 H                     30.853   -5.732     47.832 
 H                     30.764   -7.077     46.57 
 H                     30.039   -7.351     47.991 
 H                     28.956   -3.229     43.303 
 H                     26.795    0.511     45.336 
 H                     28.087    0.375     46.457 
 H                     26.57    -0.074     47.037 
 H                     26.25     0.305     37.075 
 H                     25.189    1.116     38.345 
 H                     23.504   -0.242     37.661 
 H                     26.3     -2.974     37.609 
 H                     26.529   -2.112     36.166 
 H                     25.667   -3.635     36. 
 H                     22.448   -1.909     36.564 
 H                     23.117   -3.485     37.31 
 H                     24.056   -3.171     34.553 
 H                     22.447   -2.531     34.507 
 H                     21.42    -4.424     35.419 
 H                     23.139   -5.136     35.456 
 H                     22.325   -4.078     32.829 
 H                     20.292   -5.002     32.87 
 H                     20.577   -6.126     34.192 
 H                     20.948   -6.529     32.536 
 H                     23.385   -6.78      33.206 
 H                     24.371   -5.3       33.529 
 H                     22.705   -5.349     30.97 
 H                     24.035   -6.513     31.199 
 H                     25.537   -5.166     30.975 
 H                     25.107   -3.942     32.03 
 H                     23.602   -4.057     29.396 
 H                     23.125   -2.405     31.321 
 H                     23.082   -1.979     29.566 
 H                     24.478   -1.565     30.495 
 H                     26.61    -3.644     29.662 
 H                     26.005   -2.178     29.115 
 H                     25.36    -4.833     27.862 
 H                     26.789   -3.794     27.494 
 H                     25.747   -2.661     26.008 
 H                     24.452   -2.103     27.035 
 H                     23.795   -4.92      26.419 
 H                     23.629   -3.779     23.861 
 H                     24.348   -5.338     24.324 
 H                     25.41    -4.022     24.285 
 H                     21.956   -3.483     25.052 
 H                     22.637   -2.196     26.025 
 H                     22.048   -3.666     26.853 
 
 ITRead=  0  0  0  0  0  0  0  0  0  0  0  0  0  0  0  0  0  0  0  0
 ITRead=  0  0  0  0  0  0  0  0  0  0  0  0  0  0  0  0  0  0  0  0
 ITRead=  0  0  0  0  0  0  0  0  0  0  0  0  0  0  0  0  0  0  0  0
 ITRead=  0  0  0  0  0  0  0  0  0  0  0  0  0  0  0  0  0  0  0  0
 ITRead=  0  0  0  0  0  0  0  0  0  0  0  0  0  0  0  0  0  0  0  0
 ITRead=  0  0  0  0  0  0  0  0  0  0  0  0  0  0  0  0  0  0  0  0
 ITRead=  0  0  0  0  0  0  0  0  0  0  0  0  0  0  0  0  0  0  0  0
 MicOpt= -1 -1 -1 -1 -1 -1 -1 -1 -1 -1 -1 -1 -1 -1 -1 -1 -1 -1 -1 -1
 MicOpt= -1 -1 -1 -1 -1 -1 -1 -1 -1 -1 -1 -1 -1 -1 -1 -1 -1 -1 -1 -1
 MicOpt= -1 -1 -1 -1 -1 -1 -1 -1 -1 -1 -1 -1 -1 -1 -1 -1 -1 -1 -1 -1
 MicOpt= -1 -1 -1 -1 -1 -1 -1 -1 -1 -1 -1 -1 -1 -1 -1 -1 -1 -1 -1 -1
 MicOpt= -1 -1 -1 -1 -1 -1 -1 -1 -1 -1 -1 -1 -1 -1 -1 -1 -1 -1 -1 -1
 MicOpt= -1 -1 -1 -1 -1 -1 -1 -1 -1 -1 -1 -1 -1 -1 -1 -1 -1 -1 -1 -1
 MicOpt= -1 -1 -1 -1 -1 -1 -1 -1 -1 -1 -1 -1 -1 -1 -1 -1 -1 -1 -1 -1
 NAtoms=    140 NQM=      140 NQMF=       0 NMMI=      0 NMMIF=      0
                NMic=       0 NMicF=      0.
                    Isotopes and Nuclear Properties:
 (Nuclear quadrupole moments (NQMom) in fm**2, nuclear magnetic moments (NMagM)
  in nuclear magnetons)

  Atom         1           2           3           4           5           6           7           8           9          10
 IAtWgt=          24          12          12          12          12          14          12          12          12          12
 AtmWgt=  23.9850450  12.0000000  12.0000000  12.0000000  12.0000000  14.0030740  12.0000000  12.0000000  12.0000000  12.0000000
 NucSpn=           0           0           0           0           0           2           0           0           0           0
 AtZEff=  -0.0000000  -0.0000000  -0.0000000  -0.0000000  -0.0000000  -0.0000000  -0.0000000  -0.0000000  -0.0000000  -0.0000000
 NQMom=    0.0000000   0.0000000   0.0000000   0.0000000   0.0000000   2.0440000   0.0000000   0.0000000   0.0000000   0.0000000
 NMagM=    0.0000000   0.0000000   0.0000000   0.0000000   0.0000000   0.4037610   0.0000000   0.0000000   0.0000000   0.0000000
 AtZNuc=  12.0000000   6.0000000   6.0000000   6.0000000   6.0000000   7.0000000   6.0000000   6.0000000   6.0000000   6.0000000

  Atom        11          12          13          14          15          16          17          18          19          20
 IAtWgt=          12          12          12          12          16          16          14          12          12          12
 AtmWgt=  12.0000000  12.0000000  12.0000000  12.0000000  15.9949146  15.9949146  14.0030740  12.0000000  12.0000000  12.0000000
 NucSpn=           0           0           0           0           0           0           2           0           0           0
 AtZEff=  -0.0000000  -0.0000000  -0.0000000  -0.0000000  -0.0000000  -0.0000000  -0.0000000  -0.0000000  -0.0000000  -0.0000000
 NQMom=    0.0000000   0.0000000   0.0000000   0.0000000   0.0000000   0.0000000   2.0440000   0.0000000   0.0000000   0.0000000
 NMagM=    0.0000000   0.0000000   0.0000000   0.0000000   0.0000000   0.0000000   0.4037610   0.0000000   0.0000000   0.0000000
 AtZNuc=   6.0000000   6.0000000   6.0000000   6.0000000   8.0000000   8.0000000   7.0000000   6.0000000   6.0000000   6.0000000

  Atom        21          22          23          24          25          26          27          28          29          30
 IAtWgt=          12          12          12          16          12          14          12          12          12          12
 AtmWgt=  12.0000000  12.0000000  12.0000000  15.9949146  12.0000000  14.0030740  12.0000000  12.0000000  12.0000000  12.0000000
 NucSpn=           0           0           0           0           0           2           0           0           0           0
 AtZEff=  -0.0000000  -0.0000000  -0.0000000  -0.0000000  -0.0000000  -0.0000000  -0.0000000  -0.0000000  -0.0000000  -0.0000000
 NQMom=    0.0000000   0.0000000   0.0000000   0.0000000   0.0000000   2.0440000   0.0000000   0.0000000   0.0000000   0.0000000
 NMagM=    0.0000000   0.0000000   0.0000000   0.0000000   0.0000000   0.4037610   0.0000000   0.0000000   0.0000000   0.0000000
 AtZNuc=   6.0000000   6.0000000   6.0000000   8.0000000   6.0000000   7.0000000   6.0000000   6.0000000   6.0000000   6.0000000

  Atom        31          32          33          34          35          36          37          38          39          40
 IAtWgt=          12          12          12          14          12          12          12          12          12          12
 AtmWgt=  12.0000000  12.0000000  12.0000000  14.0030740  12.0000000  12.0000000  12.0000000  12.0000000  12.0000000  12.0000000
 NucSpn=           0           0           0           2           0           0           0           0           0           0
 AtZEff=  -0.0000000  -0.0000000  -0.0000000  -0.0000000  -0.0000000  -0.0000000  -0.0000000  -0.0000000  -0.0000000  -0.0000000
 NQMom=    0.0000000   0.0000000   0.0000000   2.0440000   0.0000000   0.0000000   0.0000000   0.0000000   0.0000000   0.0000000
 NMagM=    0.0000000   0.0000000   0.0000000   0.4037610   0.0000000   0.0000000   0.0000000   0.0000000   0.0000000   0.0000000
 AtZNuc=   6.0000000   6.0000000   6.0000000   7.0000000   6.0000000   6.0000000   6.0000000   6.0000000   6.0000000   6.0000000

  Atom        41          42          43          44          45          46          47          48          49          50
 IAtWgt=          16          12          12          16          16          12          12          12          12          12
 AtmWgt=  15.9949146  12.0000000  12.0000000  15.9949146  15.9949146  12.0000000  12.0000000  12.0000000  12.0000000  12.0000000
 NucSpn=           0           0           0           0           0           0           0           0           0           0
 AtZEff=  -0.0000000  -0.0000000  -0.0000000  -0.0000000  -0.0000000  -0.0000000  -0.0000000  -0.0000000  -0.0000000  -0.0000000
 NQMom=    0.0000000   0.0000000   0.0000000   0.0000000   0.0000000   0.0000000   0.0000000   0.0000000   0.0000000   0.0000000
 NMagM=    0.0000000   0.0000000   0.0000000   0.0000000   0.0000000   0.0000000   0.0000000   0.0000000   0.0000000   0.0000000
 AtZNuc=   8.0000000   6.0000000   6.0000000   8.0000000   8.0000000   6.0000000   6.0000000   6.0000000   6.0000000   6.0000000

  Atom        51          52          53          54          55          56          57          58          59          60
 IAtWgt=          12          12          12          12          12          12          12          12          12          12
 AtmWgt=  12.0000000  12.0000000  12.0000000  12.0000000  12.0000000  12.0000000  12.0000000  12.0000000  12.0000000  12.0000000
 NucSpn=           0           0           0           0           0           0           0           0           0           0
 AtZEff=  -0.0000000  -0.0000000  -0.0000000  -0.0000000  -0.0000000  -0.0000000  -0.0000000  -0.0000000  -0.0000000  -0.0000000
 NQMom=    0.0000000   0.0000000   0.0000000   0.0000000   0.0000000   0.0000000   0.0000000   0.0000000   0.0000000   0.0000000
 NMagM=    0.0000000   0.0000000   0.0000000   0.0000000   0.0000000   0.0000000   0.0000000   0.0000000   0.0000000   0.0000000
 AtZNuc=   6.0000000   6.0000000   6.0000000   6.0000000   6.0000000   6.0000000   6.0000000   6.0000000   6.0000000   6.0000000

  Atom        61          62          63          64          65          66          67          68          69          70
 IAtWgt=          12          12          12          12          12          12           1           1           1           1
 AtmWgt=  12.0000000  12.0000000  12.0000000  12.0000000  12.0000000  12.0000000   1.0078250   1.0078250   1.0078250   1.0078250
 NucSpn=           0           0           0           0           0           0           1           1           1           1
 AtZEff=  -0.0000000  -0.0000000  -0.0000000  -0.0000000  -0.0000000  -0.0000000  -0.0000000  -0.0000000  -0.0000000  -0.0000000
 NQMom=    0.0000000   0.0000000   0.0000000   0.0000000   0.0000000   0.0000000   0.0000000   0.0000000   0.0000000   0.0000000
 NMagM=    0.0000000   0.0000000   0.0000000   0.0000000   0.0000000   0.0000000   2.7928460   2.7928460   2.7928460   2.7928460
 AtZNuc=   6.0000000   6.0000000   6.0000000   6.0000000   6.0000000   6.0000000   1.0000000   1.0000000   1.0000000   1.0000000

  Atom        71          72          73          74          75          76          77          78          79          80
 IAtWgt=           1           1           1           1           1           1           1           1           1           1
 AtmWgt=   1.0078250   1.0078250   1.0078250   1.0078250   1.0078250   1.0078250   1.0078250   1.0078250   1.0078250   1.0078250
 NucSpn=           1           1           1           1           1           1           1           1           1           1
 AtZEff=  -0.0000000  -0.0000000  -0.0000000  -0.0000000  -0.0000000  -0.0000000  -0.0000000  -0.0000000  -0.0000000  -0.0000000
 NQMom=    0.0000000   0.0000000   0.0000000   0.0000000   0.0000000   0.0000000   0.0000000   0.0000000   0.0000000   0.0000000
 NMagM=    2.7928460   2.7928460   2.7928460   2.7928460   2.7928460   2.7928460   2.7928460   2.7928460   2.7928460   2.7928460
 AtZNuc=   1.0000000   1.0000000   1.0000000   1.0000000   1.0000000   1.0000000   1.0000000   1.0000000   1.0000000   1.0000000

  Atom        81          82          83          84          85          86          87          88          89          90
 IAtWgt=           1           1           1           1           1           1           1           1           1           1
 AtmWgt=   1.0078250   1.0078250   1.0078250   1.0078250   1.0078250   1.0078250   1.0078250   1.0078250   1.0078250   1.0078250
 NucSpn=           1           1           1           1           1           1           1           1           1           1
 AtZEff=  -0.0000000  -0.0000000  -0.0000000  -0.0000000  -0.0000000  -0.0000000  -0.0000000  -0.0000000  -0.0000000  -0.0000000
 NQMom=    0.0000000   0.0000000   0.0000000   0.0000000   0.0000000   0.0000000   0.0000000   0.0000000   0.0000000   0.0000000
 NMagM=    2.7928460   2.7928460   2.7928460   2.7928460   2.7928460   2.7928460   2.7928460   2.7928460   2.7928460   2.7928460
 AtZNuc=   1.0000000   1.0000000   1.0000000   1.0000000   1.0000000   1.0000000   1.0000000   1.0000000   1.0000000   1.0000000

  Atom        91          92          93          94          95          96          97          98          99         100
 IAtWgt=           1           1           1           1           1           1           1           1           1           1
 AtmWgt=   1.0078250   1.0078250   1.0078250   1.0078250   1.0078250   1.0078250   1.0078250   1.0078250   1.0078250   1.0078250
 NucSpn=           1           1           1           1           1           1           1           1           1           1
 AtZEff=  -0.0000000  -0.0000000  -0.0000000  -0.0000000  -0.0000000  -0.0000000  -0.0000000  -0.0000000  -0.0000000  -0.0000000
 NQMom=    0.0000000   0.0000000   0.0000000   0.0000000   0.0000000   0.0000000   0.0000000   0.0000000   0.0000000   0.0000000
 NMagM=    2.7928460   2.7928460   2.7928460   2.7928460   2.7928460   2.7928460   2.7928460   2.7928460   2.7928460   2.7928460
 AtZNuc=   1.0000000   1.0000000   1.0000000   1.0000000   1.0000000   1.0000000   1.0000000   1.0000000   1.0000000   1.0000000

  Atom       101         102         103         104         105         106         107         108         109         110
 IAtWgt=           1           1           1           1           1           1           1           1           1           1
 AtmWgt=   1.0078250   1.0078250   1.0078250   1.0078250   1.0078250   1.0078250   1.0078250   1.0078250   1.0078250   1.0078250
 NucSpn=           1           1           1           1           1           1           1           1           1           1
 AtZEff=  -0.0000000  -0.0000000  -0.0000000  -0.0000000  -0.0000000  -0.0000000  -0.0000000  -0.0000000  -0.0000000  -0.0000000
 NQMom=    0.0000000   0.0000000   0.0000000   0.0000000   0.0000000   0.0000000   0.0000000   0.0000000   0.0000000   0.0000000
 NMagM=    2.7928460   2.7928460   2.7928460   2.7928460   2.7928460   2.7928460   2.7928460   2.7928460   2.7928460   2.7928460
 AtZNuc=   1.0000000   1.0000000   1.0000000   1.0000000   1.0000000   1.0000000   1.0000000   1.0000000   1.0000000   1.0000000

  Atom       111         112         113         114         115         116         117         118         119         120
 IAtWgt=           1           1           1           1           1           1           1           1           1           1
 AtmWgt=   1.0078250   1.0078250   1.0078250   1.0078250   1.0078250   1.0078250   1.0078250   1.0078250   1.0078250   1.0078250
 NucSpn=           1           1           1           1           1           1           1           1           1           1
 AtZEff=  -0.0000000  -0.0000000  -0.0000000  -0.0000000  -0.0000000  -0.0000000  -0.0000000  -0.0000000  -0.0000000  -0.0000000
 NQMom=    0.0000000   0.0000000   0.0000000   0.0000000   0.0000000   0.0000000   0.0000000   0.0000000   0.0000000   0.0000000
 NMagM=    2.7928460   2.7928460   2.7928460   2.7928460   2.7928460   2.7928460   2.7928460   2.7928460   2.7928460   2.7928460
 AtZNuc=   1.0000000   1.0000000   1.0000000   1.0000000   1.0000000   1.0000000   1.0000000   1.0000000   1.0000000   1.0000000

  Atom       121         122         123         124         125         126         127         128         129         130
 IAtWgt=           1           1           1           1           1           1           1           1           1           1
 AtmWgt=   1.0078250   1.0078250   1.0078250   1.0078250   1.0078250   1.0078250   1.0078250   1.0078250   1.0078250   1.0078250
 NucSpn=           1           1           1           1           1           1           1           1           1           1
 AtZEff=  -0.0000000  -0.0000000  -0.0000000  -0.0000000  -0.0000000  -0.0000000  -0.0000000  -0.0000000  -0.0000000  -0.0000000
 NQMom=    0.0000000   0.0000000   0.0000000   0.0000000   0.0000000   0.0000000   0.0000000   0.0000000   0.0000000   0.0000000
 NMagM=    2.7928460   2.7928460   2.7928460   2.7928460   2.7928460   2.7928460   2.7928460   2.7928460   2.7928460   2.7928460
 AtZNuc=   1.0000000   1.0000000   1.0000000   1.0000000   1.0000000   1.0000000   1.0000000   1.0000000   1.0000000   1.0000000

  Atom       131         132         133         134         135         136         137         138         139         140
 IAtWgt=           1           1           1           1           1           1           1           1           1           1
 AtmWgt=   1.0078250   1.0078250   1.0078250   1.0078250   1.0078250   1.0078250   1.0078250   1.0078250   1.0078250   1.0078250
 NucSpn=           1           1           1           1           1           1           1           1           1           1
 AtZEff=  -0.0000000  -0.0000000  -0.0000000  -0.0000000  -0.0000000  -0.0000000  -0.0000000  -0.0000000  -0.0000000  -0.0000000
 NQMom=    0.0000000   0.0000000   0.0000000   0.0000000   0.0000000   0.0000000   0.0000000   0.0000000   0.0000000   0.0000000
 NMagM=    2.7928460   2.7928460   2.7928460   2.7928460   2.7928460   2.7928460   2.7928460   2.7928460   2.7928460   2.7928460
 AtZNuc=   1.0000000   1.0000000   1.0000000   1.0000000   1.0000000   1.0000000   1.0000000   1.0000000   1.0000000   1.0000000
 Leave Link  101 at Sat Apr 30 00:49:00 2022, MaxMem= 10066329600 cpu:               2.8 elap:               0.1
 (Enter /sw/apps/gaussian-16.0/g16/l202.exe)
 Stoichiometry    C55H74MgN4O6
 Framework group  C1[X(C55H74MgN4O6)]
 Deg. of freedom   414
 Full point group                 C1      NOp   1
 Largest Abelian subgroup         C1      NOp   1
 Largest concise Abelian subgroup C1      NOp   1
                         Standard orientation:                         
 ---------------------------------------------------------------------
 Center     Atomic      Atomic             Coordinates (Angstroms)
 Number     Number       Type             X           Y           Z
 ---------------------------------------------------------------------
      1         12           0        5.037085    0.670124   -0.221161
      2          6           0        3.704316   -2.674578    0.251861
      3          6           0        2.478695    1.446343   -2.174536
      4          6           0        6.071546    3.848282    0.047429
      5          6           0        7.183907   -0.206048    2.412354
      6          7           0        3.221039   -0.493693   -0.835112
      7          6           0        2.946058   -1.849502   -0.661696
      8          6           0        1.684695   -2.205430   -1.405155
      9          6           0        1.527461   -0.911401   -2.350625
     10          6           0        2.483921    0.098955   -1.780651
     11          6           0        1.804256   -1.149013   -3.848174
     12          6           0        0.456248   -2.490190   -0.488238
     13          6           0       -0.185217   -3.828376   -0.849937
     14          6           0       -1.247599   -3.781269   -1.978907
     15          8           0       -1.083168   -3.612520   -3.152885
     16          8           0       -2.463508   -3.971153   -1.406884
     17          7           0        4.354912    2.473227   -0.992331
     18          6           0        3.331053    2.556680   -1.818311
     19          6           0        3.223521    3.889787   -2.330866
     20          6           0        4.243659    4.619938   -1.705395
     21          6           0        4.912536    3.681600   -0.779311
     22          6           0        2.290008    4.158838   -3.451609
     23          6           0        4.654879    6.079605   -2.039949
     24          8           0        4.081971    6.572533   -2.969135
     25          6           0        5.798491    6.874576   -1.428143
     26          7           0        6.312602    1.696169    1.116425
     27          6           0        6.687152    3.007468    0.895146
     28          6           0        7.837908    3.488172    1.758179
     29          6           0        7.989511    2.218370    2.670659
     30          6           0        7.139929    1.159264    2.026091
     31          6           0        9.021947    3.811286    0.837027
     32          6           0        7.556357    2.491324    4.130883
     33          6           0        8.598647    1.927646    5.206113
     34          7           0        5.555558   -1.060046    0.870309
     35          6           0        6.418802   -1.266947    1.940805
     36          6           0        6.504817   -2.603950    2.401670
     37          6           0        5.415105   -3.169078    1.774767
     38          6           0        4.849782   -2.187866    0.921149
     39          6           0        7.359179   -3.126441    3.662472
     40          6           0        4.634167   -4.388232    1.666391
     41          8           0        4.843764   -5.498495    2.200837
     42          6           0        3.477167   -4.063240    0.750580
     43          6           0        3.580619   -5.039096   -0.368838
     44          8           0        2.889520   -6.050716   -0.506403
     45          8           0        4.437174   -4.654311   -1.357524
     46          6           0        4.585458   -5.575906   -2.493640
     47          6           0       -3.654331   -3.919713   -2.206779
     48          6           0       -4.003358   -2.503808   -2.314735
     49          6           0       -4.309992   -1.572491   -1.360002
     50          6           0       -4.220674   -1.830353    0.182700
     51          6           0       -4.532883   -0.143163   -1.762472
     52          6           0       -5.901445    0.444058   -1.213712
     53          6           0       -5.814656    1.899883   -0.834667
     54          6           0       -7.143198    2.425133   -0.355101
     55          6           0       -7.328211    3.901180   -0.716055
     56          6           0       -7.325351    2.227927    1.123313
     57          6           0       -8.844071    2.160857    1.448731
     58          6           0       -9.335474    0.645909    1.612937
     59          6           0      -10.704296    0.340134    1.057750
     60          6           0      -10.595810   -0.139861   -0.377310
     61          6           0      -11.395359   -0.734684    1.929815
     62          6           0      -12.672484   -0.182074    2.621668
     63          6           0      -13.977111   -0.141634    1.744516
     64          6           0      -14.584743    1.313575    1.770035
     65          6           0      -15.879809    1.375730    2.586887
     66          6           0      -14.828530    1.767298    0.305869
     67          1           0        1.545312    1.656732   -2.701916
     68          1           0        6.500712    4.848527    0.130773
     69          1           0        7.903674   -0.501611    3.178239
     70          1           0        1.924828   -3.080309   -2.009121
     71          1           0        0.491608   -0.578697   -2.279603
     72          1           0        2.076672   -2.188524   -4.028113
     73          1           0        2.693115   -0.595172   -4.151111
     74          1           0        0.998124   -0.855871   -4.520950
     75          1           0       -0.273210   -1.692964   -0.632651
     76          1           0        0.836131   -2.543085    0.531599
     77          1           0       -0.572148   -4.168513    0.111085
     78          1           0        0.550249   -4.513947   -1.269627
     79          1           0        1.297879    3.743257   -3.273583
     80          1           0        2.630261    3.687009   -4.374339
     81          1           0        2.177050    5.215157   -3.697181
     82          1           0        6.741508    6.333876   -1.508393
     83          1           0        5.494397    6.933647   -0.383332
     84          1           0        5.828208    7.772335   -2.044912
     85          1           0        7.550768    4.391106    2.296622
     86          1           0        9.053882    1.985349    2.684585
     87          1           0        8.714151    4.674455    0.246763
     88          1           0        9.301492    2.887327    0.330666
     89          1           0        9.744909    4.206198    1.550265
     90          1           0        6.570962    2.039117    4.235757
     91          1           0        7.385925    3.544552    4.355050
     92          1           0        8.928695    2.726353    5.871797
     93          1           0        9.573034    1.682904    4.783141
     94          1           0        8.241938    1.070689    5.777011
     95          1           0        7.728471   -4.138575    3.496227
     96          1           0        6.770265   -2.978561    4.566646
     97          1           0        8.147530   -2.421036    3.924580
     98          1           0        2.629252   -4.253263    1.408101
     99          1           0        3.642955   -5.708210   -3.024297
    100          1           0        4.877336   -6.589799   -2.222108
    101          1           0        5.401682   -5.288936   -3.155976
    102          1           0       -4.410571   -4.412135   -1.594436
    103          1           0       -3.435248   -4.404184   -3.158094
    104          1           0       -3.968515   -2.207623   -3.363005
    105          1           0       -3.205403   -2.104411    0.469899
    106          1           0       -4.769912   -2.752699    0.371055
    107          1           0       -4.691640   -1.042111    0.768413
    108          1           0       -4.784497   -0.173035   -2.822578
    109          1           0       -3.671590    0.453129   -1.459783
    110          1           0       -6.339850   -0.152987   -0.413657
    111          1           0       -6.659503    0.474707   -1.996192
    112          1           0       -5.468779    2.465649   -1.699129
    113          1           0       -5.133242    1.816788    0.012498
    114          1           0       -7.983983    1.843530   -0.732921
    115          1           0       -7.931715    3.891162   -1.623436
    116          1           0       -6.385347    4.393666   -0.953717
    117          1           0       -7.882301    4.591913   -0.080670
    118          1           0       -6.962374    3.060789    1.724949
    119          1           0       -6.867822    1.282791    1.413973
    120          1           0       -9.497772    2.687907    0.754087
    121          1           0       -8.915709    2.614272    2.436948
    122          1           0       -9.280919    0.635082    2.701553
    123          1           0       -8.545076   -0.065556    1.373493
    124          1           0      -11.220186    1.285664    0.889556
    125          1           0       -9.729731    0.222895   -0.930148
    126          1           0      -11.531723    0.106264   -0.879439
    127          1           0      -10.589361   -1.228929   -0.320453
    128          1           0      -10.781256   -1.078716    2.762105
    129          1           0      -11.671811   -1.686713    1.476943
    130          1           0      -12.398452    0.804735    2.993432
    131          1           0      -12.846473   -0.886793    3.435016
    132          1           0      -14.621299   -0.867526    2.240331
    133          1           0      -13.850863   -0.493637    0.720544
    134          1           0      -13.924352    2.064231    2.203279
    135          1           0      -16.667902    1.584881    1.862748
    136          1           0      -15.829820    2.191369    3.308986
    137          1           0      -16.047197    0.515530    3.234608
    138          1           0      -15.716680    2.390585    0.204121
    139          1           0      -14.975739    0.898924   -0.337001
    140          1           0      -13.915979    2.292439    0.021369
 ---------------------------------------------------------------------
 Rotational constants (GHZ):           0.0396472           0.0109971           0.0098090
 Leave Link  202 at Sat Apr 30 00:49:00 2022, MaxMem= 10066329600 cpu:               0.2 elap:               0.0
 (Enter /sw/apps/gaussian-16.0/g16/l301.exe)
 Standard basis: def2SVP (5D, 7F)
 Ernie: Thresh=  0.10000D-02 Tol=  0.10000D-05 Strict=F.
 There are  1364 symmetry adapted cartesian basis functions of A   symmetry.
 There are  1298 symmetry adapted basis functions of A   symmetry.
  1298 basis functions,  2180 primitive gaussians,  1364 cartesian basis functions
   246 alpha electrons      246 beta electrons
       nuclear repulsion energy      9713.4195948946 Hartrees.
 IExCor=20419 DFT=T Ex+Corr=CAM-B3LYP ExCW=0 ScaHFX=  1.000000
 ScaDFX=  1.000000  1.000000  1.000000  0.810000 ScalE2=  1.000000  1.000000
 IRadAn=      5 IRanWt=     -1 IRanGd=            0 ICorTp=0 IEmpDi=  4
 HFx  wShort=  0.000000 wLong=  0.330000 cFull=  0.190000 cShort=  0.000000 cLong=  0.460000
 DFx  wShort=  0.000000 wLong=  0.330000 cFull=  0.190000 cShort=  0.000000 cLong=  0.460000
 NAtoms=  140 NActive=  140 NUniq=  140 SFac= 1.00D+00 NAtFMM=   60 NAOKFM=T Big=T
 Integral buffers will be    131072 words long.
 Raffenetti 1 integral format.
 Two-electron integral symmetry is turned on.
 Leave Link  301 at Sat Apr 30 00:49:00 2022, MaxMem= 10066329600 cpu:               1.6 elap:               0.1
 (Enter /sw/apps/gaussian-16.0/g16/l302.exe)
 NPDir=0 NMtPBC=     1 NCelOv=     1 NCel=       1 NClECP=     1 NCelD=      1
         NCelK=      1 NCelE2=     1 NClLst=     1 CellRange=     0.0.
 One-electron integrals computed using PRISM.
 One-electron integral symmetry used in STVInt
   1 Symmetry operations used in ECPInt.
 ECPInt:  NShTT=  192510 NPrTT=  683786 LenC2=   97753 LenP2D=  213791.
 LDataN:  DoStor=T MaxTD1= 4 Len=   56
 NBasis=  1298 RedAO= T EigKep=  2.83D-04  NBF=  1298
 NBsUse=  1298 1.00D-06 EigRej= -1.00D+00 NBFU=  1298
 Precomputing XC quadrature grid using
 IXCGrd= 4 IRadAn=           5 IRanWt=          -1 IRanGd=           0 AccXCQ= 0.00D+00.
 Generated NRdTot=       0 NPtTot=           0 NUsed=           0 NTot=          32
 NSgBfM=  1058  1055  1058  1058  1058 MxSgAt=   140 MxSgA2=   140.
 Leave Link  302 at Sat Apr 30 00:49:04 2022, MaxMem= 10066329600 cpu:              89.6 elap:               3.8
 (Enter /sw/apps/gaussian-16.0/g16/l303.exe)
 DipDrv:  MaxL=1.
 Leave Link  303 at Sat Apr 30 00:49:04 2022, MaxMem= 10066329600 cpu:               6.6 elap:               0.3
 (Enter /sw/apps/gaussian-16.0/g16/l308.exe)
 Leave Link  308 at Sat Apr 30 00:49:05 2022, MaxMem= 10066329600 cpu:               9.7 elap:               0.5
 (Enter /sw/apps/gaussian-16.0/g16/l401.exe)
 ExpMin= 3.36D-02 ExpMax= 4.95D+03 ExpMxC= 7.45D+02 IAcc=3 IRadAn=         5 AccDes= 0.00D+00
 Harris functional with IExCor=20419 and IRadAn=       5 diagonalized for initial guess.
 HarFok:  IExCor=20419 AccDes= 0.00D+00 IRadAn=         5 IDoV= 1 UseB2=F ITyADJ=14
 ICtDFT=  3500011 ScaDFX=  1.000000  1.000000  1.000000  1.000000
 FoFCou: FMM=F IPFlag=           0 FMFlag=      100000 FMFlg1=        2001
         NFxFlg=           0 DoJE=T BraDBF=F KetDBF=T FulRan=T
         wScrn=  0.000000 ICntrl=       500 IOpCl=  0 I1Cent=   200000004 NGrid=           0
         NMat0=    1 NMatS0=      1 NMatT0=    0 NMatD0=    1 NMtDS0=    0 NMtDT0=    0
 Petite list used in FoFCou.
 Harris En= -2890.80764369719    
 JPrj=0 DoOrth=F DoCkMO=F.
 Leave Link  401 at Sat Apr 30 00:49:10 2022, MaxMem= 10066329600 cpu:             138.8 elap:               5.8
 (Enter /sw/apps/gaussian-16.0/g16/l502.exe)
 Integral symmetry usage will be decided dynamically.
 Closed shell SCF:
 Using DIIS extrapolation, IDIIS=  1040.
 NGot= 10066329600 LenX= 10062561258 LenY= 10060699398
 Requested convergence on RMS density matrix=1.00D-08 within 128 cycles.
 Requested convergence on MAX density matrix=1.00D-06.
 Requested convergence on             energy=1.00D-06.
 No special actions if energy rises.
 Fock matrices will be formed incrementally for  20 cycles.

 Cycle   1  Pass 1  IDiag  1:
 FoFJK:  IHMeth= 1 ICntrl=       0 DoSepK=T KAlg= 0 I1Cent=           0 FoldK=F
 IRaf=         1 NMat=       1 IRICut=       1 DoRegI=T DoRafI=F ISym2E= 0 IDoP0=0 IntGTp=1.
 FoFCou: FMM=T IPFlag=           0 FMFlag=      100000 FMFlg1=        2001
         NFxFlg=           0 DoJE=T BraDBF=F KetDBF=F FulRan=T
         wScrn=  0.000000 ICntrl=       500 IOpCl=  0 I1Cent=           0 NGrid=           0
         NMat0=    1 NMatS0=      1 NMatT0=    0 NMatD0=    1 NMtDS0=    0 NMtDT0=    0
 Symmetry not used in FoFCou.
 FMM levels:  10  Number of levels for PrismC:   9
 E= -3006.50892496495    
 DIIS: error= 2.20D-02 at cycle   1 NSaved=   1.
 NSaved= 1 IEnMin= 1 EnMin= -3006.50892496495     IErMin= 1 ErrMin= 2.20D-02
 ErrMax= 2.20D-02  0.00D+00 EMaxC= 1.00D-01 BMatC= 1.25D+00 BMatP= 1.25D+00
 IDIUse=3 WtCom= 7.80D-01 WtEn= 2.20D-01
 Coeff-Com:  0.100D+01
 Coeff-En:   0.100D+01
 Coeff:      0.100D+01
 Gap=     0.121 Goal=   None    Shift=    0.000
 GapD=    0.121 DampG=1.000 DampE=0.500 DampFc=0.5000 IDamp=-1.
 Damping current iteration by 5.00D-01
 RMSDP=1.57D-03 MaxDP=1.36D-01              OVMax= 1.81D-01

 Cycle   2  Pass 1  IDiag  1:
 RMSU=  7.70D-04    CP:  9.84D-01
 E= -3006.81081475159     Delta-E=       -0.301889786644 Rises=F Damp=T
 DIIS: error= 1.06D-02 at cycle   2 NSaved=   2.
 NSaved= 2 IEnMin= 2 EnMin= -3006.81081475159     IErMin= 2 ErrMin= 1.06D-02
 ErrMax= 1.06D-02  0.00D+00 EMaxC= 1.00D-01 BMatC= 2.30D-01 BMatP= 1.25D+00
 IDIUse=3 WtCom= 8.94D-01 WtEn= 1.06D-01
 Coeff-Com: -0.238D+00 0.124D+01
 Coeff-En:   0.000D+00 0.100D+01
 Coeff:     -0.212D+00 0.121D+01
 Gap=     0.134 Goal=   None    Shift=    0.000
 RMSDP=7.28D-04 MaxDP=1.10D-01 DE=-3.02D-01 OVMax= 1.69D-01

 Cycle   3  Pass 1  IDiag  1:
 RMSU=  7.10D-04    CP:  9.73D-01  1.16D+00
 E= -3007.03399349730     Delta-E=       -0.223178745704 Rises=F Damp=F
 DIIS: error= 1.27D-02 at cycle   3 NSaved=   3.
 NSaved= 3 IEnMin= 3 EnMin= -3007.03399349730     IErMin= 2 ErrMin= 1.06D-02
 ErrMax= 1.27D-02  0.00D+00 EMaxC= 1.00D-01 BMatC= 1.43D-01 BMatP= 2.30D-01
 IDIUse=3 WtCom= 8.73D-01 WtEn= 1.27D-01
 Coeff-Com: -0.272D+00 0.656D+00 0.616D+00
 Coeff-En:   0.000D+00 0.000D+00 0.100D+01
 Coeff:     -0.238D+00 0.573D+00 0.665D+00
 Gap=     0.125 Goal=   None    Shift=    0.000
 RMSDP=4.94D-04 MaxDP=4.34D-02 DE=-2.23D-01 OVMax= 1.16D-01

 Cycle   4  Pass 1  IDiag  1:
 RMSU=  2.65D-04    CP:  9.70D-01  1.50D+00  5.43D-01
 E= -3007.12959879306     Delta-E=       -0.095605295759 Rises=F Damp=F
 DIIS: error= 5.97D-03 at cycle   4 NSaved=   4.
 NSaved= 4 IEnMin= 4 EnMin= -3007.12959879306     IErMin= 4 ErrMin= 5.97D-03
 ErrMax= 5.97D-03  0.00D+00 EMaxC= 1.00D-01 BMatC= 3.34D-02 BMatP= 1.43D-01
 IDIUse=3 WtCom= 9.40D-01 WtEn= 5.97D-02
 Coeff-Com: -0.115D+00 0.236D+00 0.401D+00 0.478D+00
 Coeff-En:   0.000D+00 0.000D+00 0.203D+00 0.797D+00
 Coeff:     -0.108D+00 0.222D+00 0.390D+00 0.497D+00
 Gap=     0.124 Goal=   None    Shift=    0.000
 RMSDP=1.90D-04 MaxDP=3.23D-02 DE=-9.56D-02 OVMax= 5.31D-02

 Cycle   5  Pass 1  IDiag  1:
 RMSU=  8.16D-05    CP:  9.69D-01  1.45D+00  7.06D-01  5.52D-01
 E= -3007.15851509278     Delta-E=       -0.028916299721 Rises=F Damp=F
 DIIS: error= 7.67D-04 at cycle   5 NSaved=   5.
 NSaved= 5 IEnMin= 5 EnMin= -3007.15851509278     IErMin= 5 ErrMin= 7.67D-04
 ErrMax= 7.67D-04  0.00D+00 EMaxC= 1.00D-01 BMatC= 8.97D-04 BMatP= 3.34D-02
 IDIUse=3 WtCom= 9.92D-01 WtEn= 7.67D-03
 Coeff-Com: -0.453D-01 0.895D-01 0.180D+00 0.262D+00 0.514D+00
 Coeff-En:   0.000D+00 0.000D+00 0.000D+00 0.000D+00 0.100D+01
 Coeff:     -0.450D-01 0.888D-01 0.179D+00 0.260D+00 0.518D+00
 Gap=     0.123 Goal=   None    Shift=    0.000
 RMSDP=4.20D-05 MaxDP=9.73D-03 DE=-2.89D-02 OVMax= 1.50D-02

 Cycle   6  Pass 1  IDiag  1:
 RMSU=  2.82D-05    CP:  9.69D-01  1.45D+00  6.99D-01  6.06D-01  6.70D-01
 E= -3007.15926904836     Delta-E=       -0.000753955579 Rises=F Damp=F
 DIIS: error= 3.66D-04 at cycle   6 NSaved=   6.
 NSaved= 6 IEnMin= 6 EnMin= -3007.15926904836     IErMin= 6 ErrMin= 3.66D-04
 ErrMax= 3.66D-04  0.00D+00 EMaxC= 1.00D-01 BMatC= 1.38D-04 BMatP= 8.97D-04
 IDIUse=3 WtCom= 9.96D-01 WtEn= 3.66D-03
 Coeff-Com:  0.272D-03-0.244D-02 0.141D-01 0.389D-01 0.299D+00 0.651D+00
 Coeff-En:   0.000D+00 0.000D+00 0.000D+00 0.000D+00 0.128D+00 0.872D+00
 Coeff:      0.271D-03-0.243D-02 0.141D-01 0.388D-01 0.298D+00 0.651D+00
 Gap=     0.124 Goal=   None    Shift=    0.000
 RMSDP=1.93D-05 MaxDP=5.98D-03 DE=-7.54D-04 OVMax= 7.98D-03

 Cycle   7  Pass 1  IDiag  1:
 RMSU=  1.12D-05    CP:  9.69D-01  1.45D+00  7.06D-01  6.08D-01  8.13D-01
                    CP:  6.88D-01
 E= -3007.15941018961     Delta-E=       -0.000141141250 Rises=F Damp=F
 DIIS: error= 8.85D-05 at cycle   7 NSaved=   7.
 NSaved= 7 IEnMin= 7 EnMin= -3007.15941018961     IErMin= 7 ErrMin= 8.85D-05
 ErrMax= 8.85D-05  0.00D+00 EMaxC= 1.00D-01 BMatC= 1.70D-05 BMatP= 1.38D-04
 IDIUse=1 WtCom= 1.00D+00 WtEn= 0.00D+00
 Coeff-Com:  0.437D-02-0.951D-02-0.875D-02-0.518D-02 0.105D+00 0.348D+00
 Coeff-Com:  0.566D+00
 Coeff:      0.437D-02-0.951D-02-0.875D-02-0.518D-02 0.105D+00 0.348D+00
 Coeff:      0.566D+00
 Gap=     0.124 Goal=   None    Shift=    0.000
 RMSDP=5.55D-06 MaxDP=5.19D-04 DE=-1.41D-04 OVMax= 1.74D-03

 Cycle   8  Pass 1  IDiag  1:
 RMSU=  3.99D-06    CP:  9.69D-01  1.45D+00  7.08D-01  6.10D-01  8.12D-01
                    CP:  7.98D-01  8.16D-01
 E= -3007.15942830828     Delta-E=       -0.000018118677 Rises=F Damp=F
 DIIS: error= 3.42D-05 at cycle   8 NSaved=   8.
 NSaved= 8 IEnMin= 8 EnMin= -3007.15942830828     IErMin= 8 ErrMin= 3.42D-05
 ErrMax= 3.42D-05  0.00D+00 EMaxC= 1.00D-01 BMatC= 1.76D-06 BMatP= 1.70D-05
 IDIUse=1 WtCom= 1.00D+00 WtEn= 0.00D+00
 Coeff-Com:  0.221D-02-0.437D-02-0.725D-02-0.114D-01-0.978D-02 0.363D-01
 Coeff-Com:  0.252D+00 0.742D+00
 Coeff:      0.221D-02-0.437D-02-0.725D-02-0.114D-01-0.978D-02 0.363D-01
 Coeff:      0.252D+00 0.742D+00
 Gap=     0.124 Goal=   None    Shift=    0.000
 RMSDP=3.00D-06 MaxDP=6.72D-04 DE=-1.81D-05 OVMax= 1.49D-03

 Cycle   9  Pass 1  IDiag  1:
 RMSU=  1.92D-06    CP:  9.69D-01  1.45D+00  7.08D-01  6.11D-01  8.29D-01
                    CP:  8.14D-01  9.72D-01  9.70D-01
 E= -3007.15943146467     Delta-E=       -0.000003156385 Rises=F Damp=F
 DIIS: error= 1.41D-05 at cycle   9 NSaved=   9.
 NSaved= 9 IEnMin= 9 EnMin= -3007.15943146467     IErMin= 9 ErrMin= 1.41D-05
 ErrMax= 1.41D-05  0.00D+00 EMaxC= 1.00D-01 BMatC= 3.98D-07 BMatP= 1.76D-06
 IDIUse=1 WtCom= 1.00D+00 WtEn= 0.00D+00
 Coeff-Com:  0.657D-03-0.120D-02-0.275D-02-0.552D-02-0.172D-01-0.226D-01
 Coeff-Com:  0.616D-01 0.400D+00 0.587D+00
 Coeff:      0.657D-03-0.120D-02-0.275D-02-0.552D-02-0.172D-01-0.226D-01
 Coeff:      0.616D-01 0.400D+00 0.587D+00
 Gap=     0.124 Goal=   None    Shift=    0.000
 RMSDP=1.19D-06 MaxDP=6.89D-05 DE=-3.16D-06 OVMax= 4.85D-04

 Cycle  10  Pass 1  IDiag  1:
 RMSU=  8.30D-07    CP:  9.69D-01  1.45D+00  7.08D-01  6.11D-01  8.32D-01
                    CP:  8.21D-01  1.00D+00  1.15D+00  1.01D+00
 E= -3007.15943227994     Delta-E=       -0.000000815271 Rises=F Damp=F
 DIIS: error= 1.09D-05 at cycle  10 NSaved=  10.
 NSaved=10 IEnMin=10 EnMin= -3007.15943227994     IErMin=10 ErrMin= 1.09D-05
 ErrMax= 1.09D-05  0.00D+00 EMaxC= 1.00D-01 BMatC= 6.09D-08 BMatP= 3.98D-07
 IDIUse=1 WtCom= 1.00D+00 WtEn= 0.00D+00
 Coeff-Com: -0.371D-03 0.778D-03 0.941D-03 0.766D-03-0.570D-02-0.240D-01
 Coeff-Com: -0.527D-01-0.794D-02 0.196D+00 0.893D+00
 Coeff:     -0.371D-03 0.778D-03 0.941D-03 0.766D-03-0.570D-02-0.240D-01
 Coeff:     -0.527D-01-0.794D-02 0.196D+00 0.893D+00
 Gap=     0.124 Goal=   None    Shift=    0.000
 RMSDP=1.10D-06 MaxDP=1.48D-04 DE=-8.15D-07 OVMax= 7.05D-04

 Cycle  11  Pass 1  IDiag  1:
 RMSU=  5.61D-07    CP:  9.69D-01  1.45D+00  7.08D-01  6.11D-01  8.35D-01
                    CP:  8.24D-01  1.04D+00  1.24D+00  1.34D+00  1.23D+00
 E= -3007.15943267395     Delta-E=       -0.000000394013 Rises=F Damp=F
 DIIS: error= 5.90D-06 at cycle  11 NSaved=  11.
 NSaved=11 IEnMin=11 EnMin= -3007.15943267395     IErMin=11 ErrMin= 5.90D-06
 ErrMax= 5.90D-06  0.00D+00 EMaxC= 1.00D-01 BMatC= 5.08D-08 BMatP= 6.09D-08
 IDIUse=1 WtCom= 1.00D+00 WtEn= 0.00D+00
 Coeff-Com: -0.364D-03 0.718D-03 0.120D-02 0.187D-02 0.151D-02-0.647D-02
 Coeff-Com: -0.478D-01-0.102D+00-0.133D+00 0.576D+00 0.708D+00
 Coeff:     -0.364D-03 0.718D-03 0.120D-02 0.187D-02 0.151D-02-0.647D-02
 Coeff:     -0.478D-01-0.102D+00-0.133D+00 0.576D+00 0.708D+00
 Gap=     0.124 Goal=   None    Shift=    0.000
 RMSDP=6.74D-07 MaxDP=5.14D-05 DE=-3.94D-07 OVMax= 3.49D-04

 Cycle  12  Pass 1  IDiag  1:
 RMSU=  2.33D-07    CP:  9.69D-01  1.45D+00  7.08D-01  6.11D-01  8.36D-01
                    CP:  8.26D-01  1.06D+00  1.33D+00  1.49D+00  1.69D+00
                    CP:  1.17D+00
 E= -3007.15943284853     Delta-E=       -0.000000174579 Rises=F Damp=F
 DIIS: error= 2.96D-06 at cycle  12 NSaved=  12.
 NSaved=12 IEnMin=12 EnMin= -3007.15943284853     IErMin=12 ErrMin= 2.96D-06
 ErrMax= 2.96D-06  0.00D+00 EMaxC= 1.00D-01 BMatC= 8.66D-09 BMatP= 5.08D-08
 IDIUse=1 WtCom= 1.00D+00 WtEn= 0.00D+00
 Coeff-Com: -0.419D-04 0.696D-04 0.223D-03 0.612D-03 0.231D-02 0.547D-02
 Coeff-Com: -0.520D-02-0.308D-01-0.156D+00 0.611D-01 0.221D+00 0.901D+00
 Coeff:     -0.419D-04 0.696D-04 0.223D-03 0.612D-03 0.231D-02 0.547D-02
 Coeff:     -0.520D-02-0.308D-01-0.156D+00 0.611D-01 0.221D+00 0.901D+00
 Gap=     0.124 Goal=   None    Shift=    0.000
 RMSDP=4.24D-07 MaxDP=2.05D-05 DE=-1.75D-07 OVMax= 2.83D-04

 Cycle  13  Pass 1  IDiag  1:
 RMSU=  1.57D-07    CP:  9.69D-01  1.45D+00  7.08D-01  6.11D-01  8.36D-01
                    CP:  8.25D-01  1.07D+00  1.37D+00  1.59D+00  1.93D+00
                    CP:  1.54D+00  1.27D+00
 E= -3007.15943289893     Delta-E=       -0.000000050399 Rises=F Damp=F
 DIIS: error= 1.57D-06 at cycle  13 NSaved=  13.
 NSaved=13 IEnMin=13 EnMin= -3007.15943289893     IErMin=13 ErrMin= 1.57D-06
 ErrMax= 1.57D-06  0.00D+00 EMaxC= 1.00D-01 BMatC= 4.87D-09 BMatP= 8.66D-09
 IDIUse=1 WtCom= 1.00D+00 WtEn= 0.00D+00
 Coeff-Com:  0.102D-03-0.210D-03-0.304D-03-0.294D-03 0.476D-03 0.553D-02
 Coeff-Com:  0.129D-01 0.225D-01-0.559D-01-0.148D+00-0.202D+00 0.547D+00
 Coeff-Com:  0.819D+00
 Coeff:      0.102D-03-0.210D-03-0.304D-03-0.294D-03 0.476D-03 0.553D-02
 Coeff:      0.129D-01 0.225D-01-0.559D-01-0.148D+00-0.202D+00 0.547D+00
 Coeff:      0.819D+00
 Gap=     0.124 Goal=   None    Shift=    0.000
 RMSDP=2.88D-07 MaxDP=1.48D-05 DE=-5.04D-08 OVMax= 1.60D-04

 Cycle  14  Pass 1  IDiag  1:
 RMSU=  6.21D-08    CP:  9.69D-01  1.45D+00  7.08D-01  6.11D-01  8.37D-01
                    CP:  8.26D-01  1.07D+00  1.39D+00  1.65D+00  2.13D+00
                    CP:  1.75D+00  1.77D+00  1.14D+00
 E= -3007.15943291790     Delta-E=       -0.000000018967 Rises=F Damp=F
 DIIS: error= 6.33D-07 at cycle  14 NSaved=  14.
 NSaved=14 IEnMin=14 EnMin= -3007.15943291790     IErMin=14 ErrMin= 6.33D-07
 ErrMax= 6.33D-07  0.00D+00 EMaxC= 1.00D-01 BMatC= 5.58D-10 BMatP= 4.87D-09
 IDIUse=1 WtCom= 1.00D+00 WtEn= 0.00D+00
 Coeff-Com:  0.610D-04-0.121D-03-0.210D-03-0.291D-03-0.444D-03 0.142D-02
 Coeff-Com:  0.678D-02 0.199D-01 0.659D-02-0.653D-01-0.155D+00 0.747D-01
 Coeff-Com:  0.337D+00 0.775D+00
 Coeff:      0.610D-04-0.121D-03-0.210D-03-0.291D-03-0.444D-03 0.142D-02
 Coeff:      0.678D-02 0.199D-01 0.659D-02-0.653D-01-0.155D+00 0.747D-01
 Coeff:      0.337D+00 0.775D+00
 Gap=     0.124 Goal=   None    Shift=    0.000
 RMSDP=8.93D-08 MaxDP=9.88D-06 DE=-1.90D-08 OVMax= 5.87D-05

 Cycle  15  Pass 1  IDiag  1:
 RMSU=  3.21D-08    CP:  9.69D-01  1.45D+00  7.08D-01  6.11D-01  8.36D-01
                    CP:  8.26D-01  1.07D+00  1.40D+00  1.66D+00  2.17D+00
                    CP:  1.82D+00  1.91D+00  1.38D+00  1.11D+00
 E= -3007.15943291987     Delta-E=       -0.000000001972 Rises=F Damp=F
 DIIS: error= 2.51D-07 at cycle  15 NSaved=  15.
 NSaved=15 IEnMin=15 EnMin= -3007.15943291987     IErMin=15 ErrMin= 2.51D-07
 ErrMax= 2.51D-07  0.00D+00 EMaxC= 1.00D-01 BMatC= 1.38D-10 BMatP= 5.58D-10
 IDIUse=1 WtCom= 1.00D+00 WtEn= 0.00D+00
 Coeff-Com:  0.597D-05-0.106D-04-0.297D-04-0.553D-04-0.288D-03-0.240D-03
 Coeff-Com:  0.175D-03 0.387D-02 0.884D-02-0.635D-03-0.341D-01-0.457D-01
 Coeff-Com: -0.266D-01 0.324D+00 0.770D+00
 Coeff:      0.597D-05-0.106D-04-0.297D-04-0.553D-04-0.288D-03-0.240D-03
 Coeff:      0.175D-03 0.387D-02 0.884D-02-0.635D-03-0.341D-01-0.457D-01
 Coeff:     -0.266D-01 0.324D+00 0.770D+00
 Gap=     0.124 Goal=   None    Shift=    0.000
 RMSDP=3.99D-08 MaxDP=2.18D-06 DE=-1.97D-09 OVMax= 2.18D-05

 Cycle  16  Pass 1  IDiag  1:
 RMSU=  1.58D-08    CP:  9.69D-01  1.45D+00  7.08D-01  6.11D-01  8.37D-01
                    CP:  8.26D-01  1.07D+00  1.40D+00  1.67D+00  2.19D+00
                    CP:  1.85D+00  1.98D+00  1.45D+00  1.34D+00  1.15D+00
 E= -3007.15943292028     Delta-E=       -0.000000000415 Rises=F Damp=F
 DIIS: error= 1.56D-07 at cycle  16 NSaved=  16.
 NSaved=16 IEnMin=16 EnMin= -3007.15943292028     IErMin=16 ErrMin= 1.56D-07
 ErrMax= 1.56D-07  0.00D+00 EMaxC= 1.00D-01 BMatC= 3.00D-11 BMatP= 1.38D-10
 IDIUse=1 WtCom= 1.00D+00 WtEn= 0.00D+00
 Coeff-Com: -0.121D-04 0.245D-04 0.370D-04 0.446D-04-0.542D-04-0.413D-03
 Coeff-Com: -0.173D-02-0.287D-02 0.231D-02 0.182D-01 0.212D-01-0.323D-01
 Coeff-Com: -0.110D+00-0.297D-01 0.324D+00 0.811D+00
 Coeff:     -0.121D-04 0.245D-04 0.370D-04 0.446D-04-0.542D-04-0.413D-03
 Coeff:     -0.173D-02-0.287D-02 0.231D-02 0.182D-01 0.212D-01-0.323D-01
 Coeff:     -0.110D+00-0.297D-01 0.324D+00 0.811D+00
 Gap=     0.124 Goal=   None    Shift=    0.000
 RMSDP=1.88D-08 MaxDP=1.13D-06 DE=-4.15D-10 OVMax= 1.26D-05

 Cycle  17  Pass 1  IDiag  1:
 RMSU=  8.31D-09    CP:  9.69D-01  1.45D+00  7.08D-01  6.11D-01  8.36D-01
                    CP:  8.26D-01  1.07D+00  1.40D+00  1.67D+00  2.19D+00
                    CP:  1.86D+00  2.00D+00  1.49D+00  1.47D+00  1.45D+00
                    CP:  1.32D+00
 E= -3007.15943292046     Delta-E=       -0.000000000176 Rises=F Damp=F
 DIIS: error= 7.55D-08 at cycle  17 NSaved=  17.
 NSaved=17 IEnMin=17 EnMin= -3007.15943292046     IErMin=17 ErrMin= 7.55D-08
 ErrMax= 7.55D-08  0.00D+00 EMaxC= 1.00D-01 BMatC= 1.07D-11 BMatP= 3.00D-11
 IDIUse=1 WtCom= 1.00D+00 WtEn= 0.00D+00
 Coeff-Com: -0.662D-05 0.130D-04 0.233D-04 0.334D-04 0.436D-04-0.537D-04
 Coeff-Com: -0.826D-03-0.210D-02-0.178D-02 0.784D-02 0.162D-01 0.493D-02
 Coeff-Com: -0.433D-01-0.916D-01-0.101D+00 0.366D+00 0.845D+00
 Coeff:     -0.662D-05 0.130D-04 0.233D-04 0.334D-04 0.436D-04-0.537D-04
 Coeff:     -0.826D-03-0.210D-02-0.178D-02 0.784D-02 0.162D-01 0.493D-02
 Coeff:     -0.433D-01-0.916D-01-0.101D+00 0.366D+00 0.845D+00
 Gap=     0.124 Goal=   None    Shift=    0.000
 RMSDP=1.22D-08 MaxDP=6.17D-07 DE=-1.76D-10 OVMax= 7.35D-06

 Cycle  18  Pass 1  IDiag  1:
 RMSU=  3.86D-09    CP:  9.69D-01  1.45D+00  7.08D-01  6.11D-01  8.36D-01
                    CP:  8.26D-01  1.07D+00  1.40D+00  1.67D+00  2.19D+00
                    CP:  1.86D+00  2.01D+00  1.51D+00  1.55D+00  1.62D+00
                    CP:  1.78D+00  1.39D+00
 E= -3007.15943292044     Delta-E=        0.000000000020 Rises=F Damp=F
 DIIS: error= 6.39D-08 at cycle  18 NSaved=  18.
 NSaved=18 IEnMin=17 EnMin= -3007.15943292046     IErMin=18 ErrMin= 6.39D-08
 ErrMax= 6.39D-08  0.00D+00 EMaxC= 1.00D-01 BMatC= 2.36D-12 BMatP= 1.07D-11
 IDIUse=1 WtCom= 1.00D+00 WtEn= 0.00D+00
 Coeff-Com:  0.173D-05-0.369D-05-0.414D-05-0.278D-05 0.373D-04 0.163D-03
 Coeff-Com:  0.272D-03 0.306D-03-0.173D-02-0.344D-02-0.224D-02 0.168D-01
 Coeff-Com:  0.201D-01-0.224D-01-0.175D+00-0.120D+00 0.305D+00 0.982D+00
 Coeff:      0.173D-05-0.369D-05-0.414D-05-0.278D-05 0.373D-04 0.163D-03
 Coeff:      0.272D-03 0.306D-03-0.173D-02-0.344D-02-0.224D-02 0.168D-01
 Coeff:      0.201D-01-0.224D-01-0.175D+00-0.120D+00 0.305D+00 0.982D+00
 Gap=     0.124 Goal=   None    Shift=    0.000
 RMSDP=9.17D-09 MaxDP=4.98D-07 DE= 2.00D-11 OVMax= 5.67D-06

 SCF Done:  E(RCAM-B3LYP) =  -3007.15943292     A.U. after   18 cycles
            NFock= 18  Conv=0.92D-08     -V/T= 2.0104
 KE= 2.976345169430D+03 PE=-2.641899227927D+04 EE= 1.072206808203D+04
 Leave Link  502 at Sat Apr 30 00:56:05 2022, MaxMem= 10066329600 cpu:            9533.9 elap:             414.6
 (Enter /sw/apps/gaussian-16.0/g16/l801.exe)
 DoSCS=F DFT=T ScalE2(SS,OS)=  1.000000  1.000000
 ExpMin= 3.36D-02 ExpMax= 4.95D+03 ExpMxC= 7.45D+02 IAcc=3 IRadAn=         5 AccDes= 0.00D+00
 HarFok:  IExCor=  205 AccDes= 0.00D+00 IRadAn=         5 IDoV=-2 UseB2=F ITyADJ=14
 ICtDFT= 12500011 ScaDFX=  1.000000  1.000000  1.000000  1.000000
 GSVD:  LWork=       -5460 too small for GESVD, short by       25550 words or       25550 for optimal perf.
 Largest valence mixing into a core orbital is  1.46D-04
 Largest core mixing into a valence orbital is  4.99D-05
 Range of M.O.s used for correlation:    71  1298
 NBasis=  1298 NAE=   246 NBE=   246 NFC=    70 NFV=     0
 NROrb=   1228 NOA=   176 NOB=   176 NVA=  1052 NVB=  1052
 Leave Link  801 at Sat Apr 30 00:56:05 2022, MaxMem= 10066329600 cpu:               7.2 elap:               0.3
 (Enter /sw/apps/gaussian-16.0/g16/l914.exe)
 RHF ground state
 Two-electron integrals replicated using symmetry.
 MDV= 10066329600 DFT=T DoStab=F Mixed=T DoRPA=T DoScal=F NonHer=T
 Making orbital integer symmetry assigments:
 Orbital symmetries:
       Occupied  (A) (A) (A) (A) (A) (A) (A) (A) (A) (A) (A) (A)
                 (A) (A) (A) (A) (A) (A) (A) (A) (A) (A) (A) (A)
                 (A) (A) (A) (A) (A) (A) (A) (A) (A) (A) (A) (A)
                 (A) (A) (A) (A) (A) (A) (A) (A) (A) (A) (A) (A)
                 (A) (A) (A) (A) (A) (A) (A) (A) (A) (A) (A) (A)
                 (A) (A) (A) (A) (A) (A) (A) (A) (A) (A) (A) (A)
                 (A) (A) (A) (A) (A) (A) (A) (A) (A) (A) (A) (A)
                 (A) (A) (A) (A) (A) (A) (A) (A) (A) (A) (A) (A)
                 (A) (A) (A) (A) (A) (A) (A) (A) (A) (A) (A) (A)
                 (A) (A) (A) (A) (A) (A) (A) (A) (A) (A) (A) (A)
                 (A) (A) (A) (A) (A) (A) (A) (A) (A) (A) (A) (A)
                 (A) (A) (A) (A) (A) (A) (A) (A) (A) (A) (A) (A)
                 (A) (A) (A) (A) (A) (A) (A) (A) (A) (A) (A) (A)
                 (A) (A) (A) (A) (A) (A) (A) (A) (A) (A) (A) (A)
                 (A) (A) (A) (A) (A) (A) (A) (A) (A) (A) (A) (A)
                 (A) (A) (A) (A) (A) (A) (A) (A) (A) (A) (A) (A)
                 (A) (A) (A) (A) (A) (A) (A) (A) (A) (A) (A) (A)
                 (A) (A) (A) (A) (A) (A) (A) (A) (A) (A) (A) (A)
                 (A) (A) (A) (A) (A) (A) (A) (A) (A) (A) (A) (A)
                 (A) (A) (A) (A) (A) (A) (A) (A) (A) (A) (A) (A)
                 (A) (A) (A) (A) (A) (A)
       Virtual   (A) (A) (A) (A) (A) (A) (A) (A) (A) (A) (A) (A)
                 (A) (A) (A) (A) (A) (A) (A) (A) (A) (A) (A) (A)
                 (A) (A) (A) (A) (A) (A) (A) (A) (A) (A) (A) (A)
                 (A) (A) (A) (A) (A) (A) (A) (A) (A) (A) (A) (A)
                 (A) (A) (A) (A) (A) (A) (A) (A) (A) (A) (A) (A)
                 (A) (A) (A) (A) (A) (A) (A) (A) (A) (A) (A) (A)
                 (A) (A) (A) (A) (A) (A) (A) (A) (A) (A) (A) (A)
                 (A) (A) (A) (A) (A) (A) (A) (A) (A) (A) (A) (A)
                 (A) (A) (A) (A) (A) (A) (A) (A) (A) (A) (A) (A)
                 (A) (A) (A) (A) (A) (A) (A) (A) (A) (A) (A) (A)
                 (A) (A) (A) (A) (A) (A) (A) (A) (A) (A) (A) (A)
                 (A) (A) (A) (A) (A) (A) (A) (A) (A) (A) (A) (A)
                 (A) (A) (A) (A) (A) (A) (A) (A) (A) (A) (A) (A)
                 (A) (A) (A) (A) (A) (A) (A) (A) (A) (A) (A) (A)
                 (A) (A) (A) (A) (A) (A) (A) (A) (A) (A) (A) (A)
                 (A) (A) (A) (A) (A) (A) (A) (A) (A) (A) (A) (A)
                 (A) (A) (A) (A) (A) (A) (A) (A) (A) (A) (A) (A)
                 (A) (A) (A) (A) (A) (A) (A) (A) (A) (A) (A) (A)
                 (A) (A) (A) (A) (A) (A) (A) (A) (A) (A) (A) (A)
                 (A) (A) (A) (A) (A) (A) (A) (A) (A) (A) (A) (A)
                 (A) (A) (A) (A) (A) (A) (A) (A) (A) (A) (A) (A)
                 (A) (A) (A) (A) (A) (A) (A) (A) (A) (A) (A) (A)
                 (A) (A) (A) (A) (A) (A) (A) (A) (A) (A) (A) (A)
                 (A) (A) (A) (A) (A) (A) (A) (A) (A) (A) (A) (A)
                 (A) (A) (A) (A) (A) (A) (A) (A) (A) (A) (A) (A)
                 (A) (A) (A) (A) (A) (A) (A) (A) (A) (A) (A) (A)
                 (A) (A) (A) (A) (A) (A) (A) (A) (A) (A) (A) (A)
                 (A) (A) (A) (A) (A) (A) (A) (A) (A) (A) (A) (A)
                 (A) (A) (A) (A) (A) (A) (A) (A) (A) (A) (A) (A)
                 (A) (A) (A) (A) (A) (A) (A) (A) (A) (A) (A) (A)
                 (A) (A) (A) (A) (A) (A) (A) (A) (A) (A) (A) (A)
                 (A) (A) (A) (A) (A) (A) (A) (A) (A) (A) (A) (A)
                 (A) (A) (A) (A) (A) (A) (A) (A) (A) (A) (A) (A)
                 (A) (A) (A) (A) (A) (A) (A) (A) (A) (A) (A) (A)
                 (A) (A) (A) (A) (A) (A) (A) (A) (A) (A) (A) (A)
                 (A) (A) (A) (A) (A) (A) (A) (A) (A) (A) (A) (A)
                 (A) (A) (A) (A) (A) (A) (A) (A) (A) (A) (A) (A)
                 (A) (A) (A) (A) (A) (A) (A) (A) (A) (A) (A) (A)
                 (A) (A) (A) (A) (A) (A) (A) (A) (A) (A) (A) (A)
                 (A) (A) (A) (A) (A) (A) (A) (A) (A) (A) (A) (A)
                 (A) (A) (A) (A) (A) (A) (A) (A) (A) (A) (A) (A)
                 (A) (A) (A) (A) (A) (A) (A) (A) (A) (A) (A) (A)
                 (A) (A) (A) (A) (A) (A) (A) (A) (A) (A) (A) (A)
                 (A) (A) (A) (A) (A) (A) (A) (A) (A) (A) (A) (A)
                 (A) (A) (A) (A) (A) (A) (A) (A) (A) (A) (A) (A)
                 (A) (A) (A) (A) (A) (A) (A) (A) (A) (A) (A) (A)
                 (A) (A) (A) (A) (A) (A) (A) (A) (A) (A) (A) (A)
                 (A) (A) (A) (A) (A) (A) (A) (A) (A) (A) (A) (A)
                 (A) (A) (A) (A) (A) (A) (A) (A) (A) (A) (A) (A)
                 (A) (A) (A) (A) (A) (A) (A) (A) (A) (A) (A) (A)
                 (A) (A) (A) (A) (A) (A) (A) (A) (A) (A) (A) (A)
                 (A) (A) (A) (A) (A) (A) (A) (A) (A) (A) (A) (A)
                 (A) (A) (A) (A) (A) (A) (A) (A) (A) (A) (A) (A)
                 (A) (A) (A) (A) (A) (A) (A) (A) (A) (A) (A) (A)
                 (A) (A) (A) (A) (A) (A) (A) (A) (A) (A) (A) (A)
                 (A) (A) (A) (A) (A) (A) (A) (A) (A) (A) (A) (A)
                 (A) (A) (A) (A) (A) (A) (A) (A) (A) (A) (A) (A)
                 (A) (A) (A) (A) (A) (A) (A) (A) (A) (A) (A) (A)
                 (A) (A) (A) (A) (A) (A) (A) (A) (A) (A) (A) (A)
                 (A) (A) (A) (A) (A) (A) (A) (A) (A) (A) (A) (A)
                 (A) (A) (A) (A) (A) (A) (A) (A) (A) (A) (A) (A)
                 (A) (A) (A) (A) (A) (A) (A) (A) (A) (A) (A) (A)
                 (A) (A) (A) (A) (A) (A) (A) (A) (A) (A) (A) (A)
                 (A) (A) (A) (A) (A) (A) (A) (A) (A) (A) (A) (A)
                 (A) (A) (A) (A) (A) (A) (A) (A) (A) (A) (A) (A)
                 (A) (A) (A) (A) (A) (A) (A) (A) (A) (A) (A) (A)
                 (A) (A) (A) (A) (A) (A) (A) (A) (A) (A) (A) (A)
                 (A) (A) (A) (A) (A) (A) (A) (A) (A) (A) (A) (A)
                 (A) (A) (A) (A) (A) (A) (A) (A) (A) (A) (A) (A)
                 (A) (A) (A) (A) (A) (A) (A) (A) (A) (A) (A) (A)
                 (A) (A) (A) (A) (A) (A) (A) (A) (A) (A) (A) (A)
                 (A) (A) (A) (A) (A) (A) (A) (A) (A) (A) (A) (A)
                 (A) (A) (A) (A) (A) (A) (A) (A) (A) (A) (A) (A)
                 (A) (A) (A) (A) (A) (A) (A) (A) (A) (A) (A) (A)
                 (A) (A) (A) (A) (A) (A) (A) (A) (A) (A) (A) (A)
                 (A) (A) (A) (A) (A) (A) (A) (A) (A) (A) (A) (A)
                 (A) (A) (A) (A) (A) (A) (A) (A) (A) (A) (A) (A)
                 (A) (A) (A) (A) (A) (A) (A) (A) (A) (A) (A) (A)
                 (A) (A) (A) (A) (A) (A) (A) (A) (A) (A) (A) (A)
                 (A) (A) (A) (A) (A) (A) (A) (A) (A) (A) (A) (A)
                 (A) (A) (A) (A) (A) (A) (A) (A) (A) (A) (A) (A)
                 (A) (A) (A) (A) (A) (A) (A) (A) (A) (A) (A) (A)
                 (A) (A) (A) (A) (A) (A) (A) (A) (A) (A) (A) (A)
                 (A) (A) (A) (A) (A) (A) (A) (A) (A) (A) (A) (A)
                 (A) (A) (A) (A) (A) (A) (A) (A) (A) (A) (A) (A)
                 (A) (A) (A) (A) (A) (A) (A) (A) (A) (A) (A) (A)
                 (A) (A) (A) (A) (A) (A) (A) (A) (A) (A) (A) (A)
                 (A) (A) (A) (A) (A) (A) (A) (A)
    20 initial guesses have been made.
 Convergence on wavefunction:    0.001000000000000
 Davidson Disk Diagonalization:  ConvIn= 1.00D-03 SkipCon=T Conv= 1.00D-03.
 Max sub-space:  2000 roots to seek:    20 dimension of matrix:       370304
 Iteration     1 Dimension    20 NMult     0 NNew     20
 CISAX will form    20 AO SS matrices at one time.
 NMat=    20 NSing=    20 JSym2X= 0.
 FoFJK:  IHMeth= 1 ICntrl=       0 DoSepK=T KAlg= 0 I1Cent=           0 FoldK=F
 IRaf=         1 NMat=      40 IRICut=       1 DoRegI=T DoRafI=F ISym2E= 0 IDoP0=3 IntGTp=3.
 FoFCou: FMM=T IPFlag=           0 FMFlag=      100000 FMFlg1=        2001
         NFxFlg=           0 DoJE=F BraDBF=F KetDBF=F FulRan=T
         wScrn=  0.000000 ICntrl=       500 IOpCl=  0 I1Cent=           0 NGrid=           0
         NMat0=   20 NMatS0=     20 NMatT0=    0 NMatD0=   20 NMtDS0=    0 NMtDT0=    0
 Symmetry not used in FoFCou.
 FMM levels:  10  Number of levels for PrismC:   9
 New state      3 was old state      4
 New state      4 was old state     11
 New state      5 was old state      8
 Excitation Energies [eV] at current iteration:
 Root      1 :     2.226688320907396
 Root      2 :     2.638279421647036
 Root      3 :     3.790150690322463
 Root      4 :     3.859661119902013
 Root      5 :     3.993871461644360
 Root      6 :     4.108854198534315
 Root      7 :     4.225875289632856
 Root      8 :     4.229818607198869
 Root      9 :     4.468840302715025
 Root     10 :     4.561604653251845
 Root     11 :     4.634880437927204
 Root     12 :     4.760777344934621
 Root     13 :     4.799340121322045
 Root     14 :     4.952822513732021
 Root     15 :     5.080343734439266
 Root     16 :     5.178296633245857
 Root     17 :     5.388214739137080
 Root     18 :     5.622294204428117
 Root     19 :     5.920207124007633
 Root     20 :     6.139467337679026
 Iteration     2 Dimension    30 NMult    20 NNew     10
 CISAX will form    10 AO SS matrices at one time.
 NMat=    10 NSing=    10 JSym2X= 0.
 Root      1 not converged, maximum delta is    0.074317058012911
 Root      2 not converged, maximum delta is    0.054908452043927
 Root      3 not converged, maximum delta is    0.066358556876089
 New state      4 was old state      5
 Root      4 not converged, maximum delta is    0.138835112932116
 New state      5 was old state      4
 Root      5 not converged, maximum delta is    0.120214513180132
 Excitation Energies [eV] at current iteration:
 Root      1 :     1.745905138231735   Change is   -0.480783182675662
 Root      2 :     2.278570136196662   Change is   -0.359709285450374
 Root      3 :     3.480284544375670   Change is   -0.309866145946793
 Root      4 :     3.583255526883936   Change is   -0.410615934760424
 Root      5 :     3.786987738786073   Change is   -0.072673381115940
 Iteration     3 Dimension    40 NMult    30 NNew     10
 CISAX will form    10 AO SS matrices at one time.
 NMat=    10 NSing=    10 JSym2X= 0.
 Root      1 not converged, maximum delta is    0.017563241532199
 Root      2 not converged, maximum delta is    0.018557237985173
 Root      3 not converged, maximum delta is    0.167315340514444
 Root      4 not converged, maximum delta is    0.257143040285306
 Root      5 not converged, maximum delta is    0.172105066571324
 Excitation Energies [eV] at current iteration:
 Root      1 :     1.708637385851057   Change is   -0.037267752380678
 Root      2 :     2.256714673588384   Change is   -0.021855462608278
 Root      3 :     3.458223276183692   Change is   -0.022061268191978
 Root      4 :     3.506589851915292   Change is   -0.076665674968644
 Root      5 :     3.766586567709981   Change is   -0.020401171076091
 Iteration     4 Dimension    50 NMult    40 NNew     10
 CISAX will form    10 AO SS matrices at one time.
 NMat=    10 NSing=    10 JSym2X= 0.
 Root      1 not converged, maximum delta is    0.002502564959776
 Root      2 not converged, maximum delta is    0.005626786267371
 Root      3 not converged, maximum delta is    0.228198991166082
 Root      4 not converged, maximum delta is    0.365405579677637
 Root      5 not converged, maximum delta is    0.509462117301513
 Excitation Energies [eV] at current iteration:
 Root      1 :     1.704723693221784   Change is   -0.003913692629273
 Root      2 :     2.253416679975952   Change is   -0.003297993612432
 Root      3 :     3.438693251329810   Change is   -0.019530024853882
 Root      4 :     3.473743218220799   Change is   -0.032846633694493
 Root      5 :     3.516418001781060   Change is   -0.250168565928921
 Iteration     5 Dimension    60 NMult    50 NNew     10
 CISAX will form    10 AO SS matrices at one time.
 NMat=    10 NSing=    10 JSym2X= 0.
 Root      1 not converged, maximum delta is    0.001108404279699
 Root      2 not converged, maximum delta is    0.001037241538332
 Root      3 not converged, maximum delta is    0.164643233706599
 Root      4 not converged, maximum delta is    0.299859264284588
 Root      5 not converged, maximum delta is    0.208405644781523
 Excitation Energies [eV] at current iteration:
 Root      1 :     1.704389996218570   Change is   -0.000333697003213
 Root      2 :     2.253150617188130   Change is   -0.000266062787822
 Root      3 :     3.422103092492751   Change is   -0.016590158837059
 Root      4 :     3.456815389310249   Change is   -0.016927828910550
 Root      5 :     3.495273580200761   Change is   -0.021144421580299
 Iteration     6 Dimension    70 NMult    60 NNew     10
 CISAX will form    10 AO SS matrices at one time.
 NMat=    10 NSing=    10 JSym2X= 0.
 Root      1 has converged.
 Root      2 has converged.
 Root      3 not converged, maximum delta is    0.033010639497049
 Root      4 not converged, maximum delta is    0.035346692407946
 Root      5 not converged, maximum delta is    0.021257123380592
 Excitation Energies [eV] at current iteration:
 Root      1 :     1.704359091996791   Change is   -0.000030904221779
 Root      2 :     2.253118716651273   Change is   -0.000031900536857
 Root      3 :     3.417775526986266   Change is   -0.004327565506485
 Root      4 :     3.454710304728867   Change is   -0.002105084581382
 Root      5 :     3.493803236013081   Change is   -0.001470344187681
 Iteration     7 Dimension    76 NMult    70 NNew      6
 CISAX will form     6 AO SS matrices at one time.
 NMat=     6 NSing=     6 JSym2X= 0.
 Root      1 has converged.
 Root      2 has converged.
 Root      3 not converged, maximum delta is    0.004138500963917
 Root      4 not converged, maximum delta is    0.004330843328860
 Root      5 not converged, maximum delta is    0.002616960411715
 Excitation Energies [eV] at current iteration:
 Root      1 :     1.704359066944120   Change is   -0.000000025052671
 Root      2 :     2.253118602389756   Change is   -0.000000114261517
 Root      3 :     3.417191979830010   Change is   -0.000583547156256
 Root      4 :     3.454483303442134   Change is   -0.000227001286732
 Root      5 :     3.493615682900081   Change is   -0.000187553113000
 Iteration     8 Dimension    82 NMult    76 NNew      6
 CISAX will form     6 AO SS matrices at one time.
 NMat=     6 NSing=     6 JSym2X= 0.
 Root      1 has converged.
 Root      2 has converged.
 Root      3 has converged.
 Root      4 has converged.
 Root      5 not converged, maximum delta is    0.002017336506196
 Excitation Energies [eV] at current iteration:
 Root      1 :     1.704358956151056   Change is   -0.000000110793064
 Root      2 :     2.253118480998009   Change is   -0.000000121391747
 Root      3 :     3.417115010411746   Change is   -0.000076969418264
 Root      4 :     3.454447223239212   Change is   -0.000036080202922
 Root      5 :     3.493568160057233   Change is   -0.000047522842848
 Iteration     9 Dimension    84 NMult    82 NNew      2
 CISAX will form     2 AO SS matrices at one time.
 NMat=     2 NSing=     2 JSym2X= 0.
 Root      1 has converged.
 Root      2 has converged.
 Root      3 has converged.
 Root      4 has converged.
 Root      5 has converged.
 Excitation Energies [eV] at current iteration:
 Root      1 :     1.704358908383885   Change is   -0.000000047767171
 Root      2 :     2.253118446169724   Change is   -0.000000034828285
 Root      3 :     3.417112423073791   Change is   -0.000002587337955
 Root      4 :     3.454446400844503   Change is   -0.000000822394710
 Root      5 :     3.493558841027038   Change is   -0.000009319030196
 Convergence achieved on expansion vectors.
 ***********************************************************************
 Excited states from <AA,BB:AA,BB> singles matrix:
 ***********************************************************************
 
 1PDM for each excited state written to RWF  633
 Ground to excited state transition densities written to RWF  633
 Ground to excited state transition electric dipole moments (Au):
       state          X           Y           Z        Dip. S.      Osc.
         1         0.8650     -2.3972      1.5906      9.0250      0.3768
         2         0.8626      0.9073      0.4331      1.7548      0.0969
         3        -0.4130     -0.3743     -0.1655      0.3381      0.0283
         4         1.0386      1.0197      0.5266      2.3957      0.2028
         5        -1.3077     -1.3248     -0.6528      3.8912      0.3331
 Ground to excited state transition velocity dipole moments (Au):
       state          X           Y           Z        Dip. S.      Osc.
         1        -0.0516      0.1450     -0.0967      0.0330      0.3516
         2        -0.0670     -0.0716     -0.0333      0.0107      0.0863
         3         0.0475      0.0467      0.0208      0.0049      0.0259
         4        -0.1277     -0.1272     -0.0631      0.0365      0.1915
         5         0.1614      0.1655      0.0797      0.0598      0.3105
 Ground to excited state transition magnetic dipole moments (Au):
       state          X           Y           Z
         1        -0.2345      0.9303      1.4956
         2         0.0271      0.3388     -0.6221
         3         0.1135     -0.9529      0.6554
         4         0.2850      0.3221     -1.3656
         5         0.5686     -0.9943      0.8109
 Ground to excited state transition velocity quadrupole moments (Au):
       state          XX          YY          ZZ          XY          XZ          YZ
         1        -0.9300      0.3032     -0.0396      1.2764     -0.9306     -0.1574
         2        -1.1496     -0.0365     -0.0549     -0.7136     -0.3697      0.0056
         3         0.6784      0.1421      0.0714      0.4648      0.2261      0.0338
         4        -2.0269     -0.0240     -0.2038     -1.1045     -0.7484      0.0615
         5         2.3601      0.5909      0.1077      1.6534      0.7675     -0.0680
 <0|del|b> * <b|rxdel|0> + <0|del|b> * <b|delr+rdel|0>
 Rotatory Strengths (R) in cgs (10**-40 erg-esu-cm/Gauss)
       state          XX          YY          ZZ    R(velocity)    E-M Angle
         1         9.4611     -5.4408     22.1728      8.7310       89.59
         2       -26.9422    -22.3650      3.3114    -15.3319       94.21
         3       -89.2171     30.8772    -84.8645    -47.7348      108.28
         4        54.7620    -77.3528     71.5768     16.3287       88.16
         5      -261.7575     37.4663    179.6012    -14.8967       91.35
 1/2[<0|r|b>*<b|rxdel|0> + (<0|rxdel|b>*<b|r|0>)*]
 Rotatory Strengths (R) in cgs (10**-40 erg-esu-cm/Gauss)
       state          XX          YY          ZZ     R(length)
         1       143.4269   1577.0223  -1682.2223     12.7423
         2       -16.5497   -217.3591    190.5158    -14.4643
         3        33.1419   -252.2615     76.6905    -47.4764
         4      -209.3412   -232.2661    508.5579     22.3168
         5       525.8155   -931.4912    374.3310    -10.4482
  1/2[<0|del|b>*<b|r|0> + (<0|r|b>*<b|del|0>)*] (Au)
       state          X           Y           Z        Dip. S.   Osc.(frdel)
         1        -0.0446     -0.3475     -0.1538      0.5460      0.3640
         2        -0.0578     -0.0650     -0.0144      0.1371      0.0914
         3        -0.0196     -0.0175     -0.0034      0.0405      0.0270
         4        -0.1326     -0.1297     -0.0332      0.2955      0.1970
         5        -0.2110     -0.2192     -0.0521      0.4823      0.3215

 Excitation energies and oscillator strengths:
 
 Excited State   1:      Singlet-A      1.7044 eV  727.45 nm  f=0.3768  <S**2>=0.000
     245 -> 248       -0.18240
     246 -> 247        0.68582
     245 <- 248       -0.10844
 This state for optimization and/or second-order correction.
 Total Energy, E(TD-HF/TD-DFT) =  -3007.09679888    
 Copying the excited state density for this state as the 1-particle RhoCI density.
 
 Excited State   2:      Singlet-A      2.2531 eV  550.28 nm  f=0.0969  <S**2>=0.000
     245 -> 247        0.63166
     246 -> 248        0.30630
 
 Excited State   3:      Singlet-A      3.4171 eV  362.83 nm  f=0.0283  <S**2>=0.000
     240 -> 247        0.50653
     240 -> 248       -0.10096
     240 -> 249       -0.30875
     240 -> 251        0.10754
     241 -> 247        0.16258
     244 -> 247       -0.12316
     246 -> 248        0.17102
 
 Excited State   4:      Singlet-A      3.4544 eV  358.91 nm  f=0.2028  <S**2>=0.000
     240 -> 247        0.18531
     240 -> 249       -0.10342
     243 -> 247        0.14467
     244 -> 247        0.47293
     245 -> 247        0.16526
     246 -> 248       -0.39902
 
 Excited State   5:      Singlet-A      3.4936 eV  354.89 nm  f=0.3331  <S**2>=0.000
     241 -> 247        0.26322
     243 -> 247        0.11411
[...]
 Alpha virt. eigenvalues --    1.22801   1.22858   1.23698   1.23956   1.24980
 Alpha virt. eigenvalues --    1.25194   1.25403   1.25614   1.25712   1.26195
 Alpha virt. eigenvalues --    1.26770   1.27003   1.27863   1.28099   1.28312
 Alpha virt. eigenvalues --    1.29027   1.29645   1.30638   1.30856   1.31265
 Alpha virt. eigenvalues --    1.31716   1.32164   1.32951   1.33093   1.33976
 Alpha virt. eigenvalues --    1.34139   1.34796   1.35557   1.35918   1.35956
 Alpha virt. eigenvalues --    1.36765   1.37085   1.37562   1.37958   1.38106
 Alpha virt. eigenvalues --    1.38731   1.39121   1.39580   1.39784   1.40212
 Alpha virt. eigenvalues --    1.40702   1.41540   1.42066   1.42593   1.42763
 Alpha virt. eigenvalues --    1.42846   1.43073   1.43515   1.43785   1.43976
 Alpha virt. eigenvalues --    1.44685   1.44946   1.45211   1.45595   1.46024
 Alpha virt. eigenvalues --    1.46383   1.46846   1.47048   1.47330   1.48189
 Alpha virt. eigenvalues --    1.48328   1.48513   1.49115   1.49184   1.49472
 Alpha virt. eigenvalues --    1.50147   1.50875   1.51120   1.52260   1.52450
 Alpha virt. eigenvalues --    1.53295   1.53580   1.53804   1.54108   1.54998
 Alpha virt. eigenvalues --    1.55309   1.55739   1.55966   1.56448   1.56587
 Alpha virt. eigenvalues --    1.56973   1.57652   1.57824   1.58530   1.58604
 Alpha virt. eigenvalues --    1.59304   1.59414   1.60018   1.60198   1.60322
 Alpha virt. eigenvalues --    1.60531   1.60592   1.60671   1.61051   1.61306
 Alpha virt. eigenvalues --    1.61865   1.61897   1.62039   1.62363   1.62904
 Alpha virt. eigenvalues --    1.62919   1.63249   1.63445   1.63876   1.64281
 Alpha virt. eigenvalues --    1.64420   1.64557   1.64856   1.64922   1.65085
 Alpha virt. eigenvalues --    1.65580   1.65926   1.66191   1.66266   1.66937
 Alpha virt. eigenvalues --    1.67373   1.67570   1.68153   1.68750   1.69505
 Alpha virt. eigenvalues --    1.69803   1.69874   1.69995   1.70108   1.70768
 Alpha virt. eigenvalues --    1.71768   1.72031   1.72437   1.73505   1.73825
 Alpha virt. eigenvalues --    1.74130   1.74586   1.74733   1.75580   1.75728
 Alpha virt. eigenvalues --    1.75993   1.76736   1.76882   1.77240   1.77598
 Alpha virt. eigenvalues --    1.77997   1.78249   1.78412   1.78578   1.78991
 Alpha virt. eigenvalues --    1.79167   1.79783   1.80008   1.80057   1.80537
 Alpha virt. eigenvalues --    1.80827   1.81045   1.81088   1.81403   1.81837
 Alpha virt. eigenvalues --    1.81973   1.82003   1.82119   1.82773   1.83203
 Alpha virt. eigenvalues --    1.83389   1.83544   1.83607   1.83855   1.83997
 Alpha virt. eigenvalues --    1.84178   1.84202   1.84285   1.84500   1.84763
 Alpha virt. eigenvalues --    1.85110   1.85152   1.85365   1.85559   1.85604
 Alpha virt. eigenvalues --    1.86095   1.86385   1.86601   1.86631   1.86719
 Alpha virt. eigenvalues --    1.87056   1.87135   1.87268   1.87356   1.87725
 Alpha virt. eigenvalues --    1.87990   1.88167   1.88324   1.88615   1.88697
 Alpha virt. eigenvalues --    1.88850   1.89004   1.89320   1.89406   1.89634
 Alpha virt. eigenvalues --    1.89820   1.90064   1.90503   1.90537   1.90825
 Alpha virt. eigenvalues --    1.90908   1.90970   1.91069   1.91258   1.91884
 Alpha virt. eigenvalues --    1.92214   1.92291   1.92621   1.92949   1.93184
 Alpha virt. eigenvalues --    1.93279   1.93401   1.93566   1.93741   1.93866
 Alpha virt. eigenvalues --    1.93955   1.94303   1.94837   1.94970   1.95035
 Alpha virt. eigenvalues --    1.95110   1.95217   1.95796   1.95846   1.96137
 Alpha virt. eigenvalues --    1.96510   1.96594   1.96939   1.97331   1.97835
 Alpha virt. eigenvalues --    1.97992   1.98331   1.98811   1.98886   1.99075
 Alpha virt. eigenvalues --    1.99215   1.99450   2.00006   2.00117   2.00349
 Alpha virt. eigenvalues --    2.00684   2.00770   2.01378   2.01463   2.01664
 Alpha virt. eigenvalues --    2.01733   2.02192   2.02332   2.02898   2.03190
 Alpha virt. eigenvalues --    2.03939   2.04097   2.04252   2.04485   2.04576
 Alpha virt. eigenvalues --    2.04704   2.04910   2.05239   2.05584   2.06148
 Alpha virt. eigenvalues --    2.06162   2.06363   2.06605   2.07371   2.07631
 Alpha virt. eigenvalues --    2.07882   2.08397   2.08461   2.08588   2.08654
 Alpha virt. eigenvalues --    2.08684   2.09540   2.09732   2.09798   2.10055
 Alpha virt. eigenvalues --    2.10669   2.10943   2.11015   2.11951   2.12296
 Alpha virt. eigenvalues --    2.12490   2.12622   2.12730   2.12970   2.13257
 Alpha virt. eigenvalues --    2.13412   2.13907   2.14291   2.14466   2.14837
 Alpha virt. eigenvalues --    2.15130   2.15729   2.15826   2.15902   2.16270
 Alpha virt. eigenvalues --    2.16485   2.16568   2.17601   2.17665   2.17832
 Alpha virt. eigenvalues --    2.18309   2.18761   2.18798   2.19174   2.19546
 Alpha virt. eigenvalues --    2.19768   2.20232   2.20623   2.20793   2.21146
 Alpha virt. eigenvalues --    2.21549   2.21915   2.22031   2.22144   2.23129
 Alpha virt. eigenvalues --    2.23757   2.23981   2.24968   2.25230   2.25549
 Alpha virt. eigenvalues --    2.25748   2.26382   2.26836   2.27048   2.27296
 Alpha virt. eigenvalues --    2.27659   2.28224   2.28772   2.29100   2.29335
 Alpha virt. eigenvalues --    2.29850   2.30284   2.30384   2.30419   2.31125
 Alpha virt. eigenvalues --    2.31297   2.31478   2.32180   2.32869   2.33034
 Alpha virt. eigenvalues --    2.33337   2.33696   2.33838   2.34264   2.34928
 Alpha virt. eigenvalues --    2.35326   2.35481   2.35889   2.36101   2.36553
 Alpha virt. eigenvalues --    2.37252   2.37501   2.37640   2.38188   2.38567
 Alpha virt. eigenvalues --    2.38827   2.39054   2.39610   2.40241   2.40316
 Alpha virt. eigenvalues --    2.41545   2.41666   2.41988   2.42780   2.42973
 Alpha virt. eigenvalues --    2.43137   2.43567   2.43847   2.44208   2.44391
 Alpha virt. eigenvalues --    2.44439   2.44484   2.44686   2.45110   2.46171
 Alpha virt. eigenvalues --    2.46611   2.46661   2.47107   2.47464   2.47888
 Alpha virt. eigenvalues --    2.48110   2.48421   2.48542   2.48771   2.49117
 Alpha virt. eigenvalues --    2.49533   2.50037   2.51087   2.51514   2.51566
 Alpha virt. eigenvalues --    2.52097   2.52281   2.53130   2.53191   2.53381
 Alpha virt. eigenvalues --    2.54265   2.54323   2.54932   2.54957   2.56021
 Alpha virt. eigenvalues --    2.56757   2.56902   2.57337   2.57895   2.58159
 Alpha virt. eigenvalues --    2.58814   2.58913   2.59233   2.60080   2.60424
 Alpha virt. eigenvalues --    2.60713   2.60969   2.61342   2.61734   2.62187
 Alpha virt. eigenvalues --    2.62900   2.63049   2.63677   2.63915   2.64168
 Alpha virt. eigenvalues --    2.65095   2.65239   2.65599   2.66050   2.66305
 Alpha virt. eigenvalues --    2.67231   2.67434   2.67666   2.68216   2.68710
 Alpha virt. eigenvalues --    2.69795   2.69828   2.70167   2.70551   2.70787
 Alpha virt. eigenvalues --    2.71052   2.71212   2.71394   2.71785   2.73120
 Alpha virt. eigenvalues --    2.73346   2.73532   2.73768   2.74393   2.74604
 Alpha virt. eigenvalues --    2.74743   2.75472   2.75572   2.76797   2.77503
 Alpha virt. eigenvalues --    2.77797   2.77899   2.78054   2.78136   2.78672
 Alpha virt. eigenvalues --    2.78776   2.79005   2.79704   2.79917   2.80206
 Alpha virt. eigenvalues --    2.80566   2.80823   2.81550   2.82072   2.82101
 Alpha virt. eigenvalues --    2.82253   2.83193   2.83398   2.84241   2.84834
 Alpha virt. eigenvalues --    2.85433   2.85559   2.86441   2.86624   2.87310
 Alpha virt. eigenvalues --    2.87550   2.87674   2.88523   2.88739   2.89450
 Alpha virt. eigenvalues --    2.90805   2.91710   2.92036   2.92699   2.92777
 Alpha virt. eigenvalues --    2.92996   2.93184   2.93697   2.93981   2.94492
 Alpha virt. eigenvalues --    2.94974   2.95437   2.95616   2.95874   2.96126
 Alpha virt. eigenvalues --    2.96380   2.96625   2.96960   2.97962   2.98282
 Alpha virt. eigenvalues --    2.98554   2.98976   2.99267   2.99560   2.99631
 Alpha virt. eigenvalues --    2.99801   3.00331   3.00798   3.01023   3.01187
 Alpha virt. eigenvalues --    3.01498   3.01847   3.01941   3.02421   3.02889
 Alpha virt. eigenvalues --    3.03027   3.03266   3.04092   3.04391   3.04498
 Alpha virt. eigenvalues --    3.04711   3.05011   3.05249   3.05673   3.05741
 Alpha virt. eigenvalues --    3.06151   3.06213   3.06685   3.06924   3.07076
 Alpha virt. eigenvalues --    3.07330   3.07765   3.08098   3.08397   3.08565
 Alpha virt. eigenvalues --    3.08654   3.09114   3.09216   3.09480   3.09709
 Alpha virt. eigenvalues --    3.10731   3.10990   3.11144   3.11601   3.12196
 Alpha virt. eigenvalues --    3.12612   3.12908   3.13751   3.13942   3.14250
 Alpha virt. eigenvalues --    3.15259   3.15836   3.15934   3.16215   3.17850
 Alpha virt. eigenvalues --    3.18106   3.18912   3.20107   3.21521   3.22079
 Alpha virt. eigenvalues --    3.22849   3.23298   3.24592   3.25135   3.25528
 Alpha virt. eigenvalues --    3.27293   3.27881   3.28175   3.28784   3.30888
 Alpha virt. eigenvalues --    3.34087   3.34883   3.46008   3.47852   3.49219
 Alpha virt. eigenvalues --    3.50744   3.51917   3.53158   3.56694   3.58031
 Alpha virt. eigenvalues --    3.60908   3.65625   3.70085   3.70534   3.71899
 Alpha virt. eigenvalues --    3.73052   3.75353
          Condensed to atoms (all electrons):
 Mulliken charges:
               1
     1  Mg   0.826885
     2  C   -0.035339
     3  C   -0.061310
     4  C   -0.073413
     5  C   -0.105469
     6  N   -0.282298
     7  C   -0.043117
     8  C   -0.019977
     9  C   -0.087526
    10  C    0.041104
    11  C    0.084025
    12  C    0.085585
    13  C    0.048379
    14  C    0.127908
    15  O   -0.208153
    16  O   -0.329772
    17  N   -0.340110
    18  C    0.118347
    19  C   -0.127212
    20  C   -0.040973
    21  C    0.128632
    22  C    0.120254
    23  C   -0.038281
    24  O   -0.184323
    25  C    0.072160
    26  N   -0.292571
    27  C    0.017045
    28  C   -0.071405
    29  C   -0.007794
    30  C    0.065088
    31  C    0.101803
    32  C    0.046148
    33  C   -0.014657
    34  N   -0.314576
    35  C    0.137188
    36  C   -0.197233
    37  C    0.044831
    38  C    0.118729
    39  C    0.114482
    40  C   -0.009858
    41  O   -0.187855
    42  C    0.061534
    43  C    0.190476
    44  O   -0.226978
    45  O   -0.326279
    46  C    0.188587
    47  C    0.334765
    48  C   -0.173945
    49  C   -0.181784
    50  C    0.092730
    51  C    0.138990
    52  C   -0.078904
    53  C    0.094383
    54  C   -0.125298
    55  C    0.055010
    56  C    0.049720
    57  C   -0.015167
    58  C    0.025826
    59  C   -0.083216
    60  C    0.047856
    61  C    0.056455
    62  C   -0.016778
    63  C    0.065495
    64  C   -0.177115
    65  C    0.059347
    66  C    0.036367
    67  H   -0.019316
    68  H   -0.057798
    69  H   -0.044003
    70  H    0.015089
    71  H    0.009984
    72  H    0.011283
    73  H    0.004776
    74  H    0.025741
    75  H    0.023425
    76  H    0.015939
    77  H    0.024038
    78  H    0.039638
    79  H    0.010808
    80  H    0.021566
    81  H    0.029984
    82  H    0.040254
    83  H    0.038115
    84  H    0.037550
    85  H    0.007521
    86  H   -0.002406
    87  H    0.011785
    88  H    0.030953
    89  H    0.010999
    90  H    0.016588
    91  H    0.008998
    92  H    0.011206
    93  H    0.006339
    94  H    0.030089
    95  H    0.055578
    96  H    0.032924
    97  H    0.001586
    98  H    0.046145
    99  H    0.037136
   100  H    0.033594
   101  H    0.036310
   102  H    0.019081
   103  H    0.022033
   104  H   -0.003148
   105  H    0.031157
   106  H    0.008082
   107  H    0.021117
   108  H    0.004137
   109  H    0.022015
   110  H    0.000911
   111  H   -0.006325
   112  H   -0.000894
   113  H   -0.008498
   114  H   -0.008722
   115  H   -0.002062
   116  H    0.008331
   117  H    0.005448
   118  H   -0.009585
   119  H   -0.015265
   120  H    0.001869
   121  H   -0.006584
   122  H   -0.012234
   123  H   -0.008468
   124  H   -0.001506
   125  H    0.012534
   126  H    0.001949
   127  H   -0.003747
   128  H   -0.010786
   129  H   -0.011450
   130  H    0.004210
   131  H   -0.009683
   132  H   -0.003481
   133  H   -0.000108
   134  H    0.004509
   135  H    0.004829
   136  H   -0.001280
   137  H    0.005755
   138  H    0.005482
   139  H    0.008267
   140  H    0.012237
 Sum of Mulliken charges =  -0.00000
 Mulliken charges with hydrogens summed into heavy atoms:
               1
     1  Mg   0.826885
     2  C   -0.035339
     3  C   -0.080627
     4  C   -0.131211
     5  C   -0.149472
     6  N   -0.282298
     7  C   -0.043117
     8  C   -0.004888
     9  C   -0.077542
    10  C    0.041104
    11  C    0.125826
    12  C    0.124948
    13  C    0.112056
    14  C    0.127908
    15  O   -0.208153
    16  O   -0.329772
    17  N   -0.340110
    18  C    0.118347
    19  C   -0.127212
    20  C   -0.040973
    21  C    0.128632
    22  C    0.182612
    23  C   -0.038281
    24  O   -0.184323
    25  C    0.188078
    26  N   -0.292571
    27  C    0.017045
    28  C   -0.063884
    29  C   -0.010199
    30  C    0.065088
    31  C    0.155540
    32  C    0.071735
    33  C    0.032977
    34  N   -0.314576
    35  C    0.137188
    36  C   -0.197233
    37  C    0.044831
    38  C    0.118729
    39  C    0.204569
    40  C   -0.009858
    41  O   -0.187855
    42  C    0.107679
    43  C    0.190476
    44  O   -0.226978
    45  O   -0.326279
    46  C    0.295627
    47  C    0.375879
    48  C   -0.177093
    49  C   -0.181784
    50  C    0.153086
    51  C    0.165142
    52  C   -0.084318
    53  C    0.084991
    54  C   -0.134020
    55  C    0.066728
    56  C    0.024871
    57  C   -0.019881
    58  C    0.005123
    59  C   -0.084722
    60  C    0.058593
    61  C    0.034220
    62  C   -0.022251
    63  C    0.061907
    64  C   -0.172606
    65  C    0.068651
    66  C    0.062353
 Electronic spatial extent (au):  <R**2>=         110823.5824
 Charge=              0.0000 electrons
 Dipole moment (field-independent basis, Debye):
    X=              1.7710    Y=              3.3980    Z=              1.8391  Tot=              4.2503
 Quadrupole moment (field-independent basis, Debye-Ang):
   XX=           -349.7873   YY=           -449.8890   ZZ=           -403.0688
   XY=             24.5187   XZ=              7.8105   YZ=             28.8796
 Traceless Quadrupole moment (field-independent basis, Debye-Ang):
   XX=             51.1277   YY=            -48.9740   ZZ=             -2.1538
   XY=             24.5187   XZ=              7.8105   YZ=             28.8796
 Octapole moment (field-independent basis, Debye-Ang**2):
  XXX=            514.5174  YYY=             81.1011  ZZZ=             22.7978  XYY=            -74.8777
  XXY=            121.2354  XXZ=             95.8854  XZZ=             87.1956  YZZ=            -64.4648
  YYZ=             10.3040  XYZ=            166.6659
 Hexadecapole moment (field-independent basis, Debye-Ang**3):
 XXXX=        -117281.1850 YYYY=         -26381.8470 ZZZZ=         -10347.2873 XXXY=           1554.6417
 XXXZ=           1135.4182 YYYX=            817.8291 YYYZ=           1549.0897 ZZZX=            274.6316
 ZZZY=            249.8133 XXYY=         -23322.4779 XXZZ=         -21027.8852 YYZZ=          -6041.8696
 XXYZ=            788.2373 YYXZ=            -79.7386 ZZXY=           -236.7319
 N-N= 9.713419594895D+03 E-N=-2.641899227046D+04  KE= 2.976345169430D+03
 Leave Link  601 at Sat Apr 30 01:16:16 2022, MaxMem= 10066329600 cpu:              10.5 elap:               0.5
 (Enter /sw/apps/gaussian-16.0/g16/l9999.exe)
 1\1\GINC-BP1-COMPUTE070\SP\RCAM-B3LYP TD-FC\def2SVP\C55H74Mg1N4O6\OF15
 641\30-Apr-2022\0\\#p cam-b3lyp/Def2SVP td=(nstates=5)\\step_51_chromo
 phore_5 TDDFT with cam-b3lyp functional\\0,1\Mg,0,24.643,-6.258,45.52\
 C,0,27.137,-3.85,44.439\C,0,22.465,-5.02,43.355\C,0,22.777,-8.966,46.1
 74\C,0,27.349,-7.781,47.154\N,0,24.823,-4.632,43.986\C,0,25.844,-3.699
 ,43.81\C,0,25.431,-2.693,42.767\C,0,23.85,-2.988,42.686\C,0,23.666,-4.
 295,43.406\C,0,22.942,-1.896,43.285\C,0,26.185,-2.828,41.409\C,0,26.77
 1,-1.483,40.984\C,0,25.821,-0.561,40.176\O,0,24.864,0.047,40.561\O,0,2
 6.26,-0.543,38.892\N,0,22.798,-6.929,44.844\C,0,22.048,-6.239,44.008\C
 ,0,20.761,-6.855,43.883\C,0,20.813,-8.007,44.68\C,0,22.184,-8.065,45.2
 3\C,0,19.678,-6.127,43.178\C,0,19.616,-8.939,45.012\O,0,18.553,-8.574,
 44.598\C,0,19.625,-10.155,45.926\N,0,25.037,-8.143,46.392\C,0,24.02,-9
 .033,46.679\C,0,24.426,-10.185,47.578\C,0,25.966,-9.885,47.658\C,0,26.
 138,-8.516,47.062\C,0,23.639,-10.066,48.89\C,0,26.809,-10.946,46.911\C
 ,0,28.068,-11.452,47.759\N,0,26.658,-5.815,45.964\C,0,27.656,-6.541,46
 .605\C,0,28.906,-5.884,46.72\C,0,28.735,-4.837,45.84\C,0,27.397,-4.879
 ,45.372\C,0,30.256,-6.502,47.343\C,0,29.413,-3.715,45.216\O,0,30.574,-
 3.297,45.415\C,0,28.422,-3.115,44.246\C,0,28.275,-1.695,44.668\O,0,28.
 799,-0.724,44.118\O,0,27.368,-1.509,45.669\C,0,27.176,-0.127,46.133\C,
 0,25.536,0.188,37.891\C,0,24.467,-0.702,37.44\C,0,24.506,-1.94,36.858\
 C,0,25.815,-2.776,36.653\C,0,23.224,-2.674,36.589\C,0,23.106,-3.176,35
 .088\C,0,22.404,-4.503,34.958\C,0,22.281,-4.923,33.516\C,0,21.001,-5.7
 26,33.271\C,0,23.478,-5.705,33.054\C,0,23.627,-5.553,31.514\C,0,24.73,
 -4.453,31.144\C,0,24.411,-3.584,29.953\C,0,23.698,-2.321,30.398\C,0,25
 .715,-3.225,29.202\C,0,25.733,-3.814,27.764\C,0,24.95,-3.001,26.669\C,
 0,23.929,-3.953,25.935\C,0,24.369,-4.262,24.5\C,0,22.531,-3.279,25.955
 \H,0,21.855,-4.636,42.534\H,0,22.198,-9.839,46.481\H,0,28.172,-8.214,4
 7.726\H,0,25.604,-1.711,43.207\H,0,23.585,-3.062,41.631\H,0,23.539,-1.
 077,43.685\H,0,22.424,-2.287,44.161\H,0,22.181,-1.504,42.61\H,0,25.475
 ,-3.164,40.653\H,0,26.999,-3.533,41.575\H,0,27.669,-1.781,40.442\H,0,2
 6.994,-0.862,41.851\H,0,20.002,-5.734,42.214\H,0,19.354,-5.252,43.743\
 H,0,18.773,-6.714,43.019\H,0,20.016,-9.904,46.912\H,0,20.321,-10.816,4
 5.41\H,0,18.569,-10.414,45.997\H,0,24.182,-11.135,47.103\H,0,26.228,-9
 .945,48.714\H,0,22.596,-10.247,48.63\H,0,23.92,-9.12,49.353\H,0,23.956
 ,-10.969,49.411\H,0,27.105,-10.48,45.972\H,0,26.244,-11.825,46.6\H,0,2
 8.042,-12.537,47.869\H,0,28.011,-11.2,48.818\H,0,29.034,-11.125,47.375
 \H,0,30.853,-5.732,47.832\H,0,30.764,-7.077,46.57\H,0,30.039,-7.351,47
 .991\H,0,28.956,-3.229,43.303\H,0,26.795,0.511,45.336\H,0,28.087,0.375
 ,46.457\H,0,26.57,-0.074,47.037\H,0,26.25,0.305,37.075\H,0,25.189,1.11
 6,38.345\H,0,23.504,-0.242,37.661\H,0,26.3,-2.974,37.609\H,0,26.529,-2
 .112,36.166\H,0,25.667,-3.635,36.\H,0,22.448,-1.909,36.564\H,0,23.117,
 -3.485,37.31\H,0,24.056,-3.171,34.553\H,0,22.447,-2.531,34.507\H,0,21.
 42,-4.424,35.419\H,0,23.139,-5.136,35.456\H,0,22.325,-4.078,32.829\H,0
 ,20.292,-5.002,32.87\H,0,20.577,-6.126,34.192\H,0,20.948,-6.529,32.536
 \H,0,23.385,-6.78,33.206\H,0,24.371,-5.3,33.529\H,0,22.705,-5.349,30.9
 7\H,0,24.035,-6.513,31.199\H,0,25.537,-5.166,30.975\H,0,25.107,-3.942,
 32.03\H,0,23.602,-4.057,29.396\H,0,23.125,-2.405,31.321\H,0,23.082,-1.
 979,29.566\H,0,24.478,-1.565,30.495\H,0,26.61,-3.644,29.662\H,0,26.005
 ,-2.178,29.115\H,0,25.36,-4.833,27.862\H,0,26.789,-3.794,27.494\H,0,25
 .747,-2.661,26.008\H,0,24.452,-2.103,27.035\H,0,23.795,-4.92,26.419\H,
 0,23.629,-3.779,23.861\H,0,24.348,-5.338,24.324\H,0,25.41,-4.022,24.28
 5\H,0,21.956,-3.483,25.052\H,0,22.637,-2.196,26.025\H,0,22.048,-3.666,
 26.853\\Version=ES64L-G16RevA.03\State=1-A\HF=-3007.1594329\RMSD=9.171
 e-09\PG=C01 [X(C55H74Mg1N4O6)]\\@


 EDUCATION IS NOT TRAINING BUT RATHER THE PROCESS THAT EQUIPS YOU TO
 ENTERTAIN YOURSELF, A FRIEND, OR AN IDEA.  -- WALLACE STERLING
 Job cpu time:       0 days 10 hours 43 minutes 12.6 seconds.
 Elapsed time:       0 days  0 hours 27 minutes 16.1 seconds.
 File lengths (MBytes):  RWF=   8929 Int=      0 D2E=      0 Chk=    390 Scr=      1
 Normal termination of Gaussian 16 at Sat Apr 30 01:16:16 2022.
