 Entering Gaussian System, Link 0=g16
 Initial command:
 /sw/apps/gaussian-16.0/g16/l1.exe "/tmp/Gau-239946.inp" -scrdir="/tmp/"
 Entering Link 1 = /sw/apps/gaussian-16.0/g16/l1.exe PID=    239947.
  
 Copyright (c) 1988,1990,1992,1993,1995,1998,2003,2009,2016,
            Gaussian, Inc.  All Rights Reserved.
  
 This is part of the Gaussian(R) 16 program.  It is based on
 the Gaussian(R) 09 system (copyright 2009, Gaussian, Inc.),
 the Gaussian(R) 03 system (copyright 2003, Gaussian, Inc.),
 the Gaussian(R) 98 system (copyright 1998, Gaussian, Inc.),
 the Gaussian(R) 94 system (copyright 1995, Gaussian, Inc.),
 the Gaussian 92(TM) system (copyright 1992, Gaussian, Inc.),
 the Gaussian 90(TM) system (copyright 1990, Gaussian, Inc.),
 the Gaussian 88(TM) system (copyright 1988, Gaussian, Inc.),
 the Gaussian 86(TM) system (copyright 1986, Carnegie Mellon
 University), and the Gaussian 82(TM) system (copyright 1983,
 Carnegie Mellon University). Gaussian is a federally registered
 trademark of Gaussian, Inc.
  
 This software contains proprietary and confidential information,
 including trade secrets, belonging to Gaussian, Inc.
  
 This software is provided under written license and may be
 used, copied, transmitted, or stored only in accord with that
 written license.
  
 The following legend is applicable only to US Government
 contracts under FAR:
  
                    RESTRICTED RIGHTS LEGEND
  
 Use, reproduction and disclosure by the US Government is
 subject to restrictions as set forth in subparagraphs (a)
 and (c) of the Commercial Computer Software - Restricted
 Rights clause in FAR 52.227-19.
  
 Gaussian, Inc.
 340 Quinnipiac St., Bldg. 40, Wallingford CT 06492
  
  
 ---------------------------------------------------------------
 Warning -- This program may not be used in any manner that
 competes with the business of Gaussian, Inc. or will provide
 assistance to any competitor of Gaussian, Inc.  The licensee
 of this program is prohibited from giving any competitor of
 Gaussian, Inc. access to this program.  By using this program,
 the user acknowledges that Gaussian, Inc. is engaged in the
 business of creating and licensing software in the field of
 computational chemistry and represents and warrants to the
 licensee that it is not a competitor of Gaussian, Inc. and that
 it will not use this program in any manner prohibited above.
 ---------------------------------------------------------------
  

 Cite this work as:
 Gaussian 16, Revision A.03,
 M. J. Frisch, G. W. Trucks, H. B. Schlegel, G. E. Scuseria, 
 M. A. Robb, J. R. Cheeseman, G. Scalmani, V. Barone, 
 G. A. Petersson, H. Nakatsuji, X. Li, M. Caricato, A. V. Marenich, 
 J. Bloino, B. G. Janesko, R. Gomperts, B. Mennucci, H. P. Hratchian, 
 J. V. Ortiz, A. F. Izmaylov, J. L. Sonnenberg, D. Williams-Young, 
 F. Ding, F. Lipparini, F. Egidi, J. Goings, B. Peng, A. Petrone, 
 T. Henderson, D. Ranasinghe, V. G. Zakrzewski, J. Gao, N. Rega, 
 G. Zheng, W. Liang, M. Hada, M. Ehara, K. Toyota, R. Fukuda, 
 J. Hasegawa, M. Ishida, T. Nakajima, Y. Honda, O. Kitao, H. Nakai, 
 T. Vreven, K. Throssell, J. A. Montgomery, Jr., J. E. Peralta, 
 F. Ogliaro, M. J. Bearpark, J. J. Heyd, E. N. Brothers, K. N. Kudin, 
 V. N. Staroverov, T. A. Keith, R. Kobayashi, J. Normand, 
 K. Raghavachari, A. P. Rendell, J. C. Burant, S. S. Iyengar, 
 J. Tomasi, M. Cossi, J. M. Millam, M. Klene, C. Adamo, R. Cammi, 
 J. W. Ochterski, R. L. Martin, K. Morokuma, O. Farkas, 
 J. B. Foresman, and D. J. Fox, Gaussian, Inc., Wallingford CT, 2016.
 
 ******************************************
 Gaussian 16:  ES64L-G16RevA.03 25-Dec-2016
                28-Apr-2022 
 ******************************************
 %nproc=24
 Will use up to   24 processors via shared memory.
 %mem=75GB
 ---------------------------------
 #p PBE1PBE/Def2SVP td=(nstates=5)
 ---------------------------------
 1/38=1,172=1/1;
 2/12=2,17=6,18=5,40=1/2;
 3/5=43,7=101,11=9,25=1,30=1,74=-13/1,2,3,8;
 4//1;
 5/5=2,38=5/2;
 8/6=1,10=1,108=5/1;
 9/41=5,42=1,70=2/14;
 6/7=2,8=2,9=2,10=2/1;
 99/5=1,9=1/99;
 Leave Link    1 at Thu Apr 28 11:09:13 2022, MaxMem= 10066329600 cpu:               0.7 elap:               0.0
 (Enter /sw/apps/gaussian-16.0/g16/l101.exe)
 ------------------------------------------------------
 step_1551_chromophore_15 TDDFT with PBE1PBE functional
 ------------------------------------------------------
 Symbolic Z-matrix:
 Charge =  0 Multiplicity = 1
 Mg                    46.334    34.96     28.191 
 C                     44.782    33.379    30.867 
 C                     46.732    37.766    30.076 
 C                     47.461    36.466    25.382 
 C                     45.39     32.19     26.162 
 N                     45.652    35.515    30.23 
 C                     45.26     34.692    31.189 
 C                     45.416    35.442    32.58 
 C                     45.628    36.915    32.18 
 C                     46.024    36.704    30.706 
 C                     44.4      37.855    32.265 
 C                     46.569    34.867    33.477 
 C                     46.398    34.85     34.893 
 C                     46.23     36.154    35.581 
 O                     45.975    37.239    35.039 
 O                     46.334    35.957    36.936 
 N                     47.085    36.808    27.776 
 C                     47.255    37.791    28.763 
 C                     48.006    38.854    28.104 
 C                     48.068    38.609    26.719 
 C                     47.518    37.249    26.555 
 C                     48.327    40.124    28.84 
 C                     48.654    39.481    25.608 
 O                     48.567    39.145    24.436 
 C                     49.432    40.724    26.008 
 N                     46.497    34.32     26.086 
 C                     46.954    35.207    25.16 
 C                     46.999    34.483    23.813 
 C                     46.465    33.082    24.119 
 C                     46.122    33.209    25.542 
 C                     46.341    35.401    22.659 
 C                     47.386    31.908    23.704 
 C                     47.014    30.96     22.616 
 N                     45.386    33.094    28.391 
 C                     45.089    32.071    27.504 
 C                     44.424    30.959    28.218 
 C                     44.178    31.538    29.483 
 C                     44.849    32.753    29.564 
 C                     44.101    29.568    27.695 
 C                     43.592    31.354    30.79 
 O                     42.927    30.409    31.226 
 C                     43.821    32.604    31.687 
 C                     44.313    32.181    32.97 
 O                     45.349    31.548    33.142 
 O                     43.391    32.49     33.888 
 C                     43.597    32.099    35.297 
 C                     45.982    37.015    37.836 
 C                     47.212    37.751    38.359 
 C                     47.311    38.732    39.257 
 C                     46.253    39.454    40.086 
 C                     48.726    39.19     39.681 
 C                     49.466    40.084    38.711 
 C                     49.636    41.584    39.166 
 C                     49.959    42.539    37.952 
 C                     51.48     42.571    37.608 
 C                     49.513    44.027    38.198 
 C                     47.986    44.286    38.085 
 C                     47.545    45.356    39.038 
 C                     46.095    45.953    38.747 
 C                     46.127    47.308    38.106 
 C                     45.126    46.042    39.968 
 C                     43.858    45.176    39.873 
 C                     42.524    45.924    39.594 
 C                     41.484    45.138    38.807 
 C                     41.917    45.201    37.271 
 C                     40.12     45.717    38.995 
 H                     46.897    38.645    30.702 
 H                     47.799    36.903    24.44 
 H                     45.119    31.38     25.482 
 H                     44.444    35.315    33.056 
 H                     46.466    37.356    32.72 
 H                     44.327    38.42     31.336 
 H                     44.68     38.631    32.977 
 H                     43.418    37.438    32.488 
 H                     47.364    35.581    33.262 
 H                     46.869    33.865    33.171 
 H                     47.396    34.502    35.16 
 H                     45.674    34.091    35.19 
 H                     49.375    40.261    28.573 
 H                     48.328    40.173    29.929 
 H                     47.729    40.989    28.551 
 H                     50.198    40.439    26.729 
 H                     48.787    41.382    26.59 
 H                     49.838    41.238    25.137 
 H                     48.047    34.391    23.528 
 H                     45.467    32.965    23.697 
 H                     45.755    36.221    23.074 
 H                     45.768    34.783    21.968 
 H                     47.078    35.998    22.121 
 H                     47.578    31.417    24.658 
 H                     48.343    32.349    23.422 
 H                     47.761    30.933    21.822 
 H                     46.028    31.32     22.323 
 H                     46.953    29.977    23.084 
 H                     43.472    29.573    26.804 
 H                     43.517    29.046    28.453 
 H                     45.076    29.131    27.479 
 H                     42.898    33.17     31.813 
 H                     44.657    31.91     35.469 
 H                     43.03     31.171    35.364 
 H                     43.209    32.87     35.963 
 H                     45.478    36.529    38.672 
 H                     45.231    37.689    37.424 
 H                     48.196    37.358    38.101 
 H                     46.494    39.529    41.147 
 H                     45.274    39.       39.935 
 H                     46.172    40.509    39.824 
 H                     49.313    38.3      39.909 
 H                     48.741    39.743    40.621 
 H                     48.961    39.983    37.751 
 H                     50.517    39.798    38.688 
 H                     50.52     41.628    39.801 
 H                     48.859    42.063    39.762 
 H                     49.462    42.282    37.017 
 H                     51.958    41.729    38.108 
 H                     52.021    43.366    38.122 
 H                     51.664    42.649    36.536 
 H                     49.829    44.627    37.345 
 H                     49.916    44.471    39.108 
 H                     47.361    43.406    38.235 
 H                     47.719    44.763    37.142 
 H                     48.237    46.198    39.041 
 H                     47.677    45.016    40.066 
 H                     45.652    45.391    37.924 
 H                     46.831    47.364    37.276 
 H                     46.43     48.056    38.838 
 H                     45.123    47.57     37.773 
 H                     44.747    47.03     40.229 
 H                     45.727    45.642    40.784 
 H                     43.672    44.598    40.778 
 H                     43.929    44.427    39.084 
 H                     42.72     46.955    39.299 
 H                     41.998    46.141    40.524 
 H                     41.563    44.151    39.264 
 H                     41.601    46.173    36.893 
 H                     41.492    44.466    36.587 
 H                     42.999    45.321    37.215 
 H                     39.673    45.14     39.806 
 H                     39.47     45.467    38.157 
 H                     40.096    46.753    39.333 
 
 ITRead=  0  0  0  0  0  0  0  0  0  0  0  0  0  0  0  0  0  0  0  0
 ITRead=  0  0  0  0  0  0  0  0  0  0  0  0  0  0  0  0  0  0  0  0
 ITRead=  0  0  0  0  0  0  0  0  0  0  0  0  0  0  0  0  0  0  0  0
 ITRead=  0  0  0  0  0  0  0  0  0  0  0  0  0  0  0  0  0  0  0  0
 ITRead=  0  0  0  0  0  0  0  0  0  0  0  0  0  0  0  0  0  0  0  0
 ITRead=  0  0  0  0  0  0  0  0  0  0  0  0  0  0  0  0  0  0  0  0
 ITRead=  0  0  0  0  0  0  0  0  0  0  0  0  0  0  0  0  0  0  0  0
 MicOpt= -1 -1 -1 -1 -1 -1 -1 -1 -1 -1 -1 -1 -1 -1 -1 -1 -1 -1 -1 -1
 MicOpt= -1 -1 -1 -1 -1 -1 -1 -1 -1 -1 -1 -1 -1 -1 -1 -1 -1 -1 -1 -1
 MicOpt= -1 -1 -1 -1 -1 -1 -1 -1 -1 -1 -1 -1 -1 -1 -1 -1 -1 -1 -1 -1
 MicOpt= -1 -1 -1 -1 -1 -1 -1 -1 -1 -1 -1 -1 -1 -1 -1 -1 -1 -1 -1 -1
 MicOpt= -1 -1 -1 -1 -1 -1 -1 -1 -1 -1 -1 -1 -1 -1 -1 -1 -1 -1 -1 -1
 MicOpt= -1 -1 -1 -1 -1 -1 -1 -1 -1 -1 -1 -1 -1 -1 -1 -1 -1 -1 -1 -1
 MicOpt= -1 -1 -1 -1 -1 -1 -1 -1 -1 -1 -1 -1 -1 -1 -1 -1 -1 -1 -1 -1
 NAtoms=    140 NQM=      140 NQMF=       0 NMMI=      0 NMMIF=      0
                NMic=       0 NMicF=      0.
                    Isotopes and Nuclear Properties:
 (Nuclear quadrupole moments (NQMom) in fm**2, nuclear magnetic moments (NMagM)
  in nuclear magnetons)

  Atom         1           2           3           4           5           6           7           8           9          10
 IAtWgt=          24          12          12          12          12          14          12          12          12          12
 AtmWgt=  23.9850450  12.0000000  12.0000000  12.0000000  12.0000000  14.0030740  12.0000000  12.0000000  12.0000000  12.0000000
 NucSpn=           0           0           0           0           0           2           0           0           0           0
 AtZEff=  -0.0000000  -0.0000000  -0.0000000  -0.0000000  -0.0000000  -0.0000000  -0.0000000  -0.0000000  -0.0000000  -0.0000000
 NQMom=    0.0000000   0.0000000   0.0000000   0.0000000   0.0000000   2.0440000   0.0000000   0.0000000   0.0000000   0.0000000
 NMagM=    0.0000000   0.0000000   0.0000000   0.0000000   0.0000000   0.4037610   0.0000000   0.0000000   0.0000000   0.0000000
 AtZNuc=  12.0000000   6.0000000   6.0000000   6.0000000   6.0000000   7.0000000   6.0000000   6.0000000   6.0000000   6.0000000

  Atom        11          12          13          14          15          16          17          18          19          20
 IAtWgt=          12          12          12          12          16          16          14          12          12          12
 AtmWgt=  12.0000000  12.0000000  12.0000000  12.0000000  15.9949146  15.9949146  14.0030740  12.0000000  12.0000000  12.0000000
 NucSpn=           0           0           0           0           0           0           2           0           0           0
 AtZEff=  -0.0000000  -0.0000000  -0.0000000  -0.0000000  -0.0000000  -0.0000000  -0.0000000  -0.0000000  -0.0000000  -0.0000000
 NQMom=    0.0000000   0.0000000   0.0000000   0.0000000   0.0000000   0.0000000   2.0440000   0.0000000   0.0000000   0.0000000
 NMagM=    0.0000000   0.0000000   0.0000000   0.0000000   0.0000000   0.0000000   0.4037610   0.0000000   0.0000000   0.0000000
 AtZNuc=   6.0000000   6.0000000   6.0000000   6.0000000   8.0000000   8.0000000   7.0000000   6.0000000   6.0000000   6.0000000

  Atom        21          22          23          24          25          26          27          28          29          30
 IAtWgt=          12          12          12          16          12          14          12          12          12          12
 AtmWgt=  12.0000000  12.0000000  12.0000000  15.9949146  12.0000000  14.0030740  12.0000000  12.0000000  12.0000000  12.0000000
 NucSpn=           0           0           0           0           0           2           0           0           0           0
 AtZEff=  -0.0000000  -0.0000000  -0.0000000  -0.0000000  -0.0000000  -0.0000000  -0.0000000  -0.0000000  -0.0000000  -0.0000000
 NQMom=    0.0000000   0.0000000   0.0000000   0.0000000   0.0000000   2.0440000   0.0000000   0.0000000   0.0000000   0.0000000
 NMagM=    0.0000000   0.0000000   0.0000000   0.0000000   0.0000000   0.4037610   0.0000000   0.0000000   0.0000000   0.0000000
 AtZNuc=   6.0000000   6.0000000   6.0000000   8.0000000   6.0000000   7.0000000   6.0000000   6.0000000   6.0000000   6.0000000

  Atom        31          32          33          34          35          36          37          38          39          40
 IAtWgt=          12          12          12          14          12          12          12          12          12          12
 AtmWgt=  12.0000000  12.0000000  12.0000000  14.0030740  12.0000000  12.0000000  12.0000000  12.0000000  12.0000000  12.0000000
 NucSpn=           0           0           0           2           0           0           0           0           0           0
 AtZEff=  -0.0000000  -0.0000000  -0.0000000  -0.0000000  -0.0000000  -0.0000000  -0.0000000  -0.0000000  -0.0000000  -0.0000000
 NQMom=    0.0000000   0.0000000   0.0000000   2.0440000   0.0000000   0.0000000   0.0000000   0.0000000   0.0000000   0.0000000
 NMagM=    0.0000000   0.0000000   0.0000000   0.4037610   0.0000000   0.0000000   0.0000000   0.0000000   0.0000000   0.0000000
 AtZNuc=   6.0000000   6.0000000   6.0000000   7.0000000   6.0000000   6.0000000   6.0000000   6.0000000   6.0000000   6.0000000

  Atom        41          42          43          44          45          46          47          48          49          50
 IAtWgt=          16          12          12          16          16          12          12          12          12          12
 AtmWgt=  15.9949146  12.0000000  12.0000000  15.9949146  15.9949146  12.0000000  12.0000000  12.0000000  12.0000000  12.0000000
 NucSpn=           0           0           0           0           0           0           0           0           0           0
 AtZEff=  -0.0000000  -0.0000000  -0.0000000  -0.0000000  -0.0000000  -0.0000000  -0.0000000  -0.0000000  -0.0000000  -0.0000000
 NQMom=    0.0000000   0.0000000   0.0000000   0.0000000   0.0000000   0.0000000   0.0000000   0.0000000   0.0000000   0.0000000
 NMagM=    0.0000000   0.0000000   0.0000000   0.0000000   0.0000000   0.0000000   0.0000000   0.0000000   0.0000000   0.0000000
 AtZNuc=   8.0000000   6.0000000   6.0000000   8.0000000   8.0000000   6.0000000   6.0000000   6.0000000   6.0000000   6.0000000

  Atom        51          52          53          54          55          56          57          58          59          60
 IAtWgt=          12          12          12          12          12          12          12          12          12          12
 AtmWgt=  12.0000000  12.0000000  12.0000000  12.0000000  12.0000000  12.0000000  12.0000000  12.0000000  12.0000000  12.0000000
 NucSpn=           0           0           0           0           0           0           0           0           0           0
 AtZEff=  -0.0000000  -0.0000000  -0.0000000  -0.0000000  -0.0000000  -0.0000000  -0.0000000  -0.0000000  -0.0000000  -0.0000000
 NQMom=    0.0000000   0.0000000   0.0000000   0.0000000   0.0000000   0.0000000   0.0000000   0.0000000   0.0000000   0.0000000
 NMagM=    0.0000000   0.0000000   0.0000000   0.0000000   0.0000000   0.0000000   0.0000000   0.0000000   0.0000000   0.0000000
 AtZNuc=   6.0000000   6.0000000   6.0000000   6.0000000   6.0000000   6.0000000   6.0000000   6.0000000   6.0000000   6.0000000

  Atom        61          62          63          64          65          66          67          68          69          70
 IAtWgt=          12          12          12          12          12          12           1           1           1           1
 AtmWgt=  12.0000000  12.0000000  12.0000000  12.0000000  12.0000000  12.0000000   1.0078250   1.0078250   1.0078250   1.0078250
 NucSpn=           0           0           0           0           0           0           1           1           1           1
 AtZEff=  -0.0000000  -0.0000000  -0.0000000  -0.0000000  -0.0000000  -0.0000000  -0.0000000  -0.0000000  -0.0000000  -0.0000000
 NQMom=    0.0000000   0.0000000   0.0000000   0.0000000   0.0000000   0.0000000   0.0000000   0.0000000   0.0000000   0.0000000
 NMagM=    0.0000000   0.0000000   0.0000000   0.0000000   0.0000000   0.0000000   2.7928460   2.7928460   2.7928460   2.7928460
 AtZNuc=   6.0000000   6.0000000   6.0000000   6.0000000   6.0000000   6.0000000   1.0000000   1.0000000   1.0000000   1.0000000

  Atom        71          72          73          74          75          76          77          78          79          80
 IAtWgt=           1           1           1           1           1           1           1           1           1           1
 AtmWgt=   1.0078250   1.0078250   1.0078250   1.0078250   1.0078250   1.0078250   1.0078250   1.0078250   1.0078250   1.0078250
 NucSpn=           1           1           1           1           1           1           1           1           1           1
 AtZEff=  -0.0000000  -0.0000000  -0.0000000  -0.0000000  -0.0000000  -0.0000000  -0.0000000  -0.0000000  -0.0000000  -0.0000000
 NQMom=    0.0000000   0.0000000   0.0000000   0.0000000   0.0000000   0.0000000   0.0000000   0.0000000   0.0000000   0.0000000
 NMagM=    2.7928460   2.7928460   2.7928460   2.7928460   2.7928460   2.7928460   2.7928460   2.7928460   2.7928460   2.7928460
 AtZNuc=   1.0000000   1.0000000   1.0000000   1.0000000   1.0000000   1.0000000   1.0000000   1.0000000   1.0000000   1.0000000

  Atom        81          82          83          84          85          86          87          88          89          90
 IAtWgt=           1           1           1           1           1           1           1           1           1           1
 AtmWgt=   1.0078250   1.0078250   1.0078250   1.0078250   1.0078250   1.0078250   1.0078250   1.0078250   1.0078250   1.0078250
 NucSpn=           1           1           1           1           1           1           1           1           1           1
 AtZEff=  -0.0000000  -0.0000000  -0.0000000  -0.0000000  -0.0000000  -0.0000000  -0.0000000  -0.0000000  -0.0000000  -0.0000000
 NQMom=    0.0000000   0.0000000   0.0000000   0.0000000   0.0000000   0.0000000   0.0000000   0.0000000   0.0000000   0.0000000
 NMagM=    2.7928460   2.7928460   2.7928460   2.7928460   2.7928460   2.7928460   2.7928460   2.7928460   2.7928460   2.7928460
 AtZNuc=   1.0000000   1.0000000   1.0000000   1.0000000   1.0000000   1.0000000   1.0000000   1.0000000   1.0000000   1.0000000

  Atom        91          92          93          94          95          96          97          98          99         100
 IAtWgt=           1           1           1           1           1           1           1           1           1           1
 AtmWgt=   1.0078250   1.0078250   1.0078250   1.0078250   1.0078250   1.0078250   1.0078250   1.0078250   1.0078250   1.0078250
 NucSpn=           1           1           1           1           1           1           1           1           1           1
 AtZEff=  -0.0000000  -0.0000000  -0.0000000  -0.0000000  -0.0000000  -0.0000000  -0.0000000  -0.0000000  -0.0000000  -0.0000000
 NQMom=    0.0000000   0.0000000   0.0000000   0.0000000   0.0000000   0.0000000   0.0000000   0.0000000   0.0000000   0.0000000
 NMagM=    2.7928460   2.7928460   2.7928460   2.7928460   2.7928460   2.7928460   2.7928460   2.7928460   2.7928460   2.7928460
 AtZNuc=   1.0000000   1.0000000   1.0000000   1.0000000   1.0000000   1.0000000   1.0000000   1.0000000   1.0000000   1.0000000

  Atom       101         102         103         104         105         106         107         108         109         110
 IAtWgt=           1           1           1           1           1           1           1           1           1           1
 AtmWgt=   1.0078250   1.0078250   1.0078250   1.0078250   1.0078250   1.0078250   1.0078250   1.0078250   1.0078250   1.0078250
 NucSpn=           1           1           1           1           1           1           1           1           1           1
 AtZEff=  -0.0000000  -0.0000000  -0.0000000  -0.0000000  -0.0000000  -0.0000000  -0.0000000  -0.0000000  -0.0000000  -0.0000000
 NQMom=    0.0000000   0.0000000   0.0000000   0.0000000   0.0000000   0.0000000   0.0000000   0.0000000   0.0000000   0.0000000
 NMagM=    2.7928460   2.7928460   2.7928460   2.7928460   2.7928460   2.7928460   2.7928460   2.7928460   2.7928460   2.7928460
 AtZNuc=   1.0000000   1.0000000   1.0000000   1.0000000   1.0000000   1.0000000   1.0000000   1.0000000   1.0000000   1.0000000

  Atom       111         112         113         114         115         116         117         118         119         120
 IAtWgt=           1           1           1           1           1           1           1           1           1           1
 AtmWgt=   1.0078250   1.0078250   1.0078250   1.0078250   1.0078250   1.0078250   1.0078250   1.0078250   1.0078250   1.0078250
 NucSpn=           1           1           1           1           1           1           1           1           1           1
 AtZEff=  -0.0000000  -0.0000000  -0.0000000  -0.0000000  -0.0000000  -0.0000000  -0.0000000  -0.0000000  -0.0000000  -0.0000000
 NQMom=    0.0000000   0.0000000   0.0000000   0.0000000   0.0000000   0.0000000   0.0000000   0.0000000   0.0000000   0.0000000
 NMagM=    2.7928460   2.7928460   2.7928460   2.7928460   2.7928460   2.7928460   2.7928460   2.7928460   2.7928460   2.7928460
 AtZNuc=   1.0000000   1.0000000   1.0000000   1.0000000   1.0000000   1.0000000   1.0000000   1.0000000   1.0000000   1.0000000

  Atom       121         122         123         124         125         126         127         128         129         130
 IAtWgt=           1           1           1           1           1           1           1           1           1           1
 AtmWgt=   1.0078250   1.0078250   1.0078250   1.0078250   1.0078250   1.0078250   1.0078250   1.0078250   1.0078250   1.0078250
 NucSpn=           1           1           1           1           1           1           1           1           1           1
 AtZEff=  -0.0000000  -0.0000000  -0.0000000  -0.0000000  -0.0000000  -0.0000000  -0.0000000  -0.0000000  -0.0000000  -0.0000000
 NQMom=    0.0000000   0.0000000   0.0000000   0.0000000   0.0000000   0.0000000   0.0000000   0.0000000   0.0000000   0.0000000
 NMagM=    2.7928460   2.7928460   2.7928460   2.7928460   2.7928460   2.7928460   2.7928460   2.7928460   2.7928460   2.7928460
 AtZNuc=   1.0000000   1.0000000   1.0000000   1.0000000   1.0000000   1.0000000   1.0000000   1.0000000   1.0000000   1.0000000

  Atom       131         132         133         134         135         136         137         138         139         140
 IAtWgt=           1           1           1           1           1           1           1           1           1           1
 AtmWgt=   1.0078250   1.0078250   1.0078250   1.0078250   1.0078250   1.0078250   1.0078250   1.0078250   1.0078250   1.0078250
 NucSpn=           1           1           1           1           1           1           1           1           1           1
 AtZEff=  -0.0000000  -0.0000000  -0.0000000  -0.0000000  -0.0000000  -0.0000000  -0.0000000  -0.0000000  -0.0000000  -0.0000000
 NQMom=    0.0000000   0.0000000   0.0000000   0.0000000   0.0000000   0.0000000   0.0000000   0.0000000   0.0000000   0.0000000
 NMagM=    2.7928460   2.7928460   2.7928460   2.7928460   2.7928460   2.7928460   2.7928460   2.7928460   2.7928460   2.7928460
 AtZNuc=   1.0000000   1.0000000   1.0000000   1.0000000   1.0000000   1.0000000   1.0000000   1.0000000   1.0000000   1.0000000
 Leave Link  101 at Thu Apr 28 11:09:13 2022, MaxMem= 10066329600 cpu:               3.0 elap:               0.2
 (Enter /sw/apps/gaussian-16.0/g16/l202.exe)
 Stoichiometry    C55H74MgN4O6
 Framework group  C1[X(C55H74MgN4O6)]
 Deg. of freedom   414
 Full point group                 C1      NOp   1
 Largest Abelian subgroup         C1      NOp   1
 Largest concise Abelian subgroup C1      NOp   1
                         Standard orientation:                         
 ---------------------------------------------------------------------
 Center     Atomic      Atomic             Coordinates (Angstroms)
 Number     Number       Type             X           Y           Z
 ---------------------------------------------------------------------
      1         12           0       -4.760978    0.681372    0.056879
      2          6           0       -3.693749   -2.594743    0.501103
      3          6           0       -1.523870    1.732010    0.006343
      4          6           0       -5.976962    3.835538    0.021237
      5          6           0       -8.084339   -0.445916    0.661340
      6          7           0       -2.831416   -0.365536    0.390712
      7          6           0       -2.612521   -1.668928    0.328037
      8          6           0       -1.062502   -1.899219    0.070891
      9          6           0       -0.436047   -0.519274    0.350139
     10          6           0       -1.709690    0.342031    0.250142
     11          6           0        0.231563   -0.311935    1.732208
     12          6           0       -0.739678   -2.452370   -1.362445
     13          6           0        0.343445   -3.366860   -1.520994
     14          6           0        1.703966   -2.888532   -1.171468
     15          8           0        1.975965   -1.866743   -0.524956
     16          8           0        2.624568   -3.802338   -1.622134
     17          7           0       -3.909818    2.528381   -0.067271
     18          6           0       -2.523706    2.712504   -0.186225
     19          6           0       -2.359802    4.135322   -0.463673
     20          6           0       -3.585081    4.803655   -0.278967
     21          6           0       -4.573915    3.724809   -0.085849
     22          6           0       -0.985665    4.729232   -0.592724
     23          6           0       -3.890924    6.300077   -0.351645
     24          8           0       -5.009017    6.724127   -0.098471
     25          6           0       -2.795085    7.232243   -0.842092
     26          7           0       -6.793565    1.526729    0.202321
     27          6           0       -6.946554    2.879342    0.213581
     28          6           0       -8.446833    3.171692    0.279186
     29          6           0       -9.098899    1.788778    0.342048
     30          6           0       -7.918214    0.915200    0.381430
     31          6           0       -8.751969    4.297594    1.395716
     32          6           0      -10.168853    1.502182   -0.740450
     33          6           0      -11.609945    1.333846   -0.400231
     34          7           0       -5.788837   -1.118694    0.408914
     35          6           0       -7.122683   -1.435224    0.614272
     36          6           0       -7.275584   -2.896645    0.785839
     37          6           0       -5.930008   -3.314754    0.888760
     38          6           0       -5.097860   -2.249903    0.562192
     39          6           0       -8.562153   -3.705850    0.837468
     40          6           0       -5.035613   -4.428773    1.099758
     41          8           0       -5.297027   -5.603516    1.377221
     42          6           0       -3.549533   -3.976998    1.016000
     43          6           0       -2.829602   -4.877926    0.157449
     44          8           0       -3.102964   -5.081865   -1.020367
     45          8           0       -1.920987   -5.518684    0.900509
     46          6           0       -1.082362   -6.570164    0.290839
     47          6           0        3.993132   -3.692226   -1.212040
     48          6           0        4.860042   -3.045045   -2.288027
     49          6           0        6.176433   -2.833893   -2.321107
     50          6           0        7.279303   -3.169003   -1.321473
     51          6           0        6.789542   -2.265567   -3.622209
     52          6           0        6.605967   -0.783971   -3.864922
     53          6           0        7.909878    0.091973   -3.729044
     54          6           0        7.578245    1.619135   -3.510077
     55          6           0        7.327266    2.372303   -4.852667
     56          6           0        8.715477    2.398142   -2.752827
     57          6           0        8.798562    2.126116   -1.226171
     58          6           0       10.216006    2.182648   -0.741151
     59          6           0       10.376168    2.288392    0.842123
     60          6           0       10.742236    3.664086    1.312644
     61          6           0       11.379093    1.291396    1.503833
     62          6           0       10.760167    0.281945    2.486048
     63          6           0       11.025118    0.530136    3.997703
     64          6           0        9.921887    0.069472    4.940801
     65          6           0        8.774361    1.179240    4.892278
     66          6           0       10.440119   -0.093358    6.332205
     67          1           0       -0.482556    2.053908   -0.055219
     68          1           0       -6.427831    4.830142    0.028784
     69          1           0       -9.123097   -0.722203    0.852617
     70          1           0       -0.772042   -2.610357    0.843810
     71          1           0        0.257990   -0.231560   -0.439709
     72          1           0       -0.126380    0.625887    2.156426
     73          1           0        1.273388   -0.076260    1.516389
     74          1           0        0.142427   -1.086263    2.494057
     75          1           0       -0.454919   -1.531910   -1.872065
     76          1           0       -1.613835   -2.893491   -1.840881
     77          1           0        0.324690   -3.433732   -2.608916
     78          1           0        0.093133   -4.344277   -1.108118
     79          1           0       -1.108688    5.349420   -1.480752
     80          1           0       -0.113719    4.116708   -0.822612
     81          1           0       -0.656847    5.322360    0.261342
     82          1           0       -2.422401    6.860653   -1.796476
     83          1           0       -1.925146    7.140362   -0.192110
     84          1           0       -3.142457    8.263908   -0.893781
     85          1           0       -8.729283    3.636470   -0.665375
     86          1           0       -9.495326    1.610608    1.341487
     87          1           0       -7.908240    4.443041    2.070244
     88          1           0       -9.676070    4.062877    1.923616
     89          1           0       -8.790731    5.305474    0.981352
     90          1           0       -9.745028    0.644242   -1.262343
     91          1           0      -10.109925    2.320419   -1.459387
     92          1           0      -12.242952    2.044929   -0.932056
     93          1           0      -11.603685    1.429048    0.685376
     94          1           0      -11.873071    0.321014   -0.706777
     95          1           0       -9.244548   -3.388864    1.627028
     96          1           0       -8.306443   -4.737491    1.079197
     97          1           0       -9.010301   -3.557638   -0.145103
     98          1           0       -3.089089   -3.960086    2.003860
     99          1           0       -1.073653   -6.443719   -0.792138
    100          1           0       -1.618243   -7.479029    0.562790
    101          1           0       -0.076721   -6.541355    0.710836
    102          1           0        4.331643   -4.716574   -1.053202
    103          1           0        4.106177   -3.217245   -0.237548
    104          1           0        4.407394   -2.836798   -3.258085
    105          1           0        8.145251   -3.663134   -1.763510
    106          1           0        6.877879   -3.746448   -0.489143
    107          1           0        7.747770   -2.275622   -0.908388
    108          1           0        6.397781   -2.844307   -4.459010
    109          1           0        7.866684   -2.418915   -3.698917
    110          1           0        5.802470   -0.459986   -3.204428
    111          1           0        6.402508   -0.614894   -4.921778
    112          1           0        8.424798    0.051001   -4.688104
    113          1           0        8.677369   -0.183671   -3.005605
    114          1           0        6.694882    1.817826   -2.903879
    115          1           0        7.176427    1.628796   -5.634903
    116          1           0        8.227310    2.829766   -5.264431
    117          1           0        6.548460    3.130708   -4.766607
    118          1           0        8.436993    3.450405   -2.701317
    119          1           0        9.698729    2.317541   -3.215822
    120          1           0        8.357485    1.182627   -0.905537
    121          1           0        8.374614    2.941456   -0.640035
    122          1           0       10.750812    3.030602   -1.168696
    123          1           0       10.793153    1.369474   -1.183258
    124          1           0        9.385249    2.217779    1.292141
    125          1           0       10.134342    4.441970    0.851111
    126          1           0       11.781622    3.875481    1.063395
    127          1           0       10.655402    3.705796    2.398125
    128          1           0       12.209906    1.721880    2.062706
    129          1           0       11.752664    0.722848    0.652801
    130          1           0       11.092292   -0.740438    2.306797
    131          1           0        9.674731    0.232889    2.396694
    132          1           0       11.451813    1.521390    4.151810
    133          1           0       11.883044   -0.047788    4.342132
    134          1           0        9.647200   -0.891377    4.504252
    135          1           0        9.101402    2.000344    5.529739
    136          1           0        7.780755    0.906575    5.248798
    137          1           0        8.803318    1.673200    3.920978
    138          1           0       10.701283   -1.149156    6.419048
    139          1           0        9.636672   -0.000168    7.062296
    140          1           0       11.359552    0.448665    6.553493
 ---------------------------------------------------------------------
 Rotational constants (GHZ):           0.0386393           0.0119058           0.0104250
 Leave Link  202 at Thu Apr 28 11:09:13 2022, MaxMem= 10066329600 cpu:               0.2 elap:               0.0
 (Enter /sw/apps/gaussian-16.0/g16/l301.exe)
 Standard basis: def2SVP (5D, 7F)
 Ernie: Thresh=  0.10000D-02 Tol=  0.10000D-05 Strict=F.
 There are  1364 symmetry adapted cartesian basis functions of A   symmetry.
 There are  1298 symmetry adapted basis functions of A   symmetry.
  1298 basis functions,  2180 primitive gaussians,  1364 cartesian basis functions
   246 alpha electrons      246 beta electrons
       nuclear repulsion energy      9659.5627876305 Hartrees.
 IExCor= 1009 DFT=T Ex+Corr=PBE1PBE ExCW=0 ScaHFX=  0.250000
 ScaDFX=  0.750000  0.750000  1.000000  1.000000 ScalE2=  1.000000  1.000000
 IRadAn=      5 IRanWt=     -1 IRanGd=            0 ICorTp=0 IEmpDi=  4
 NAtoms=  140 NActive=  140 NUniq=  140 SFac= 1.00D+00 NAtFMM=   60 NAOKFM=T Big=T
 Integral buffers will be    131072 words long.
 Regular integral format.
 Two-electron integral symmetry is turned on.
 Leave Link  301 at Thu Apr 28 11:09:13 2022, MaxMem= 10066329600 cpu:               1.3 elap:               0.1
 (Enter /sw/apps/gaussian-16.0/g16/l302.exe)
 NPDir=0 NMtPBC=     1 NCelOv=     1 NCel=       1 NClECP=     1 NCelD=      1
         NCelK=      1 NCelE2=     1 NClLst=     1 CellRange=     0.0.
 One-electron integrals computed using PRISM.
 One-electron integral symmetry used in STVInt
   1 Symmetry operations used in ECPInt.
 ECPInt:  NShTT=  192510 NPrTT=  683786 LenC2=   97086 LenP2D=  210635.
 LDataN:  DoStor=T MaxTD1= 4 Len=   56
 NBasis=  1298 RedAO= T EigKep=  3.15D-04  NBF=  1298
 NBsUse=  1298 1.00D-06 EigRej= -1.00D+00 NBFU=  1298
 Precomputing XC quadrature grid using
 IXCGrd= 4 IRadAn=           5 IRanWt=          -1 IRanGd=           0 AccXCQ= 0.00D+00.
 Generated NRdTot=       0 NPtTot=           0 NUsed=           0 NTot=          32
 NSgBfM=  1149  1148  1148  1148  1149 MxSgAt=   140 MxSgA2=   140.
 Leave Link  302 at Thu Apr 28 11:09:16 2022, MaxMem= 10066329600 cpu:              76.8 elap:               3.2
 (Enter /sw/apps/gaussian-16.0/g16/l303.exe)
 DipDrv:  MaxL=1.
 Leave Link  303 at Thu Apr 28 11:09:17 2022, MaxMem= 10066329600 cpu:               5.8 elap:               0.3
 (Enter /sw/apps/gaussian-16.0/g16/l308.exe)
 Leave Link  308 at Thu Apr 28 11:09:17 2022, MaxMem= 10066329600 cpu:               9.5 elap:               0.5
 (Enter /sw/apps/gaussian-16.0/g16/l401.exe)
 ExpMin= 3.36D-02 ExpMax= 4.95D+03 ExpMxC= 7.45D+02 IAcc=3 IRadAn=         5 AccDes= 0.00D+00
 Harris functional with IExCor= 1009 and IRadAn=       5 diagonalized for initial guess.
 HarFok:  IExCor= 1009 AccDes= 0.00D+00 IRadAn=         5 IDoV= 1 UseB2=F ITyADJ=14
 ICtDFT=  3500011 ScaDFX=  1.000000  1.000000  1.000000  1.000000
 FoFCou: FMM=F IPFlag=           0 FMFlag=      100000 FMFlg1=        2001
         NFxFlg=           0 DoJE=T BraDBF=F KetDBF=T FulRan=T
         wScrn=  0.000000 ICntrl=       500 IOpCl=  0 I1Cent=   200000004 NGrid=           0
         NMat0=    1 NMatS0=      1 NMatT0=    0 NMatD0=    1 NMtDS0=    0 NMtDT0=    0
 Petite list used in FoFCou.
 Harris En= -3006.18725212060    
 JPrj=0 DoOrth=F DoCkMO=F.
 Leave Link  401 at Thu Apr 28 11:09:23 2022, MaxMem= 10066329600 cpu:             143.4 elap:               6.0
 (Enter /sw/apps/gaussian-16.0/g16/l502.exe)
 Integral symmetry usage will be decided dynamically.
 Closed shell SCF:
 Using DIIS extrapolation, IDIIS=  1040.
 NGot= 10066329600 LenX= 10062561258 LenY= 10060699398
 Requested convergence on RMS density matrix=1.00D-08 within 128 cycles.
 Requested convergence on MAX density matrix=1.00D-06.
 Requested convergence on             energy=1.00D-06.
 No special actions if energy rises.
 Fock matrices will be formed incrementally for  20 cycles.

 Cycle   1  Pass 1  IDiag  1:
 FoFJK:  IHMeth= 1 ICntrl=       0 DoSepK=F KAlg= 0 I1Cent=           0 FoldK=F
 IRaf= 520000000 NMat=       1 IRICut=       1 DoRegI=T DoRafI=F ISym2E= 0 IDoP0=0 IntGTp=1.
 FoFCou: FMM=T IPFlag=           0 FMFlag=      100000 FMFlg1=        2001
         NFxFlg=           0 DoJE=F BraDBF=F KetDBF=F FulRan=T
         wScrn=  0.000000 ICntrl=         0 IOpCl=  0 I1Cent=           0 NGrid=           0
         NMat0=    1 NMatS0=      1 NMatT0=    0 NMatD0=    1 NMtDS0=    0 NMtDT0=    0
 Symmetry not used in FoFCou.
 FMM levels:  10  Number of levels for PrismC:   9
 E= -3003.82364524943    
 DIIS: error= 2.36D-02 at cycle   1 NSaved=   1.
 NSaved= 1 IEnMin= 1 EnMin= -3003.82364524943     IErMin= 1 ErrMin= 2.36D-02
 ErrMax= 2.36D-02  0.00D+00 EMaxC= 1.00D-01 BMatC= 1.47D+00 BMatP= 1.47D+00
 IDIUse=3 WtCom= 7.64D-01 WtEn= 2.36D-01
 Coeff-Com:  0.100D+01
 Coeff-En:   0.100D+01
 Coeff:      0.100D+01
 Gap=     0.086 Goal=   None    Shift=    0.000
 GapD=    0.086 DampG=0.500 DampE=0.500 DampFc=0.2500 IDamp=-1.
 Damping current iteration by 2.50D-01
 RMSDP=2.92D-03 MaxDP=1.01D+00              OVMax= 2.41D-01

 Cycle   2  Pass 1  IDiag  1:
 RMSU=  7.24D-04    CP:  9.91D-01
 E= -3004.37858073161     Delta-E=       -0.554935482189 Rises=F Damp=T
 DIIS: error= 1.22D-02 at cycle   2 NSaved=   2.
 NSaved= 2 IEnMin= 2 EnMin= -3004.37858073161     IErMin= 2 ErrMin= 1.22D-02
 ErrMax= 1.22D-02  0.00D+00 EMaxC= 1.00D-01 BMatC= 3.72D-01 BMatP= 1.47D+00
 IDIUse=3 WtCom= 8.78D-01 WtEn= 1.22D-01
 Coeff-Com: -0.791D+00 0.179D+01
 Coeff-En:   0.000D+00 0.100D+01
 Coeff:     -0.694D+00 0.169D+01
 Gap=     0.173 Goal=   None    Shift=    0.000
 RMSDP=9.95D-04 MaxDP=6.93D-02 DE=-5.55D-01 OVMax= 2.74D-01

 Cycle   3  Pass 1  IDiag  1:
 RMSU=  8.53D-04    CP:  9.65D-01  1.63D+00
 E= -3005.22138789077     Delta-E=       -0.842807159153 Rises=F Damp=F
 DIIS: error= 1.41D-02 at cycle   3 NSaved=   3.
 NSaved= 3 IEnMin= 3 EnMin= -3005.22138789077     IErMin= 2 ErrMin= 1.22D-02
 ErrMax= 1.41D-02  0.00D+00 EMaxC= 1.00D-01 BMatC= 1.65D-01 BMatP= 3.72D-01
 IDIUse=3 WtCom= 8.59D-01 WtEn= 1.41D-01
 Coeff-Com: -0.494D+00 0.105D+01 0.440D+00
 Coeff-En:   0.000D+00 0.000D+00 0.100D+01
 Coeff:     -0.424D+00 0.906D+00 0.519D+00
 Gap=     0.077 Goal=   None    Shift=    0.000
 RMSDP=6.36D-04 MaxDP=1.41D-01 DE=-8.43D-01 OVMax= 2.00D-01

 Cycle   4  Pass 1  IDiag  1:
 RMSU=  4.15D-04    CP:  9.71D-01  1.91D+00  4.94D-01
 E= -3005.32384121087     Delta-E=       -0.102453320102 Rises=F Damp=F
 DIIS: error= 6.90D-03 at cycle   4 NSaved=   4.
 NSaved= 4 IEnMin= 4 EnMin= -3005.32384121087     IErMin= 4 ErrMin= 6.90D-03
 ErrMax= 6.90D-03  0.00D+00 EMaxC= 1.00D-01 BMatC= 5.17D-02 BMatP= 1.65D-01
 IDIUse=3 WtCom= 9.31D-01 WtEn= 6.90D-02
 Coeff-Com: -0.101D+00 0.229D+00 0.351D+00 0.521D+00
 Coeff-En:   0.000D+00 0.000D+00 0.297D+00 0.703D+00
 Coeff:     -0.942D-01 0.213D+00 0.348D+00 0.533D+00
 Gap=     0.076 Goal=   None    Shift=    0.000
 RMSDP=3.30D-04 MaxDP=6.60D-02 DE=-1.02D-01 OVMax= 1.64D-01

 Cycle   5  Pass 1  IDiag  1:
 RMSU=  1.52D-04    CP:  9.69D-01  1.76D+00  6.94D-01  4.87D-01
 E= -3005.36624062322     Delta-E=       -0.042399412348 Rises=F Damp=F
 DIIS: error= 2.23D-03 at cycle   5 NSaved=   5.
 NSaved= 5 IEnMin= 5 EnMin= -3005.36624062322     IErMin= 5 ErrMin= 2.23D-03
 ErrMax= 2.23D-03  0.00D+00 EMaxC= 1.00D-01 BMatC= 7.51D-03 BMatP= 5.17D-02
 IDIUse=3 WtCom= 9.78D-01 WtEn= 2.23D-02
 Coeff-Com: -0.189D-01 0.499D-01 0.205D+00 0.386D+00 0.379D+00
 Coeff-En:   0.000D+00 0.000D+00 0.000D+00 0.169D+00 0.831D+00
 Coeff:     -0.184D-01 0.488D-01 0.200D+00 0.381D+00 0.389D+00
 Gap=     0.077 Goal=   None    Shift=    0.000
 RMSDP=1.33D-04 MaxDP=1.31D-02 DE=-4.24D-02 OVMax= 7.78D-02

 Cycle   6  Pass 1  IDiag  1:
 RMSU=  5.25D-05    CP:  9.69D-01  1.77D+00  6.67D-01  6.31D-01  3.14D-01
 E= -3005.37535574626     Delta-E=       -0.009115123037 Rises=F Damp=F
 DIIS: error= 5.72D-04 at cycle   6 NSaved=   6.
 NSaved= 6 IEnMin= 6 EnMin= -3005.37535574626     IErMin= 6 ErrMin= 5.72D-04
 ErrMax= 5.72D-04  0.00D+00 EMaxC= 1.00D-01 BMatC= 6.50D-04 BMatP= 7.51D-03
 IDIUse=3 WtCom= 9.94D-01 WtEn= 5.72D-03
 Coeff-Com:  0.393D-02-0.458D-02 0.666D-01 0.146D+00 0.256D+00 0.531D+00
 Coeff-En:   0.000D+00 0.000D+00 0.000D+00 0.000D+00 0.961D-01 0.904D+00
 Coeff:      0.390D-02-0.455D-02 0.662D-01 0.146D+00 0.255D+00 0.533D+00
 Gap=     0.077 Goal=   None    Shift=    0.000
 RMSDP=3.77D-05 MaxDP=2.94D-03 DE=-9.12D-03 OVMax= 2.08D-02

 Cycle   7  Pass 1  IDiag  1:
 RMSU=  1.99D-05    CP:  9.69D-01  1.77D+00  6.76D-01  6.07D-01  4.41D-01
                    CP:  5.76D-01
 E= -3005.37607804872     Delta-E=       -0.000722302462 Rises=F Damp=F
 DIIS: error= 2.45D-04 at cycle   7 NSaved=   7.
 NSaved= 7 IEnMin= 7 EnMin= -3005.37607804872     IErMin= 7 ErrMin= 2.45D-04
 ErrMax= 2.45D-04  0.00D+00 EMaxC= 1.00D-01 BMatC= 8.16D-05 BMatP= 6.50D-04
 IDIUse=3 WtCom= 9.98D-01 WtEn= 2.45D-03
 Coeff-Com:  0.370D-02-0.665D-02 0.210D-01 0.503D-01 0.122D+00 0.343D+00
 Coeff-Com:  0.466D+00
 Coeff-En:   0.000D+00 0.000D+00 0.000D+00 0.000D+00 0.000D+00 0.878D-01
 Coeff-En:   0.912D+00
 Coeff:      0.369D-02-0.664D-02 0.209D-01 0.502D-01 0.122D+00 0.342D+00
 Coeff:      0.467D+00
 Gap=     0.077 Goal=   None    Shift=    0.000
 RMSDP=1.68D-05 MaxDP=1.30D-03 DE=-7.22D-04 OVMax= 1.22D-02

 Cycle   8  Pass 1  IDiag  1:
 RMSU=  1.05D-05    CP:  9.69D-01  1.77D+00  6.76D-01  6.09D-01  4.33D-01
                    CP:  6.60D-01  3.83D-01
 E= -3005.37614240505     Delta-E=       -0.000064356334 Rises=F Damp=F
 DIIS: error= 1.82D-04 at cycle   8 NSaved=   8.
 NSaved= 8 IEnMin= 8 EnMin= -3005.37614240505     IErMin= 8 ErrMin= 1.82D-04
 ErrMax= 1.82D-04  0.00D+00 EMaxC= 1.00D-01 BMatC= 2.63D-05 BMatP= 8.16D-05
 IDIUse=3 WtCom= 9.98D-01 WtEn= 1.82D-03
 Coeff-Com:  0.198D-02-0.394D-02 0.520D-02 0.140D-01 0.520D-01 0.177D+00
 Coeff-Com:  0.366D+00 0.388D+00
 Coeff-En:   0.000D+00 0.000D+00 0.000D+00 0.000D+00 0.000D+00 0.000D+00
 Coeff-En:   0.313D+00 0.687D+00
 Coeff:      0.197D-02-0.393D-02 0.519D-02 0.140D-01 0.519D-01 0.177D+00
 Coeff:      0.366D+00 0.388D+00
 Gap=     0.077 Goal=   None    Shift=    0.000
 RMSDP=8.19D-06 MaxDP=5.99D-04 DE=-6.44D-05 OVMax= 6.04D-03

 Cycle   9  Pass 1  IDiag  1:
 RMSU=  2.95D-06    CP:  9.69D-01  1.77D+00  6.76D-01  6.10D-01  4.36D-01
                    CP:  6.44D-01  5.73D-01  3.76D-01
 E= -3005.37617815551     Delta-E=       -0.000035750463 Rises=F Damp=F
 DIIS: error= 3.36D-05 at cycle   9 NSaved=   9.
 NSaved= 9 IEnMin= 9 EnMin= -3005.37617815551     IErMin= 9 ErrMin= 3.36D-05
 ErrMax= 3.36D-05  0.00D+00 EMaxC= 1.00D-01 BMatC= 1.99D-06 BMatP= 2.63D-05
 IDIUse=1 WtCom= 1.00D+00 WtEn= 0.00D+00
 Coeff-Com:  0.654D-03-0.139D-02 0.424D-03 0.148D-02 0.163D-01 0.660D-01
 Coeff-Com:  0.173D+00 0.255D+00 0.489D+00
 Coeff:      0.654D-03-0.139D-02 0.424D-03 0.148D-02 0.163D-01 0.660D-01
 Coeff:      0.173D+00 0.255D+00 0.489D+00
 Gap=     0.077 Goal=   None    Shift=    0.000
 RMSDP=2.14D-06 MaxDP=4.65D-04 DE=-3.58D-05 OVMax= 1.25D-03

 Cycle  10  Pass 1  IDiag  1:
 RMSU=  1.26D-06    CP:  9.69D-01  1.77D+00  6.76D-01  6.10D-01  4.37D-01
                    CP:  6.56D-01  5.55D-01  4.61D-01  6.08D-01
 E= -3005.37618029596     Delta-E=       -0.000002140441 Rises=F Damp=F
 DIIS: error= 9.56D-06 at cycle  10 NSaved=  10.
 NSaved=10 IEnMin=10 EnMin= -3005.37618029596     IErMin=10 ErrMin= 9.56D-06
 ErrMax= 9.56D-06  0.00D+00 EMaxC= 1.00D-01 BMatC= 2.38D-07 BMatP= 1.99D-06
 IDIUse=1 WtCom= 1.00D+00 WtEn= 0.00D+00
 Coeff-Com:  0.729D-04-0.190D-03-0.465D-03-0.134D-02 0.234D-02 0.134D-01
 Coeff-Com:  0.496D-01 0.988D-01 0.300D+00 0.537D+00
 Coeff:      0.729D-04-0.190D-03-0.465D-03-0.134D-02 0.234D-02 0.134D-01
 Coeff:      0.496D-01 0.988D-01 0.300D+00 0.537D+00
 Gap=     0.077 Goal=   None    Shift=    0.000
 RMSDP=6.76D-07 MaxDP=5.36D-05 DE=-2.14D-06 OVMax= 2.55D-04

 Cycle  11  Pass 1  IDiag  1:
 RMSU=  4.25D-07    CP:  9.69D-01  1.77D+00  6.76D-01  6.10D-01  4.37D-01
                    CP:  6.55D-01  5.60D-01  4.60D-01  7.11D-01  6.70D-01
 E= -3005.37618052373     Delta-E=       -0.000000227776 Rises=F Damp=F
 DIIS: error= 3.86D-06 at cycle  11 NSaved=  11.
 NSaved=11 IEnMin=11 EnMin= -3005.37618052373     IErMin=11 ErrMin= 3.86D-06
 ErrMax= 3.86D-06  0.00D+00 EMaxC= 1.00D-01 BMatC= 3.65D-08 BMatP= 2.38D-07
 IDIUse=1 WtCom= 1.00D+00 WtEn= 0.00D+00
 Coeff-Com: -0.299D-04 0.420D-04-0.362D-03-0.113D-02-0.494D-03-0.995D-04
 Coeff-Com:  0.949D-02 0.315D-01 0.128D+00 0.338D+00 0.495D+00
 Coeff:     -0.299D-04 0.420D-04-0.362D-03-0.113D-02-0.494D-03-0.995D-04
 Coeff:      0.949D-02 0.315D-01 0.128D+00 0.338D+00 0.495D+00
 Gap=     0.077 Goal=   None    Shift=    0.000
 RMSDP=2.45D-07 MaxDP=2.66D-05 DE=-2.28D-07 OVMax= 1.11D-04

 Cycle  12  Pass 1  IDiag  1:
 RMSU=  1.54D-07    CP:  9.69D-01  1.77D+00  6.76D-01  6.10D-01  4.37D-01
                    CP:  6.56D-01  5.62D-01  4.67D-01  7.08D-01  7.59D-01
                    CP:  7.32D-01
 E= -3005.37618056243     Delta-E=       -0.000000038703 Rises=F Damp=F
 DIIS: error= 1.63D-06 at cycle  12 NSaved=  12.
 NSaved=12 IEnMin=12 EnMin= -3005.37618056243     IErMin=12 ErrMin= 1.63D-06
 ErrMax= 1.63D-06  0.00D+00 EMaxC= 1.00D-01 BMatC= 2.85D-09 BMatP= 3.65D-08
 IDIUse=1 WtCom= 1.00D+00 WtEn= 0.00D+00
 Coeff-Com: -0.202D-04 0.390D-04-0.122D-03-0.428D-03-0.448D-03-0.185D-02
 Coeff-Com: -0.150D-02 0.388D-02 0.262D-01 0.101D+00 0.247D+00 0.626D+00
 Coeff:     -0.202D-04 0.390D-04-0.122D-03-0.428D-03-0.448D-03-0.185D-02
 Coeff:     -0.150D-02 0.388D-02 0.262D-01 0.101D+00 0.247D+00 0.626D+00
 Gap=     0.077 Goal=   None    Shift=    0.000
 RMSDP=9.49D-08 MaxDP=1.78D-05 DE=-3.87D-08 OVMax= 3.65D-05

 Cycle  13  Pass 1  IDiag  1:
 RMSU=  6.85D-08    CP:  9.69D-01  1.77D+00  6.76D-01  6.09D-01  4.37D-01
                    CP:  6.56D-01  5.62D-01  4.67D-01  7.19D-01  7.72D-01
                    CP:  8.30D-01  8.93D-01
 E= -3005.37618056526     Delta-E=       -0.000000002823 Rises=F Damp=F
 DIIS: error= 7.74D-07 at cycle  13 NSaved=  13.
 NSaved=13 IEnMin=13 EnMin= -3005.37618056526     IErMin=13 ErrMin= 7.74D-07
 ErrMax= 7.74D-07  0.00D+00 EMaxC= 1.00D-01 BMatC= 8.08D-10 BMatP= 2.85D-09
 IDIUse=1 WtCom= 1.00D+00 WtEn= 0.00D+00
 Coeff-Com: -0.541D-05 0.140D-04-0.344D-05-0.504D-04-0.158D-03-0.126D-02
 Coeff-Com: -0.308D-02-0.399D-02-0.109D-01-0.732D-02 0.541D-01 0.393D+00
 Coeff-Com:  0.580D+00
 Coeff:     -0.541D-05 0.140D-04-0.344D-05-0.504D-04-0.158D-03-0.126D-02
 Coeff:     -0.308D-02-0.399D-02-0.109D-01-0.732D-02 0.541D-01 0.393D+00
 Coeff:      0.580D+00
 Gap=     0.077 Goal=   None    Shift=    0.000
 RMSDP=4.87D-08 MaxDP=3.62D-06 DE=-2.82D-09 OVMax= 2.52D-05

 Cycle  14  Pass 1  IDiag  1:
 RMSU=  2.97D-08    CP:  9.69D-01  1.77D+00  6.76D-01  6.09D-01  4.37D-01
                    CP:  6.56D-01  5.62D-01  4.68D-01  7.22D-01  7.85D-01
                    CP:  8.59D-01  1.04D+00  7.63D-01
 E= -3005.37618056628     Delta-E=       -0.000000001026 Rises=F Damp=F
 DIIS: error= 1.84D-07 at cycle  14 NSaved=  14.
 NSaved=14 IEnMin=14 EnMin= -3005.37618056628     IErMin=14 ErrMin= 1.84D-07
 ErrMax= 1.84D-07  0.00D+00 EMaxC= 1.00D-01 BMatC= 1.31D-10 BMatP= 8.08D-10
 IDIUse=1 WtCom= 1.00D+00 WtEn= 0.00D+00
 Coeff-Com:  0.157D-05-0.754D-06 0.195D-04 0.435D-04-0.285D-05-0.455D-03
 Coeff-Com: -0.160D-02-0.303D-02-0.114D-01-0.230D-01-0.110D-01 0.116D+00
 Coeff-Com:  0.345D+00 0.590D+00
 Coeff:      0.157D-05-0.754D-06 0.195D-04 0.435D-04-0.285D-05-0.455D-03
 Coeff:     -0.160D-02-0.303D-02-0.114D-01-0.230D-01-0.110D-01 0.116D+00
 Coeff:      0.345D+00 0.590D+00
 Gap=     0.077 Goal=   None    Shift=    0.000
 RMSDP=2.08D-08 MaxDP=2.66D-06 DE=-1.03D-09 OVMax= 1.02D-05

 Cycle  15  Pass 1  IDiag  1:
 RMSU=  1.19D-08    CP:  9.69D-01  1.77D+00  6.76D-01  6.09D-01  4.37D-01
                    CP:  6.56D-01  5.62D-01  4.68D-01  7.24D-01  7.88D-01
                    CP:  8.80D-01  1.07D+00  8.99D-01  8.36D-01
 E= -3005.37618056621     Delta-E=        0.000000000078 Rises=F Damp=F
 DIIS: error= 1.03D-07 at cycle  15 NSaved=  15.
 NSaved=15 IEnMin=14 EnMin= -3005.37618056628     IErMin=15 ErrMin= 1.03D-07
 ErrMax= 1.03D-07  0.00D+00 EMaxC= 1.00D-01 BMatC= 2.12D-11 BMatP= 1.31D-10
 IDIUse=1 WtCom= 1.00D+00 WtEn= 0.00D+00
 Coeff-Com:  0.184D-05-0.276D-05 0.115D-04 0.311D-04 0.330D-04-0.289D-04
 Coeff-Com: -0.302D-03-0.822D-03-0.417D-02-0.109D-01-0.138D-01-0.845D-02
 Coeff-Com:  0.820D-01 0.342D+00 0.615D+00
 Coeff:      0.184D-05-0.276D-05 0.115D-04 0.311D-04 0.330D-04-0.289D-04
 Coeff:     -0.302D-03-0.822D-03-0.417D-02-0.109D-01-0.138D-01-0.845D-02
 Coeff:      0.820D-01 0.342D+00 0.615D+00
 Gap=     0.077 Goal=   None    Shift=    0.000
 RMSDP=8.10D-09 MaxDP=7.31D-07 DE= 7.82D-11 OVMax= 4.60D-06

 SCF Done:  E(RPBE1PBE) =  -3005.37618057     A.U. after   15 cycles
            NFock= 15  Conv=0.81D-08     -V/T= 2.0099
 KE= 2.975802648351D+03 PE=-2.631113588499D+04 EE= 1.067039426844D+04
 Leave Link  502 at Thu Apr 28 11:13:50 2022, MaxMem= 10066329600 cpu:            6366.9 elap:             266.9
 (Enter /sw/apps/gaussian-16.0/g16/l801.exe)
 DoSCS=F DFT=T ScalE2(SS,OS)=  1.000000  1.000000
 ExpMin= 3.36D-02 ExpMax= 4.95D+03 ExpMxC= 7.45D+02 IAcc=3 IRadAn=         5 AccDes= 0.00D+00
 HarFok:  IExCor=  205 AccDes= 0.00D+00 IRadAn=         5 IDoV=-2 UseB2=F ITyADJ=14
 ICtDFT= 12500011 ScaDFX=  1.000000  1.000000  1.000000  1.000000
 GSVD:  LWork=       -5460 too small for GESVD, short by       25550 words or       25550 for optimal perf.
 Largest valence mixing into a core orbital is  1.55D-04
 Largest core mixing into a valence orbital is  5.61D-05
 Range of M.O.s used for correlation:    71  1298
 NBasis=  1298 NAE=   246 NBE=   246 NFC=    70 NFV=     0
 NROrb=   1228 NOA=   176 NOB=   176 NVA=  1052 NVB=  1052

 **** Warning!!: The smallest alpha delta epsilon is  0.76864864D-01

 Leave Link  801 at Thu Apr 28 11:13:50 2022, MaxMem= 10066329600 cpu:               6.6 elap:               0.3
 (Enter /sw/apps/gaussian-16.0/g16/l914.exe)
 RHF ground state
 Two-electron integrals replicated using symmetry.
 MDV= 10066329600 DFT=T DoStab=F Mixed=T DoRPA=T DoScal=F NonHer=T
 Making orbital integer symmetry assigments:
 Orbital symmetries:
       Occupied  (A) (A) (A) (A) (A) (A) (A) (A) (A) (A) (A) (A)
                 (A) (A) (A) (A) (A) (A) (A) (A) (A) (A) (A) (A)
                 (A) (A) (A) (A) (A) (A) (A) (A) (A) (A) (A) (A)
                 (A) (A) (A) (A) (A) (A) (A) (A) (A) (A) (A) (A)
                 (A) (A) (A) (A) (A) (A) (A) (A) (A) (A) (A) (A)
                 (A) (A) (A) (A) (A) (A) (A) (A) (A) (A) (A) (A)
                 (A) (A) (A) (A) (A) (A) (A) (A) (A) (A) (A) (A)
                 (A) (A) (A) (A) (A) (A) (A) (A) (A) (A) (A) (A)
                 (A) (A) (A) (A) (A) (A) (A) (A) (A) (A) (A) (A)
                 (A) (A) (A) (A) (A) (A) (A) (A) (A) (A) (A) (A)
                 (A) (A) (A) (A) (A) (A) (A) (A) (A) (A) (A) (A)
                 (A) (A) (A) (A) (A) (A) (A) (A) (A) (A) (A) (A)
                 (A) (A) (A) (A) (A) (A) (A) (A) (A) (A) (A) (A)
                 (A) (A) (A) (A) (A) (A) (A) (A) (A) (A) (A) (A)
                 (A) (A) (A) (A) (A) (A) (A) (A) (A) (A) (A) (A)
                 (A) (A) (A) (A) (A) (A) (A) (A) (A) (A) (A) (A)
                 (A) (A) (A) (A) (A) (A) (A) (A) (A) (A) (A) (A)
                 (A) (A) (A) (A) (A) (A) (A) (A) (A) (A) (A) (A)
                 (A) (A) (A) (A) (A) (A) (A) (A) (A) (A) (A) (A)
                 (A) (A) (A) (A) (A) (A) (A) (A) (A) (A) (A) (A)
                 (A) (A) (A) (A) (A) (A)
       Virtual   (A) (A) (A) (A) (A) (A) (A) (A) (A) (A) (A) (A)
                 (A) (A) (A) (A) (A) (A) (A) (A) (A) (A) (A) (A)
                 (A) (A) (A) (A) (A) (A) (A) (A) (A) (A) (A) (A)
                 (A) (A) (A) (A) (A) (A) (A) (A) (A) (A) (A) (A)
                 (A) (A) (A) (A) (A) (A) (A) (A) (A) (A) (A) (A)
                 (A) (A) (A) (A) (A) (A) (A) (A) (A) (A) (A) (A)
                 (A) (A) (A) (A) (A) (A) (A) (A) (A) (A) (A) (A)
                 (A) (A) (A) (A) (A) (A) (A) (A) (A) (A) (A) (A)
                 (A) (A) (A) (A) (A) (A) (A) (A) (A) (A) (A) (A)
                 (A) (A) (A) (A) (A) (A) (A) (A) (A) (A) (A) (A)
                 (A) (A) (A) (A) (A) (A) (A) (A) (A) (A) (A) (A)
                 (A) (A) (A) (A) (A) (A) (A) (A) (A) (A) (A) (A)
                 (A) (A) (A) (A) (A) (A) (A) (A) (A) (A) (A) (A)
                 (A) (A) (A) (A) (A) (A) (A) (A) (A) (A) (A) (A)
                 (A) (A) (A) (A) (A) (A) (A) (A) (A) (A) (A) (A)
                 (A) (A) (A) (A) (A) (A) (A) (A) (A) (A) (A) (A)
                 (A) (A) (A) (A) (A) (A) (A) (A) (A) (A) (A) (A)
                 (A) (A) (A) (A) (A) (A) (A) (A) (A) (A) (A) (A)
                 (A) (A) (A) (A) (A) (A) (A) (A) (A) (A) (A) (A)
                 (A) (A) (A) (A) (A) (A) (A) (A) (A) (A) (A) (A)
                 (A) (A) (A) (A) (A) (A) (A) (A) (A) (A) (A) (A)
                 (A) (A) (A) (A) (A) (A) (A) (A) (A) (A) (A) (A)
                 (A) (A) (A) (A) (A) (A) (A) (A) (A) (A) (A) (A)
                 (A) (A) (A) (A) (A) (A) (A) (A) (A) (A) (A) (A)
                 (A) (A) (A) (A) (A) (A) (A) (A) (A) (A) (A) (A)
                 (A) (A) (A) (A) (A) (A) (A) (A) (A) (A) (A) (A)
                 (A) (A) (A) (A) (A) (A) (A) (A) (A) (A) (A) (A)
                 (A) (A) (A) (A) (A) (A) (A) (A) (A) (A) (A) (A)
                 (A) (A) (A) (A) (A) (A) (A) (A) (A) (A) (A) (A)
                 (A) (A) (A) (A) (A) (A) (A) (A) (A) (A) (A) (A)
                 (A) (A) (A) (A) (A) (A) (A) (A) (A) (A) (A) (A)
                 (A) (A) (A) (A) (A) (A) (A) (A) (A) (A) (A) (A)
                 (A) (A) (A) (A) (A) (A) (A) (A) (A) (A) (A) (A)
                 (A) (A) (A) (A) (A) (A) (A) (A) (A) (A) (A) (A)
                 (A) (A) (A) (A) (A) (A) (A) (A) (A) (A) (A) (A)
                 (A) (A) (A) (A) (A) (A) (A) (A) (A) (A) (A) (A)
                 (A) (A) (A) (A) (A) (A) (A) (A) (A) (A) (A) (A)
                 (A) (A) (A) (A) (A) (A) (A) (A) (A) (A) (A) (A)
                 (A) (A) (A) (A) (A) (A) (A) (A) (A) (A) (A) (A)
                 (A) (A) (A) (A) (A) (A) (A) (A) (A) (A) (A) (A)
                 (A) (A) (A) (A) (A) (A) (A) (A) (A) (A) (A) (A)
                 (A) (A) (A) (A) (A) (A) (A) (A) (A) (A) (A) (A)
                 (A) (A) (A) (A) (A) (A) (A) (A) (A) (A) (A) (A)
                 (A) (A) (A) (A) (A) (A) (A) (A) (A) (A) (A) (A)
                 (A) (A) (A) (A) (A) (A) (A) (A) (A) (A) (A) (A)
                 (A) (A) (A) (A) (A) (A) (A) (A) (A) (A) (A) (A)
                 (A) (A) (A) (A) (A) (A) (A) (A) (A) (A) (A) (A)
                 (A) (A) (A) (A) (A) (A) (A) (A) (A) (A) (A) (A)
                 (A) (A) (A) (A) (A) (A) (A) (A) (A) (A) (A) (A)
                 (A) (A) (A) (A) (A) (A) (A) (A) (A) (A) (A) (A)
                 (A) (A) (A) (A) (A) (A) (A) (A) (A) (A) (A) (A)
                 (A) (A) (A) (A) (A) (A) (A) (A) (A) (A) (A) (A)
                 (A) (A) (A) (A) (A) (A) (A) (A) (A) (A) (A) (A)
                 (A) (A) (A) (A) (A) (A) (A) (A) (A) (A) (A) (A)
                 (A) (A) (A) (A) (A) (A) (A) (A) (A) (A) (A) (A)
                 (A) (A) (A) (A) (A) (A) (A) (A) (A) (A) (A) (A)
                 (A) (A) (A) (A) (A) (A) (A) (A) (A) (A) (A) (A)
                 (A) (A) (A) (A) (A) (A) (A) (A) (A) (A) (A) (A)
                 (A) (A) (A) (A) (A) (A) (A) (A) (A) (A) (A) (A)
                 (A) (A) (A) (A) (A) (A) (A) (A) (A) (A) (A) (A)
                 (A) (A) (A) (A) (A) (A) (A) (A) (A) (A) (A) (A)
                 (A) (A) (A) (A) (A) (A) (A) (A) (A) (A) (A) (A)
                 (A) (A) (A) (A) (A) (A) (A) (A) (A) (A) (A) (A)
                 (A) (A) (A) (A) (A) (A) (A) (A) (A) (A) (A) (A)
                 (A) (A) (A) (A) (A) (A) (A) (A) (A) (A) (A) (A)
                 (A) (A) (A) (A) (A) (A) (A) (A) (A) (A) (A) (A)
                 (A) (A) (A) (A) (A) (A) (A) (A) (A) (A) (A) (A)
                 (A) (A) (A) (A) (A) (A) (A) (A) (A) (A) (A) (A)
                 (A) (A) (A) (A) (A) (A) (A) (A) (A) (A) (A) (A)
                 (A) (A) (A) (A) (A) (A) (A) (A) (A) (A) (A) (A)
                 (A) (A) (A) (A) (A) (A) (A) (A) (A) (A) (A) (A)
                 (A) (A) (A) (A) (A) (A) (A) (A) (A) (A) (A) (A)
                 (A) (A) (A) (A) (A) (A) (A) (A) (A) (A) (A) (A)
                 (A) (A) (A) (A) (A) (A) (A) (A) (A) (A) (A) (A)
                 (A) (A) (A) (A) (A) (A) (A) (A) (A) (A) (A) (A)
                 (A) (A) (A) (A) (A) (A) (A) (A) (A) (A) (A) (A)
                 (A) (A) (A) (A) (A) (A) (A) (A) (A) (A) (A) (A)
                 (A) (A) (A) (A) (A) (A) (A) (A) (A) (A) (A) (A)
                 (A) (A) (A) (A) (A) (A) (A) (A) (A) (A) (A) (A)
                 (A) (A) (A) (A) (A) (A) (A) (A) (A) (A) (A) (A)
                 (A) (A) (A) (A) (A) (A) (A) (A) (A) (A) (A) (A)
                 (A) (A) (A) (A) (A) (A) (A) (A) (A) (A) (A) (A)
                 (A) (A) (A) (A) (A) (A) (A) (A) (A) (A) (A) (A)
                 (A) (A) (A) (A) (A) (A) (A) (A) (A) (A) (A) (A)
                 (A) (A) (A) (A) (A) (A) (A) (A) (A) (A) (A) (A)
                 (A) (A) (A) (A) (A) (A) (A) (A) (A) (A) (A) (A)
                 (A) (A) (A) (A) (A) (A) (A) (A) (A) (A) (A) (A)
                 (A) (A) (A) (A) (A) (A) (A) (A)
    20 initial guesses have been made.
 Convergence on wavefunction:    0.001000000000000
 Davidson Disk Diagonalization:  ConvIn= 1.00D-03 SkipCon=T Conv= 1.00D-03.
 Max sub-space:  2000 roots to seek:    20 dimension of matrix:       370304
 Iteration     1 Dimension    20 NMult     0 NNew     20
 CISAX will form    20 AO SS matrices at one time.
 NMat=    20 NSing=    20 JSym2X= 0.
 FoFJK:  IHMeth= 1 ICntrl=       0 DoSepK=F KAlg= 0 I1Cent=           0 FoldK=F
 IRaf= 520000000 NMat=      40 IRICut=       1 DoRegI=T DoRafI=F ISym2E= 0 IDoP0=3 IntGTp=3.
 FoFCou: FMM=T IPFlag=           0 FMFlag=      100000 FMFlg1=        2001
         NFxFlg=           0 DoJE=F BraDBF=F KetDBF=F FulRan=T
         wScrn=  0.000000 ICntrl=         0 IOpCl=  0 I1Cent=           0 NGrid=           0
         NMat0=   40 NMatS0=     20 NMatT0=    0 NMatD0=   40 NMtDS0=    0 NMtDT0=    0
 Symmetry not used in FoFCou.
 FMM levels:  10  Number of levels for PrismC:   9
 New state      3 was old state      4
 New state      4 was old state      8
 New state      5 was old state      6
 Excitation Energies [eV] at current iteration:
 Root      1 :     2.234792377504266
 Root      2 :     2.530678120212561
 Root      3 :     3.167156127393556
 Root      4 :     3.453965379920992
 Root      5 :     3.486275418192713
 Root      6 :     3.609239034485789
 Root      7 :     3.714296674853165
 Root      8 :     3.873364756435856
 Root      9 :     3.903492730998567
 Root     10 :     3.982539660365291
 Root     11 :     4.047416315027740
 Root     12 :     4.106502319714846
 Root     13 :     4.159233238611756
 Root     14 :     4.199827782604113
 Root     15 :     4.324327797953569
 Root     16 :     4.571522608886131
 Root     17 :     4.739143756245389
 Root     18 :     4.757327770413620
 Root     19 :     4.880790539751538
 Root     20 :     4.980533205497384
 Iteration     2 Dimension    30 NMult    20 NNew     10
 CISAX will form    10 AO SS matrices at one time.
 NMat=    10 NSing=    10 JSym2X= 0.
 Root      1 not converged, maximum delta is    0.074286998907617
 Root      2 not converged, maximum delta is    0.063019341561896
 Root      3 not converged, maximum delta is    0.112059106304333
 New state      4 was old state      5
 Root      4 not converged, maximum delta is    0.252977013364418
 New state      5 was old state      4
 Root      5 not converged, maximum delta is    0.164528332099617
 Excitation Energies [eV] at current iteration:
 Root      1 :     1.908571587401674   Change is   -0.326220790102592
 Root      2 :     2.271162641557770   Change is   -0.259515478654791
 Root      3 :     3.015010530398242   Change is   -0.152145596995314
 Root      4 :     3.229168248537996   Change is   -0.257107169654717
 Root      5 :     3.342833944346776   Change is   -0.111131435574215
 Iteration     3 Dimension    40 NMult    30 NNew     10
 CISAX will form    10 AO SS matrices at one time.
 NMat=    10 NSing=    10 JSym2X= 0.
 Root      1 not converged, maximum delta is    0.024482176875027
 Root      2 not converged, maximum delta is    0.016119013868193
 Root      3 not converged, maximum delta is    0.017509745231601
 Root      4 not converged, maximum delta is    0.013824610975397
 Root      5 not converged, maximum delta is    0.038455990503569
 Excitation Energies [eV] at current iteration:
 Root      1 :     1.879087898581770   Change is   -0.029483688819903
 Root      2 :     2.254352963626839   Change is   -0.016809677930931
 Root      3 :     3.001785989269225   Change is   -0.013224541129017
 Root      4 :     3.216463903453028   Change is   -0.012704345084967
 Root      5 :     3.323667292699775   Change is   -0.019166651647002
 Iteration     4 Dimension    50 NMult    40 NNew     10
 CISAX will form    10 AO SS matrices at one time.
 NMat=    10 NSing=    10 JSym2X= 0.
 Root      1 not converged, maximum delta is    0.004141114564959
 Root      2 not converged, maximum delta is    0.008783342320309
 Root      3 not converged, maximum delta is    0.002877835636810
 Root      4 not converged, maximum delta is    0.023425399793950
 Root      5 not converged, maximum delta is    0.050411915462513
 Excitation Energies [eV] at current iteration:
 Root      1 :     1.875598985250353   Change is   -0.003488913331418
 Root      2 :     2.251103482908343   Change is   -0.003249480718496
 Root      3 :     3.000518538262842   Change is   -0.001267451006383
 Root      4 :     3.213246915713631   Change is   -0.003216987739398
 Root      5 :     3.320415139327790   Change is   -0.003252153371984
 Iteration     5 Dimension    60 NMult    50 NNew     10
 CISAX will form    10 AO SS matrices at one time.
 NMat=    10 NSing=    10 JSym2X= 0.
 Root      1 has converged.
 Root      2 has converged.
 Root      3 has converged.
 Root      4 not converged, maximum delta is    0.038102959432422
 Root      5 not converged, maximum delta is    0.450685590719118
 Excitation Energies [eV] at current iteration:
 Root      1 :     1.875222139185198   Change is   -0.000376846065155
 Root      2 :     2.250858343440728   Change is   -0.000245139467615
 Root      3 :     3.000373913827204   Change is   -0.000144624435638
 Root      4 :     3.212106144983503   Change is   -0.001140770730128
 Root      5 :     3.294361964352196   Change is   -0.026053174975594
 Iteration     6 Dimension    64 NMult    60 NNew      4
 CISAX will form     4 AO SS matrices at one time.
 NMat=     4 NSing=     4 JSym2X= 0.
 Root      1 has converged.
 Root      2 has converged.
 Root      3 has converged.
 Root      4 not converged, maximum delta is    0.022771758029264
 Root      5 not converged, maximum delta is    0.133225884529770
 Excitation Energies [eV] at current iteration:
 Root      1 :     1.875220544432471   Change is   -0.000001594752726
 Root      2 :     2.250855114890726   Change is   -0.000003228550002
 Root      3 :     3.000373855087033   Change is   -0.000000058740171
 Root      4 :     3.211696249346063   Change is   -0.000409895637440
 Root      5 :     3.268799826963463   Change is   -0.025562137388733
 Iteration     7 Dimension    68 NMult    64 NNew      4
 CISAX will form     4 AO SS matrices at one time.
 NMat=     4 NSing=     4 JSym2X= 0.
 Root      1 has converged.
 Root      2 has converged.
 Root      3 has converged.
 Root      4 not converged, maximum delta is    0.003768674767020
 Root      5 not converged, maximum delta is    0.008762924381016
 Excitation Energies [eV] at current iteration:
 Root      1 :     1.875220415489252   Change is   -0.000000128943220
 Root      2 :     2.250854282756130   Change is   -0.000000832134597
 Root      3 :     3.000373316956100   Change is   -0.000000538130933
 Root      4 :     3.211633383100914   Change is   -0.000062866245149
 Root      5 :     3.265884012732998   Change is   -0.002915814230465
 Iteration     8 Dimension    72 NMult    68 NNew      4
 CISAX will form     4 AO SS matrices at one time.
 NMat=     4 NSing=     4 JSym2X= 0.
 Root      1 has converged.
 Root      2 has converged.
 Root      3 has converged.
 Root      4 has converged.
 Root      5 not converged, maximum delta is    0.003621963212849
 Excitation Energies [eV] at current iteration:
 Root      1 :     1.875218558041000   Change is   -0.000001857448251
 Root      2 :     2.250854065187970   Change is   -0.000000217568160
 Root      3 :     3.000372385089967   Change is   -0.000000931866133
 Root      4 :     3.211625616443698   Change is   -0.000007766657216
 Root      5 :     3.265527502648346   Change is   -0.000356510084653
 Iteration     9 Dimension    74 NMult    72 NNew      2
 CISAX will form     2 AO SS matrices at one time.
 NMat=     2 NSing=     2 JSym2X= 0.
 Root      1 has converged.
 Root      2 has converged.
 Root      3 has converged.
 Root      4 has converged.
 Root      5 not converged, maximum delta is    0.001166712412395
 Excitation Energies [eV] at current iteration:
 Root      1 :     1.875218057925115   Change is   -0.000000500115886
 Root      2 :     2.250852977727790   Change is   -0.000001087460180
 Root      3 :     3.000372167375526   Change is   -0.000000217714441
 Root      4 :     3.211624506052670   Change is   -0.000001110391028
 Root      5 :     3.265473531664052   Change is   -0.000053970984294
 Iteration    10 Dimension    76 NMult    74 NNew      2
 CISAX will form     2 AO SS matrices at one time.
 NMat=     2 NSing=     2 JSym2X= 0.
 Root      1 has converged.
 Root      2 has converged.
 Root      3 has converged.
 Root      4 has converged.
 Root      5 has converged.
 Excitation Energies [eV] at current iteration:
 Root      1 :     1.875217795564607   Change is   -0.000000262360508
 Root      2 :     2.250852528692068   Change is   -0.000000449035722
 Root      3 :     3.000371131409659   Change is   -0.000001035965867
 Root      4 :     3.211624426445679   Change is   -0.000000079606991
 Root      5 :     3.265466832583836   Change is   -0.000006699080216
 Convergence achieved on expansion vectors.
 ***********************************************************************
 Excited states from <AA,BB:AA,BB> singles matrix:
 ***********************************************************************
 
 1PDM for each excited state written to RWF  633
 Ground to excited state transition densities written to RWF  633
 Ground to excited state transition electric dipole moments (Au):
       state          X           Y           Z        Dip. S.      Osc.
         1        -1.3996     -2.4341      0.3033      7.9758      0.3664
         2        -0.9902      0.6645      0.0009      1.4220      0.0784
         3         0.1216     -0.0896     -0.0288      0.0236      0.0017
         4        -0.5399      0.4176      0.0489      0.4683      0.0368
         5        -1.6826      1.1176     -0.0082      4.0802      0.3264
 Ground to excited state transition velocity dipole moments (Au):
       state          X           Y           Z        Dip. S.      Osc.
         1         0.0934      0.1632     -0.0190      0.0357      0.3456
         2         0.0772     -0.0528     -0.0002      0.0087      0.0705
         3        -0.0125      0.0098      0.0017      0.0003      0.0015
         4         0.0604     -0.0474     -0.0062      0.0059      0.0335
         5         0.1949     -0.1308      0.0003      0.0551      0.3061
 Ground to excited state transition magnetic dipole moments (Au):
       state          X           Y           Z
         1        -0.1207     -0.1330     -1.5569
         2         0.0698      0.0132      0.4084
         3        -0.0825     -0.4718      0.1871
         4        -0.0449     -0.3114     -0.3176
         5         0.2025      0.0321      1.3647
 Ground to excited state transition velocity quadrupole moments (Au):
       state          XX          YY          ZZ          XY          XZ          YZ
         1        -1.7024      0.4417     -0.0109     -1.3457      0.2227      0.0552
         2        -1.3295     -0.0389      0.0132      0.4374      0.0306     -0.0041
         3         0.1956     -0.0601     -0.0009     -0.1140      0.0100     -0.0034
         4        -0.9353     -0.1459      0.0097      0.6593      0.0026      0.0172
         5        -3.4410      0.4823      0.0400      1.6201      0.0262     -0.1226
 <0|del|b> * <b|rxdel|0> + <0|del|b> * <b|delr+rdel|0>
 Rotatory Strengths (R) in cgs (10**-40 erg-esu-cm/Gauss)
       state          XX          YY          ZZ    R(velocity)    E-M Angle
         1       -15.4552    -10.8397     -9.2050    -11.8333       90.67
         2         3.2066     21.6759     14.4955     13.1260       83.17
         3       -14.7850      5.0502    -11.3822     -7.0390      113.64
         4        38.2600     13.2392     32.6503     28.0498       65.94
         5         0.3919     45.6744    164.2495     70.1053       83.68
 1/2[<0|r|b>*<b|rxdel|0> + (<0|rxdel|b>*<b|r|0>)*]
 Rotatory Strengths (R) in cgs (10**-40 erg-esu-cm/Gauss)
       state          XX          YY          ZZ     R(length)
         1      -119.4498   -228.9922    333.9601     -4.8273
         2        48.8439     -6.2202     -0.2693     14.1181
         3         7.0896    -29.8791      3.8142     -6.3251
         4       -17.1361     91.9681     10.9905     28.6075
         5       240.9605    -25.3666      7.9432     74.5124
  1/2[<0|del|b>*<b|r|0> + (<0|r|b>*<b|del|0>)*] (Au)
       state          X           Y           Z        Dip. S.   Osc.(frdel)
         1        -0.1308     -0.3972     -0.0058      0.5338      0.3558
         2        -0.0764     -0.0351     -0.0000      0.1115      0.0743
         3        -0.0015     -0.0009     -0.0000      0.0024      0.0016
         4        -0.0326     -0.0198     -0.0003      0.0527      0.0351
         5        -0.3280     -0.1462     -0.0000      0.4742      0.3161

 Excitation energies and oscillator strengths:
 
 Excited State   1:      Singlet-A      1.8752 eV  661.17 nm  f=0.3664  <S**2>=0.000
     245 -> 248        0.18541
     246 -> 247        0.68870
     246 <- 247       -0.10341
 This state for optimization and/or second-order correction.
 Total Energy, E(TD-HF/TD-DFT) =  -3005.30726758    
 Copying the excited state density for this state as the 1-particle RhoCI density.
 
 Excited State   2:      Singlet-A      2.2509 eV  550.83 nm  f=0.0784  <S**2>=0.000
     245 -> 247        0.63591
     246 -> 248       -0.29725
 
 Excited State   3:      Singlet-A      3.0004 eV  413.23 nm  f=0.0017  <S**2>=0.000
     242 -> 247        0.10116
     243 -> 247        0.38464
     243 -> 249       -0.12493
     244 -> 247        0.53792
     244 -> 249       -0.11436
 
 Excited State   4:      Singlet-A      3.2116 eV  386.05 nm  f=0.0368  <S**2>=0.000
     242 -> 247        0.18622
     243 -> 247        0.50509
     244 -> 247       -0.39497
     246 -> 248        0.18367
 
 Excited State   5:      Singlet-A      3.2655 eV  379.68 nm  f=0.3264  <S**2>=0.000
     239 -> 247        0.12518
     242 -> 247        0.20916
     243 -> 247       -0.19745
     244 -> 247        0.16912
     245 -> 247        0.22012
     246 -> 248        0.54269
     246 -> 249        0.11406
 SavETr:  write IOETrn=   770 NScale= 10 NData=  16 NLR=1 NState=    5 LETran=     100.
 Leave Link  914 at Thu Apr 28 11:30:13 2022, MaxMem= 10066329600 cpu:           23526.2 elap:             982.6
 (Enter /sw/apps/gaussian-16.0/g16/l601.exe)
 Copying SCF densities to generalized density rwf, IOpCl= 0 IROHF=0.
 Hyperfine terms turned off by default for NAtoms > 100.

 **********************************************************************

            Population analysis using the SCF density.

 **********************************************************************

 Orbital symmetries:
       Occupied  (A) (A) (A) (A) (A) (A) (A) (A) (A) (A) (A) (A)
                 (A) (A) (A) (A) (A) (A) (A) (A) (A) (A) (A) (A)
                 (A) (A) (A) (A) (A) (A) (A) (A) (A) (A) (A) (A)
                 (A) (A) (A) (A) (A) (A) (A) (A) (A) (A) (A) (A)
                 (A) (A) (A) (A) (A) (A) (A) (A) (A) (A) (A) (A)
                 (A) (A) (A) (A) (A) (A) (A) (A) (A) (A) (A) (A)
                 (A) (A) (A) (A) (A) (A) (A) (A) (A) (A) (A) (A)
                 (A) (A) (A) (A) (A) (A) (A) (A) (A) (A) (A) (A)
                 (A) (A) (A) (A) (A) (A) (A) (A) (A) (A) (A) (A)
                 (A) (A) (A) (A) (A) (A) (A) (A) (A) (A) (A) (A)
                 (A) (A) (A) (A) (A) (A) (A) (A) (A) (A) (A) (A)
                 (A) (A) (A) (A) (A) (A) (A) (A) (A) (A) (A) (A)
                 (A) (A) (A) (A) (A) (A) (A) (A) (A) (A) (A) (A)
                 (A) (A) (A) (A) (A) (A) (A) (A) (A) (A) (A) (A)
                 (A) (A) (A) (A) (A) (A) (A) (A) (A) (A) (A) (A)
                 (A) (A) (A) (A) (A) (A) (A) (A) (A) (A) (A) (A)
                 (A) (A) (A) (A) (A) (A) (A) (A) (A) (A) (A) (A)
                 (A) (A) (A) (A) (A) (A) (A) (A) (A) (A) (A) (A)
                 (A) (A) (A) (A) (A) (A) (A) (A) (A) (A) (A) (A)
                 (A) (A) (A) (A) (A) (A) (A) (A) (A) (A) (A) (A)
                 (A) (A) (A) (A) (A) (A)
       Virtual   (A) (A) (A) (A) (A) (A) (A) (A) (A) (A) (A) (A)
                 (A) (A) (A) (A) (A) (A) (A) (A) (A) (A) (A) (A)
                 (A) (A) (A) (A) (A) (A) (A) (A) (A) (A) (A) (A)
                 (A) (A) (A) (A) (A) (A) (A) (A) (A) (A) (A) (A)
                 (A) (A) (A) (A) (A) (A) (A) (A) (A) (A) (A) (A)
                 (A) (A) (A) (A) (A) (A) (A) (A) (A) (A) (A) (A)
                 (A) (A) (A) (A) (A) (A) (A) (A) (A) (A) (A) (A)
                 (A) (A) (A) (A) (A) (A) (A) (A) (A) (A) (A) (A)
                 (A) (A) (A) (A) (A) (A) (A) (A) (A) (A) (A) (A)
                 (A) (A) (A) (A) (A) (A) (A) (A) (A) (A) (A) (A)
                 (A) (A) (A) (A) (A) (A) (A) (A) (A) (A) (A) (A)
                 (A) (A) (A) (A) (A) (A) (A) (A) (A) (A) (A) (A)
[...]
 Alpha virt. eigenvalues --    1.19449   1.19496   1.19799   1.20134   1.20658
 Alpha virt. eigenvalues --    1.22017   1.22810   1.23021   1.23200   1.24024
 Alpha virt. eigenvalues --    1.24338   1.24560   1.24881   1.25129   1.26262
 Alpha virt. eigenvalues --    1.27389   1.27534   1.27708   1.27924   1.28312
 Alpha virt. eigenvalues --    1.29059   1.29314   1.29346   1.30286   1.30674
 Alpha virt. eigenvalues --    1.31250   1.31975   1.32310   1.32539   1.33169
 Alpha virt. eigenvalues --    1.33665   1.34007   1.34185   1.35011   1.35601
 Alpha virt. eigenvalues --    1.35968   1.36254   1.36751   1.36982   1.37328
 Alpha virt. eigenvalues --    1.37741   1.38088   1.38365   1.38561   1.38622
 Alpha virt. eigenvalues --    1.38939   1.39633   1.39817   1.40105   1.40485
 Alpha virt. eigenvalues --    1.40806   1.41170   1.41979   1.42358   1.42581
 Alpha virt. eigenvalues --    1.42870   1.43553   1.43914   1.44314   1.44695
 Alpha virt. eigenvalues --    1.44822   1.45234   1.45512   1.45885   1.46545
 Alpha virt. eigenvalues --    1.46631   1.47131   1.47765   1.48343   1.48946
 Alpha virt. eigenvalues --    1.49336   1.49592   1.50183   1.50671   1.51122
 Alpha virt. eigenvalues --    1.51367   1.51665   1.51988   1.52206   1.52574
 Alpha virt. eigenvalues --    1.52650   1.52922   1.53331   1.53352   1.53606
 Alpha virt. eigenvalues --    1.54176   1.54529   1.54731   1.54979   1.55292
 Alpha virt. eigenvalues --    1.55505   1.55814   1.55849   1.56453   1.56694
 Alpha virt. eigenvalues --    1.56777   1.56863   1.57040   1.57336   1.57567
 Alpha virt. eigenvalues --    1.57693   1.58067   1.58603   1.58871   1.59129
 Alpha virt. eigenvalues --    1.59232   1.59563   1.60192   1.60379   1.60640
 Alpha virt. eigenvalues --    1.61695   1.62072   1.62285   1.62497   1.62922
 Alpha virt. eigenvalues --    1.64251   1.64367   1.64509   1.65002   1.66028
 Alpha virt. eigenvalues --    1.66041   1.66762   1.67429   1.67792   1.67918
 Alpha virt. eigenvalues --    1.67956   1.68477   1.69257   1.70293   1.70573
 Alpha virt. eigenvalues --    1.71115   1.71205   1.71547   1.71816   1.72007
 Alpha virt. eigenvalues --    1.72266   1.72479   1.72571   1.72633   1.73041
 Alpha virt. eigenvalues --    1.73178   1.73502   1.73985   1.74377   1.74395
 Alpha virt. eigenvalues --    1.74567   1.74742   1.75383   1.75499   1.75580
 Alpha virt. eigenvalues --    1.76145   1.76313   1.76601   1.76708   1.76788
 Alpha virt. eigenvalues --    1.77406   1.77744   1.77869   1.77950   1.77994
 Alpha virt. eigenvalues --    1.78111   1.78665   1.78716   1.78876   1.78991
 Alpha virt. eigenvalues --    1.79172   1.79251   1.79511   1.79781   1.80059
 Alpha virt. eigenvalues --    1.80342   1.80396   1.80665   1.80862   1.80897
 Alpha virt. eigenvalues --    1.81102   1.81291   1.81691   1.81939   1.82136
 Alpha virt. eigenvalues --    1.82316   1.82489   1.82692   1.82943   1.83120
 Alpha virt. eigenvalues --    1.83269   1.83439   1.83670   1.83740   1.83842
 Alpha virt. eigenvalues --    1.84020   1.84472   1.84528   1.84750   1.85131
 Alpha virt. eigenvalues --    1.85259   1.85423   1.85654   1.85837   1.86238
 Alpha virt. eigenvalues --    1.86396   1.86576   1.86697   1.87070   1.87187
 Alpha virt. eigenvalues --    1.87735   1.87828   1.87949   1.88047   1.88377
 Alpha virt. eigenvalues --    1.88730   1.88854   1.89126   1.89540   1.89653
 Alpha virt. eigenvalues --    1.90046   1.90102   1.90543   1.90655   1.91322
 Alpha virt. eigenvalues --    1.91454   1.91784   1.92046   1.92327   1.92572
 Alpha virt. eigenvalues --    1.92693   1.92965   1.93101   1.93323   1.93654
 Alpha virt. eigenvalues --    1.94167   1.94430   1.94516   1.94583   1.94908
 Alpha virt. eigenvalues --    1.94972   1.95038   1.95503   1.95649   1.95876
 Alpha virt. eigenvalues --    1.96065   1.96505   1.96821   1.96868   1.97068
 Alpha virt. eigenvalues --    1.97377   1.97646   1.97944   1.98197   1.98410
 Alpha virt. eigenvalues --    1.98745   1.98948   1.99039   1.99520   1.99607
 Alpha virt. eigenvalues --    2.00058   2.00374   2.00637   2.01294   2.01585
 Alpha virt. eigenvalues --    2.01640   2.02162   2.02749   2.02898   2.03148
 Alpha virt. eigenvalues --    2.03522   2.03856   2.04025   2.04425   2.04492
 Alpha virt. eigenvalues --    2.04816   2.05382   2.05657   2.05963   2.06543
 Alpha virt. eigenvalues --    2.06938   2.07062   2.07459   2.07666   2.08159
 Alpha virt. eigenvalues --    2.08578   2.08785   2.09049   2.09272   2.09316
 Alpha virt. eigenvalues --    2.09374   2.09452   2.10005   2.10169   2.10275
 Alpha virt. eigenvalues --    2.10531   2.11002   2.11058   2.11338   2.11909
 Alpha virt. eigenvalues --    2.12043   2.12464   2.12629   2.13047   2.13169
 Alpha virt. eigenvalues --    2.13706   2.13918   2.14109   2.14562   2.14774
 Alpha virt. eigenvalues --    2.15035   2.15317   2.15525   2.15985   2.16627
 Alpha virt. eigenvalues --    2.17383   2.17642   2.17881   2.18061   2.18608
 Alpha virt. eigenvalues --    2.18906   2.19456   2.19520   2.20435   2.20734
 Alpha virt. eigenvalues --    2.22062   2.22483   2.22890   2.23456   2.23770
 Alpha virt. eigenvalues --    2.23954   2.24549   2.24611   2.25487   2.25862
 Alpha virt. eigenvalues --    2.26406   2.26696   2.27082   2.27725   2.28103
 Alpha virt. eigenvalues --    2.28340   2.28637   2.28712   2.29055   2.29690
 Alpha virt. eigenvalues --    2.30016   2.30786   2.31210   2.31577   2.31915
 Alpha virt. eigenvalues --    2.31937   2.32593   2.32853   2.33038   2.33517
 Alpha virt. eigenvalues --    2.33838   2.33938   2.34346   2.35200   2.35424
 Alpha virt. eigenvalues --    2.35433   2.35811   2.36005   2.36853   2.36926
 Alpha virt. eigenvalues --    2.37274   2.37580   2.37906   2.38307   2.38512
 Alpha virt. eigenvalues --    2.38769   2.39227   2.39909   2.40360   2.40508
 Alpha virt. eigenvalues --    2.41343   2.41433   2.41541   2.41867   2.42133
 Alpha virt. eigenvalues --    2.42389   2.42598   2.42705   2.43991   2.44234
 Alpha virt. eigenvalues --    2.44859   2.45009   2.45133   2.45488   2.45807
 Alpha virt. eigenvalues --    2.46054   2.46500   2.46789   2.47562   2.48026
 Alpha virt. eigenvalues --    2.48176   2.48380   2.48592   2.49011   2.49077
 Alpha virt. eigenvalues --    2.49773   2.49793   2.50654   2.51850   2.52346
 Alpha virt. eigenvalues --    2.52848   2.53003   2.53279   2.53639   2.54601
 Alpha virt. eigenvalues --    2.54756   2.54766   2.55755   2.56083   2.56261
 Alpha virt. eigenvalues --    2.57311   2.57788   2.58203   2.58376   2.58729
 Alpha virt. eigenvalues --    2.59013   2.59442   2.60441   2.61240   2.61296
 Alpha virt. eigenvalues --    2.61812   2.62087   2.62322   2.62331   2.63162
 Alpha virt. eigenvalues --    2.63315   2.63588   2.64246   2.64752   2.64941
 Alpha virt. eigenvalues --    2.65091   2.65289   2.65720   2.66308   2.66647
 Alpha virt. eigenvalues --    2.67069   2.67142   2.67626   2.68312   2.68483
 Alpha virt. eigenvalues --    2.69031   2.69493   2.69647   2.69969   2.70912
 Alpha virt. eigenvalues --    2.71392   2.71604   2.71877   2.72307   2.72599
 Alpha virt. eigenvalues --    2.72727   2.73210   2.73595   2.74103   2.74795
 Alpha virt. eigenvalues --    2.74865   2.75269   2.75941   2.76202   2.76612
 Alpha virt. eigenvalues --    2.76752   2.77193   2.77248   2.77833   2.78270
 Alpha virt. eigenvalues --    2.79106   2.79649   2.81084   2.81350   2.82180
 Alpha virt. eigenvalues --    2.82527   2.82834   2.83040   2.83186   2.83586
 Alpha virt. eigenvalues --    2.84244   2.84438   2.85615   2.85829   2.86129
 Alpha virt. eigenvalues --    2.87430   2.88157   2.88724   2.88883   2.89148
 Alpha virt. eigenvalues --    2.89871   2.90205   2.90938   2.90999   2.91491
 Alpha virt. eigenvalues --    2.91705   2.92205   2.92638   2.92661   2.92806
 Alpha virt. eigenvalues --    2.93475   2.93753   2.93931   2.93944   2.94581
 Alpha virt. eigenvalues --    2.94981   2.95025   2.95459   2.95706   2.96181
 Alpha virt. eigenvalues --    2.96320   2.96798   2.97275   2.97293   2.97579
 Alpha virt. eigenvalues --    2.97674   2.98065   2.98245   2.98629   2.98773
 Alpha virt. eigenvalues --    2.98949   2.99429   2.99691   3.00004   3.00287
 Alpha virt. eigenvalues --    3.00452   3.00916   3.01060   3.01693   3.01931
 Alpha virt. eigenvalues --    3.02327   3.02584   3.03438   3.03890   3.04304
 Alpha virt. eigenvalues --    3.04377   3.04542   3.05490   3.05670   3.06083
 Alpha virt. eigenvalues --    3.06448   3.06799   3.06897   3.07885   3.08027
 Alpha virt. eigenvalues --    3.08597   3.08819   3.08958   3.09667   3.09890
 Alpha virt. eigenvalues --    3.10779   3.11036   3.11765   3.12132   3.13047
 Alpha virt. eigenvalues --    3.13976   3.14294   3.14811   3.15475   3.16505
 Alpha virt. eigenvalues --    3.16587   3.16827   3.18004   3.18663   3.20907
 Alpha virt. eigenvalues --    3.21790   3.22154   3.22589   3.23516   3.25394
 Alpha virt. eigenvalues --    3.25942   3.29114   3.39560   3.41176   3.41599
 Alpha virt. eigenvalues --    3.43074   3.45919   3.47543   3.52121   3.53942
 Alpha virt. eigenvalues --    3.57506   3.61417   3.64943   3.65692   3.65965
 Alpha virt. eigenvalues --    3.66938   3.72054
          Condensed to atoms (all electrons):
 Mulliken charges:
               1
     1  Mg   0.963055
     2  C   -0.052212
     3  C   -0.052928
     4  C   -0.050235
     5  C   -0.088459
     6  N   -0.338818
     7  C    0.036608
     8  C   -0.084630
     9  C   -0.136842
    10  C    0.049075
    11  C    0.038421
    12  C    0.019763
    13  C   -0.015570
    14  C    0.245274
    15  O   -0.273731
    16  O   -0.358175
    17  N   -0.543187
    18  C    0.198023
    19  C   -0.173673
    20  C   -0.089168
    21  C    0.182543
    22  C    0.023704
    23  C    0.064777
    24  O   -0.236494
    25  C   -0.026100
    26  N   -0.333328
    27  C    0.043950
    28  C   -0.108068
    29  C   -0.082506
    30  C    0.012873
    31  C   -0.013688
    32  C   -0.022767
    33  C   -0.030849
    34  N   -0.463006
    35  C    0.150901
    36  C   -0.181153
    37  C   -0.033903
    38  C    0.155545
    39  C    0.071762
    40  C    0.125150
    41  O   -0.236452
    42  C   -0.079501
    43  C    0.264057
    44  O   -0.270416
    45  O   -0.357248
    46  C    0.108926
    47  C    0.255268
    48  C   -0.117162
    49  C   -0.210131
    50  C    0.021041
    51  C   -0.000883
    52  C   -0.020927
    53  C   -0.024802
    54  C   -0.206129
    55  C   -0.005990
    56  C   -0.019844
    57  C   -0.044724
    58  C   -0.026833
    59  C   -0.200210
    60  C   -0.026701
    61  C    0.031626
    62  C   -0.046466
    63  C   -0.068933
    64  C   -0.229427
    65  C   -0.017831
    66  C    0.010317
    67  H    0.005417
    68  H    0.020224
    69  H   -0.006311
    70  H    0.026837
    71  H    0.053611
    72  H    0.030044
    73  H    0.045879
    74  H    0.046191
    75  H    0.028960
    76  H    0.064531
    77  H    0.073162
    78  H    0.071282
    79  H    0.037373
    80  H    0.038827
    81  H    0.068912
    82  H    0.065010
    83  H    0.053947
    84  H    0.058402
    85  H    0.054029
    86  H    0.039367
    87  H    0.050194
    88  H    0.044304
    89  H    0.047971
    90  H    0.036641
    91  H    0.028619
    92  H    0.051472
    93  H    0.038828
    94  H    0.044715
    95  H    0.051462
    96  H    0.065460
    97  H    0.062232
    98  H    0.079474
    99  H    0.075081
   100  H    0.076752
   101  H    0.067013
   102  H    0.053706
   103  H    0.058899
   104  H    0.029744
   105  H    0.049971
   106  H    0.031770
   107  H    0.048600
   108  H    0.036726
   109  H    0.015088
   110  H    0.044343
   111  H    0.033361
   112  H    0.022862
   113  H    0.028165
   114  H    0.033614
   115  H    0.018039
   116  H    0.024746
   117  H    0.046194
   118  H    0.028650
   119  H    0.031715
   120  H    0.035688
   121  H    0.029994
   122  H    0.016527
   123  H    0.016048
   124  H    0.039097
   125  H    0.028144
   126  H    0.029210
   127  H    0.037211
   128  H    0.032226
   129  H    0.018459
   130  H    0.025001
   131  H    0.028062
   132  H    0.017794
   133  H    0.012629
   134  H    0.035268
   135  H    0.020767
   136  H    0.046556
   137  H    0.028081
   138  H    0.021964
   139  H    0.033663
   140  H    0.042945
 Sum of Mulliken charges =  -0.00000
 Mulliken charges with hydrogens summed into heavy atoms:
               1
     1  Mg   0.963055
     2  C   -0.052212
     3  C   -0.047511
     4  C   -0.030011
     5  C   -0.094770
     6  N   -0.338818
     7  C    0.036608
     8  C   -0.057792
     9  C   -0.083232
    10  C    0.049075
    11  C    0.160535
    12  C    0.113255
    13  C    0.128873
    14  C    0.245274
    15  O   -0.273731
    16  O   -0.358175
    17  N   -0.543187
    18  C    0.198023
    19  C   -0.173673
    20  C   -0.089168
    21  C    0.182543
    22  C    0.168815
    23  C    0.064777
    24  O   -0.236494
    25  C    0.151259
    26  N   -0.333328
    27  C    0.043950
    28  C   -0.054039
    29  C   -0.043139
    30  C    0.012873
    31  C    0.128781
    32  C    0.042493
    33  C    0.104167
    34  N   -0.463006
    35  C    0.150901
    36  C   -0.181153
    37  C   -0.033903
    38  C    0.155545
    39  C    0.250916
    40  C    0.125150
    41  O   -0.236452
    42  C   -0.000027
    43  C    0.264057
    44  O   -0.270416
    45  O   -0.357248
    46  C    0.327771
    47  C    0.367873
    48  C   -0.087418
    49  C   -0.210131
    50  C    0.151381
    51  C    0.050931
    52  C    0.056777
    53  C    0.026225
    54  C   -0.172514
    55  C    0.082990
    56  C    0.040520
    57  C    0.020958
    58  C    0.005742
    59  C   -0.161113
    60  C    0.067865
    61  C    0.082312
    62  C    0.006597
    63  C   -0.038509
    64  C   -0.194159
    65  C    0.077574
    66  C    0.108888
 Electronic spatial extent (au):  <R**2>=         104440.0840
 Charge=             -0.0000 electrons
 Dipole moment (field-independent basis, Debye):
    X=              5.0565    Y=              0.3326    Z=             -1.6552  Tot=              5.3309
 Quadrupole moment (field-independent basis, Debye-Ang):
   XX=           -371.0923   YY=           -423.2472   ZZ=           -400.6987
   XY=            -22.4849   XZ=             -0.9447   YZ=             -3.2546
 Traceless Quadrupole moment (field-independent basis, Debye-Ang):
   XX=             27.2538   YY=            -24.9012   ZZ=             -2.3526
   XY=            -22.4849   XZ=             -0.9447   YZ=             -3.2546
 Octapole moment (field-independent basis, Debye-Ang**2):
  XXX=           -274.1818  YYY=           -103.7627  ZZZ=            -30.4807  XYY=            328.0475
  XXY=            -29.8677  XXZ=            -62.6354  XZZ=             28.1436  YZZ=             -9.7600
  YYZ=            -28.7743  XYZ=              0.3291
 Hexadecapole moment (field-independent basis, Debye-Ang**3):
 XXXX=        -102111.8264 YYYY=         -25840.2526 ZZZZ=         -10524.7130 XXXY=          -1092.4799
 XXXZ=           -177.0734 YYYX=           -267.4775 YYYZ=           -137.3870 ZZZX=           -180.7730
 ZZZY=             46.8539 XXYY=         -23772.7616 XXZZ=         -19584.0952 YYZZ=          -6094.4489
 XXYZ=             39.4974 YYXZ=            180.2424 ZZXY=           -175.2451
 N-N= 9.659562787631D+03 E-N=-2.631113589489D+04  KE= 2.975802648351D+03
 Leave Link  601 at Thu Apr 28 11:30:14 2022, MaxMem= 10066329600 cpu:              10.0 elap:               0.5
 (Enter /sw/apps/gaussian-16.0/g16/l9999.exe)
 1\1\GINC-BP1-COMPUTE159\SP\RPBE1PBE TD-FC\def2SVP\C55H74Mg1N4O6\OF1564
 1\28-Apr-2022\0\\#p PBE1PBE/Def2SVP td=(nstates=5)\\step_1551_chromoph
 ore_15 TDDFT with PBE1PBE functional\\0,1\Mg,0,46.334,34.96,28.191\C,0
 ,44.782,33.379,30.867\C,0,46.732,37.766,30.076\C,0,47.461,36.466,25.38
 2\C,0,45.39,32.19,26.162\N,0,45.652,35.515,30.23\C,0,45.26,34.692,31.1
 89\C,0,45.416,35.442,32.58\C,0,45.628,36.915,32.18\C,0,46.024,36.704,3
 0.706\C,0,44.4,37.855,32.265\C,0,46.569,34.867,33.477\C,0,46.398,34.85
 ,34.893\C,0,46.23,36.154,35.581\O,0,45.975,37.239,35.039\O,0,46.334,35
 .957,36.936\N,0,47.085,36.808,27.776\C,0,47.255,37.791,28.763\C,0,48.0
 06,38.854,28.104\C,0,48.068,38.609,26.719\C,0,47.518,37.249,26.555\C,0
 ,48.327,40.124,28.84\C,0,48.654,39.481,25.608\O,0,48.567,39.145,24.436
 \C,0,49.432,40.724,26.008\N,0,46.497,34.32,26.086\C,0,46.954,35.207,25
 .16\C,0,46.999,34.483,23.813\C,0,46.465,33.082,24.119\C,0,46.122,33.20
 9,25.542\C,0,46.341,35.401,22.659\C,0,47.386,31.908,23.704\C,0,47.014,
 30.96,22.616\N,0,45.386,33.094,28.391\C,0,45.089,32.071,27.504\C,0,44.
 424,30.959,28.218\C,0,44.178,31.538,29.483\C,0,44.849,32.753,29.564\C,
 0,44.101,29.568,27.695\C,0,43.592,31.354,30.79\O,0,42.927,30.409,31.22
 6\C,0,43.821,32.604,31.687\C,0,44.313,32.181,32.97\O,0,45.349,31.548,3
 3.142\O,0,43.391,32.49,33.888\C,0,43.597,32.099,35.297\C,0,45.982,37.0
 15,37.836\C,0,47.212,37.751,38.359\C,0,47.311,38.732,39.257\C,0,46.253
 ,39.454,40.086\C,0,48.726,39.19,39.681\C,0,49.466,40.084,38.711\C,0,49
 .636,41.584,39.166\C,0,49.959,42.539,37.952\C,0,51.48,42.571,37.608\C,
 0,49.513,44.027,38.198\C,0,47.986,44.286,38.085\C,0,47.545,45.356,39.0
 38\C,0,46.095,45.953,38.747\C,0,46.127,47.308,38.106\C,0,45.126,46.042
 ,39.968\C,0,43.858,45.176,39.873\C,0,42.524,45.924,39.594\C,0,41.484,4
 5.138,38.807\C,0,41.917,45.201,37.271\C,0,40.12,45.717,38.995\H,0,46.8
 97,38.645,30.702\H,0,47.799,36.903,24.44\H,0,45.119,31.38,25.482\H,0,4
 4.444,35.315,33.056\H,0,46.466,37.356,32.72\H,0,44.327,38.42,31.336\H,
 0,44.68,38.631,32.977\H,0,43.418,37.438,32.488\H,0,47.364,35.581,33.26
 2\H,0,46.869,33.865,33.171\H,0,47.396,34.502,35.16\H,0,45.674,34.091,3
 5.19\H,0,49.375,40.261,28.573\H,0,48.328,40.173,29.929\H,0,47.729,40.9
 89,28.551\H,0,50.198,40.439,26.729\H,0,48.787,41.382,26.59\H,0,49.838,
 41.238,25.137\H,0,48.047,34.391,23.528\H,0,45.467,32.965,23.697\H,0,45
 .755,36.221,23.074\H,0,45.768,34.783,21.968\H,0,47.078,35.998,22.121\H
 ,0,47.578,31.417,24.658\H,0,48.343,32.349,23.422\H,0,47.761,30.933,21.
 822\H,0,46.028,31.32,22.323\H,0,46.953,29.977,23.084\H,0,43.472,29.573
 ,26.804\H,0,43.517,29.046,28.453\H,0,45.076,29.131,27.479\H,0,42.898,3
 3.17,31.813\H,0,44.657,31.91,35.469\H,0,43.03,31.171,35.364\H,0,43.209
 ,32.87,35.963\H,0,45.478,36.529,38.672\H,0,45.231,37.689,37.424\H,0,48
 .196,37.358,38.101\H,0,46.494,39.529,41.147\H,0,45.274,39.,39.935\H,0,
 46.172,40.509,39.824\H,0,49.313,38.3,39.909\H,0,48.741,39.743,40.621\H
 ,0,48.961,39.983,37.751\H,0,50.517,39.798,38.688\H,0,50.52,41.628,39.8
 01\H,0,48.859,42.063,39.762\H,0,49.462,42.282,37.017\H,0,51.958,41.729
 ,38.108\H,0,52.021,43.366,38.122\H,0,51.664,42.649,36.536\H,0,49.829,4
 4.627,37.345\H,0,49.916,44.471,39.108\H,0,47.361,43.406,38.235\H,0,47.
 719,44.763,37.142\H,0,48.237,46.198,39.041\H,0,47.677,45.016,40.066\H,
 0,45.652,45.391,37.924\H,0,46.831,47.364,37.276\H,0,46.43,48.056,38.83
 8\H,0,45.123,47.57,37.773\H,0,44.747,47.03,40.229\H,0,45.727,45.642,40
 .784\H,0,43.672,44.598,40.778\H,0,43.929,44.427,39.084\H,0,42.72,46.95
 5,39.299\H,0,41.998,46.141,40.524\H,0,41.563,44.151,39.264\H,0,41.601,
 46.173,36.893\H,0,41.492,44.466,36.587\H,0,42.999,45.321,37.215\H,0,39
 .673,45.14,39.806\H,0,39.47,45.467,38.157\H,0,40.096,46.753,39.333\\Ve
 rsion=ES64L-G16RevA.03\State=1-A\HF=-3005.3761806\RMSD=8.097e-09\PG=C0
 1 [X(C55H74Mg1N4O6)]\\@


 THOSE WHO TRY TO PASS CHEMISTRY OFF AS A NEW SCIENCE
 SHOW HOW LITTLE KNOWLEDGE THEY HAVE OF THE CHARACTER
 AND LITERATURE OF THE ANCIENTS.
   -- NICOLAS LEFEVRE
 "COURS DE CHYMIE" J.-N.LELOUP, PARIS, 1751
 Job cpu time:       0 days  8 hours 22 minutes 37.8 seconds.
 Elapsed time:       0 days  0 hours 21 minutes  0.9 seconds.
 File lengths (MBytes):  RWF=   8929 Int=      0 D2E=      0 Chk=    390 Scr=      1
 Normal termination of Gaussian 16 at Thu Apr 28 11:30:14 2022.
