 Entering Gaussian System, Link 0=g16
 Initial command:
 /sw/apps/gaussian-16.0/g16/l1.exe "/tmp/Gau-262147.inp" -scrdir="/tmp/"
 Entering Link 1 = /sw/apps/gaussian-16.0/g16/l1.exe PID=    262148.
  
 Copyright (c) 1988,1990,1992,1993,1995,1998,2003,2009,2016,
            Gaussian, Inc.  All Rights Reserved.
  
 This is part of the Gaussian(R) 16 program.  It is based on
 the Gaussian(R) 09 system (copyright 2009, Gaussian, Inc.),
 the Gaussian(R) 03 system (copyright 2003, Gaussian, Inc.),
 the Gaussian(R) 98 system (copyright 1998, Gaussian, Inc.),
 the Gaussian(R) 94 system (copyright 1995, Gaussian, Inc.),
 the Gaussian 92(TM) system (copyright 1992, Gaussian, Inc.),
 the Gaussian 90(TM) system (copyright 1990, Gaussian, Inc.),
 the Gaussian 88(TM) system (copyright 1988, Gaussian, Inc.),
 the Gaussian 86(TM) system (copyright 1986, Carnegie Mellon
 University), and the Gaussian 82(TM) system (copyright 1983,
 Carnegie Mellon University). Gaussian is a federally registered
 trademark of Gaussian, Inc.
  
 This software contains proprietary and confidential information,
 including trade secrets, belonging to Gaussian, Inc.
  
 This software is provided under written license and may be
 used, copied, transmitted, or stored only in accord with that
 written license.
  
 The following legend is applicable only to US Government
 contracts under FAR:
  
                    RESTRICTED RIGHTS LEGEND
  
 Use, reproduction and disclosure by the US Government is
 subject to restrictions as set forth in subparagraphs (a)
 and (c) of the Commercial Computer Software - Restricted
 Rights clause in FAR 52.227-19.
  
 Gaussian, Inc.
 340 Quinnipiac St., Bldg. 40, Wallingford CT 06492
  
  
 ---------------------------------------------------------------
 Warning -- This program may not be used in any manner that
 competes with the business of Gaussian, Inc. or will provide
 assistance to any competitor of Gaussian, Inc.  The licensee
 of this program is prohibited from giving any competitor of
 Gaussian, Inc. access to this program.  By using this program,
 the user acknowledges that Gaussian, Inc. is engaged in the
 business of creating and licensing software in the field of
 computational chemistry and represents and warrants to the
 licensee that it is not a competitor of Gaussian, Inc. and that
 it will not use this program in any manner prohibited above.
 ---------------------------------------------------------------
  

 Cite this work as:
 Gaussian 16, Revision A.03,
 M. J. Frisch, G. W. Trucks, H. B. Schlegel, G. E. Scuseria, 
 M. A. Robb, J. R. Cheeseman, G. Scalmani, V. Barone, 
 G. A. Petersson, H. Nakatsuji, X. Li, M. Caricato, A. V. Marenich, 
 J. Bloino, B. G. Janesko, R. Gomperts, B. Mennucci, H. P. Hratchian, 
 J. V. Ortiz, A. F. Izmaylov, J. L. Sonnenberg, D. Williams-Young, 
 F. Ding, F. Lipparini, F. Egidi, J. Goings, B. Peng, A. Petrone, 
 T. Henderson, D. Ranasinghe, V. G. Zakrzewski, J. Gao, N. Rega, 
 G. Zheng, W. Liang, M. Hada, M. Ehara, K. Toyota, R. Fukuda, 
 J. Hasegawa, M. Ishida, T. Nakajima, Y. Honda, O. Kitao, H. Nakai, 
 T. Vreven, K. Throssell, J. A. Montgomery, Jr., J. E. Peralta, 
 F. Ogliaro, M. J. Bearpark, J. J. Heyd, E. N. Brothers, K. N. Kudin, 
 V. N. Staroverov, T. A. Keith, R. Kobayashi, J. Normand, 
 K. Raghavachari, A. P. Rendell, J. C. Burant, S. S. Iyengar, 
 J. Tomasi, M. Cossi, J. M. Millam, M. Klene, C. Adamo, R. Cammi, 
 J. W. Ochterski, R. L. Martin, K. Morokuma, O. Farkas, 
 J. B. Foresman, and D. J. Fox, Gaussian, Inc., Wallingford CT, 2016.
 
 ******************************************
 Gaussian 16:  ES64L-G16RevA.03 25-Dec-2016
                29-Apr-2022 
 ******************************************
 %nproc=24
 Will use up to   24 processors via shared memory.
 %mem=75GB
 ---------------------------------
 #p PBE1PBE/Def2SVP td=(nstates=5)
 ---------------------------------
 1/38=1,172=1/1;
 2/12=2,17=6,18=5,40=1/2;
 3/5=43,7=101,11=9,25=1,30=1,74=-13/1,2,3,8;
 4//1;
 5/5=2,38=5/2;
 8/6=1,10=1,108=5/1;
 9/41=5,42=1,70=2/14;
 6/7=2,8=2,9=2,10=2/1;
 99/5=1,9=1/99;
 Leave Link    1 at Fri Apr 29 05:42:48 2022, MaxMem= 10066329600 cpu:               0.8 elap:               0.0
 (Enter /sw/apps/gaussian-16.0/g16/l101.exe)
 ---------------------------------------------------
 step_1_chromophore_20 TDDFT with PBE1PBE functional
 ---------------------------------------------------
 Symbolic Z-matrix:
 Charge =  0 Multiplicity = 1
 Mg                    7.142     57.546    41.517 
 C                     6.289     54.207    41.287 
 C                     10.288    56.721    40.389 
 C                     7.812     60.897    41.169 
 C                     3.941     58.304    42.532 
 N                     8.1       55.732    40.725 
 C                     7.55      54.468    40.808 
 C                     8.519     53.393    40.323 
 C                     9.885     54.174    40.37 
 C                     9.397     55.613    40.452 
 C                     10.941    53.738    41.484 
 C                     8.181     52.719    38.955 
 C                     8.311     51.211    38.915 
 C                     9.481     50.759    38.055 
 O                     10.648    50.529    38.453 
 O                     9.037     50.311    36.895 
 N                     8.804     58.605    40.858 
 C                     9.982     58.102    40.472 
 C                     10.932    59.166    40.197 
 C                     10.335    60.402    40.381 
 C                     8.908     60.029    40.772 
 C                     12.414    58.881    39.658 
 C                     11.019    61.807    40.278 
 O                     12.226    61.867    39.909 
 C                     10.28     63.061    40.55 
 N                     5.929     59.423    41.581 
 C                     6.46      60.624    41.577 
 C                     5.532     61.679    42.142 
 C                     4.204     60.944    42.529 
 C                     4.7       59.439    42.284 
 C                     6.082     62.754    43.133 
 C                     2.881     61.248    41.768 
 C                     1.648     60.788    42.518 
 N                     5.413     56.462    41.842 
 C                     4.167     56.898    42.349 
 C                     3.349     55.736    42.566 
 C                     4.139     54.62     42.197 
 C                     5.339     55.156    41.738 
 C                     2.016     55.69     43.298 
 C                     4.117     53.243    42.147 
 O                     3.288     52.392    42.322 
 C                     5.501     52.882    41.394 
 C                     5.071     52.591    39.957 
 O                     4.832     53.425    39.105 
 O                     4.992     51.213    39.836 
 C                     4.488     50.713    38.561 
 C                     9.964     49.732    35.89 
 C                     10.131    50.617    34.63 
 C                     9.174     51.347    33.923 
 C                     7.654     51.418    34.234 
 C                     9.613     52.108    32.66 
 C                     9.96      53.577    32.958 
 C                     9.377     54.492    31.891 
 C                     10.284    55.765    31.814 
 C                     9.312     56.923    31.358 
 C                     11.555    55.538    30.907 
 C                     12.754    56.423    31.28 
 C                     12.845    57.662    30.334 
 C                     14.166    57.639    29.473 
 C                     15.281    58.509    30.013 
 C                     13.754    57.999    28.019 
 C                     14.952    57.589    27.052 
 C                     15.103    58.761    26.064 
 C                     14.717    58.352    24.64 
 C                     15.264    59.399    23.66 
 C                     13.184    58.126    24.486 
 H                     11.347    56.508    40.23 
 H                     8.097     61.944    41.049 
 H                     2.947     58.378    42.978 
 H                     8.573     52.63     41.099 
 H                     10.293    54.145    39.359 
 H                     11.533    54.647    41.59 
 H                     11.675    53.007    41.144 
 H                     10.538    53.39     42.435 
 H                     8.898     53.175    38.272 
 H                     7.264     53.038    38.46 
 H                     7.371     50.816    38.529 
 H                     8.48      50.78     39.902 
 H                     12.65     57.831    39.48 
 H                     13.156    59.279    40.351 
 H                     12.59     59.28     38.66 
 H                     9.908     63.049    41.574 
 H                     9.553     63.277    39.767 
 H                     11.064    63.813    40.63 
 H                     5.091     62.357    41.411 
 H                     4.061     60.881    43.608 
 H                     7.169     62.679    43.08 
 H                     5.659     62.687    44.136 
 H                     5.859     63.782    42.847 
 H                     2.992     60.797    40.782 
 H                     2.91      62.325    41.603 
 H                     0.837     61.471    42.264 
 H                     1.737     60.784    43.605 
 H                     1.327     59.827    42.116 
 H                     1.671     54.681    43.524 
 H                     1.289     56.228    42.691 
 H                     2.068     56.222    44.248 
 H                     6.049     52.101    41.922 
 H                     3.446     51.01     38.441 
 H                     4.616     49.635    38.469 
 H                     5.023     51.198    37.745 
 H                     9.634     48.788    35.458 
 H                     10.94     49.481    36.305 
 H                     11.134    50.77     34.232 
 H                     7.48      51.132    35.272 
 H                     7.169     50.802    33.477 
 H                     7.471     52.488    34.139 
 H                     8.935     52.009    31.812 
 H                     10.54     51.765    32.2 
 H                     11.041    53.71     32.99 
 H                     9.59      53.889    33.935 
 H                     8.346     54.762    32.119 
 H                     9.212     54.006    30.93 
 H                     10.556    56.13     32.804 
 H                     8.546     56.538    30.684 
 H                     9.834     57.702    30.803 
 H                     8.713     57.412    32.126 
 H                     11.22     55.622    29.873 
 H                     12.013    54.564    31.078 
 H                     13.65     55.815    31.411 
 H                     12.52     56.645    32.321 
 H                     12.881    58.557    30.955 
 H                     11.98     57.743    29.676 
 H                     14.56     56.628    29.366 
 H                     15.293    59.404    29.391 
 H                     16.216    57.965    29.884 
 H                     15.24     58.794    31.064 
 H                     13.414    59.033    27.96 
 H                     12.976    57.345    27.626 
 H                     14.672    56.706    26.478 
 H                     15.906    57.339    27.516 
 H                     16.151    59.042    26.166 
 H                     14.456    59.578    26.381 
 H                     15.266    57.436    24.418 
 H                     15.525    60.332    24.161 
 H                     14.595    59.803    22.9 
 H                     16.032    58.881    23.086 
 H                     12.99     57.054    24.458 
 H                     12.774    58.545    23.567 
 H                     12.658    58.616    25.305 
 
 ITRead=  0  0  0  0  0  0  0  0  0  0  0  0  0  0  0  0  0  0  0  0
 ITRead=  0  0  0  0  0  0  0  0  0  0  0  0  0  0  0  0  0  0  0  0
 ITRead=  0  0  0  0  0  0  0  0  0  0  0  0  0  0  0  0  0  0  0  0
 ITRead=  0  0  0  0  0  0  0  0  0  0  0  0  0  0  0  0  0  0  0  0
 ITRead=  0  0  0  0  0  0  0  0  0  0  0  0  0  0  0  0  0  0  0  0
 ITRead=  0  0  0  0  0  0  0  0  0  0  0  0  0  0  0  0  0  0  0  0
 ITRead=  0  0  0  0  0  0  0  0  0  0  0  0  0  0  0  0  0  0  0  0
 MicOpt= -1 -1 -1 -1 -1 -1 -1 -1 -1 -1 -1 -1 -1 -1 -1 -1 -1 -1 -1 -1
 MicOpt= -1 -1 -1 -1 -1 -1 -1 -1 -1 -1 -1 -1 -1 -1 -1 -1 -1 -1 -1 -1
 MicOpt= -1 -1 -1 -1 -1 -1 -1 -1 -1 -1 -1 -1 -1 -1 -1 -1 -1 -1 -1 -1
 MicOpt= -1 -1 -1 -1 -1 -1 -1 -1 -1 -1 -1 -1 -1 -1 -1 -1 -1 -1 -1 -1
 MicOpt= -1 -1 -1 -1 -1 -1 -1 -1 -1 -1 -1 -1 -1 -1 -1 -1 -1 -1 -1 -1
 MicOpt= -1 -1 -1 -1 -1 -1 -1 -1 -1 -1 -1 -1 -1 -1 -1 -1 -1 -1 -1 -1
 MicOpt= -1 -1 -1 -1 -1 -1 -1 -1 -1 -1 -1 -1 -1 -1 -1 -1 -1 -1 -1 -1
 NAtoms=    140 NQM=      140 NQMF=       0 NMMI=      0 NMMIF=      0
                NMic=       0 NMicF=      0.
                    Isotopes and Nuclear Properties:
 (Nuclear quadrupole moments (NQMom) in fm**2, nuclear magnetic moments (NMagM)
  in nuclear magnetons)

  Atom         1           2           3           4           5           6           7           8           9          10
 IAtWgt=          24          12          12          12          12          14          12          12          12          12
 AtmWgt=  23.9850450  12.0000000  12.0000000  12.0000000  12.0000000  14.0030740  12.0000000  12.0000000  12.0000000  12.0000000
 NucSpn=           0           0           0           0           0           2           0           0           0           0
 AtZEff=  -0.0000000  -0.0000000  -0.0000000  -0.0000000  -0.0000000  -0.0000000  -0.0000000  -0.0000000  -0.0000000  -0.0000000
 NQMom=    0.0000000   0.0000000   0.0000000   0.0000000   0.0000000   2.0440000   0.0000000   0.0000000   0.0000000   0.0000000
 NMagM=    0.0000000   0.0000000   0.0000000   0.0000000   0.0000000   0.4037610   0.0000000   0.0000000   0.0000000   0.0000000
 AtZNuc=  12.0000000   6.0000000   6.0000000   6.0000000   6.0000000   7.0000000   6.0000000   6.0000000   6.0000000   6.0000000

  Atom        11          12          13          14          15          16          17          18          19          20
 IAtWgt=          12          12          12          12          16          16          14          12          12          12
 AtmWgt=  12.0000000  12.0000000  12.0000000  12.0000000  15.9949146  15.9949146  14.0030740  12.0000000  12.0000000  12.0000000
 NucSpn=           0           0           0           0           0           0           2           0           0           0
 AtZEff=  -0.0000000  -0.0000000  -0.0000000  -0.0000000  -0.0000000  -0.0000000  -0.0000000  -0.0000000  -0.0000000  -0.0000000
 NQMom=    0.0000000   0.0000000   0.0000000   0.0000000   0.0000000   0.0000000   2.0440000   0.0000000   0.0000000   0.0000000
 NMagM=    0.0000000   0.0000000   0.0000000   0.0000000   0.0000000   0.0000000   0.4037610   0.0000000   0.0000000   0.0000000
 AtZNuc=   6.0000000   6.0000000   6.0000000   6.0000000   8.0000000   8.0000000   7.0000000   6.0000000   6.0000000   6.0000000

  Atom        21          22          23          24          25          26          27          28          29          30
 IAtWgt=          12          12          12          16          12          14          12          12          12          12
 AtmWgt=  12.0000000  12.0000000  12.0000000  15.9949146  12.0000000  14.0030740  12.0000000  12.0000000  12.0000000  12.0000000
 NucSpn=           0           0           0           0           0           2           0           0           0           0
 AtZEff=  -0.0000000  -0.0000000  -0.0000000  -0.0000000  -0.0000000  -0.0000000  -0.0000000  -0.0000000  -0.0000000  -0.0000000
 NQMom=    0.0000000   0.0000000   0.0000000   0.0000000   0.0000000   2.0440000   0.0000000   0.0000000   0.0000000   0.0000000
 NMagM=    0.0000000   0.0000000   0.0000000   0.0000000   0.0000000   0.4037610   0.0000000   0.0000000   0.0000000   0.0000000
 AtZNuc=   6.0000000   6.0000000   6.0000000   8.0000000   6.0000000   7.0000000   6.0000000   6.0000000   6.0000000   6.0000000

  Atom        31          32          33          34          35          36          37          38          39          40
 IAtWgt=          12          12          12          14          12          12          12          12          12          12
 AtmWgt=  12.0000000  12.0000000  12.0000000  14.0030740  12.0000000  12.0000000  12.0000000  12.0000000  12.0000000  12.0000000
 NucSpn=           0           0           0           2           0           0           0           0           0           0
 AtZEff=  -0.0000000  -0.0000000  -0.0000000  -0.0000000  -0.0000000  -0.0000000  -0.0000000  -0.0000000  -0.0000000  -0.0000000
 NQMom=    0.0000000   0.0000000   0.0000000   2.0440000   0.0000000   0.0000000   0.0000000   0.0000000   0.0000000   0.0000000
 NMagM=    0.0000000   0.0000000   0.0000000   0.4037610   0.0000000   0.0000000   0.0000000   0.0000000   0.0000000   0.0000000
 AtZNuc=   6.0000000   6.0000000   6.0000000   7.0000000   6.0000000   6.0000000   6.0000000   6.0000000   6.0000000   6.0000000

  Atom        41          42          43          44          45          46          47          48          49          50
 IAtWgt=          16          12          12          16          16          12          12          12          12          12
 AtmWgt=  15.9949146  12.0000000  12.0000000  15.9949146  15.9949146  12.0000000  12.0000000  12.0000000  12.0000000  12.0000000
 NucSpn=           0           0           0           0           0           0           0           0           0           0
 AtZEff=  -0.0000000  -0.0000000  -0.0000000  -0.0000000  -0.0000000  -0.0000000  -0.0000000  -0.0000000  -0.0000000  -0.0000000
 NQMom=    0.0000000   0.0000000   0.0000000   0.0000000   0.0000000   0.0000000   0.0000000   0.0000000   0.0000000   0.0000000
 NMagM=    0.0000000   0.0000000   0.0000000   0.0000000   0.0000000   0.0000000   0.0000000   0.0000000   0.0000000   0.0000000
 AtZNuc=   8.0000000   6.0000000   6.0000000   8.0000000   8.0000000   6.0000000   6.0000000   6.0000000   6.0000000   6.0000000

  Atom        51          52          53          54          55          56          57          58          59          60
 IAtWgt=          12          12          12          12          12          12          12          12          12          12
 AtmWgt=  12.0000000  12.0000000  12.0000000  12.0000000  12.0000000  12.0000000  12.0000000  12.0000000  12.0000000  12.0000000
 NucSpn=           0           0           0           0           0           0           0           0           0           0
 AtZEff=  -0.0000000  -0.0000000  -0.0000000  -0.0000000  -0.0000000  -0.0000000  -0.0000000  -0.0000000  -0.0000000  -0.0000000
 NQMom=    0.0000000   0.0000000   0.0000000   0.0000000   0.0000000   0.0000000   0.0000000   0.0000000   0.0000000   0.0000000
 NMagM=    0.0000000   0.0000000   0.0000000   0.0000000   0.0000000   0.0000000   0.0000000   0.0000000   0.0000000   0.0000000
 AtZNuc=   6.0000000   6.0000000   6.0000000   6.0000000   6.0000000   6.0000000   6.0000000   6.0000000   6.0000000   6.0000000

  Atom        61          62          63          64          65          66          67          68          69          70
 IAtWgt=          12          12          12          12          12          12           1           1           1           1
 AtmWgt=  12.0000000  12.0000000  12.0000000  12.0000000  12.0000000  12.0000000   1.0078250   1.0078250   1.0078250   1.0078250
 NucSpn=           0           0           0           0           0           0           1           1           1           1
 AtZEff=  -0.0000000  -0.0000000  -0.0000000  -0.0000000  -0.0000000  -0.0000000  -0.0000000  -0.0000000  -0.0000000  -0.0000000
 NQMom=    0.0000000   0.0000000   0.0000000   0.0000000   0.0000000   0.0000000   0.0000000   0.0000000   0.0000000   0.0000000
 NMagM=    0.0000000   0.0000000   0.0000000   0.0000000   0.0000000   0.0000000   2.7928460   2.7928460   2.7928460   2.7928460
 AtZNuc=   6.0000000   6.0000000   6.0000000   6.0000000   6.0000000   6.0000000   1.0000000   1.0000000   1.0000000   1.0000000

  Atom        71          72          73          74          75          76          77          78          79          80
 IAtWgt=           1           1           1           1           1           1           1           1           1           1
 AtmWgt=   1.0078250   1.0078250   1.0078250   1.0078250   1.0078250   1.0078250   1.0078250   1.0078250   1.0078250   1.0078250
 NucSpn=           1           1           1           1           1           1           1           1           1           1
 AtZEff=  -0.0000000  -0.0000000  -0.0000000  -0.0000000  -0.0000000  -0.0000000  -0.0000000  -0.0000000  -0.0000000  -0.0000000
 NQMom=    0.0000000   0.0000000   0.0000000   0.0000000   0.0000000   0.0000000   0.0000000   0.0000000   0.0000000   0.0000000
 NMagM=    2.7928460   2.7928460   2.7928460   2.7928460   2.7928460   2.7928460   2.7928460   2.7928460   2.7928460   2.7928460
 AtZNuc=   1.0000000   1.0000000   1.0000000   1.0000000   1.0000000   1.0000000   1.0000000   1.0000000   1.0000000   1.0000000

  Atom        81          82          83          84          85          86          87          88          89          90
 IAtWgt=           1           1           1           1           1           1           1           1           1           1
 AtmWgt=   1.0078250   1.0078250   1.0078250   1.0078250   1.0078250   1.0078250   1.0078250   1.0078250   1.0078250   1.0078250
 NucSpn=           1           1           1           1           1           1           1           1           1           1
 AtZEff=  -0.0000000  -0.0000000  -0.0000000  -0.0000000  -0.0000000  -0.0000000  -0.0000000  -0.0000000  -0.0000000  -0.0000000
 NQMom=    0.0000000   0.0000000   0.0000000   0.0000000   0.0000000   0.0000000   0.0000000   0.0000000   0.0000000   0.0000000
 NMagM=    2.7928460   2.7928460   2.7928460   2.7928460   2.7928460   2.7928460   2.7928460   2.7928460   2.7928460   2.7928460
 AtZNuc=   1.0000000   1.0000000   1.0000000   1.0000000   1.0000000   1.0000000   1.0000000   1.0000000   1.0000000   1.0000000

  Atom        91          92          93          94          95          96          97          98          99         100
 IAtWgt=           1           1           1           1           1           1           1           1           1           1
 AtmWgt=   1.0078250   1.0078250   1.0078250   1.0078250   1.0078250   1.0078250   1.0078250   1.0078250   1.0078250   1.0078250
 NucSpn=           1           1           1           1           1           1           1           1           1           1
 AtZEff=  -0.0000000  -0.0000000  -0.0000000  -0.0000000  -0.0000000  -0.0000000  -0.0000000  -0.0000000  -0.0000000  -0.0000000
 NQMom=    0.0000000   0.0000000   0.0000000   0.0000000   0.0000000   0.0000000   0.0000000   0.0000000   0.0000000   0.0000000
 NMagM=    2.7928460   2.7928460   2.7928460   2.7928460   2.7928460   2.7928460   2.7928460   2.7928460   2.7928460   2.7928460
 AtZNuc=   1.0000000   1.0000000   1.0000000   1.0000000   1.0000000   1.0000000   1.0000000   1.0000000   1.0000000   1.0000000

  Atom       101         102         103         104         105         106         107         108         109         110
 IAtWgt=           1           1           1           1           1           1           1           1           1           1
 AtmWgt=   1.0078250   1.0078250   1.0078250   1.0078250   1.0078250   1.0078250   1.0078250   1.0078250   1.0078250   1.0078250
 NucSpn=           1           1           1           1           1           1           1           1           1           1
 AtZEff=  -0.0000000  -0.0000000  -0.0000000  -0.0000000  -0.0000000  -0.0000000  -0.0000000  -0.0000000  -0.0000000  -0.0000000
 NQMom=    0.0000000   0.0000000   0.0000000   0.0000000   0.0000000   0.0000000   0.0000000   0.0000000   0.0000000   0.0000000
 NMagM=    2.7928460   2.7928460   2.7928460   2.7928460   2.7928460   2.7928460   2.7928460   2.7928460   2.7928460   2.7928460
 AtZNuc=   1.0000000   1.0000000   1.0000000   1.0000000   1.0000000   1.0000000   1.0000000   1.0000000   1.0000000   1.0000000

  Atom       111         112         113         114         115         116         117         118         119         120
 IAtWgt=           1           1           1           1           1           1           1           1           1           1
 AtmWgt=   1.0078250   1.0078250   1.0078250   1.0078250   1.0078250   1.0078250   1.0078250   1.0078250   1.0078250   1.0078250
 NucSpn=           1           1           1           1           1           1           1           1           1           1
 AtZEff=  -0.0000000  -0.0000000  -0.0000000  -0.0000000  -0.0000000  -0.0000000  -0.0000000  -0.0000000  -0.0000000  -0.0000000
 NQMom=    0.0000000   0.0000000   0.0000000   0.0000000   0.0000000   0.0000000   0.0000000   0.0000000   0.0000000   0.0000000
 NMagM=    2.7928460   2.7928460   2.7928460   2.7928460   2.7928460   2.7928460   2.7928460   2.7928460   2.7928460   2.7928460
 AtZNuc=   1.0000000   1.0000000   1.0000000   1.0000000   1.0000000   1.0000000   1.0000000   1.0000000   1.0000000   1.0000000

  Atom       121         122         123         124         125         126         127         128         129         130
 IAtWgt=           1           1           1           1           1           1           1           1           1           1
 AtmWgt=   1.0078250   1.0078250   1.0078250   1.0078250   1.0078250   1.0078250   1.0078250   1.0078250   1.0078250   1.0078250
 NucSpn=           1           1           1           1           1           1           1           1           1           1
 AtZEff=  -0.0000000  -0.0000000  -0.0000000  -0.0000000  -0.0000000  -0.0000000  -0.0000000  -0.0000000  -0.0000000  -0.0000000
 NQMom=    0.0000000   0.0000000   0.0000000   0.0000000   0.0000000   0.0000000   0.0000000   0.0000000   0.0000000   0.0000000
 NMagM=    2.7928460   2.7928460   2.7928460   2.7928460   2.7928460   2.7928460   2.7928460   2.7928460   2.7928460   2.7928460
 AtZNuc=   1.0000000   1.0000000   1.0000000   1.0000000   1.0000000   1.0000000   1.0000000   1.0000000   1.0000000   1.0000000

  Atom       131         132         133         134         135         136         137         138         139         140
 IAtWgt=           1           1           1           1           1           1           1           1           1           1
 AtmWgt=   1.0078250   1.0078250   1.0078250   1.0078250   1.0078250   1.0078250   1.0078250   1.0078250   1.0078250   1.0078250
 NucSpn=           1           1           1           1           1           1           1           1           1           1
 AtZEff=  -0.0000000  -0.0000000  -0.0000000  -0.0000000  -0.0000000  -0.0000000  -0.0000000  -0.0000000  -0.0000000  -0.0000000
 NQMom=    0.0000000   0.0000000   0.0000000   0.0000000   0.0000000   0.0000000   0.0000000   0.0000000   0.0000000   0.0000000
 NMagM=    2.7928460   2.7928460   2.7928460   2.7928460   2.7928460   2.7928460   2.7928460   2.7928460   2.7928460   2.7928460
 AtZNuc=   1.0000000   1.0000000   1.0000000   1.0000000   1.0000000   1.0000000   1.0000000   1.0000000   1.0000000   1.0000000
 Leave Link  101 at Fri Apr 29 05:42:48 2022, MaxMem= 10066329600 cpu:               2.8 elap:               0.1
 (Enter /sw/apps/gaussian-16.0/g16/l202.exe)
 Stoichiometry    C55H74MgN4O6
 Framework group  C1[X(C55H74MgN4O6)]
 Deg. of freedom   414
 Full point group                 C1      NOp   1
 Largest Abelian subgroup         C1      NOp   1
 Largest concise Abelian subgroup C1      NOp   1
                         Standard orientation:                         
 ---------------------------------------------------------------------
 Center     Atomic      Atomic             Coordinates (Angstroms)
 Number     Number       Type             X           Y           Z
 ---------------------------------------------------------------------
      1         12           0       -4.309429    1.408365    0.530118
      2          6           0       -4.538032   -2.031652    0.321677
      3          6           0       -1.743638    1.004865    2.789373
      4          6           0       -3.674864    4.775970    0.293960
      5          6           0       -6.805484    1.726468   -1.819288
      6          7           0       -3.139102   -0.291541    1.289248
      7          6           0       -3.487231   -1.614805    1.102534
      8          6           0       -2.577158   -2.558248    1.884515
      9          6           0       -1.927656   -1.564101    2.917929
     10          6           0       -2.247255   -0.222658    2.274521
     11          6           0       -2.353688   -1.715380    4.448236
     12          6           0       -1.567250   -3.403977    1.045008
     13          6           0       -1.464910   -4.867598    1.419046
     14          6           0       -0.130534   -5.201680    2.067609
     15          8           0        0.116909   -5.199892    3.297228
     16          8           0        0.646022   -5.823163    1.199185
     17          7           0       -2.901576    2.657391    1.410964
     18          6           0       -1.971940    2.319109    2.311537
     19          6           0       -1.255548    3.493096    2.779254
     20          6           0       -1.717998    4.626992    2.132432
     21          6           0       -2.776727    4.064808    1.188302
     22          6           0       -0.040432    3.404084    3.820235
     23          6           0       -1.285015    6.108700    2.396169
     24          8           0       -0.356141    6.329683    3.223798
     25          6           0       -1.895239    7.245404    1.669428
     26          7           0       -4.980907    3.060101   -0.818763
     27          6           0       -4.710447    4.325824   -0.597013
     28          6           0       -5.668754    5.263833   -1.300733
     29          6           0       -6.673448    4.361881   -2.094867
     30          6           0       -6.209113    2.941589   -1.513292
     31          6           0       -6.246764    6.502495   -0.544541
     32          6           0       -6.686807    4.373196   -3.651003
     33          6           0       -7.956927    3.790959   -4.235971
     34          7           0       -5.463048    0.092448   -0.568812
     35          6           0       -6.531366    0.365224   -1.454221
     36          6           0       -7.130811   -0.888949   -1.820520
     37          6           0       -6.411304   -1.890928   -1.124774
     38          6           0       -5.408992   -1.212058   -0.437399
     39          6           0       -8.436564   -1.082578   -2.577054
     40          6           0       -6.377421   -3.251610   -0.909109
     41          8           0       -6.946628   -4.206083   -1.364136
     42          6           0       -5.027193   -3.451368   -0.043218
     43          6           0       -4.004838   -3.942429   -1.067034
     44          8           0       -3.391991   -3.242433   -1.849980
     45          8           0       -3.938550   -5.320062   -0.934757
     46          6           0       -3.093084   -6.013214   -1.901385
     47          6           0        1.982701   -6.335227    1.593740
     48          6           0        3.152817   -5.557334    0.942262
     49          6           0        3.277469   -5.062888   -0.357193
     50          6           0        2.240086   -5.211692   -1.503428
     51          6           0        4.587958   -4.362719   -0.756435
     52          6           0        4.504463   -2.835374   -0.590845
     53          6           0        5.128608   -2.132127   -1.787294
     54          6           0        5.652169   -0.741262   -1.296902
     55          6           0        5.552142    0.194699   -2.564836
     56          6           0        7.077878   -0.842321   -0.628500
     57          6           0        7.361549    0.257407    0.405949
     58          6           0        8.221883    1.400119   -0.220431
     59          6           0        9.632931    1.511892    0.474796
     60          6           0        9.730075    2.598902    1.523938
     61          6           0       10.678165    1.661533   -0.664744
     62          6           0       12.118945    1.363201   -0.053561
     63          6           0       13.045954    2.445941   -0.637389
     64          6           0       14.079519    1.847385   -1.595266
     65          6           0       15.200151    2.872667   -1.816169
     66          6           0       13.437060    1.361031   -2.927777
     67          1           0       -1.070409    0.953353    3.647417
     68          1           0       -3.428596    5.839432    0.278659
     69          1           0       -7.693194    1.679056   -2.453442
     70          1           0       -3.218146   -3.225820    2.459619
     71          1           0       -0.849136   -1.621166    2.766384
     72          1           0       -2.146849   -0.716148    4.831293
     73          1           0       -1.688055   -2.345642    5.038507
     74          1           0       -3.377408   -2.033407    4.645141
     75          1           0       -0.615982   -2.903484    1.226971
     76          1           0       -1.604661   -3.286725   -0.037825
     77          1           0       -1.607001   -5.445083    0.505295
     78          1           0       -2.230171   -5.170509    2.133967
     79          1           0        0.233944    2.394578    4.129258
     80          1           0       -0.263330    3.981114    4.718327
     81          1           0        0.908910    3.730773    3.398092
     82          1           0       -2.966702    7.269293    1.865645
     83          1           0       -1.587962    7.265381    0.623744
     84          1           0       -1.568618    8.119296    2.231737
     85          1           0       -5.262264    5.789068   -2.165267
     86          1           0       -7.676423    4.378185   -1.667742
     87          1           0       -5.650990    6.601051    0.363943
     88          1           0       -7.325841    6.462077   -0.391611
     89          1           0       -6.114302    7.448870   -1.069076
     90          1           0       -5.779539    3.855608   -3.962265
     91          1           0       -6.531286    5.420157   -3.911159
     92          1           0       -8.149086    4.305655   -5.177719
     93          1           0       -8.849504    3.903782   -3.619463
     94          1           0       -7.771265    2.756993   -4.526845
     95          1           0       -8.804672   -2.108531   -2.567032
     96          1           0       -8.281540   -0.729801   -3.595847
     97          1           0       -9.230424   -0.462252   -2.160868
     98          1           0       -5.204305   -4.079413    0.830418
     99          1           0       -3.517171   -5.902674   -2.899535
    100          1           0       -2.947491   -7.059736   -1.635818
    101          1           0       -2.119215   -5.526419   -1.945155
    102          1           0        2.189663   -7.356787    1.277129
    103          1           0        2.118875   -6.383601    2.673980
    104          1           0        4.003366   -5.280996    1.565179
    105          1           0        1.257099   -5.423312   -1.080974
    106          1           0        2.648514   -5.966950   -2.174623
    107          1           0        2.227979   -4.199582   -1.907037
    108          1           0        4.976525   -4.650239   -1.733644
    109          1           0        5.454215   -4.591739   -0.135365
    110          1           0        5.023598   -2.525519    0.315666
    111          1           0        3.474109   -2.497371   -0.477276
    112          1           0        4.409950   -2.013579   -2.598047
    113          1           0        5.874721   -2.726731   -2.313319
    114          1           0        4.935342   -0.245325   -0.643056
    115          1           0        5.746491   -0.371689   -3.476258
    116          1           0        6.293901    0.992670   -2.545201
    117          1           0        4.585963    0.649550   -2.782446
    118          1           0        7.800169   -0.911690   -1.442085
    119          1           0        7.163432   -1.708168    0.027754
    120          1           0        7.702706   -0.181342    1.344433
    121          1           0        6.344922    0.535209    0.683467
    122          1           0        7.703216    2.343405   -0.049668
    123          1           0        8.351704    1.276770   -1.295457
    124          1           0        9.925950    0.573125    0.945605
    125          1           0       10.271438    3.421359    1.056452
    126          1           0       10.315144    2.204912    2.354159
    127          1           0        8.802382    2.970982    1.958046
    128          1           0       10.555622    2.616079   -1.176664
    129          1           0       10.624429    0.855427   -1.396013
    130          1           0       12.473605    0.396345   -0.409892
    131          1           0       12.201721    1.316831    1.032215
    132          1           0       13.487812    2.902357    0.248114
    133          1           0       12.444059    3.172685   -1.181588
    134          1           0       14.550024    1.016370   -1.068216
    135          1           0       14.898777    3.878665   -1.521632
    136          1           0       15.516677    3.088903   -2.836674
    137          1           0       16.084535    2.435132   -1.353513
    138          1           0       13.364527    0.273929   -2.904266
    139          1           0       14.021751    1.619265   -3.810768
    140          1           0       12.463821    1.833562   -3.058390
 ---------------------------------------------------------------------
 Rotational constants (GHZ):           0.0325718           0.0132902           0.0107742
 Leave Link  202 at Fri Apr 29 05:42:48 2022, MaxMem= 10066329600 cpu:               0.2 elap:               0.0
 (Enter /sw/apps/gaussian-16.0/g16/l301.exe)
 Standard basis: def2SVP (5D, 7F)
 Ernie: Thresh=  0.10000D-02 Tol=  0.10000D-05 Strict=F.
 There are  1364 symmetry adapted cartesian basis functions of A   symmetry.
 There are  1298 symmetry adapted basis functions of A   symmetry.
  1298 basis functions,  2180 primitive gaussians,  1364 cartesian basis functions
   246 alpha electrons      246 beta electrons
       nuclear repulsion energy      9732.9958234001 Hartrees.
 IExCor= 1009 DFT=T Ex+Corr=PBE1PBE ExCW=0 ScaHFX=  0.250000
 ScaDFX=  0.750000  0.750000  1.000000  1.000000 ScalE2=  1.000000  1.000000
 IRadAn=      5 IRanWt=     -1 IRanGd=            0 ICorTp=0 IEmpDi=  4
 NAtoms=  140 NActive=  140 NUniq=  140 SFac= 1.00D+00 NAtFMM=   60 NAOKFM=T Big=T
 Integral buffers will be    131072 words long.
 Regular integral format.
 Two-electron integral symmetry is turned on.
 Leave Link  301 at Fri Apr 29 05:42:48 2022, MaxMem= 10066329600 cpu:               1.6 elap:               0.1
 (Enter /sw/apps/gaussian-16.0/g16/l302.exe)
 NPDir=0 NMtPBC=     1 NCelOv=     1 NCel=       1 NClECP=     1 NCelD=      1
         NCelK=      1 NCelE2=     1 NClLst=     1 CellRange=     0.0.
 One-electron integrals computed using PRISM.
 One-electron integral symmetry used in STVInt
   1 Symmetry operations used in ECPInt.
 ECPInt:  NShTT=  192510 NPrTT=  683786 LenC2=   99671 LenP2D=  215332.
 LDataN:  DoStor=T MaxTD1= 4 Len=   56
 NBasis=  1298 RedAO= T EigKep=  2.57D-04  NBF=  1298
 NBsUse=  1298 1.00D-06 EigRej= -1.00D+00 NBFU=  1298
 Precomputing XC quadrature grid using
 IXCGrd= 4 IRadAn=           5 IRanWt=          -1 IRanGd=           0 AccXCQ= 0.00D+00.
 Generated NRdTot=       0 NPtTot=           0 NUsed=           0 NTot=          32
 NSgBfM=  1058  1055  1055  1055  1058 MxSgAt=   140 MxSgA2=   140.
 Leave Link  302 at Fri Apr 29 05:42:52 2022, MaxMem= 10066329600 cpu:              82.2 elap:               3.5
 (Enter /sw/apps/gaussian-16.0/g16/l303.exe)
 DipDrv:  MaxL=1.
 Leave Link  303 at Fri Apr 29 05:42:52 2022, MaxMem= 10066329600 cpu:               6.8 elap:               0.3
 (Enter /sw/apps/gaussian-16.0/g16/l308.exe)
 Leave Link  308 at Fri Apr 29 05:42:53 2022, MaxMem= 10066329600 cpu:              11.3 elap:               0.5
 (Enter /sw/apps/gaussian-16.0/g16/l401.exe)
 ExpMin= 3.36D-02 ExpMax= 4.95D+03 ExpMxC= 7.45D+02 IAcc=3 IRadAn=         5 AccDes= 0.00D+00
 Harris functional with IExCor= 1009 and IRadAn=       5 diagonalized for initial guess.
 HarFok:  IExCor= 1009 AccDes= 0.00D+00 IRadAn=         5 IDoV= 1 UseB2=F ITyADJ=14
 ICtDFT=  3500011 ScaDFX=  1.000000  1.000000  1.000000  1.000000
 FoFCou: FMM=F IPFlag=           0 FMFlag=      100000 FMFlg1=        2001
         NFxFlg=           0 DoJE=T BraDBF=F KetDBF=T FulRan=T
         wScrn=  0.000000 ICntrl=       500 IOpCl=  0 I1Cent=   200000004 NGrid=           0
         NMat0=    1 NMatS0=      1 NMatT0=    0 NMatD0=    1 NMtDS0=    0 NMtDT0=    0
 Petite list used in FoFCou.
 Harris En= -3006.12904393826    
 JPrj=0 DoOrth=F DoCkMO=F.
 Leave Link  401 at Fri Apr 29 05:42:58 2022, MaxMem= 10066329600 cpu:             133.0 elap:               5.6
 (Enter /sw/apps/gaussian-16.0/g16/l502.exe)
 Integral symmetry usage will be decided dynamically.
 Closed shell SCF:
 Using DIIS extrapolation, IDIIS=  1040.
 NGot= 10066329600 LenX= 10062561258 LenY= 10060699398
 Requested convergence on RMS density matrix=1.00D-08 within 128 cycles.
 Requested convergence on MAX density matrix=1.00D-06.
 Requested convergence on             energy=1.00D-06.
 No special actions if energy rises.
 Fock matrices will be formed incrementally for  20 cycles.

 Cycle   1  Pass 1  IDiag  1:
 FoFJK:  IHMeth= 1 ICntrl=       0 DoSepK=F KAlg= 0 I1Cent=           0 FoldK=F
 IRaf= 530000000 NMat=       1 IRICut=       1 DoRegI=T DoRafI=F ISym2E= 0 IDoP0=0 IntGTp=1.
 FoFCou: FMM=T IPFlag=           0 FMFlag=      100000 FMFlg1=        2001
         NFxFlg=           0 DoJE=F BraDBF=F KetDBF=F FulRan=T
         wScrn=  0.000000 ICntrl=         0 IOpCl=  0 I1Cent=           0 NGrid=           0
         NMat0=    1 NMatS0=      1 NMatT0=    0 NMatD0=    1 NMtDS0=    0 NMtDT0=    0
 Symmetry not used in FoFCou.
 FMM levels:  10  Number of levels for PrismC:   9
 E= -3003.80722433710    
 DIIS: error= 2.56D-02 at cycle   1 NSaved=   1.
 NSaved= 1 IEnMin= 1 EnMin= -3003.80722433710     IErMin= 1 ErrMin= 2.56D-02
 ErrMax= 2.56D-02  0.00D+00 EMaxC= 1.00D-01 BMatC= 1.45D+00 BMatP= 1.45D+00
 IDIUse=3 WtCom= 7.44D-01 WtEn= 2.56D-01
 Coeff-Com:  0.100D+01
 Coeff-En:   0.100D+01
 Coeff:      0.100D+01
 Gap=     0.057 Goal=   None    Shift=    0.000
 GapD=    0.057 DampG=0.500 DampE=0.500 DampFc=0.2500 IDamp=-1.
 Damping current iteration by 2.50D-01
 RMSDP=2.73D-03 MaxDP=5.22D-01              OVMax= 4.21D-01

 Cycle   2  Pass 1  IDiag  1:
 RMSU=  6.76D-04    CP:  9.89D-01
 E= -3004.35073490051     Delta-E=       -0.543510563410 Rises=F Damp=T
 DIIS: error= 1.23D-02 at cycle   2 NSaved=   2.
 NSaved= 2 IEnMin= 2 EnMin= -3004.35073490051     IErMin= 2 ErrMin= 1.23D-02
 ErrMax= 1.23D-02  0.00D+00 EMaxC= 1.00D-01 BMatC= 3.61D-01 BMatP= 1.45D+00
 IDIUse=3 WtCom= 8.77D-01 WtEn= 1.23D-01
 Coeff-Com: -0.751D+00 0.175D+01
 Coeff-En:   0.000D+00 0.100D+01
 Coeff:     -0.659D+00 0.166D+01
 Gap=     0.177 Goal=   None    Shift=    0.000
 RMSDP=1.04D-03 MaxDP=6.57D-02 DE=-5.44D-01 OVMax= 4.99D-01

 Cycle   3  Pass 1  IDiag  1:
 RMSU=  8.90D-04    CP:  9.65D-01  1.71D+00
 E= -3005.12735565348     Delta-E=       -0.776620752971 Rises=F Damp=F
 DIIS: error= 1.37D-02 at cycle   3 NSaved=   3.
 NSaved= 3 IEnMin= 3 EnMin= -3005.12735565348     IErMin= 2 ErrMin= 1.23D-02
 ErrMax= 1.37D-02  0.00D+00 EMaxC= 1.00D-01 BMatC= 1.99D-01 BMatP= 3.61D-01
 IDIUse=3 WtCom= 8.63D-01 WtEn= 1.37D-01
 Coeff-Com: -0.493D+00 0.107D+01 0.427D+00
 Coeff-En:   0.000D+00 0.000D+00 0.100D+01
 Coeff:     -0.426D+00 0.920D+00 0.506D+00
 Gap=     0.071 Goal=   None    Shift=    0.000
 RMSDP=7.10D-04 MaxDP=5.84D-02 DE=-7.77D-01 OVMax= 4.17D-01

 Cycle   4  Pass 1  IDiag  1:
 RMSU=  4.65D-04    CP:  9.69D-01  1.98D+00  4.34D-01
 E= -3005.25401624897     Delta-E=       -0.126660595486 Rises=F Damp=F
 DIIS: error= 7.97D-03 at cycle   4 NSaved=   4.
 NSaved= 4 IEnMin= 4 EnMin= -3005.25401624897     IErMin= 4 ErrMin= 7.97D-03
 ErrMax= 7.97D-03  0.00D+00 EMaxC= 1.00D-01 BMatC= 6.76D-02 BMatP= 1.99D-01
 IDIUse=3 WtCom= 9.20D-01 WtEn= 7.97D-02
 Coeff-Com: -0.137D+00 0.307D+00 0.356D+00 0.474D+00
 Coeff-En:   0.000D+00 0.000D+00 0.329D+00 0.671D+00
 Coeff:     -0.126D+00 0.282D+00 0.354D+00 0.490D+00
 Gap=     0.075 Goal=   None    Shift=    0.000
 RMSDP=4.15D-04 MaxDP=2.55D-02 DE=-1.27D-01 OVMax= 3.11D-01

 Cycle   5  Pass 1  IDiag  1:
 RMSU=  1.99D-04    CP:  9.70D-01  1.84D+00  6.83D-01  4.12D-01
 E= -3005.31893976068     Delta-E=       -0.064923511707 Rises=F Damp=F
 DIIS: error= 3.53D-03 at cycle   5 NSaved=   5.
 NSaved= 5 IEnMin= 5 EnMin= -3005.31893976068     IErMin= 5 ErrMin= 3.53D-03
 ErrMax= 3.53D-03  0.00D+00 EMaxC= 1.00D-01 BMatC= 1.37D-02 BMatP= 6.76D-02
 IDIUse=3 WtCom= 9.65D-01 WtEn= 3.53D-02
 Coeff-Com: -0.260D-01 0.657D-01 0.208D+00 0.380D+00 0.372D+00
 Coeff-En:   0.000D+00 0.000D+00 0.000D+00 0.215D+00 0.785D+00
 Coeff:     -0.250D-01 0.633D-01 0.200D+00 0.375D+00 0.387D+00
 Gap=     0.075 Goal=   None    Shift=    0.000
 RMSDP=1.77D-04 MaxDP=3.11D-02 DE=-6.49D-02 OVMax= 1.21D-01

 Cycle   6  Pass 1  IDiag  1:
 RMSU=  6.82D-05    CP:  9.68D-01  1.84D+00  6.34D-01  6.06D-01  3.55D-01
 E= -3005.33647473242     Delta-E=       -0.017534971748 Rises=F Damp=F
 DIIS: error= 8.95D-04 at cycle   6 NSaved=   6.
 NSaved= 6 IEnMin= 6 EnMin= -3005.33647473242     IErMin= 6 ErrMin= 8.95D-04
 ErrMax= 8.95D-04  0.00D+00 EMaxC= 1.00D-01 BMatC= 7.43D-04 BMatP= 1.37D-02
 IDIUse=3 WtCom= 9.91D-01 WtEn= 8.95D-03
 Coeff-Com:  0.525D-02-0.857D-02 0.455D-01 0.116D+00 0.219D+00 0.623D+00
 Coeff-En:   0.000D+00 0.000D+00 0.000D+00 0.000D+00 0.279D-01 0.972D+00
 Coeff:      0.520D-02-0.849D-02 0.451D-01 0.115D+00 0.217D+00 0.626D+00
 Gap=     0.078 Goal=   None    Shift=    0.000
 RMSDP=3.99D-05 MaxDP=4.83D-03 DE=-1.75D-02 OVMax= 2.53D-02

 Cycle   7  Pass 1  IDiag  1:
 RMSU=  2.48D-05    CP:  9.68D-01  1.85D+00  6.45D-01  5.82D-01  4.65D-01
                    CP:  7.55D-01
 E= -3005.33717730054     Delta-E=       -0.000702568115 Rises=F Damp=F
 DIIS: error= 4.02D-04 at cycle   7 NSaved=   7.
 NSaved= 7 IEnMin= 7 EnMin= -3005.33717730054     IErMin= 7 ErrMin= 4.02D-04
 ErrMax= 4.02D-04  0.00D+00 EMaxC= 1.00D-01 BMatC= 1.41D-04 BMatP= 7.43D-04
 IDIUse=3 WtCom= 9.96D-01 WtEn= 4.02D-03
 Coeff-Com:  0.430D-02-0.900D-02 0.331D-02 0.226D-01 0.804D-01 0.386D+00
 Coeff-Com:  0.512D+00
 Coeff-En:   0.000D+00 0.000D+00 0.000D+00 0.000D+00 0.000D+00 0.152D+00
 Coeff-En:   0.848D+00
 Coeff:      0.429D-02-0.896D-02 0.329D-02 0.225D-01 0.801D-01 0.385D+00
 Coeff:      0.514D+00
 Gap=     0.078 Goal=   None    Shift=    0.000
 RMSDP=1.60D-05 MaxDP=1.23D-03 DE=-7.03D-04 OVMax= 6.58D-03

 Cycle   8  Pass 1  IDiag  1:
 RMSU=  1.04D-05    CP:  9.68D-01  1.85D+00  6.43D-01  5.88D-01  4.59D-01
                    CP:  8.26D-01  5.75D-01
 E= -3005.33730228869     Delta-E=       -0.000124988150 Rises=F Damp=F
 DIIS: error= 8.64D-05 at cycle   8 NSaved=   8.
 NSaved= 8 IEnMin= 8 EnMin= -3005.33730228869     IErMin= 8 ErrMin= 8.64D-05
 ErrMax= 8.64D-05  0.00D+00 EMaxC= 1.00D-01 BMatC= 2.32D-05 BMatP= 1.41D-04
 IDIUse=1 WtCom= 1.00D+00 WtEn= 0.00D+00
 Coeff-Com:  0.172D-02-0.383D-02-0.282D-02 0.108D-02 0.255D-01 0.179D+00
 Coeff-Com:  0.341D+00 0.458D+00
 Coeff:      0.172D-02-0.383D-02-0.282D-02 0.108D-02 0.255D-01 0.179D+00
 Coeff:      0.341D+00 0.458D+00
 Gap=     0.079 Goal=   None    Shift=    0.000
 RMSDP=7.25D-06 MaxDP=5.67D-04 DE=-1.25D-04 OVMax= 3.73D-03

 Cycle   9  Pass 1  IDiag  1:
 RMSU=  4.49D-06    CP:  9.68D-01  1.85D+00  6.43D-01  5.87D-01  4.63D-01
                    CP:  8.23D-01  6.78D-01  5.22D-01
 E= -3005.33732743190     Delta-E=       -0.000025143207 Rises=F Damp=F
 DIIS: error= 3.44D-05 at cycle   9 NSaved=   9.
 NSaved= 9 IEnMin= 9 EnMin= -3005.33732743190     IErMin= 9 ErrMin= 3.44D-05
 ErrMax= 3.44D-05  0.00D+00 EMaxC= 1.00D-01 BMatC= 3.33D-06 BMatP= 2.32D-05
 IDIUse=1 WtCom= 1.00D+00 WtEn= 0.00D+00
 Coeff-Com:  0.325D-03-0.813D-03-0.249D-02-0.321D-02 0.302D-02 0.600D-01
 Coeff-Com:  0.149D+00 0.311D+00 0.483D+00
 Coeff:      0.325D-03-0.813D-03-0.249D-02-0.321D-02 0.302D-02 0.600D-01
 Coeff:      0.149D+00 0.311D+00 0.483D+00
 Gap=     0.079 Goal=   None    Shift=    0.000
 RMSDP=2.64D-06 MaxDP=2.10D-04 DE=-2.51D-05 OVMax= 1.63D-03

 Cycle  10  Pass 1  IDiag  1:
 RMSU=  1.85D-06    CP:  9.68D-01  1.85D+00  6.44D-01  5.87D-01  4.63D-01
                    CP:  8.32D-01  6.70D-01  6.40D-01  7.23D-01
 E= -3005.33733119253     Delta-E=       -0.000003760631 Rises=F Damp=F
 DIIS: error= 1.59D-05 at cycle  10 NSaved=  10.
 NSaved=10 IEnMin=10 EnMin= -3005.33733119253     IErMin=10 ErrMin= 1.59D-05
 ErrMax= 1.59D-05  0.00D+00 EMaxC= 1.00D-01 BMatC= 4.73D-07 BMatP= 3.33D-06
 IDIUse=1 WtCom= 1.00D+00 WtEn= 0.00D+00
 Coeff-Com: -0.103D-03 0.181D-03-0.111D-02-0.218D-02-0.372D-02 0.547D-02
 Coeff-Com:  0.330D-01 0.122D+00 0.301D+00 0.546D+00
 Coeff:     -0.103D-03 0.181D-03-0.111D-02-0.218D-02-0.372D-02 0.547D-02
 Coeff:      0.330D-01 0.122D+00 0.301D+00 0.546D+00
 Gap=     0.079 Goal=   None    Shift=    0.000
 RMSDP=1.24D-06 MaxDP=1.03D-04 DE=-3.76D-06 OVMax= 7.02D-04

 Cycle  11  Pass 1  IDiag  1:
 RMSU=  7.82D-07    CP:  9.68D-01  1.85D+00  6.44D-01  5.87D-01  4.63D-01
                    CP:  8.35D-01  6.84D-01  6.50D-01  8.56D-01  6.58D-01
 E= -3005.33733175041     Delta-E=       -0.000000557882 Rises=F Damp=F
 DIIS: error= 7.94D-06 at cycle  11 NSaved=  11.
 NSaved=11 IEnMin=11 EnMin= -3005.33733175041     IErMin=11 ErrMin= 7.94D-06
 ErrMax= 7.94D-06  0.00D+00 EMaxC= 1.00D-01 BMatC= 1.25D-07 BMatP= 4.73D-07
 IDIUse=1 WtCom= 1.00D+00 WtEn= 0.00D+00
 Coeff-Com: -0.120D-03 0.244D-03-0.355D-03-0.823D-03-0.342D-02-0.632D-02
 Coeff-Com: -0.383D-02 0.306D-01 0.105D+00 0.367D+00 0.512D+00
 Coeff:     -0.120D-03 0.244D-03-0.355D-03-0.823D-03-0.342D-02-0.632D-02
 Coeff:     -0.383D-02 0.306D-01 0.105D+00 0.367D+00 0.512D+00
 Gap=     0.079 Goal=   None    Shift=    0.000
 RMSDP=4.58D-07 MaxDP=3.71D-05 DE=-5.58D-07 OVMax= 2.32D-04

 Cycle  12  Pass 1  IDiag  1:
 RMSU=  2.80D-07    CP:  9.68D-01  1.85D+00  6.44D-01  5.87D-01  4.63D-01
                    CP:  8.35D-01  6.87D-01  6.64D-01  8.61D-01  8.14D-01
                    CP:  8.24D-01
 E= -3005.33733190396     Delta-E=       -0.000000153552 Rises=F Damp=F
 DIIS: error= 4.33D-06 at cycle  12 NSaved=  12.
 NSaved=12 IEnMin=12 EnMin= -3005.33733190396     IErMin=12 ErrMin= 4.33D-06
 ErrMax= 4.33D-06  0.00D+00 EMaxC= 1.00D-01 BMatC= 1.90D-08 BMatP= 1.25D-07
 IDIUse=1 WtCom= 1.00D+00 WtEn= 0.00D+00
 Coeff-Com: -0.421D-04 0.887D-04 0.246D-04 0.105D-03-0.143D-02-0.487D-02
 Coeff-Com: -0.107D-01-0.958D-02-0.181D-01 0.896D-01 0.265D+00 0.690D+00
 Coeff:     -0.421D-04 0.887D-04 0.246D-04 0.105D-03-0.143D-02-0.487D-02
 Coeff:     -0.107D-01-0.958D-02-0.181D-01 0.896D-01 0.265D+00 0.690D+00
 Gap=     0.079 Goal=   None    Shift=    0.000
 RMSDP=2.34D-07 MaxDP=2.39D-05 DE=-1.54D-07 OVMax= 1.17D-04

 Cycle  13  Pass 1  IDiag  1:
 RMSU=  1.37D-07    CP:  9.68D-01  1.85D+00  6.43D-01  5.87D-01  4.63D-01
                    CP:  8.36D-01  6.89D-01  6.70D-01  8.84D-01  8.50D-01
                    CP:  9.53D-01  9.22D-01
 E= -3005.33733192827     Delta-E=       -0.000000024309 Rises=F Damp=F
 DIIS: error= 1.29D-06 at cycle  13 NSaved=  13.
 NSaved=13 IEnMin=13 EnMin= -3005.33733192827     IErMin=13 ErrMin= 1.29D-06
 ErrMax= 1.29D-06  0.00D+00 EMaxC= 1.00D-01 BMatC= 4.27D-09 BMatP= 1.90D-08
 IDIUse=1 WtCom= 1.00D+00 WtEn= 0.00D+00
 Coeff-Com: -0.117D-04 0.219D-04 0.645D-04 0.216D-03-0.447D-03-0.206D-02
 Coeff-Com: -0.655D-02-0.107D-01-0.301D-01-0.370D-02 0.695D-01 0.422D+00
 Coeff-Com:  0.562D+00
 Coeff:     -0.117D-04 0.219D-04 0.645D-04 0.216D-03-0.447D-03-0.206D-02
 Coeff:     -0.655D-02-0.107D-01-0.301D-01-0.370D-02 0.695D-01 0.422D+00
 Coeff:      0.562D+00
 Gap=     0.079 Goal=   None    Shift=    0.000
 RMSDP=1.00D-07 MaxDP=1.51D-05 DE=-2.43D-08 OVMax= 5.30D-05

 Cycle  14  Pass 1  IDiag  1:
 RMSU=  5.99D-08    CP:  9.68D-01  1.85D+00  6.43D-01  5.87D-01  4.63D-01
                    CP:  8.36D-01  6.89D-01  6.73D-01  8.88D-01  8.71D-01
                    CP:  9.81D-01  1.08D+00  8.58D-01
 E= -3005.33733193400     Delta-E=       -0.000000005726 Rises=F Damp=F
 DIIS: error= 5.72D-07 at cycle  14 NSaved=  14.
 NSaved=14 IEnMin=14 EnMin= -3005.33733193400     IErMin=14 ErrMin= 5.72D-07
 ErrMax= 5.72D-07  0.00D+00 EMaxC= 1.00D-01 BMatC= 5.68D-10 BMatP= 4.27D-09
 IDIUse=1 WtCom= 1.00D+00 WtEn= 0.00D+00
 Coeff-Com: -0.191D-05 0.515D-06 0.287D-04 0.115D-03-0.551D-04-0.287D-03
 Coeff-Com: -0.203D-02-0.398D-02-0.137D-01-0.147D-01-0.672D-02 0.130D+00
 Coeff-Com:  0.321D+00 0.590D+00
 Coeff:     -0.191D-05 0.515D-06 0.287D-04 0.115D-03-0.551D-04-0.287D-03
 Coeff:     -0.203D-02-0.398D-02-0.137D-01-0.147D-01-0.672D-02 0.130D+00
 Coeff:      0.321D+00 0.590D+00
 Gap=     0.079 Goal=   None    Shift=    0.000
 RMSDP=3.60D-08 MaxDP=5.73D-06 DE=-5.73D-09 OVMax= 1.55D-05

 Cycle  15  Pass 1  IDiag  1:
 RMSU=  2.06D-08    CP:  9.68D-01  1.85D+00  6.43D-01  5.87D-01  4.63D-01
                    CP:  8.37D-01  6.89D-01  6.73D-01  8.90D-01  8.75D-01
                    CP:  1.00D+00  1.12D+00  9.65D-01  9.04D-01
 E= -3005.33733193460     Delta-E=       -0.000000000598 Rises=F Damp=F
 DIIS: error= 2.58D-07 at cycle  15 NSaved=  15.
 NSaved=15 IEnMin=15 EnMin= -3005.33733193460     IErMin=15 ErrMin= 2.58D-07
 ErrMax= 2.58D-07  0.00D+00 EMaxC= 1.00D-01 BMatC= 1.08D-10 BMatP= 5.68D-10
 IDIUse=1 WtCom= 1.00D+00 WtEn= 0.00D+00
 Coeff-Com: -0.652D-06-0.123D-05 0.188D-05 0.248D-04 0.534D-04 0.325D-03
 Coeff-Com:  0.222D-03 0.256D-03-0.101D-02-0.723D-02-0.208D-01-0.153D-01
 Coeff-Com:  0.629D-01 0.348D+00 0.632D+00
 Coeff:     -0.652D-06-0.123D-05 0.188D-05 0.248D-04 0.534D-04 0.325D-03
 Coeff:      0.222D-03 0.256D-03-0.101D-02-0.723D-02-0.208D-01-0.153D-01
 Coeff:      0.629D-01 0.348D+00 0.632D+00
 Gap=     0.079 Goal=   None    Shift=    0.000
 RMSDP=1.65D-08 MaxDP=2.94D-06 DE=-5.98D-10 OVMax= 6.90D-06

 Cycle  16  Pass 1  IDiag  1:
 RMSU=  8.47D-09    CP:  9.68D-01  1.85D+00  6.43D-01  5.87D-01  4.63D-01
                    CP:  8.37D-01  6.89D-01  6.73D-01  8.90D-01  8.78D-01
                    CP:  1.01D+00  1.14D+00  1.00D+00  1.01D+00  8.18D-01
 E= -3005.33733193472     Delta-E=       -0.000000000127 Rises=F Damp=F
 DIIS: error= 9.25D-08 at cycle  16 NSaved=  16.
 NSaved=16 IEnMin=16 EnMin= -3005.33733193472     IErMin=16 ErrMin= 9.25D-08
 ErrMax= 9.25D-08  0.00D+00 EMaxC= 1.00D-01 BMatC= 1.46D-11 BMatP= 1.08D-10
 IDIUse=1 WtCom= 1.00D+00 WtEn= 0.00D+00
 Coeff-Com: -0.780D-06 0.308D-06-0.445D-05-0.425D-05 0.319D-04 0.228D-03
 Coeff-Com:  0.417D-03 0.816D-03 0.173D-02-0.145D-02-0.106D-01-0.282D-01
 Coeff-Com: -0.172D-01 0.997D-01 0.349D+00 0.605D+00
 Coeff:     -0.780D-06 0.308D-06-0.445D-05-0.425D-05 0.319D-04 0.228D-03
 Coeff:      0.417D-03 0.816D-03 0.173D-02-0.145D-02-0.106D-01-0.282D-01
 Coeff:     -0.172D-01 0.997D-01 0.349D+00 0.605D+00
 Gap=     0.079 Goal=   None    Shift=    0.000
 RMSDP=5.92D-09 MaxDP=4.00D-07 DE=-1.27D-10 OVMax= 2.69D-06

 SCF Done:  E(RPBE1PBE) =  -3005.33733193     A.U. after   16 cycles
            NFock= 16  Conv=0.59D-08     -V/T= 2.0104
 KE= 2.974334982989D+03 PE=-2.645688007677D+04 EE= 1.074421193844D+04
 Leave Link  502 at Fri Apr 29 05:47:44 2022, MaxMem= 10066329600 cpu:            6807.4 elap:             285.4
 (Enter /sw/apps/gaussian-16.0/g16/l801.exe)
 DoSCS=F DFT=T ScalE2(SS,OS)=  1.000000  1.000000
 ExpMin= 3.36D-02 ExpMax= 4.95D+03 ExpMxC= 7.45D+02 IAcc=3 IRadAn=         5 AccDes= 0.00D+00
 HarFok:  IExCor=  205 AccDes= 0.00D+00 IRadAn=         5 IDoV=-2 UseB2=F ITyADJ=14
 ICtDFT= 12500011 ScaDFX=  1.000000  1.000000  1.000000  1.000000
 GSVD:  LWork=       -5460 too small for GESVD, short by       25550 words or       25550 for optimal perf.
 Largest valence mixing into a core orbital is  1.47D-04
 Largest core mixing into a valence orbital is  5.50D-05
 Range of M.O.s used for correlation:    71  1298
 NBasis=  1298 NAE=   246 NBE=   246 NFC=    70 NFV=     0
 NROrb=   1228 NOA=   176 NOB=   176 NVA=  1052 NVB=  1052

 **** Warning!!: The smallest alpha delta epsilon is  0.78712844D-01

 Leave Link  801 at Fri Apr 29 05:47:44 2022, MaxMem= 10066329600 cpu:               6.5 elap:               0.3
 (Enter /sw/apps/gaussian-16.0/g16/l914.exe)
 RHF ground state
 Two-electron integrals replicated using symmetry.
 MDV= 10066329600 DFT=T DoStab=F Mixed=T DoRPA=T DoScal=F NonHer=T
 Making orbital integer symmetry assigments:
 Orbital symmetries:
       Occupied  (A) (A) (A) (A) (A) (A) (A) (A) (A) (A) (A) (A)
                 (A) (A) (A) (A) (A) (A) (A) (A) (A) (A) (A) (A)
                 (A) (A) (A) (A) (A) (A) (A) (A) (A) (A) (A) (A)
                 (A) (A) (A) (A) (A) (A) (A) (A) (A) (A) (A) (A)
                 (A) (A) (A) (A) (A) (A) (A) (A) (A) (A) (A) (A)
                 (A) (A) (A) (A) (A) (A) (A) (A) (A) (A) (A) (A)
                 (A) (A) (A) (A) (A) (A) (A) (A) (A) (A) (A) (A)
                 (A) (A) (A) (A) (A) (A) (A) (A) (A) (A) (A) (A)
                 (A) (A) (A) (A) (A) (A) (A) (A) (A) (A) (A) (A)
                 (A) (A) (A) (A) (A) (A) (A) (A) (A) (A) (A) (A)
                 (A) (A) (A) (A) (A) (A) (A) (A) (A) (A) (A) (A)
                 (A) (A) (A) (A) (A) (A) (A) (A) (A) (A) (A) (A)
                 (A) (A) (A) (A) (A) (A) (A) (A) (A) (A) (A) (A)
                 (A) (A) (A) (A) (A) (A) (A) (A) (A) (A) (A) (A)
                 (A) (A) (A) (A) (A) (A) (A) (A) (A) (A) (A) (A)
                 (A) (A) (A) (A) (A) (A) (A) (A) (A) (A) (A) (A)
                 (A) (A) (A) (A) (A) (A) (A) (A) (A) (A) (A) (A)
                 (A) (A) (A) (A) (A) (A) (A) (A) (A) (A) (A) (A)
                 (A) (A) (A) (A) (A) (A) (A) (A) (A) (A) (A) (A)
                 (A) (A) (A) (A) (A) (A) (A) (A) (A) (A) (A) (A)
                 (A) (A) (A) (A) (A) (A)
       Virtual   (A) (A) (A) (A) (A) (A) (A) (A) (A) (A) (A) (A)
                 (A) (A) (A) (A) (A) (A) (A) (A) (A) (A) (A) (A)
                 (A) (A) (A) (A) (A) (A) (A) (A) (A) (A) (A) (A)
                 (A) (A) (A) (A) (A) (A) (A) (A) (A) (A) (A) (A)
                 (A) (A) (A) (A) (A) (A) (A) (A) (A) (A) (A) (A)
                 (A) (A) (A) (A) (A) (A) (A) (A) (A) (A) (A) (A)
                 (A) (A) (A) (A) (A) (A) (A) (A) (A) (A) (A) (A)
                 (A) (A) (A) (A) (A) (A) (A) (A) (A) (A) (A) (A)
                 (A) (A) (A) (A) (A) (A) (A) (A) (A) (A) (A) (A)
                 (A) (A) (A) (A) (A) (A) (A) (A) (A) (A) (A) (A)
                 (A) (A) (A) (A) (A) (A) (A) (A) (A) (A) (A) (A)
                 (A) (A) (A) (A) (A) (A) (A) (A) (A) (A) (A) (A)
                 (A) (A) (A) (A) (A) (A) (A) (A) (A) (A) (A) (A)
                 (A) (A) (A) (A) (A) (A) (A) (A) (A) (A) (A) (A)
                 (A) (A) (A) (A) (A) (A) (A) (A) (A) (A) (A) (A)
                 (A) (A) (A) (A) (A) (A) (A) (A) (A) (A) (A) (A)
                 (A) (A) (A) (A) (A) (A) (A) (A) (A) (A) (A) (A)
                 (A) (A) (A) (A) (A) (A) (A) (A) (A) (A) (A) (A)
                 (A) (A) (A) (A) (A) (A) (A) (A) (A) (A) (A) (A)
                 (A) (A) (A) (A) (A) (A) (A) (A) (A) (A) (A) (A)
                 (A) (A) (A) (A) (A) (A) (A) (A) (A) (A) (A) (A)
                 (A) (A) (A) (A) (A) (A) (A) (A) (A) (A) (A) (A)
                 (A) (A) (A) (A) (A) (A) (A) (A) (A) (A) (A) (A)
                 (A) (A) (A) (A) (A) (A) (A) (A) (A) (A) (A) (A)
                 (A) (A) (A) (A) (A) (A) (A) (A) (A) (A) (A) (A)
                 (A) (A) (A) (A) (A) (A) (A) (A) (A) (A) (A) (A)
                 (A) (A) (A) (A) (A) (A) (A) (A) (A) (A) (A) (A)
                 (A) (A) (A) (A) (A) (A) (A) (A) (A) (A) (A) (A)
                 (A) (A) (A) (A) (A) (A) (A) (A) (A) (A) (A) (A)
                 (A) (A) (A) (A) (A) (A) (A) (A) (A) (A) (A) (A)
                 (A) (A) (A) (A) (A) (A) (A) (A) (A) (A) (A) (A)
                 (A) (A) (A) (A) (A) (A) (A) (A) (A) (A) (A) (A)
                 (A) (A) (A) (A) (A) (A) (A) (A) (A) (A) (A) (A)
                 (A) (A) (A) (A) (A) (A) (A) (A) (A) (A) (A) (A)
                 (A) (A) (A) (A) (A) (A) (A) (A) (A) (A) (A) (A)
                 (A) (A) (A) (A) (A) (A) (A) (A) (A) (A) (A) (A)
                 (A) (A) (A) (A) (A) (A) (A) (A) (A) (A) (A) (A)
                 (A) (A) (A) (A) (A) (A) (A) (A) (A) (A) (A) (A)
                 (A) (A) (A) (A) (A) (A) (A) (A) (A) (A) (A) (A)
                 (A) (A) (A) (A) (A) (A) (A) (A) (A) (A) (A) (A)
                 (A) (A) (A) (A) (A) (A) (A) (A) (A) (A) (A) (A)
                 (A) (A) (A) (A) (A) (A) (A) (A) (A) (A) (A) (A)
                 (A) (A) (A) (A) (A) (A) (A) (A) (A) (A) (A) (A)
                 (A) (A) (A) (A) (A) (A) (A) (A) (A) (A) (A) (A)
                 (A) (A) (A) (A) (A) (A) (A) (A) (A) (A) (A) (A)
                 (A) (A) (A) (A) (A) (A) (A) (A) (A) (A) (A) (A)
                 (A) (A) (A) (A) (A) (A) (A) (A) (A) (A) (A) (A)
                 (A) (A) (A) (A) (A) (A) (A) (A) (A) (A) (A) (A)
                 (A) (A) (A) (A) (A) (A) (A) (A) (A) (A) (A) (A)
                 (A) (A) (A) (A) (A) (A) (A) (A) (A) (A) (A) (A)
                 (A) (A) (A) (A) (A) (A) (A) (A) (A) (A) (A) (A)
                 (A) (A) (A) (A) (A) (A) (A) (A) (A) (A) (A) (A)
                 (A) (A) (A) (A) (A) (A) (A) (A) (A) (A) (A) (A)
                 (A) (A) (A) (A) (A) (A) (A) (A) (A) (A) (A) (A)
                 (A) (A) (A) (A) (A) (A) (A) (A) (A) (A) (A) (A)
                 (A) (A) (A) (A) (A) (A) (A) (A) (A) (A) (A) (A)
                 (A) (A) (A) (A) (A) (A) (A) (A) (A) (A) (A) (A)
                 (A) (A) (A) (A) (A) (A) (A) (A) (A) (A) (A) (A)
                 (A) (A) (A) (A) (A) (A) (A) (A) (A) (A) (A) (A)
                 (A) (A) (A) (A) (A) (A) (A) (A) (A) (A) (A) (A)
                 (A) (A) (A) (A) (A) (A) (A) (A) (A) (A) (A) (A)
                 (A) (A) (A) (A) (A) (A) (A) (A) (A) (A) (A) (A)
                 (A) (A) (A) (A) (A) (A) (A) (A) (A) (A) (A) (A)
                 (A) (A) (A) (A) (A) (A) (A) (A) (A) (A) (A) (A)
                 (A) (A) (A) (A) (A) (A) (A) (A) (A) (A) (A) (A)
                 (A) (A) (A) (A) (A) (A) (A) (A) (A) (A) (A) (A)
                 (A) (A) (A) (A) (A) (A) (A) (A) (A) (A) (A) (A)
                 (A) (A) (A) (A) (A) (A) (A) (A) (A) (A) (A) (A)
                 (A) (A) (A) (A) (A) (A) (A) (A) (A) (A) (A) (A)
                 (A) (A) (A) (A) (A) (A) (A) (A) (A) (A) (A) (A)
                 (A) (A) (A) (A) (A) (A) (A) (A) (A) (A) (A) (A)
                 (A) (A) (A) (A) (A) (A) (A) (A) (A) (A) (A) (A)
                 (A) (A) (A) (A) (A) (A) (A) (A) (A) (A) (A) (A)
                 (A) (A) (A) (A) (A) (A) (A) (A) (A) (A) (A) (A)
                 (A) (A) (A) (A) (A) (A) (A) (A) (A) (A) (A) (A)
                 (A) (A) (A) (A) (A) (A) (A) (A) (A) (A) (A) (A)
                 (A) (A) (A) (A) (A) (A) (A) (A) (A) (A) (A) (A)
                 (A) (A) (A) (A) (A) (A) (A) (A) (A) (A) (A) (A)
                 (A) (A) (A) (A) (A) (A) (A) (A) (A) (A) (A) (A)
                 (A) (A) (A) (A) (A) (A) (A) (A) (A) (A) (A) (A)
                 (A) (A) (A) (A) (A) (A) (A) (A) (A) (A) (A) (A)
                 (A) (A) (A) (A) (A) (A) (A) (A) (A) (A) (A) (A)
                 (A) (A) (A) (A) (A) (A) (A) (A) (A) (A) (A) (A)
                 (A) (A) (A) (A) (A) (A) (A) (A) (A) (A) (A) (A)
                 (A) (A) (A) (A) (A) (A) (A) (A) (A) (A) (A) (A)
                 (A) (A) (A) (A) (A) (A) (A) (A) (A) (A) (A) (A)
                 (A) (A) (A) (A) (A) (A) (A) (A) (A) (A) (A) (A)
                 (A) (A) (A) (A) (A) (A) (A) (A)
    20 initial guesses have been made.
 Convergence on wavefunction:    0.001000000000000
 Davidson Disk Diagonalization:  ConvIn= 1.00D-03 SkipCon=T Conv= 1.00D-03.
 Max sub-space:  2000 roots to seek:    20 dimension of matrix:       370304
 Iteration     1 Dimension    20 NMult     0 NNew     20
 CISAX will form    20 AO SS matrices at one time.
 NMat=    20 NSing=    20 JSym2X= 0.
 FoFJK:  IHMeth= 1 ICntrl=       0 DoSepK=F KAlg= 0 I1Cent=           0 FoldK=F
 IRaf= 530000000 NMat=      40 IRICut=       1 DoRegI=T DoRafI=F ISym2E= 0 IDoP0=3 IntGTp=3.
 FoFCou: FMM=T IPFlag=           0 FMFlag=      100000 FMFlg1=        2001
         NFxFlg=           0 DoJE=F BraDBF=F KetDBF=F FulRan=T
         wScrn=  0.000000 ICntrl=         0 IOpCl=  0 I1Cent=           0 NGrid=           0
         NMat0=   40 NMatS0=     20 NMatT0=    0 NMatD0=   40 NMtDS0=    0 NMtDT0=    0
 Symmetry not used in FoFCou.
 FMM levels:  10  Number of levels for PrismC:   9
 New state      3 was old state      5
 New state      4 was old state      3
 New state      5 was old state      6
 Excitation Energies [eV] at current iteration:
 Root      1 :     2.230615044504789
 Root      2 :     2.546788966539439
 Root      3 :     3.123905078343088
 Root      4 :     3.312437850590620
 Root      5 :     3.373584371917462
 Root      6 :     3.457299724308148
 Root      7 :     3.539791564576175
 Root      8 :     3.716665144383489
 Root      9 :     3.746124130895005
 Root     10 :     3.965217479228113
 Root     11 :     4.050974259677860
 Root     12 :     4.089757726880229
 Root     13 :     4.113388062320435
 Root     14 :     4.132347850338172
 Root     15 :     4.353608639415057
 Root     16 :     4.398542928658824
 Root     17 :     4.633690191980085
 Root     18 :     4.673203444560769
 Root     19 :     4.837099456218903
 Root     20 :     4.973098454382538
 Iteration     2 Dimension    30 NMult    20 NNew     10
 CISAX will form    10 AO SS matrices at one time.
 NMat=    10 NSing=    10 JSym2X= 0.
 Root      1 not converged, maximum delta is    0.051263219307591
 Root      2 not converged, maximum delta is    0.052572924689942
 Root      3 not converged, maximum delta is    0.093109116646669
 New state      4 was old state      5
 Root      4 not converged, maximum delta is    0.049854305566045
 New state      5 was old state      4
 Root      5 not converged, maximum delta is    0.032471047589311
 Excitation Energies [eV] at current iteration:
 Root      1 :     1.917790435618785   Change is   -0.312824608886004
 Root      2 :     2.254301245448681   Change is   -0.292487721090759
 Root      3 :     3.014978763021634   Change is   -0.108926315321454
 Root      4 :     3.156431478557175   Change is   -0.217152893360287
 Root      5 :     3.311985072656398   Change is   -0.000452777934222
 Iteration     3 Dimension    40 NMult    30 NNew     10
 CISAX will form    10 AO SS matrices at one time.
 NMat=    10 NSing=    10 JSym2X= 0.
 Root      1 not converged, maximum delta is    0.021799693972575
 Root      2 not converged, maximum delta is    0.018301916495944
 Root      3 not converged, maximum delta is    0.013590676371787
 Root      4 not converged, maximum delta is    0.013646633388695
 Root      5 not converged, maximum delta is    0.022188094384260
 Excitation Energies [eV] at current iteration:
 Root      1 :     1.891157564231440   Change is   -0.026632871387345
 Root      2 :     2.234366635860578   Change is   -0.019934609588103
 Root      3 :     3.003971289681231   Change is   -0.011007473340403
 Root      4 :     3.146611902371258   Change is   -0.009819576185917
 Root      5 :     3.311871538633171   Change is   -0.000113534023227
 Iteration     4 Dimension    50 NMult    40 NNew     10
 CISAX will form    10 AO SS matrices at one time.
 NMat=    10 NSing=    10 JSym2X= 0.
 Root      1 not converged, maximum delta is    0.002265626352592
 Root      2 not converged, maximum delta is    0.008215190974149
 Root      3 not converged, maximum delta is    0.010120699225738
 Root      4 not converged, maximum delta is    0.007775622182706
 No map to state      5
 Excitation Energies [eV] at current iteration:
 Root      1 :     1.888124356115931   Change is   -0.003033208115509
 Root      2 :     2.231166778323187   Change is   -0.003199857537390
 Root      3 :     3.002184344138357   Change is   -0.001786945542874
 Root      4 :     3.144974287949565   Change is   -0.001637614421692
 Root      5 :     3.245651569335221
 Iteration     5 Dimension    60 NMult    50 NNew     10
 CISAX will form    10 AO SS matrices at one time.
 NMat=    10 NSing=    10 JSym2X= 0.
 Root      1 has converged.
 Root      2 has converged.
 Root      3 not converged, maximum delta is    0.001100767939145
 Root      4 not converged, maximum delta is    0.002975951382699
 Root      5 not converged, maximum delta is    0.021463449258667
 Excitation Energies [eV] at current iteration:
 Root      1 :     1.887765789840083   Change is   -0.000358566275848
 Root      2 :     2.230959012167172   Change is   -0.000207766156016
 Root      3 :     3.001984846271018   Change is   -0.000199497867338
 Root      4 :     3.144716183725178   Change is   -0.000258104224387
 Root      5 :     3.232370120013450   Change is   -0.013281449321771
 Iteration     6 Dimension    66 NMult    60 NNew      6
 CISAX will form     6 AO SS matrices at one time.
 NMat=     6 NSing=     6 JSym2X= 0.
 Root      1 has converged.
 Root      2 has converged.
 Root      3 has converged.
 Root      4 has converged.
 Root      5 not converged, maximum delta is    0.012514141128323
 Excitation Energies [eV] at current iteration:
 Root      1 :     1.887761132835047   Change is   -0.000004657005036
 Root      2 :     2.230957497888445   Change is   -0.000001514278727
 Root      3 :     3.001963749201562   Change is   -0.000021097069456
 Root      4 :     3.144687105034322   Change is   -0.000029078690856
 Root      5 :     3.229744936841107   Change is   -0.002625183172343
 Iteration     7 Dimension    68 NMult    66 NNew      2
 CISAX will form     2 AO SS matrices at one time.
 NMat=     2 NSing=     2 JSym2X= 0.
 Root      1 has converged.
 Root      2 has converged.
 Root      3 has converged.
 Root      4 has converged.
 Root      5 not converged, maximum delta is    0.002589900392862
 Excitation Energies [eV] at current iteration:
 Root      1 :     1.887759311626201   Change is   -0.000001821208846
 Root      2 :     2.230957119894739   Change is   -0.000000377993706
 Root      3 :     3.001963737021723   Change is   -0.000000012179840
 Root      4 :     3.144686173604232   Change is   -0.000000931430091
 Root      5 :     3.229335863510528   Change is   -0.000409073330579
 Iteration     8 Dimension    70 NMult    68 NNew      2
 CISAX will form     2 AO SS matrices at one time.
 NMat=     2 NSing=     2 JSym2X= 0.
 Root      1 has converged.
 Root      2 has converged.
 Root      3 has converged.
 Root      4 has converged.
 Root      5 not converged, maximum delta is    0.001154090758686
 Excitation Energies [eV] at current iteration:
 Root      1 :     1.887757171913281   Change is   -0.000002139712920
 Root      2 :     2.230956215996998   Change is   -0.000000903897742
 Root      3 :     3.001963627240144   Change is   -0.000000109781579
 Root      4 :     3.144685647184933   Change is   -0.000000526419299
 Root      5 :     3.229270229509090   Change is   -0.000065634001438
 Iteration     9 Dimension    72 NMult    70 NNew      2
 CISAX will form     2 AO SS matrices at one time.
 NMat=     2 NSing=     2 JSym2X= 0.
 Root      1 has converged.
 Root      2 has converged.
 Root      3 has converged.
 Root      4 has converged.
 Root      5 has converged.
 Excitation Energies [eV] at current iteration:
 Root      1 :     1.887756935279977   Change is   -0.000000236633303
 Root      2 :     2.230955353675133   Change is   -0.000000862321865
 Root      3 :     3.001963566034016   Change is   -0.000000061206127
 Root      4 :     3.144685562183535   Change is   -0.000000085001397
 Root      5 :     3.229259815382374   Change is   -0.000010414126716
 Convergence achieved on expansion vectors.
 ***********************************************************************
 Excited states from <AA,BB:AA,BB> singles matrix:
 ***********************************************************************
 
 1PDM for each excited state written to RWF  633
 Ground to excited state transition densities written to RWF  633
 Ground to excited state transition electric dipole moments (Au):
       state          X           Y           Z        Dip. S.      Osc.
         1         1.6328      1.7866      1.2991      7.5454      0.3490
         2        -0.5225      1.2844     -0.5143      2.1871      0.1195
         3        -0.0351     -0.0863      0.0271      0.0094      0.0007
         4        -0.0995      0.0028     -0.0845      0.0171      0.0013
         5        -0.2991      0.5966     -0.3171      0.5459      0.0432
 Ground to excited state transition velocity dipole moments (Au):
       state          X           Y           Z        Dip. S.      Osc.
         1        -0.1093     -0.1205     -0.0876      0.0341      0.3280
         2         0.0402     -0.0994      0.0383      0.0130      0.1054
         3         0.0010      0.0097     -0.0017      0.0001      0.0006
         4         0.0092     -0.0004      0.0079      0.0001      0.0008
         5         0.0353     -0.0693      0.0339      0.0072      0.0404
 Ground to excited state transition magnetic dipole moments (Au):
       state          X           Y           Z
         1        -0.2193     -0.7735      1.3972
         2         0.9961      0.2445     -0.0728
         3         0.2101      0.3550      0.0149
         4         0.3413     -0.0020     -0.4723
         5         0.2450      0.5291      1.1484
 Ground to excited state transition velocity quadrupole moments (Au):
       state          XX          YY          ZZ          XY          XZ          YZ
         1         1.7373     -0.5652     -0.1794      0.6465      0.6212     -0.3051
         2        -0.6103     -0.4667      0.0538      0.7548     -0.3635     -0.0133
         3         0.0277     -0.0705      0.0459     -0.1562      0.0389     -0.0179
         4         0.0551     -0.2487      0.0643      0.1126      0.0484      0.1492
         5        -0.3392     -0.1775      0.0580      0.9033     -0.1997      0.3055
 <0|del|b> * <b|rxdel|0> + <0|del|b> * <b|delr+rdel|0>
 Rotatory Strengths (R) in cgs (10**-40 erg-esu-cm/Gauss)
       state          XX          YY          ZZ    R(velocity)    E-M Angle
         1       -56.1481    -43.0410     45.6898    -17.8331       91.01
         2      -148.1100     33.8167    226.0005     37.2357       83.65
         3        10.5863     -0.3197     12.9635      7.7433       27.37
         4        -8.5798     -0.2119      5.3635     -1.1427       94.55
         5        56.5461     82.6599    -74.3774     21.6095       84.28
 1/2[<0|r|b>*<b|rxdel|0> + (<0|rxdel|b>*<b|r|0>)*]
 Rotatory Strengths (R) in cgs (10**-40 erg-esu-cm/Gauss)
       state          XX          YY          ZZ     R(length)
         1       253.2153    977.1759  -1283.5749    -17.7279
         2       368.0285   -222.0309    -26.4845     39.8377
         3         5.2149     21.6557     -0.2856      8.8617
         4        24.0193      0.0040    -28.2330     -1.4032
         5        51.8137   -223.2080    257.4855     28.6971
  1/2[<0|del|b>*<b|r|0> + (<0|r|b>*<b|del|0>)*] (Au)
       state          X           Y           Z        Dip. S.   Osc.(frdel)
         1        -0.1785     -0.2152     -0.1138      0.5075      0.3383
         2        -0.0210     -0.1277     -0.0197      0.1684      0.1122
         3        -0.0000     -0.0008     -0.0000      0.0009      0.0006
         4        -0.0009     -0.0000     -0.0007      0.0016      0.0011
         5        -0.0106     -0.0413     -0.0107      0.0626      0.0418

 Excitation energies and oscillator strengths:
 
 Excited State   1:      Singlet-A      1.8878 eV  656.78 nm  f=0.3490  <S**2>=0.000
     245 -> 248       -0.14499
     246 -> 247        0.69236
 This state for optimization and/or second-order correction.
 Total Energy, E(TD-HF/TD-DFT) =  -3005.26795814    
 Copying the excited state density for this state as the 1-particle RhoCI density.
 
 Excited State   2:      Singlet-A      2.2310 eV  555.74 nm  f=0.1195  <S**2>=0.000
     245 -> 247        0.65875
     246 -> 248        0.22050
     246 -> 249        0.11290
 
 Excited State   3:      Singlet-A      3.0020 eV  413.01 nm  f=0.0007  <S**2>=0.000
     242 -> 247       -0.22092
     243 -> 247        0.64224
     243 -> 249        0.10886
 
 Excited State   4:      Singlet-A      3.1447 eV  394.27 nm  f=0.0013  <S**2>=0.000
     241 -> 247        0.10984
     242 -> 247        0.62857
     243 -> 247        0.22847
     246 -> 248       -0.18243
 
 Excited State   5:      Singlet-A      3.2293 eV  383.94 nm  f=0.0432  <S**2>=0.000
     240 -> 247        0.45911
     240 -> 248        0.16597
     240 -> 249       -0.13098
     241 -> 247       -0.33191
     246 -> 248       -0.31393
 SavETr:  write IOETrn=   770 NScale= 10 NData=  16 NLR=1 NState=    5 LETran=     100.
 Leave Link  914 at Fri Apr 29 06:04:08 2022, MaxMem= 10066329600 cpu:           23579.8 elap:             984.4
 (Enter /sw/apps/gaussian-16.0/g16/l601.exe)
 Copying SCF densities to generalized density rwf, IOpCl= 0 IROHF=0.
 Hyperfine terms turned off by default for NAtoms > 100.

 **********************************************************************

            Population analysis using the SCF density.

 **********************************************************************

 Orbital symmetries:
       Occupied  (A) (A) (A) (A) (A) (A) (A) (A) (A) (A) (A) (A)
                 (A) (A) (A) (A) (A) (A) (A) (A) (A) (A) (A) (A)
                 (A) (A) (A) (A) (A) (A) (A) (A) (A) (A) (A) (A)
                 (A) (A) (A) (A) (A) (A) (A) (A) (A) (A) (A) (A)
                 (A) (A) (A) (A) (A) (A) (A) (A) (A) (A) (A) (A)
                 (A) (A) (A) (A) (A) (A) (A) (A) (A) (A) (A) (A)
                 (A) (A) (A) (A) (A) (A) (A) (A) (A) (A) (A) (A)
                 (A) (A) (A) (A) (A) (A) (A) (A) (A) (A) (A) (A)
                 (A) (A) (A) (A) (A) (A) (A) (A) (A) (A) (A) (A)
                 (A) (A) (A) (A) (A) (A) (A) (A) (A) (A) (A) (A)
                 (A) (A) (A) (A) (A) (A) (A) (A) (A) (A) (A) (A)
                 (A) (A) (A) (A) (A) (A) (A) (A) (A) (A) (A) (A)
                 (A) (A) (A) (A) (A) (A) (A) (A) (A) (A) (A) (A)
                 (A) (A) (A) (A) (A) (A) (A) (A) (A) (A) (A) (A)
                 (A) (A) (A) (A) (A) (A) (A) (A) (A) (A) (A) (A)
                 (A) (A) (A) (A) (A) (A) (A) (A) (A) (A) (A) (A)
                 (A) (A) (A) (A) (A) (A) (A) (A) (A) (A) (A) (A)
                 (A) (A) (A) (A) (A) (A) (A) (A) (A) (A) (A) (A)
                 (A) (A) (A) (A) (A) (A) (A) (A) (A) (A) (A) (A)
                 (A) (A) (A) (A) (A) (A) (A) (A) (A) (A) (A) (A)
                 (A) (A) (A) (A) (A) (A)
       Virtual   (A) (A) (A) (A) (A) (A) (A) (A) (A) (A) (A) (A)
                 (A) (A) (A) (A) (A) (A) (A) (A) (A) (A) (A) (A)
                 (A) (A) (A) (A) (A) (A) (A) (A) (A) (A) (A) (A)
                 (A) (A) (A) (A) (A) (A) (A) (A) (A) (A) (A) (A)
                 (A) (A) (A) (A) (A) (A) (A) (A) (A) (A) (A) (A)
                 (A) (A) (A) (A) (A) (A) (A) (A) (A) (A) (A) (A)
                 (A) (A) (A) (A) (A) (A) (A) (A) (A) (A) (A) (A)
                 (A) (A) (A) (A) (A) (A) (A) (A) (A) (A) (A) (A)
                 (A) (A) (A) (A) (A) (A) (A) (A) (A) (A) (A) (A)
                 (A) (A) (A) (A) (A) (A) (A) (A) (A) (A) (A) (A)
                 (A) (A) (A) (A) (A) (A) (A) (A) (A) (A) (A) (A)
                 (A) (A) (A) (A) (A) (A) (A) (A) (A) (A) (A) (A)
[...]
 Alpha virt. eigenvalues --    1.13349   1.14226   1.14390   1.14672   1.15391
 Alpha virt. eigenvalues --    1.15502   1.15886   1.16170   1.16711   1.17739
 Alpha virt. eigenvalues --    1.17959   1.18625   1.19431   1.19594   1.19722
 Alpha virt. eigenvalues --    1.20103   1.20599   1.21099   1.21567   1.22156
 Alpha virt. eigenvalues --    1.22414   1.22887   1.23575   1.23760   1.24056
 Alpha virt. eigenvalues --    1.24355   1.24763   1.25210   1.25684   1.25952
 Alpha virt. eigenvalues --    1.26568   1.26999   1.27279   1.27924   1.27940
 Alpha virt. eigenvalues --    1.28407   1.28722   1.28843   1.29312   1.30013
 Alpha virt. eigenvalues --    1.30132   1.30611   1.31097   1.31245   1.31910
 Alpha virt. eigenvalues --    1.32434   1.33021   1.33272   1.33557   1.34167
 Alpha virt. eigenvalues --    1.34280   1.34771   1.35506   1.35782   1.35940
 Alpha virt. eigenvalues --    1.36388   1.36541   1.37328   1.37715   1.37947
 Alpha virt. eigenvalues --    1.38059   1.38363   1.38947   1.39138   1.39209
 Alpha virt. eigenvalues --    1.40275   1.40360   1.41059   1.41342   1.41992
 Alpha virt. eigenvalues --    1.42021   1.42530   1.43408   1.43588   1.43947
 Alpha virt. eigenvalues --    1.44896   1.45360   1.45642   1.46125   1.47133
 Alpha virt. eigenvalues --    1.47244   1.47981   1.48157   1.48458   1.48757
 Alpha virt. eigenvalues --    1.49530   1.49691   1.49734   1.50653   1.51043
 Alpha virt. eigenvalues --    1.51201   1.51868   1.51905   1.52082   1.52217
 Alpha virt. eigenvalues --    1.52443   1.52845   1.53531   1.53569   1.53783
 Alpha virt. eigenvalues --    1.53829   1.53949   1.54269   1.54452   1.54732
 Alpha virt. eigenvalues --    1.54757   1.54930   1.55194   1.55397   1.55934
 Alpha virt. eigenvalues --    1.56206   1.56463   1.56682   1.56952   1.57319
 Alpha virt. eigenvalues --    1.57589   1.57669   1.57834   1.58209   1.58278
 Alpha virt. eigenvalues --    1.58680   1.59032   1.59235   1.59751   1.60182
 Alpha virt. eigenvalues --    1.60735   1.61062   1.61556   1.61942   1.62043
 Alpha virt. eigenvalues --    1.63062   1.63813   1.64477   1.64680   1.64945
 Alpha virt. eigenvalues --    1.65517   1.66078   1.67061   1.67097   1.67433
 Alpha virt. eigenvalues --    1.67849   1.68728   1.69094   1.69608   1.69810
 Alpha virt. eigenvalues --    1.69945   1.70247   1.70608   1.70934   1.71177
 Alpha virt. eigenvalues --    1.71947   1.72137   1.72193   1.72418   1.73040
 Alpha virt. eigenvalues --    1.73235   1.73496   1.73643   1.73941   1.74322
 Alpha virt. eigenvalues --    1.74554   1.74772   1.74923   1.75226   1.75646
 Alpha virt. eigenvalues --    1.75869   1.76021   1.76302   1.76442   1.76478
 Alpha virt. eigenvalues --    1.76587   1.76631   1.77114   1.77215   1.77316
 Alpha virt. eigenvalues --    1.77381   1.78117   1.78300   1.78414   1.78451
 Alpha virt. eigenvalues --    1.78691   1.78831   1.79027   1.79238   1.79625
 Alpha virt. eigenvalues --    1.79722   1.79855   1.79888   1.80013   1.80261
 Alpha virt. eigenvalues --    1.80614   1.81060   1.81139   1.81259   1.81466
 Alpha virt. eigenvalues --    1.81677   1.81931   1.81988   1.82279   1.82557
 Alpha virt. eigenvalues --    1.82883   1.82969   1.83204   1.83252   1.83314
 Alpha virt. eigenvalues --    1.83324   1.83933   1.84002   1.84168   1.84301
 Alpha virt. eigenvalues --    1.84770   1.84873   1.85048   1.85227   1.85424
 Alpha virt. eigenvalues --    1.85572   1.85677   1.86061   1.86098   1.86598
 Alpha virt. eigenvalues --    1.86732   1.87025   1.87345   1.87814   1.88048
 Alpha virt. eigenvalues --    1.88356   1.88541   1.88866   1.88922   1.89397
 Alpha virt. eigenvalues --    1.89619   1.89818   1.90396   1.90416   1.90789
 Alpha virt. eigenvalues --    1.91158   1.91308   1.91475   1.92147   1.92240
 Alpha virt. eigenvalues --    1.92450   1.92585   1.92867   1.93036   1.93382
 Alpha virt. eigenvalues --    1.93746   1.93804   1.94030   1.94434   1.94461
 Alpha virt. eigenvalues --    1.94891   1.95035   1.95374   1.95441   1.95757
 Alpha virt. eigenvalues --    1.96034   1.96186   1.96446   1.96574   1.97121
 Alpha virt. eigenvalues --    1.97185   1.97464   1.97802   1.98200   1.98236
 Alpha virt. eigenvalues --    1.98705   1.98896   1.99061   1.99431   1.99515
 Alpha virt. eigenvalues --    1.99632   2.00205   2.00381   2.00572   2.00818
 Alpha virt. eigenvalues --    2.00954   2.01189   2.01453   2.01595   2.02057
 Alpha virt. eigenvalues --    2.02484   2.02602   2.02934   2.03860   2.04564
 Alpha virt. eigenvalues --    2.05117   2.05396   2.05620   2.05896   2.06080
 Alpha virt. eigenvalues --    2.06470   2.06777   2.07005   2.07169   2.07753
 Alpha virt. eigenvalues --    2.08021   2.08088   2.08377   2.08586   2.09029
 Alpha virt. eigenvalues --    2.09326   2.09553   2.10135   2.10145   2.10436
 Alpha virt. eigenvalues --    2.10702   2.10794   2.11108   2.11595   2.11661
 Alpha virt. eigenvalues --    2.12283   2.12762   2.12840   2.13187   2.13384
 Alpha virt. eigenvalues --    2.13626   2.14001   2.14257   2.14713   2.15052
 Alpha virt. eigenvalues --    2.15112   2.15338   2.16020   2.16368   2.17093
 Alpha virt. eigenvalues --    2.17448   2.17523   2.17764   2.18269   2.18638
 Alpha virt. eigenvalues --    2.19422   2.19802   2.20766   2.21146   2.21296
 Alpha virt. eigenvalues --    2.21541   2.22428   2.22573   2.22830   2.23103
 Alpha virt. eigenvalues --    2.23596   2.23835   2.24818   2.25113   2.25334
 Alpha virt. eigenvalues --    2.26283   2.26301   2.26787   2.26880   2.27021
 Alpha virt. eigenvalues --    2.27269   2.27568   2.28054   2.28369   2.28688
 Alpha virt. eigenvalues --    2.28800   2.28808   2.29560   2.29762   2.30400
 Alpha virt. eigenvalues --    2.31270   2.31789   2.32200   2.32827   2.33193
 Alpha virt. eigenvalues --    2.33290   2.33654   2.33744   2.34291   2.34862
 Alpha virt. eigenvalues --    2.35011   2.35591   2.36117   2.36164   2.36645
 Alpha virt. eigenvalues --    2.36785   2.37421   2.37486   2.37689   2.38089
 Alpha virt. eigenvalues --    2.38248   2.38629   2.39275   2.39597   2.40013
 Alpha virt. eigenvalues --    2.40346   2.40858   2.41221   2.41360   2.41699
 Alpha virt. eigenvalues --    2.41835   2.42040   2.42638   2.42716   2.42839
 Alpha virt. eigenvalues --    2.43359   2.44120   2.44341   2.44988   2.45396
 Alpha virt. eigenvalues --    2.46380   2.46458   2.46537   2.46909   2.47306
 Alpha virt. eigenvalues --    2.47925   2.48391   2.49101   2.49324   2.49556
 Alpha virt. eigenvalues --    2.49889   2.50221   2.50404   2.50985   2.51443
 Alpha virt. eigenvalues --    2.51590   2.52077   2.52141   2.52306   2.53102
 Alpha virt. eigenvalues --    2.53711   2.53816   2.54070   2.54251   2.55072
 Alpha virt. eigenvalues --    2.56207   2.56386   2.56814   2.57375   2.57511
 Alpha virt. eigenvalues --    2.57842   2.58063   2.58307   2.59016   2.59333
 Alpha virt. eigenvalues --    2.60057   2.60230   2.61096   2.61460   2.61486
 Alpha virt. eigenvalues --    2.61799   2.62232   2.63320   2.63517   2.63990
 Alpha virt. eigenvalues --    2.64310   2.64846   2.65105   2.65438   2.65919
 Alpha virt. eigenvalues --    2.66131   2.66183   2.66429   2.67192   2.67492
 Alpha virt. eigenvalues --    2.67734   2.68640   2.69556   2.69873   2.70039
 Alpha virt. eigenvalues --    2.70569   2.70673   2.70826   2.71059   2.71292
 Alpha virt. eigenvalues --    2.72045   2.72145   2.72274   2.72778   2.73099
 Alpha virt. eigenvalues --    2.74117   2.74555   2.74588   2.74893   2.75122
 Alpha virt. eigenvalues --    2.75691   2.76379   2.76630   2.77002   2.77050
 Alpha virt. eigenvalues --    2.77625   2.78237   2.78391   2.78924   2.80534
 Alpha virt. eigenvalues --    2.81062   2.82137   2.82691   2.82859   2.83475
 Alpha virt. eigenvalues --    2.84238   2.84624   2.85041   2.86330   2.86537
 Alpha virt. eigenvalues --    2.86680   2.87460   2.87925   2.88057   2.88914
 Alpha virt. eigenvalues --    2.89207   2.89505   2.89766   2.89885   2.90373
 Alpha virt. eigenvalues --    2.90457   2.90868   2.91510   2.92030   2.92120
 Alpha virt. eigenvalues --    2.92236   2.92424   2.93192   2.93833   2.94200
 Alpha virt. eigenvalues --    2.94481   2.94694   2.94779   2.95308   2.95738
 Alpha virt. eigenvalues --    2.95849   2.96251   2.96531   2.96755   2.97088
 Alpha virt. eigenvalues --    2.97223   2.97468   2.97498   2.97941   2.98148
 Alpha virt. eigenvalues --    2.98588   2.98865   2.99145   2.99427   2.99526
 Alpha virt. eigenvalues --    2.99902   3.00115   3.00359   3.01109   3.01551
 Alpha virt. eigenvalues --    3.01654   3.01998   3.02132   3.02877   3.03434
 Alpha virt. eigenvalues --    3.03631   3.03711   3.03767   3.04069   3.04552
 Alpha virt. eigenvalues --    3.05168   3.05482   3.05639   3.05970   3.06770
 Alpha virt. eigenvalues --    3.06834   3.07780   3.07850   3.08884   3.08902
 Alpha virt. eigenvalues --    3.10970   3.11399   3.12366   3.12526   3.12808
 Alpha virt. eigenvalues --    3.13104   3.13364   3.13740   3.14007   3.14343
 Alpha virt. eigenvalues --    3.14719   3.15652   3.15917   3.16954   3.17408
 Alpha virt. eigenvalues --    3.19221   3.19860   3.22374   3.24031   3.25106
 Alpha virt. eigenvalues --    3.26122   3.28363   3.35251   3.37793   3.40116
 Alpha virt. eigenvalues --    3.40901   3.43156   3.46236   3.49631   3.51100
 Alpha virt. eigenvalues --    3.55970   3.58490   3.58951   3.62928   3.65175
 Alpha virt. eigenvalues --    3.68988   3.74258
          Condensed to atoms (all electrons):
 Mulliken charges:
               1
     1  Mg   0.974162
     2  C   -0.048783
     3  C   -0.103323
     4  C   -0.094717
     5  C   -0.044358
     6  N   -0.365682
     7  C    0.027014
     8  C   -0.092287
     9  C   -0.097028
    10  C    0.067938
    11  C    0.021849
    12  C    0.007880
    13  C    0.012572
    14  C    0.207507
    15  O   -0.310692
    16  O   -0.326830
    17  N   -0.493052
    18  C    0.183241
    19  C   -0.160821
    20  C   -0.071047
    21  C    0.137572
    22  C    0.061661
    23  C    0.053073
    24  O   -0.260911
    25  C   -0.007282
    26  N   -0.362903
    27  C    0.134141
    28  C   -0.103637
    29  C   -0.115061
    30  C    0.044843
    31  C    0.005760
    32  C   -0.006979
    33  C   -0.049684
    34  N   -0.476859
    35  C    0.066999
    36  C   -0.148230
    37  C    0.003327
    38  C    0.187143
    39  C    0.050832
    40  C    0.072682
    41  O   -0.199611
    42  C   -0.156275
    43  C    0.322838
    44  O   -0.243363
    45  O   -0.367427
    46  C    0.126764
    47  C    0.264650
    48  C   -0.163602
    49  C   -0.236146
    50  C    0.031267
    51  C   -0.002484
    52  C   -0.036068
    53  C   -0.015642
    54  C   -0.210654
    55  C   -0.036900
    56  C   -0.019123
    57  C   -0.025726
    58  C    0.023115
    59  C   -0.222239
    60  C    0.019010
    61  C   -0.065504
    62  C   -0.040446
    63  C   -0.028143
    64  C   -0.258254
    65  C   -0.005902
    66  C   -0.007563
    67  H    0.008727
    68  H   -0.006154
    69  H   -0.004944
    70  H    0.039459
    71  H    0.046461
    72  H    0.031702
    73  H    0.061002
    74  H    0.054972
    75  H    0.035490
    76  H    0.061088
    77  H    0.058475
    78  H    0.064016
    79  H    0.022216
    80  H    0.066431
    81  H    0.060557
    82  H    0.066788
    83  H    0.092855
    84  H    0.055106
    85  H    0.049012
    86  H    0.044844
    87  H    0.040481
    88  H    0.045271
    89  H    0.033413
    90  H    0.049844
    91  H    0.036106
    92  H    0.037679
    93  H    0.048724
    94  H    0.057457
    95  H    0.062681
    96  H    0.045846
    97  H    0.048745
    98  H    0.060803
    99  H    0.062395
   100  H    0.064468
   101  H    0.047810
   102  H    0.062400
   103  H    0.059186
   104  H    0.028360
   105  H    0.056914
   106  H    0.062828
   107  H    0.043209
   108  H    0.032752
   109  H    0.026893
   110  H    0.033759
   111  H    0.038716
   112  H    0.023326
   113  H    0.023576
   114  H    0.037075
   115  H    0.024029
   116  H    0.027633
   117  H    0.039229
   118  H    0.032658
   119  H    0.020571
   120  H    0.026201
   121  H    0.010907
   122  H    0.021484
   123  H    0.037297
   124  H    0.030913
   125  H    0.031305
   126  H    0.032197
   127  H    0.038807
   128  H    0.041329
   129  H    0.037815
   130  H    0.026349
   131  H    0.029985
   132  H    0.027648
   133  H    0.030654
   134  H    0.032718
   135  H    0.032822
   136  H    0.015751
   137  H    0.037925
   138  H    0.038144
   139  H    0.034267
   140  H    0.035944
 Sum of Mulliken charges =  -0.00000
 Mulliken charges with hydrogens summed into heavy atoms:
               1
     1  Mg   0.974162
     2  C   -0.048783
     3  C   -0.094596
     4  C   -0.100871
     5  C   -0.049302
     6  N   -0.365682
     7  C    0.027014
     8  C   -0.052828
     9  C   -0.050567
    10  C    0.067938
    11  C    0.169524
    12  C    0.104458
    13  C    0.135064
    14  C    0.207507
    15  O   -0.310692
    16  O   -0.326830
    17  N   -0.493052
    18  C    0.183241
    19  C   -0.160821
    20  C   -0.071047
    21  C    0.137572
    22  C    0.210866
    23  C    0.053073
    24  O   -0.260911
    25  C    0.207468
    26  N   -0.362903
    27  C    0.134141
    28  C   -0.054625
    29  C   -0.070217
    30  C    0.044843
    31  C    0.124925
    32  C    0.078971
    33  C    0.094176
    34  N   -0.476859
    35  C    0.066999
    36  C   -0.148230
    37  C    0.003327
    38  C    0.187143
    39  C    0.208104
    40  C    0.072682
    41  O   -0.199611
    42  C   -0.095472
    43  C    0.322838
    44  O   -0.243363
    45  O   -0.367427
    46  C    0.301437
    47  C    0.386236
    48  C   -0.135243
    49  C   -0.236146
    50  C    0.194217
    51  C    0.057161
    52  C    0.036407
    53  C    0.031261
    54  C   -0.173579
    55  C    0.053991
    56  C    0.034105
    57  C    0.011382
    58  C    0.081896
    59  C   -0.191326
    60  C    0.121319
    61  C    0.013640
    62  C    0.015888
    63  C    0.030159
    64  C   -0.225536
    65  C    0.080596
    66  C    0.100791
 Electronic spatial extent (au):  <R**2>=         100970.7767
 Charge=             -0.0000 electrons
 Dipole moment (field-independent basis, Debye):
    X=              0.0614    Y=              3.1727    Z=             -1.4737  Tot=              3.4988
 Quadrupole moment (field-independent basis, Debye-Ang):
   XX=           -388.4930   YY=           -390.1100   ZZ=           -405.9430
   XY=            -58.3959   XZ=             -4.0863   YZ=            -13.1017
 Traceless Quadrupole moment (field-independent basis, Debye-Ang):
   XX=              6.3556   YY=              4.7387   ZZ=            -11.0943
   XY=            -58.3959   XZ=             -4.0863   YZ=            -13.1017
 Octapole moment (field-independent basis, Debye-Ang**2):
  XXX=            -81.6776  YYY=            -35.8765  ZZZ=            -49.7723  XYY=            -84.9856
  XXY=            223.8852  XXZ=             -7.2875  XZZ=            -57.0205  YZZ=            -18.8493
  YYZ=           -170.5666  XYZ=             73.6455
 Hexadecapole moment (field-independent basis, Debye-Ang**3):
 XXXX=         -97072.2289 YYYY=         -30727.0467 ZZZZ=          -9543.5636 XXXY=          -3323.7345
 XXXZ=            522.7351 YYYX=          -1604.9403 YYYZ=           -335.6051 ZZZX=            208.8487
 ZZZY=            -16.9358 XXYY=         -21722.8377 XXZZ=         -17273.7057 YYZZ=          -7363.7198
 XXYZ=           -731.7500 YYXZ=             16.8043 ZZXY=           -116.9283
 N-N= 9.732995823400D+03 E-N=-2.645688005819D+04  KE= 2.974334982989D+03
 Leave Link  601 at Fri Apr 29 06:04:09 2022, MaxMem= 10066329600 cpu:              12.5 elap:               0.6
 (Enter /sw/apps/gaussian-16.0/g16/l9999.exe)
 1\1\GINC-BP1-COMPUTE082\SP\RPBE1PBE TD-FC\def2SVP\C55H74Mg1N4O6\OF1564
 1\29-Apr-2022\0\\#p PBE1PBE/Def2SVP td=(nstates=5)\\step_1_chromophore
 _20 TDDFT with PBE1PBE functional\\0,1\Mg,0,7.142,57.546,41.517\C,0,6.
 289,54.207,41.287\C,0,10.288,56.721,40.389\C,0,7.812,60.897,41.169\C,0
 ,3.941,58.304,42.532\N,0,8.1,55.732,40.725\C,0,7.55,54.468,40.808\C,0,
 8.519,53.393,40.323\C,0,9.885,54.174,40.37\C,0,9.397,55.613,40.452\C,0
 ,10.941,53.738,41.484\C,0,8.181,52.719,38.955\C,0,8.311,51.211,38.915\
 C,0,9.481,50.759,38.055\O,0,10.648,50.529,38.453\O,0,9.037,50.311,36.8
 95\N,0,8.804,58.605,40.858\C,0,9.982,58.102,40.472\C,0,10.932,59.166,4
 0.197\C,0,10.335,60.402,40.381\C,0,8.908,60.029,40.772\C,0,12.414,58.8
 81,39.658\C,0,11.019,61.807,40.278\O,0,12.226,61.867,39.909\C,0,10.28,
 63.061,40.55\N,0,5.929,59.423,41.581\C,0,6.46,60.624,41.577\C,0,5.532,
 61.679,42.142\C,0,4.204,60.944,42.529\C,0,4.7,59.439,42.284\C,0,6.082,
 62.754,43.133\C,0,2.881,61.248,41.768\C,0,1.648,60.788,42.518\N,0,5.41
 3,56.462,41.842\C,0,4.167,56.898,42.349\C,0,3.349,55.736,42.566\C,0,4.
 139,54.62,42.197\C,0,5.339,55.156,41.738\C,0,2.016,55.69,43.298\C,0,4.
 117,53.243,42.147\O,0,3.288,52.392,42.322\C,0,5.501,52.882,41.394\C,0,
 5.071,52.591,39.957\O,0,4.832,53.425,39.105\O,0,4.992,51.213,39.836\C,
 0,4.488,50.713,38.561\C,0,9.964,49.732,35.89\C,0,10.131,50.617,34.63\C
 ,0,9.174,51.347,33.923\C,0,7.654,51.418,34.234\C,0,9.613,52.108,32.66\
 C,0,9.96,53.577,32.958\C,0,9.377,54.492,31.891\C,0,10.284,55.765,31.81
 4\C,0,9.312,56.923,31.358\C,0,11.555,55.538,30.907\C,0,12.754,56.423,3
 1.28\C,0,12.845,57.662,30.334\C,0,14.166,57.639,29.473\C,0,15.281,58.5
 09,30.013\C,0,13.754,57.999,28.019\C,0,14.952,57.589,27.052\C,0,15.103
 ,58.761,26.064\C,0,14.717,58.352,24.64\C,0,15.264,59.399,23.66\C,0,13.
 184,58.126,24.486\H,0,11.347,56.508,40.23\H,0,8.097,61.944,41.049\H,0,
 2.947,58.378,42.978\H,0,8.573,52.63,41.099\H,0,10.293,54.145,39.359\H,
 0,11.533,54.647,41.59\H,0,11.675,53.007,41.144\H,0,10.538,53.39,42.435
 \H,0,8.898,53.175,38.272\H,0,7.264,53.038,38.46\H,0,7.371,50.816,38.52
 9\H,0,8.48,50.78,39.902\H,0,12.65,57.831,39.48\H,0,13.156,59.279,40.35
 1\H,0,12.59,59.28,38.66\H,0,9.908,63.049,41.574\H,0,9.553,63.277,39.76
 7\H,0,11.064,63.813,40.63\H,0,5.091,62.357,41.411\H,0,4.061,60.881,43.
 608\H,0,7.169,62.679,43.08\H,0,5.659,62.687,44.136\H,0,5.859,63.782,42
 .847\H,0,2.992,60.797,40.782\H,0,2.91,62.325,41.603\H,0,0.837,61.471,4
 2.264\H,0,1.737,60.784,43.605\H,0,1.327,59.827,42.116\H,0,1.671,54.681
 ,43.524\H,0,1.289,56.228,42.691\H,0,2.068,56.222,44.248\H,0,6.049,52.1
 01,41.922\H,0,3.446,51.01,38.441\H,0,4.616,49.635,38.469\H,0,5.023,51.
 198,37.745\H,0,9.634,48.788,35.458\H,0,10.94,49.481,36.305\H,0,11.134,
 50.77,34.232\H,0,7.48,51.132,35.272\H,0,7.169,50.802,33.477\H,0,7.471,
 52.488,34.139\H,0,8.935,52.009,31.812\H,0,10.54,51.765,32.2\H,0,11.041
 ,53.71,32.99\H,0,9.59,53.889,33.935\H,0,8.346,54.762,32.119\H,0,9.212,
 54.006,30.93\H,0,10.556,56.13,32.804\H,0,8.546,56.538,30.684\H,0,9.834
 ,57.702,30.803\H,0,8.713,57.412,32.126\H,0,11.22,55.622,29.873\H,0,12.
 013,54.564,31.078\H,0,13.65,55.815,31.411\H,0,12.52,56.645,32.321\H,0,
 12.881,58.557,30.955\H,0,11.98,57.743,29.676\H,0,14.56,56.628,29.366\H
 ,0,15.293,59.404,29.391\H,0,16.216,57.965,29.884\H,0,15.24,58.794,31.0
 64\H,0,13.414,59.033,27.96\H,0,12.976,57.345,27.626\H,0,14.672,56.706,
 26.478\H,0,15.906,57.339,27.516\H,0,16.151,59.042,26.166\H,0,14.456,59
 .578,26.381\H,0,15.266,57.436,24.418\H,0,15.525,60.332,24.161\H,0,14.5
 95,59.803,22.9\H,0,16.032,58.881,23.086\H,0,12.99,57.054,24.458\H,0,12
 .774,58.545,23.567\H,0,12.658,58.616,25.305\\Version=ES64L-G16RevA.03\
 State=1-A\HF=-3005.3373319\RMSD=5.919e-09\PG=C01 [X(C55H74Mg1N4O6)]\\@


 IT IS A SIMPLE TASK TO MAKE THINGS COMPLEX,
 BUT A COMPLEX TASK TO MAKE THEM SIMPLE.
 Job cpu time:       0 days  8 hours 30 minutes 52.2 seconds.
 Elapsed time:       0 days  0 hours 21 minutes 21.2 seconds.
 File lengths (MBytes):  RWF=   8929 Int=      0 D2E=      0 Chk=    390 Scr=      1
 Normal termination of Gaussian 16 at Fri Apr 29 06:04:10 2022.
