 Entering Gaussian System, Link 0=g16
 Initial command:
 /sw/apps/gaussian-16.0/g16/l1.exe "/tmp/Gau-33441.inp" -scrdir="/tmp/"
 Entering Link 1 = /sw/apps/gaussian-16.0/g16/l1.exe PID=     33442.
  
 Copyright (c) 1988,1990,1992,1993,1995,1998,2003,2009,2016,
            Gaussian, Inc.  All Rights Reserved.
  
 This is part of the Gaussian(R) 16 program.  It is based on
 the Gaussian(R) 09 system (copyright 2009, Gaussian, Inc.),
 the Gaussian(R) 03 system (copyright 2003, Gaussian, Inc.),
 the Gaussian(R) 98 system (copyright 1998, Gaussian, Inc.),
 the Gaussian(R) 94 system (copyright 1995, Gaussian, Inc.),
 the Gaussian 92(TM) system (copyright 1992, Gaussian, Inc.),
 the Gaussian 90(TM) system (copyright 1990, Gaussian, Inc.),
 the Gaussian 88(TM) system (copyright 1988, Gaussian, Inc.),
 the Gaussian 86(TM) system (copyright 1986, Carnegie Mellon
 University), and the Gaussian 82(TM) system (copyright 1983,
 Carnegie Mellon University). Gaussian is a federally registered
 trademark of Gaussian, Inc.
  
 This software contains proprietary and confidential information,
 including trade secrets, belonging to Gaussian, Inc.
  
 This software is provided under written license and may be
 used, copied, transmitted, or stored only in accord with that
 written license.
  
 The following legend is applicable only to US Government
 contracts under FAR:
  
                    RESTRICTED RIGHTS LEGEND
  
 Use, reproduction and disclosure by the US Government is
 subject to restrictions as set forth in subparagraphs (a)
 and (c) of the Commercial Computer Software - Restricted
 Rights clause in FAR 52.227-19.
  
 Gaussian, Inc.
 340 Quinnipiac St., Bldg. 40, Wallingford CT 06492
  
  
 ---------------------------------------------------------------
 Warning -- This program may not be used in any manner that
 competes with the business of Gaussian, Inc. or will provide
 assistance to any competitor of Gaussian, Inc.  The licensee
 of this program is prohibited from giving any competitor of
 Gaussian, Inc. access to this program.  By using this program,
 the user acknowledges that Gaussian, Inc. is engaged in the
 business of creating and licensing software in the field of
 computational chemistry and represents and warrants to the
 licensee that it is not a competitor of Gaussian, Inc. and that
 it will not use this program in any manner prohibited above.
 ---------------------------------------------------------------
  

 Cite this work as:
 Gaussian 16, Revision A.03,
 M. J. Frisch, G. W. Trucks, H. B. Schlegel, G. E. Scuseria, 
 M. A. Robb, J. R. Cheeseman, G. Scalmani, V. Barone, 
 G. A. Petersson, H. Nakatsuji, X. Li, M. Caricato, A. V. Marenich, 
 J. Bloino, B. G. Janesko, R. Gomperts, B. Mennucci, H. P. Hratchian, 
 J. V. Ortiz, A. F. Izmaylov, J. L. Sonnenberg, D. Williams-Young, 
 F. Ding, F. Lipparini, F. Egidi, J. Goings, B. Peng, A. Petrone, 
 T. Henderson, D. Ranasinghe, V. G. Zakrzewski, J. Gao, N. Rega, 
 G. Zheng, W. Liang, M. Hada, M. Ehara, K. Toyota, R. Fukuda, 
 J. Hasegawa, M. Ishida, T. Nakajima, Y. Honda, O. Kitao, H. Nakai, 
 T. Vreven, K. Throssell, J. A. Montgomery, Jr., J. E. Peralta, 
 F. Ogliaro, M. J. Bearpark, J. J. Heyd, E. N. Brothers, K. N. Kudin, 
 V. N. Staroverov, T. A. Keith, R. Kobayashi, J. Normand, 
 K. Raghavachari, A. P. Rendell, J. C. Burant, S. S. Iyengar, 
 J. Tomasi, M. Cossi, J. M. Millam, M. Klene, C. Adamo, R. Cammi, 
 J. W. Ochterski, R. L. Martin, K. Morokuma, O. Farkas, 
 J. B. Foresman, and D. J. Fox, Gaussian, Inc., Wallingford CT, 2016.
 
 ******************************************
 Gaussian 16:  ES64L-G16RevA.03 25-Dec-2016
                 5-May-2022 
 ******************************************
 %nproc=24
 Will use up to   24 processors via shared memory.
 %mem=75GB
 ---------------------------------
 #p PBE1PBE/Def2SVP td=(nstates=5)
 ---------------------------------
 1/38=1,172=1/1;
 2/12=2,17=6,18=5,40=1/2;
 3/5=43,7=101,11=9,25=1,30=1,74=-13/1,2,3,8;
 4//1;
 5/5=2,38=5/2;
 8/6=1,10=1,108=5/1;
 9/41=5,42=1,70=2/14;
 6/7=2,8=2,9=2,10=2/1;
 99/5=1,9=1/99;
 Leave Link    1 at Thu May  5 03:36:53 2022, MaxMem= 10066329600 cpu:               0.4 elap:               0.0
 (Enter /sw/apps/gaussian-16.0/g16/l101.exe)
 -----------------------------------------------------
 step_601_chromophore_10 TDDFT with PBE1PBE functional
 -----------------------------------------------------
 Symbolic Z-matrix:
 Charge =  0 Multiplicity = 1
 Mg                    41.115    7.502     29.435 
 C                     42.635    9.055     32.094 
 C                     38.925    5.993     31.579 
 C                     39.757    6.068     26.784 
 C                     43.726    8.843     27.29 
 N                     41.012    7.372     31.593 
 C                     41.61     8.2       32.51 
 C                     40.949    7.998     33.88 
 C                     39.992    6.772     33.672 
 C                     39.943    6.614     32.148 
 C                     40.571    5.445     34.289 
 C                     40.199    9.282     34.203 
 C                     40.196    9.684     35.707 
 C                     40.856    11.054    36.02 
 O                     41.659    11.665    35.277 
 O                     40.332    11.607    37.228 
 N                     39.6      6.265     29.212 
 C                     38.7      5.876     30.224 
 C                     37.539    5.184     29.606 
 C                     37.819    5.217     28.186 
 C                     39.08     5.853     28.006 
 C                     36.393    4.427     30.384 
 C                     36.885    4.771     27.008 
 O                     37.225    4.832     25.815 
 C                     35.516    4.462     27.422 
 N                     41.761    7.45      27.327 
 C                     40.93     6.821     26.497 
 C                     41.433    6.929     25.005 
 C                     42.605    7.91      25.153 
 C                     42.71     8.116     26.643 
 C                     41.779    5.573     24.325 
 C                     42.495    9.173     24.358 
 C                     41.329    10.143    24.55 
 N                     42.83     8.72      29.662 
 C                     43.786    9.171     28.745 
 C                     44.722    10.019    29.415 
 C                     44.327    10.016    30.718 
 C                     43.148    9.194     30.814 
 C                     45.914    10.711    28.728 
 C                     44.61     10.506    32.059 
 O                     45.475    11.276    32.454 
 C                     43.476    9.857     32.989 
 C                     44.041    8.879     33.987 
 O                     44.905    8.015     33.726 
 O                     43.723    9.202     35.285 
 C                     44.184    8.446     36.538 
 C                     40.79     12.97     37.603 
 C                     40.339    13.188    39.082 
 C                     41.066    12.864    40.184 
 C                     42.463    12.232    40.129 
 C                     40.494    13.065    41.597 
 C                     39.275    12.263    42.025 
 C                     39.468    10.999    42.88 
 C                     38.595    11.094    44.164 
 C                     39.215    10.319    45.369 
 C                     37.114    10.733    43.906 
 C                     36.081    11.88     44.311 
 C                     35.489    12.657    43.158 
 C                     33.921    12.695    43.302 
 C                     33.23     12.944    41.974 
 C                     33.522    13.82     44.332 
 C                     32.765    13.252    45.53 
 C                     33.357    13.787    46.901 
 C                     33.921    12.67     47.773 
 C                     33.379    12.711    49.278 
 C                     35.526    12.535    47.79 
 H                     38.163    5.693     32.302 
 H                     39.459    5.551     25.87 
 H                     44.403    9.407     26.645 
 H                     41.681    7.764     34.652 
 H                     39.052    6.918     34.204 
 H                     40.598    4.638     33.556 
 H                     39.863    5.171     35.07 
 H                     41.513    5.447     34.837 
 H                     39.148    9.242     33.916 
 H                     40.633    10.067    33.583 
 H                     40.786    8.949     36.253 
 H                     39.171    9.615     36.073 
 H                     36.438    4.459     31.472 
 H                     36.287    3.432     29.951 
 H                     35.456    4.938     30.161 
 H                     34.973    4.216     26.51 
 H                     35.039    5.32      27.896 
 H                     35.616    3.522     27.966 
 H                     40.572    7.364     24.499 
 H                     43.548    7.515     24.773 
 H                     41.315    4.763     24.887 
 H                     42.863    5.485     24.252 
 H                     41.277    5.505     23.36 
 H                     42.401    8.8       23.338 
 H                     43.435    9.723     24.333 
 H                     40.665    10.109    23.687 
 H                     41.63     11.178    24.713 
 H                     40.657    9.965     25.389 
 H                     46.444    11.472    29.299 
 H                     45.567    11.237    27.838 
 H                     46.691    9.987     28.481 
 H                     43.127    10.719    33.558 
 H                     44.799    9.048     37.207 
 H                     44.744    7.572     36.203 
 H                     43.412    8.019     37.178 
 H                     40.333    13.78     37.033 
 H                     41.849    13.207    37.501 
 H                     39.305    13.532    39.116 
 H                     42.365    11.371    40.79 
 H                     43.22     12.886    40.562 
 H                     42.74     11.92     39.122 
 H                     40.317    14.128    41.763 
 H                     41.309    12.85     42.287 
 H                     38.81     11.84     41.135 
 H                     38.502    12.918    42.426 
 H                     40.521    10.777    43.055 
 H                     39.08     10.129    42.352 
 H                     38.6      12.132    44.497 
 H                     38.654    10.269    46.303 
 H                     39.995    10.999    45.713 
 H                     39.725    9.378     45.162 
 H                     36.932    9.769     44.381 
 H                     36.91     10.465    42.87 
 H                     36.648    12.546    44.961 
 H                     35.329    11.399    44.936 
 H                     35.806    12.123    42.262 
 H                     35.834    13.684    43.044 
 H                     33.655    11.668    43.553 
 H                     32.63     12.05     41.802 
 H                     34.       13.208    41.25 
 H                     32.529    13.778    41.955 
 H                     32.828    14.553    43.92 
 H                     34.365    14.398    44.711 
 H                     32.79     12.17     45.655 
 H                     31.726    13.572    45.459 
 H                     32.566    14.31     47.439 
 H                     34.149    14.522    46.758 
 H                     33.55     11.713    47.404 
 H                     34.079    12.35     50.031 
 H                     32.498    12.083    49.413 
 H                     33.176    13.746    49.553 
 H                     35.856    12.496    48.828 
 H                     35.992    13.399    47.317 
 H                     35.887    11.666    47.239 
 
 ITRead=  0  0  0  0  0  0  0  0  0  0  0  0  0  0  0  0  0  0  0  0
 ITRead=  0  0  0  0  0  0  0  0  0  0  0  0  0  0  0  0  0  0  0  0
 ITRead=  0  0  0  0  0  0  0  0  0  0  0  0  0  0  0  0  0  0  0  0
 ITRead=  0  0  0  0  0  0  0  0  0  0  0  0  0  0  0  0  0  0  0  0
 ITRead=  0  0  0  0  0  0  0  0  0  0  0  0  0  0  0  0  0  0  0  0
 ITRead=  0  0  0  0  0  0  0  0  0  0  0  0  0  0  0  0  0  0  0  0
 ITRead=  0  0  0  0  0  0  0  0  0  0  0  0  0  0  0  0  0  0  0  0
 MicOpt= -1 -1 -1 -1 -1 -1 -1 -1 -1 -1 -1 -1 -1 -1 -1 -1 -1 -1 -1 -1
 MicOpt= -1 -1 -1 -1 -1 -1 -1 -1 -1 -1 -1 -1 -1 -1 -1 -1 -1 -1 -1 -1
 MicOpt= -1 -1 -1 -1 -1 -1 -1 -1 -1 -1 -1 -1 -1 -1 -1 -1 -1 -1 -1 -1
 MicOpt= -1 -1 -1 -1 -1 -1 -1 -1 -1 -1 -1 -1 -1 -1 -1 -1 -1 -1 -1 -1
 MicOpt= -1 -1 -1 -1 -1 -1 -1 -1 -1 -1 -1 -1 -1 -1 -1 -1 -1 -1 -1 -1
 MicOpt= -1 -1 -1 -1 -1 -1 -1 -1 -1 -1 -1 -1 -1 -1 -1 -1 -1 -1 -1 -1
 MicOpt= -1 -1 -1 -1 -1 -1 -1 -1 -1 -1 -1 -1 -1 -1 -1 -1 -1 -1 -1 -1
 NAtoms=    140 NQM=      140 NQMF=       0 NMMI=      0 NMMIF=      0
                NMic=       0 NMicF=      0.
                    Isotopes and Nuclear Properties:
 (Nuclear quadrupole moments (NQMom) in fm**2, nuclear magnetic moments (NMagM)
  in nuclear magnetons)

  Atom         1           2           3           4           5           6           7           8           9          10
 IAtWgt=          24          12          12          12          12          14          12          12          12          12
 AtmWgt=  23.9850450  12.0000000  12.0000000  12.0000000  12.0000000  14.0030740  12.0000000  12.0000000  12.0000000  12.0000000
 NucSpn=           0           0           0           0           0           2           0           0           0           0
 AtZEff=  -0.0000000  -0.0000000  -0.0000000  -0.0000000  -0.0000000  -0.0000000  -0.0000000  -0.0000000  -0.0000000  -0.0000000
 NQMom=    0.0000000   0.0000000   0.0000000   0.0000000   0.0000000   2.0440000   0.0000000   0.0000000   0.0000000   0.0000000
 NMagM=    0.0000000   0.0000000   0.0000000   0.0000000   0.0000000   0.4037610   0.0000000   0.0000000   0.0000000   0.0000000
 AtZNuc=  12.0000000   6.0000000   6.0000000   6.0000000   6.0000000   7.0000000   6.0000000   6.0000000   6.0000000   6.0000000

  Atom        11          12          13          14          15          16          17          18          19          20
 IAtWgt=          12          12          12          12          16          16          14          12          12          12
 AtmWgt=  12.0000000  12.0000000  12.0000000  12.0000000  15.9949146  15.9949146  14.0030740  12.0000000  12.0000000  12.0000000
 NucSpn=           0           0           0           0           0           0           2           0           0           0
 AtZEff=  -0.0000000  -0.0000000  -0.0000000  -0.0000000  -0.0000000  -0.0000000  -0.0000000  -0.0000000  -0.0000000  -0.0000000
 NQMom=    0.0000000   0.0000000   0.0000000   0.0000000   0.0000000   0.0000000   2.0440000   0.0000000   0.0000000   0.0000000
 NMagM=    0.0000000   0.0000000   0.0000000   0.0000000   0.0000000   0.0000000   0.4037610   0.0000000   0.0000000   0.0000000
 AtZNuc=   6.0000000   6.0000000   6.0000000   6.0000000   8.0000000   8.0000000   7.0000000   6.0000000   6.0000000   6.0000000

  Atom        21          22          23          24          25          26          27          28          29          30
 IAtWgt=          12          12          12          16          12          14          12          12          12          12
 AtmWgt=  12.0000000  12.0000000  12.0000000  15.9949146  12.0000000  14.0030740  12.0000000  12.0000000  12.0000000  12.0000000
 NucSpn=           0           0           0           0           0           2           0           0           0           0
 AtZEff=  -0.0000000  -0.0000000  -0.0000000  -0.0000000  -0.0000000  -0.0000000  -0.0000000  -0.0000000  -0.0000000  -0.0000000
 NQMom=    0.0000000   0.0000000   0.0000000   0.0000000   0.0000000   2.0440000   0.0000000   0.0000000   0.0000000   0.0000000
 NMagM=    0.0000000   0.0000000   0.0000000   0.0000000   0.0000000   0.4037610   0.0000000   0.0000000   0.0000000   0.0000000
 AtZNuc=   6.0000000   6.0000000   6.0000000   8.0000000   6.0000000   7.0000000   6.0000000   6.0000000   6.0000000   6.0000000

  Atom        31          32          33          34          35          36          37          38          39          40
 IAtWgt=          12          12          12          14          12          12          12          12          12          12
 AtmWgt=  12.0000000  12.0000000  12.0000000  14.0030740  12.0000000  12.0000000  12.0000000  12.0000000  12.0000000  12.0000000
 NucSpn=           0           0           0           2           0           0           0           0           0           0
 AtZEff=  -0.0000000  -0.0000000  -0.0000000  -0.0000000  -0.0000000  -0.0000000  -0.0000000  -0.0000000  -0.0000000  -0.0000000
 NQMom=    0.0000000   0.0000000   0.0000000   2.0440000   0.0000000   0.0000000   0.0000000   0.0000000   0.0000000   0.0000000
 NMagM=    0.0000000   0.0000000   0.0000000   0.4037610   0.0000000   0.0000000   0.0000000   0.0000000   0.0000000   0.0000000
 AtZNuc=   6.0000000   6.0000000   6.0000000   7.0000000   6.0000000   6.0000000   6.0000000   6.0000000   6.0000000   6.0000000

  Atom        41          42          43          44          45          46          47          48          49          50
 IAtWgt=          16          12          12          16          16          12          12          12          12          12
 AtmWgt=  15.9949146  12.0000000  12.0000000  15.9949146  15.9949146  12.0000000  12.0000000  12.0000000  12.0000000  12.0000000
 NucSpn=           0           0           0           0           0           0           0           0           0           0
 AtZEff=  -0.0000000  -0.0000000  -0.0000000  -0.0000000  -0.0000000  -0.0000000  -0.0000000  -0.0000000  -0.0000000  -0.0000000
 NQMom=    0.0000000   0.0000000   0.0000000   0.0000000   0.0000000   0.0000000   0.0000000   0.0000000   0.0000000   0.0000000
 NMagM=    0.0000000   0.0000000   0.0000000   0.0000000   0.0000000   0.0000000   0.0000000   0.0000000   0.0000000   0.0000000
 AtZNuc=   8.0000000   6.0000000   6.0000000   8.0000000   8.0000000   6.0000000   6.0000000   6.0000000   6.0000000   6.0000000

  Atom        51          52          53          54          55          56          57          58          59          60
 IAtWgt=          12          12          12          12          12          12          12          12          12          12
 AtmWgt=  12.0000000  12.0000000  12.0000000  12.0000000  12.0000000  12.0000000  12.0000000  12.0000000  12.0000000  12.0000000
 NucSpn=           0           0           0           0           0           0           0           0           0           0
 AtZEff=  -0.0000000  -0.0000000  -0.0000000  -0.0000000  -0.0000000  -0.0000000  -0.0000000  -0.0000000  -0.0000000  -0.0000000
 NQMom=    0.0000000   0.0000000   0.0000000   0.0000000   0.0000000   0.0000000   0.0000000   0.0000000   0.0000000   0.0000000
 NMagM=    0.0000000   0.0000000   0.0000000   0.0000000   0.0000000   0.0000000   0.0000000   0.0000000   0.0000000   0.0000000
 AtZNuc=   6.0000000   6.0000000   6.0000000   6.0000000   6.0000000   6.0000000   6.0000000   6.0000000   6.0000000   6.0000000

  Atom        61          62          63          64          65          66          67          68          69          70
 IAtWgt=          12          12          12          12          12          12           1           1           1           1
 AtmWgt=  12.0000000  12.0000000  12.0000000  12.0000000  12.0000000  12.0000000   1.0078250   1.0078250   1.0078250   1.0078250
 NucSpn=           0           0           0           0           0           0           1           1           1           1
 AtZEff=  -0.0000000  -0.0000000  -0.0000000  -0.0000000  -0.0000000  -0.0000000  -0.0000000  -0.0000000  -0.0000000  -0.0000000
 NQMom=    0.0000000   0.0000000   0.0000000   0.0000000   0.0000000   0.0000000   0.0000000   0.0000000   0.0000000   0.0000000
 NMagM=    0.0000000   0.0000000   0.0000000   0.0000000   0.0000000   0.0000000   2.7928460   2.7928460   2.7928460   2.7928460
 AtZNuc=   6.0000000   6.0000000   6.0000000   6.0000000   6.0000000   6.0000000   1.0000000   1.0000000   1.0000000   1.0000000

  Atom        71          72          73          74          75          76          77          78          79          80
 IAtWgt=           1           1           1           1           1           1           1           1           1           1
 AtmWgt=   1.0078250   1.0078250   1.0078250   1.0078250   1.0078250   1.0078250   1.0078250   1.0078250   1.0078250   1.0078250
 NucSpn=           1           1           1           1           1           1           1           1           1           1
 AtZEff=  -0.0000000  -0.0000000  -0.0000000  -0.0000000  -0.0000000  -0.0000000  -0.0000000  -0.0000000  -0.0000000  -0.0000000
 NQMom=    0.0000000   0.0000000   0.0000000   0.0000000   0.0000000   0.0000000   0.0000000   0.0000000   0.0000000   0.0000000
 NMagM=    2.7928460   2.7928460   2.7928460   2.7928460   2.7928460   2.7928460   2.7928460   2.7928460   2.7928460   2.7928460
 AtZNuc=   1.0000000   1.0000000   1.0000000   1.0000000   1.0000000   1.0000000   1.0000000   1.0000000   1.0000000   1.0000000

  Atom        81          82          83          84          85          86          87          88          89          90
 IAtWgt=           1           1           1           1           1           1           1           1           1           1
 AtmWgt=   1.0078250   1.0078250   1.0078250   1.0078250   1.0078250   1.0078250   1.0078250   1.0078250   1.0078250   1.0078250
 NucSpn=           1           1           1           1           1           1           1           1           1           1
 AtZEff=  -0.0000000  -0.0000000  -0.0000000  -0.0000000  -0.0000000  -0.0000000  -0.0000000  -0.0000000  -0.0000000  -0.0000000
 NQMom=    0.0000000   0.0000000   0.0000000   0.0000000   0.0000000   0.0000000   0.0000000   0.0000000   0.0000000   0.0000000
 NMagM=    2.7928460   2.7928460   2.7928460   2.7928460   2.7928460   2.7928460   2.7928460   2.7928460   2.7928460   2.7928460
 AtZNuc=   1.0000000   1.0000000   1.0000000   1.0000000   1.0000000   1.0000000   1.0000000   1.0000000   1.0000000   1.0000000

  Atom        91          92          93          94          95          96          97          98          99         100
 IAtWgt=           1           1           1           1           1           1           1           1           1           1
 AtmWgt=   1.0078250   1.0078250   1.0078250   1.0078250   1.0078250   1.0078250   1.0078250   1.0078250   1.0078250   1.0078250
 NucSpn=           1           1           1           1           1           1           1           1           1           1
 AtZEff=  -0.0000000  -0.0000000  -0.0000000  -0.0000000  -0.0000000  -0.0000000  -0.0000000  -0.0000000  -0.0000000  -0.0000000
 NQMom=    0.0000000   0.0000000   0.0000000   0.0000000   0.0000000   0.0000000   0.0000000   0.0000000   0.0000000   0.0000000
 NMagM=    2.7928460   2.7928460   2.7928460   2.7928460   2.7928460   2.7928460   2.7928460   2.7928460   2.7928460   2.7928460
 AtZNuc=   1.0000000   1.0000000   1.0000000   1.0000000   1.0000000   1.0000000   1.0000000   1.0000000   1.0000000   1.0000000

  Atom       101         102         103         104         105         106         107         108         109         110
 IAtWgt=           1           1           1           1           1           1           1           1           1           1
 AtmWgt=   1.0078250   1.0078250   1.0078250   1.0078250   1.0078250   1.0078250   1.0078250   1.0078250   1.0078250   1.0078250
 NucSpn=           1           1           1           1           1           1           1           1           1           1
 AtZEff=  -0.0000000  -0.0000000  -0.0000000  -0.0000000  -0.0000000  -0.0000000  -0.0000000  -0.0000000  -0.0000000  -0.0000000
 NQMom=    0.0000000   0.0000000   0.0000000   0.0000000   0.0000000   0.0000000   0.0000000   0.0000000   0.0000000   0.0000000
 NMagM=    2.7928460   2.7928460   2.7928460   2.7928460   2.7928460   2.7928460   2.7928460   2.7928460   2.7928460   2.7928460
 AtZNuc=   1.0000000   1.0000000   1.0000000   1.0000000   1.0000000   1.0000000   1.0000000   1.0000000   1.0000000   1.0000000

  Atom       111         112         113         114         115         116         117         118         119         120
 IAtWgt=           1           1           1           1           1           1           1           1           1           1
 AtmWgt=   1.0078250   1.0078250   1.0078250   1.0078250   1.0078250   1.0078250   1.0078250   1.0078250   1.0078250   1.0078250
 NucSpn=           1           1           1           1           1           1           1           1           1           1
 AtZEff=  -0.0000000  -0.0000000  -0.0000000  -0.0000000  -0.0000000  -0.0000000  -0.0000000  -0.0000000  -0.0000000  -0.0000000
 NQMom=    0.0000000   0.0000000   0.0000000   0.0000000   0.0000000   0.0000000   0.0000000   0.0000000   0.0000000   0.0000000
 NMagM=    2.7928460   2.7928460   2.7928460   2.7928460   2.7928460   2.7928460   2.7928460   2.7928460   2.7928460   2.7928460
 AtZNuc=   1.0000000   1.0000000   1.0000000   1.0000000   1.0000000   1.0000000   1.0000000   1.0000000   1.0000000   1.0000000

  Atom       121         122         123         124         125         126         127         128         129         130
 IAtWgt=           1           1           1           1           1           1           1           1           1           1
 AtmWgt=   1.0078250   1.0078250   1.0078250   1.0078250   1.0078250   1.0078250   1.0078250   1.0078250   1.0078250   1.0078250
 NucSpn=           1           1           1           1           1           1           1           1           1           1
 AtZEff=  -0.0000000  -0.0000000  -0.0000000  -0.0000000  -0.0000000  -0.0000000  -0.0000000  -0.0000000  -0.0000000  -0.0000000
 NQMom=    0.0000000   0.0000000   0.0000000   0.0000000   0.0000000   0.0000000   0.0000000   0.0000000   0.0000000   0.0000000
 NMagM=    2.7928460   2.7928460   2.7928460   2.7928460   2.7928460   2.7928460   2.7928460   2.7928460   2.7928460   2.7928460
 AtZNuc=   1.0000000   1.0000000   1.0000000   1.0000000   1.0000000   1.0000000   1.0000000   1.0000000   1.0000000   1.0000000

  Atom       131         132         133         134         135         136         137         138         139         140
 IAtWgt=           1           1           1           1           1           1           1           1           1           1
 AtmWgt=   1.0078250   1.0078250   1.0078250   1.0078250   1.0078250   1.0078250   1.0078250   1.0078250   1.0078250   1.0078250
 NucSpn=           1           1           1           1           1           1           1           1           1           1
 AtZEff=  -0.0000000  -0.0000000  -0.0000000  -0.0000000  -0.0000000  -0.0000000  -0.0000000  -0.0000000  -0.0000000  -0.0000000
 NQMom=    0.0000000   0.0000000   0.0000000   0.0000000   0.0000000   0.0000000   0.0000000   0.0000000   0.0000000   0.0000000
 NMagM=    2.7928460   2.7928460   2.7928460   2.7928460   2.7928460   2.7928460   2.7928460   2.7928460   2.7928460   2.7928460
 AtZNuc=   1.0000000   1.0000000   1.0000000   1.0000000   1.0000000   1.0000000   1.0000000   1.0000000   1.0000000   1.0000000
 Leave Link  101 at Thu May  5 03:36:53 2022, MaxMem= 10066329600 cpu:               3.7 elap:               0.2
 (Enter /sw/apps/gaussian-16.0/g16/l202.exe)
 Stoichiometry    C55H74MgN4O6
 Framework group  C1[X(C55H74MgN4O6)]
 Deg. of freedom   414
 Full point group                 C1      NOp   1
 Largest Abelian subgroup         C1      NOp   1
 Largest concise Abelian subgroup C1      NOp   1
                         Standard orientation:                         
 ---------------------------------------------------------------------
 Center     Atomic      Atomic             Coordinates (Angstroms)
 Number     Number       Type             X           Y           Z
 ---------------------------------------------------------------------
      1         12           0        5.696614    0.486363   -0.134113
      2          6           0        3.245741   -1.915865   -0.256629
      3          6           0        3.532991    2.751410   -1.497276
      4          6           0        8.152343    2.692966    0.035056
      5          6           0        8.025320   -2.089192    0.943047
      6          7           0        3.720160    0.307443   -0.997877
      7          6           0        2.814398   -0.706706   -0.810329
      8          6           0        1.426507   -0.235163   -1.264236
      9          6           0        1.690719    1.157912   -1.936339
     10          6           0        3.121838    1.495765   -1.503102
     11          6           0        1.653421    1.084694   -3.507996
     12          6           0        0.563885   -0.131838   -0.014959
     13          6           0       -0.931075   -0.519338   -0.211342
     14          6           0       -1.414692   -1.719443    0.646756
     15          8           0       -0.677025   -2.579976    1.181087
     16          8           0       -2.824916   -1.654755    0.862931
     17          7           0        5.821872    2.388724   -0.624475
     18          6           0        4.748238    3.205626   -1.031228
     19          6           0        5.184211    4.626381   -1.021712
     20          6           0        6.558584    4.574405   -0.569733
     21          6           0        6.899644    3.206487   -0.370994
     22          6           0        4.359117    5.850090   -1.581538
     23          6           0        7.504461    5.774673   -0.218123
     24          8           0        8.679144    5.623089    0.155657
     25          6           0        6.827401    7.071319   -0.181547
     26          7           0        7.829216    0.242935    0.372283
     27          6           0        8.534728    1.372696    0.403806
     28          6           0       10.016739    1.100135    0.872944
     29          6           0        9.935696   -0.377649    1.282134
     30          6           0        8.538148   -0.780392    0.884369
     31          6           0       11.114718    1.443730   -0.174546
     32          6           0       10.285328   -0.673943    2.706656
     33          6           0        9.514113   -0.048221    3.868989
     34          7           0        5.628793   -1.588976    0.271653
     35          6           0        6.613528   -2.495886    0.679131
     36          6           0        6.023644   -3.785434    0.861347
     37          6           0        4.716391   -3.624515    0.516328
     38          6           0        4.527058   -2.241970    0.159029
     39          6           0        6.795965   -5.037760    1.316206
     40          6           0        3.426704   -4.280947    0.360531
     41          8           0        3.091439   -5.433372    0.598574
     42          6           0        2.435263   -3.134952   -0.164632
     43          6           0        1.946974   -3.395187   -1.566618
     44          8           0        2.667885   -3.781762   -2.511055
     45          8           0        0.575354   -3.435787   -1.651873
     46          6           0       -0.237987   -3.731244   -2.918857
     47          6           0       -3.419983   -2.679410    1.759667
     48          6           0       -4.965987   -2.584648    1.561529
     49          6           0       -5.686128   -3.273093    0.636678
     50          6           0       -5.070147   -4.265287   -0.358399
     51          6           0       -7.200526   -3.052495    0.488061
     52          6           0       -7.711773   -1.692032    0.040717
     53          6           0       -8.093109   -1.479109   -1.434144
     54          6           0       -9.543549   -0.924795   -1.527793
     55          6           0      -10.263101   -1.348481   -2.846803
     56          6           0       -9.619706    0.595030   -1.254706
     57          6           0      -10.598706    0.996752   -0.060176
     58          6           0       -9.919693    1.386582    1.232332
     59          6           0      -10.500403    2.761588    1.735262
     60          6           0       -9.541646    3.482196    2.665088
     61          6           0      -11.870822    2.507253    2.472141
     62          6           0      -13.025842    3.240367    1.794387
     63          6           0      -14.269321    2.282782    1.563905
     64          6           0      -14.603491    2.099080    0.087168
     65          6           0      -16.149687    2.344057   -0.244093
     66          6           0      -14.133536    0.706078   -0.571032
     67          1           0        2.738858    3.451220   -1.767445
     68          1           0        9.052810    3.309671    0.017038
     69          1           0        8.650761   -2.831829    1.442810
     70          1           0        0.986145   -0.915157   -1.992421
     71          1           0        0.898706    1.864917   -1.689763
     72          1           0        2.558714    1.499710   -3.952376
     73          1           0        0.813833    1.716543   -3.794631
     74          1           0        1.412120    0.153047   -4.019346
     75          1           0        0.545370    0.874201    0.404699
     76          1           0        1.037173   -0.749497    0.748897
     77          1           0       -1.064308   -0.833163   -1.245849
     78          1           0       -1.534562    0.376860   -0.063103
     79          1           0        3.362643    5.632816   -1.964454
     80          1           0        5.003665    6.416406   -2.254289
     81          1           0        4.160702    6.519165   -0.743809
     82          1           0        7.582424    7.797876    0.117055
     83          1           0        6.020404    7.079754    0.551292
     84          1           0        6.616083    7.282684   -1.230454
     85          1           0       10.120784    1.774331    1.722189
     86          1           0       10.657914   -1.008698    0.762660
     87          1           0       10.693309    2.107328   -0.929060
     88          1           0       11.508900    0.514327   -0.585592
     89          1           0       11.880517    2.068758    0.284525
     90          1           0       11.300235   -0.283730    2.784517
     91          1           0       10.418142   -1.741018    2.881115
     92          1           0       10.131481    0.693498    4.374491
     93          1           0        9.161112   -0.765842    4.609802
     94          1           0        8.604620    0.503336    3.632778
     95          1           0        6.207874   -5.911289    1.593978
     96          1           0        7.371266   -4.805809    2.213097
     97          1           0        7.440867   -5.405171    0.517441
     98          1           0        1.575564   -3.257720    0.494497
     99          1           0       -0.848313   -4.631240   -2.843360
    100          1           0        0.468846   -3.828820   -3.743821
    101          1           0       -0.923372   -2.958157   -3.265982
    102          1           0       -3.248366   -2.512336    2.823848
    103          1           0       -3.096307   -3.714450    1.650217
    104          1           0       -5.381395   -1.798789    2.192806
    105          1           0       -5.466223   -3.925415   -1.315194
    106          1           0       -5.438310   -5.278864   -0.199116
    107          1           0       -3.980533   -4.236031   -0.355771
    108          1           0       -7.697515   -3.351490    1.411348
    109          1           0       -7.547607   -3.802649   -0.221413
    110          1           0       -6.906080   -0.966863    0.151364
    111          1           0       -8.477978   -1.323260    0.722107
    112          1           0       -7.898376   -2.363270   -2.041645
    113          1           0       -7.474653   -0.695493   -1.869674
    114          1           0      -10.136303   -1.402636   -0.747620
    115          1           0      -11.264451   -0.963377   -3.043193
    116          1           0      -10.550242   -2.379983   -2.640189
    117          1           0       -9.669301   -1.392967   -3.759959
    118          1           0       -9.839670    1.080536   -2.205466
    119          1           0       -8.649939    1.043906   -1.043046
    120          1           0      -11.222727    0.116750    0.093894
    121          1           0      -11.249733    1.776102   -0.455482
    122          1           0       -8.859346    1.453631    0.988140
    123          1           0      -10.003554    0.674272    2.052291
    124          1           0      -10.520424    3.382136    0.839157
    125          1           0       -9.302979    4.412965    2.149794
    126          1           0       -8.734370    2.790010    2.901639
    127          1           0       -9.951328    3.776331    3.630988
    128          1           0      -11.889253    2.895396    3.490804
    129          1           0      -12.144244    1.455336    2.556309
    130          1           0      -12.833526    3.640219    0.799346
    131          1           0      -13.339464    4.056313    2.444645
    132          1           0      -15.129861    2.700974    2.086627
    133          1           0      -14.120692    1.291320    1.991515
    134          1           0      -14.102310    2.878936   -0.487544
    135          1           0      -16.546276    1.747524   -1.065187
    136          1           0      -16.345502    3.373249   -0.546070
    137          1           0      -16.746365    2.063494    0.623847
    138          1           0      -14.984772    0.268601   -1.092449
    139          1           0      -13.808367    0.005270    0.197417
    140          1           0      -13.285091    0.818185   -1.246795
 ---------------------------------------------------------------------
 Rotational constants (GHZ):           0.0519256           0.0093664           0.0084373
 Leave Link  202 at Thu May  5 03:36:53 2022, MaxMem= 10066329600 cpu:               0.2 elap:               0.0
 (Enter /sw/apps/gaussian-16.0/g16/l301.exe)
 Standard basis: def2SVP (5D, 7F)
 Ernie: Thresh=  0.10000D-02 Tol=  0.10000D-05 Strict=F.
 There are  1364 symmetry adapted cartesian basis functions of A   symmetry.
 There are  1298 symmetry adapted basis functions of A   symmetry.
  1298 basis functions,  2180 primitive gaussians,  1364 cartesian basis functions
   246 alpha electrons      246 beta electrons
       nuclear repulsion energy      9583.4988604256 Hartrees.
 IExCor= 1009 DFT=T Ex+Corr=PBE1PBE ExCW=0 ScaHFX=  0.250000
 ScaDFX=  0.750000  0.750000  1.000000  1.000000 ScalE2=  1.000000  1.000000
 IRadAn=      5 IRanWt=     -1 IRanGd=            0 ICorTp=0 IEmpDi=  4
 NAtoms=  140 NActive=  140 NUniq=  140 SFac= 1.00D+00 NAtFMM=   60 NAOKFM=T Big=T
 Integral buffers will be    131072 words long.
 Regular integral format.
 Two-electron integral symmetry is turned on.
 Leave Link  301 at Thu May  5 03:36:53 2022, MaxMem= 10066329600 cpu:               1.3 elap:               0.1
 (Enter /sw/apps/gaussian-16.0/g16/l302.exe)
 NPDir=0 NMtPBC=     1 NCelOv=     1 NCel=       1 NClECP=     1 NCelD=      1
         NCelK=      1 NCelE2=     1 NClLst=     1 CellRange=     0.0.
 One-electron integrals computed using PRISM.
 One-electron integral symmetry used in STVInt
   1 Symmetry operations used in ECPInt.
 ECPInt:  NShTT=  192510 NPrTT=  683786 LenC2=   93944 LenP2D=  207659.
 LDataN:  DoStor=T MaxTD1= 4 Len=   56
 NBasis=  1298 RedAO= T EigKep=  2.41D-04  NBF=  1298
 NBsUse=  1298 1.00D-06 EigRej= -1.00D+00 NBFU=  1298
 Precomputing XC quadrature grid using
 IXCGrd= 4 IRadAn=           5 IRanWt=          -1 IRanGd=           0 AccXCQ= 0.00D+00.
 Generated NRdTot=       0 NPtTot=           0 NUsed=           0 NTot=          32
 NSgBfM=  1081  1063  1073  1078  1081 MxSgAt=   140 MxSgA2=   140.
 Leave Link  302 at Thu May  5 03:36:57 2022, MaxMem= 10066329600 cpu:              88.2 elap:               3.7
 (Enter /sw/apps/gaussian-16.0/g16/l303.exe)
 DipDrv:  MaxL=1.
 Leave Link  303 at Thu May  5 03:36:57 2022, MaxMem= 10066329600 cpu:               6.2 elap:               0.3
 (Enter /sw/apps/gaussian-16.0/g16/l308.exe)
 Leave Link  308 at Thu May  5 03:36:58 2022, MaxMem= 10066329600 cpu:               8.3 elap:               0.4
 (Enter /sw/apps/gaussian-16.0/g16/l401.exe)
 ExpMin= 3.36D-02 ExpMax= 4.95D+03 ExpMxC= 7.45D+02 IAcc=3 IRadAn=         5 AccDes= 0.00D+00
 Harris functional with IExCor= 1009 and IRadAn=       5 diagonalized for initial guess.
 HarFok:  IExCor= 1009 AccDes= 0.00D+00 IRadAn=         5 IDoV= 1 UseB2=F ITyADJ=14
 ICtDFT=  3500011 ScaDFX=  1.000000  1.000000  1.000000  1.000000
 FoFCou: FMM=F IPFlag=           0 FMFlag=      100000 FMFlg1=        2001
         NFxFlg=           0 DoJE=T BraDBF=F KetDBF=T FulRan=T
         wScrn=  0.000000 ICntrl=       500 IOpCl=  0 I1Cent=   200000004 NGrid=           0
         NMat0=    1 NMatS0=      1 NMatT0=    0 NMatD0=    1 NMtDS0=    0 NMtDT0=    0
 Petite list used in FoFCou.
 Harris En= -3006.14179897763    
 JPrj=0 DoOrth=F DoCkMO=F.
 Leave Link  401 at Thu May  5 03:37:03 2022, MaxMem= 10066329600 cpu:             132.9 elap:               5.6
 (Enter /sw/apps/gaussian-16.0/g16/l502.exe)
 Integral symmetry usage will be decided dynamically.
 Closed shell SCF:
 Using DIIS extrapolation, IDIIS=  1040.
 NGot= 10066329600 LenX= 10062561258 LenY= 10060699398
 Requested convergence on RMS density matrix=1.00D-08 within 128 cycles.
 Requested convergence on MAX density matrix=1.00D-06.
 Requested convergence on             energy=1.00D-06.
 No special actions if energy rises.
 Fock matrices will be formed incrementally for  20 cycles.

 Cycle   1  Pass 1  IDiag  1:
 FoFJK:  IHMeth= 1 ICntrl=       0 DoSepK=F KAlg= 0 I1Cent=           0 FoldK=F
 IRaf= 530000000 NMat=       1 IRICut=       1 DoRegI=T DoRafI=F ISym2E= 0 IDoP0=0 IntGTp=1.
 FoFCou: FMM=T IPFlag=           0 FMFlag=      100000 FMFlg1=        2001
         NFxFlg=           0 DoJE=F BraDBF=F KetDBF=F FulRan=T
         wScrn=  0.000000 ICntrl=         0 IOpCl=  0 I1Cent=           0 NGrid=           0
         NMat0=    1 NMatS0=      1 NMatT0=    0 NMatD0=    1 NMtDS0=    0 NMtDT0=    0
 Symmetry not used in FoFCou.
 FMM levels:  10  Number of levels for PrismC:   9
 E= -3003.80875283554    
 DIIS: error= 1.88D-02 at cycle   1 NSaved=   1.
 NSaved= 1 IEnMin= 1 EnMin= -3003.80875283554     IErMin= 1 ErrMin= 1.88D-02
 ErrMax= 1.88D-02  0.00D+00 EMaxC= 1.00D-01 BMatC= 1.45D+00 BMatP= 1.45D+00
 IDIUse=3 WtCom= 8.12D-01 WtEn= 1.88D-01
 Coeff-Com:  0.100D+01
 Coeff-En:   0.100D+01
 Coeff:      0.100D+01
 Gap=     0.083 Goal=   None    Shift=    0.000
 GapD=    0.083 DampG=0.500 DampE=0.500 DampFc=0.2500 IDamp=-1.
 Damping current iteration by 2.50D-01
 RMSDP=2.75D-03 MaxDP=7.59D-01              OVMax= 2.77D-01

 Cycle   2  Pass 1  IDiag  1:
 RMSU=  6.82D-04    CP:  9.90D-01
 E= -3004.35247069546     Delta-E=       -0.543717859919 Rises=F Damp=T
 DIIS: error= 9.28D-03 at cycle   2 NSaved=   2.
 NSaved= 2 IEnMin= 2 EnMin= -3004.35247069546     IErMin= 2 ErrMin= 9.28D-03
 ErrMax= 9.28D-03  0.00D+00 EMaxC= 1.00D-01 BMatC= 3.62D-01 BMatP= 1.45D+00
 IDIUse=3 WtCom= 9.07D-01 WtEn= 9.28D-02
 Coeff-Com: -0.758D+00 0.176D+01
 Coeff-En:   0.000D+00 0.100D+01
 Coeff:     -0.688D+00 0.169D+01
 Gap=     0.174 Goal=   None    Shift=    0.000
 RMSDP=9.93D-04 MaxDP=6.37D-02 DE=-5.44D-01 OVMax= 2.40D-01

 Cycle   3  Pass 1  IDiag  1:
 RMSU=  8.34D-04    CP:  9.65D-01  1.71D+00
 E= -3005.15998483230     Delta-E=       -0.807514136844 Rises=F Damp=F
 DIIS: error= 1.25D-02 at cycle   3 NSaved=   3.
 NSaved= 3 IEnMin= 3 EnMin= -3005.15998483230     IErMin= 2 ErrMin= 9.28D-03
 ErrMax= 1.25D-02  0.00D+00 EMaxC= 1.00D-01 BMatC= 1.95D-01 BMatP= 3.62D-01
 IDIUse=3 WtCom= 8.75D-01 WtEn= 1.25D-01
 Coeff-Com: -0.504D+00 0.107D+01 0.431D+00
 Coeff-En:   0.000D+00 0.000D+00 0.100D+01
 Coeff:     -0.440D+00 0.938D+00 0.503D+00
 Gap=     0.076 Goal=   None    Shift=    0.000
 RMSDP=5.76D-04 MaxDP=1.14D-01 DE=-8.08D-01 OVMax= 2.02D-01

 Cycle   4  Pass 1  IDiag  1:
 RMSU=  3.93D-04    CP:  9.71D-01  1.95D+00  5.36D-01
 E= -3005.28939447711     Delta-E=       -0.129409644809 Rises=F Damp=F
 DIIS: error= 5.71D-03 at cycle   4 NSaved=   4.
 NSaved= 4 IEnMin= 4 EnMin= -3005.28939447711     IErMin= 4 ErrMin= 5.71D-03
 ErrMax= 5.71D-03  0.00D+00 EMaxC= 1.00D-01 BMatC= 4.74D-02 BMatP= 1.95D-01
 IDIUse=3 WtCom= 9.43D-01 WtEn= 5.71D-02
 Coeff-Com: -0.106D+00 0.232D+00 0.330D+00 0.545D+00
 Coeff-En:   0.000D+00 0.000D+00 0.252D+00 0.748D+00
 Coeff:     -0.100D+00 0.218D+00 0.325D+00 0.557D+00
 Gap=     0.074 Goal=   None    Shift=    0.000
 RMSDP=2.94D-04 MaxDP=3.82D-02 DE=-1.29D-01 OVMax= 1.63D-01

 Cycle   5  Pass 1  IDiag  1:
 RMSU=  1.58D-04    CP:  9.69D-01  1.84D+00  7.00D-01  5.08D-01
 E= -3005.32404353140     Delta-E=       -0.034649054292 Rises=F Damp=F
 DIIS: error= 3.22D-03 at cycle   5 NSaved=   5.
 NSaved= 5 IEnMin= 5 EnMin= -3005.32404353140     IErMin= 5 ErrMin= 3.22D-03
 ErrMax= 3.22D-03  0.00D+00 EMaxC= 1.00D-01 BMatC= 7.94D-03 BMatP= 4.74D-02
 IDIUse=3 WtCom= 9.68D-01 WtEn= 3.22D-02
 Coeff-Com: -0.298D-01 0.676D-01 0.197D+00 0.406D+00 0.359D+00
 Coeff-En:   0.000D+00 0.000D+00 0.000D+00 0.212D+00 0.788D+00
 Coeff:     -0.288D-01 0.654D-01 0.190D+00 0.400D+00 0.373D+00
 Gap=     0.075 Goal=   None    Shift=    0.000
 RMSDP=1.50D-04 MaxDP=1.43D-02 DE=-3.46D-02 OVMax= 1.04D-01

 Cycle   6  Pass 1  IDiag  1:
 RMSU=  5.94D-05    CP:  9.69D-01  1.84D+00  6.76D-01  6.51D-01  2.18D-01
 E= -3005.33405215664     Delta-E=       -0.010008625233 Rises=F Damp=F
 DIIS: error= 1.06D-03 at cycle   6 NSaved=   6.
 NSaved= 6 IEnMin= 6 EnMin= -3005.33405215664     IErMin= 6 ErrMin= 1.06D-03
 ErrMax= 1.06D-03  0.00D+00 EMaxC= 1.00D-01 BMatC= 9.84D-04 BMatP= 7.94D-03
 IDIUse=3 WtCom= 9.89D-01 WtEn= 1.06D-02
 Coeff-Com: -0.537D-03 0.301D-02 0.695D-01 0.172D+00 0.273D+00 0.483D+00
 Coeff-En:   0.000D+00 0.000D+00 0.000D+00 0.000D+00 0.151D+00 0.849D+00
 Coeff:     -0.531D-03 0.297D-02 0.687D-01 0.171D+00 0.271D+00 0.487D+00
 Gap=     0.076 Goal=   None    Shift=    0.000
 RMSDP=4.91D-05 MaxDP=6.29D-03 DE=-1.00D-02 OVMax= 3.50D-02

 Cycle   7  Pass 1  IDiag  1:
 RMSU=  2.25D-05    CP:  9.69D-01  1.84D+00  6.84D-01  6.26D-01  4.14D-01
                    CP:  5.25D-01
 E= -3005.33526571446     Delta-E=       -0.001213557827 Rises=F Damp=F
 DIIS: error= 3.58D-04 at cycle   7 NSaved=   7.
 NSaved= 7 IEnMin= 7 EnMin= -3005.33526571446     IErMin= 7 ErrMin= 3.58D-04
 ErrMax= 3.58D-04  0.00D+00 EMaxC= 1.00D-01 BMatC= 1.17D-04 BMatP= 9.84D-04
 IDIUse=3 WtCom= 9.96D-01 WtEn= 3.58D-03
 Coeff-Com:  0.292D-02-0.557D-02 0.210D-01 0.598D-01 0.134D+00 0.326D+00
 Coeff-Com:  0.461D+00
 Coeff-En:   0.000D+00 0.000D+00 0.000D+00 0.000D+00 0.000D+00 0.864D-01
 Coeff-En:   0.914D+00
 Coeff:      0.291D-02-0.555D-02 0.209D-01 0.596D-01 0.134D+00 0.326D+00
 Coeff:      0.463D+00
 Gap=     0.076 Goal=   None    Shift=    0.000
 RMSDP=1.86D-05 MaxDP=1.78D-03 DE=-1.21D-03 OVMax= 1.22D-02

 Cycle   8  Pass 1  IDiag  1:
 RMSU=  1.06D-05    CP:  9.69D-01  1.84D+00  6.84D-01  6.30D-01  3.94D-01
                    CP:  6.34D-01  4.10D-01
 E= -3005.33537440809     Delta-E=       -0.000108693632 Rises=F Damp=F
 DIIS: error= 1.64D-04 at cycle   8 NSaved=   8.
 NSaved= 8 IEnMin= 8 EnMin= -3005.33537440809     IErMin= 8 ErrMin= 1.64D-04
 ErrMax= 1.64D-04  0.00D+00 EMaxC= 1.00D-01 BMatC= 2.52D-05 BMatP= 1.17D-04
 IDIUse=3 WtCom= 9.98D-01 WtEn= 1.64D-03
 Coeff-Com:  0.205D-02-0.415D-02 0.554D-02 0.186D-01 0.595D-01 0.168D+00
 Coeff-Com:  0.343D+00 0.408D+00
 Coeff-En:   0.000D+00 0.000D+00 0.000D+00 0.000D+00 0.000D+00 0.000D+00
 Coeff-En:   0.229D+00 0.771D+00
 Coeff:      0.204D-02-0.414D-02 0.554D-02 0.185D-01 0.594D-01 0.168D+00
 Coeff:      0.343D+00 0.408D+00
 Gap=     0.076 Goal=   None    Shift=    0.000
 RMSDP=7.92D-06 MaxDP=8.13D-04 DE=-1.09D-04 OVMax= 4.22D-03

 Cycle   9  Pass 1  IDiag  1:
 RMSU=  3.31D-06    CP:  9.69D-01  1.84D+00  6.84D-01  6.32D-01  3.98D-01
                    CP:  6.15D-01  5.79D-01  4.39D-01
 E= -3005.33540560506     Delta-E=       -0.000031196963 Rises=F Damp=F
 DIIS: error= 6.17D-05 at cycle   9 NSaved=   9.
 NSaved= 9 IEnMin= 9 EnMin= -3005.33540560506     IErMin= 9 ErrMin= 6.17D-05
 ErrMax= 6.17D-05  0.00D+00 EMaxC= 1.00D-01 BMatC= 2.65D-06 BMatP= 2.52D-05
 IDIUse=1 WtCom= 1.00D+00 WtEn= 0.00D+00
 Coeff-Com:  0.830D-03-0.169D-02 0.326D-03 0.203D-02 0.177D-01 0.563D-01
 Coeff-Com:  0.157D+00 0.273D+00 0.495D+00
 Coeff:      0.830D-03-0.169D-02 0.326D-03 0.203D-02 0.177D-01 0.563D-01
 Coeff:      0.157D+00 0.273D+00 0.495D+00
 Gap=     0.076 Goal=   None    Shift=    0.000
 RMSDP=2.34D-06 MaxDP=5.00D-04 DE=-3.12D-05 OVMax= 1.07D-03

 Cycle  10  Pass 1  IDiag  1:
 RMSU=  1.37D-06    CP:  9.69D-01  1.84D+00  6.84D-01  6.31D-01  3.99D-01
                    CP:  6.27D-01  5.60D-01  5.35D-01  6.66D-01
 E= -3005.33540832162     Delta-E=       -0.000002716566 Rises=F Damp=F
 DIIS: error= 1.52D-05 at cycle  10 NSaved=  10.
 NSaved=10 IEnMin=10 EnMin= -3005.33540832162     IErMin=10 ErrMin= 1.52D-05
 ErrMax= 1.52D-05  0.00D+00 EMaxC= 1.00D-01 BMatC= 3.13D-07 BMatP= 2.65D-06
 IDIUse=1 WtCom= 1.00D+00 WtEn= 0.00D+00
 Coeff-Com:  0.137D-03-0.266D-03-0.588D-03-0.185D-02 0.137D-02 0.566D-02
 Coeff-Com:  0.401D-01 0.955D-01 0.299D+00 0.561D+00
 Coeff:      0.137D-03-0.266D-03-0.588D-03-0.185D-02 0.137D-02 0.566D-02
 Coeff:      0.401D-01 0.955D-01 0.299D+00 0.561D+00
 Gap=     0.076 Goal=   None    Shift=    0.000
 RMSDP=6.78D-07 MaxDP=6.96D-05 DE=-2.72D-06 OVMax= 2.58D-04

 Cycle  11  Pass 1  IDiag  1:
 RMSU=  4.64D-07    CP:  9.69D-01  1.84D+00  6.84D-01  6.31D-01  3.99D-01
                    CP:  6.27D-01  5.65D-01  5.38D-01  7.56D-01  7.39D-01
 E= -3005.33540860923     Delta-E=       -0.000000287611 Rises=F Damp=F
 DIIS: error= 4.83D-06 at cycle  11 NSaved=  11.
 NSaved=11 IEnMin=11 EnMin= -3005.33540860923     IErMin=11 ErrMin= 4.83D-06
 ErrMax= 4.83D-06  0.00D+00 EMaxC= 1.00D-01 BMatC= 5.16D-08 BMatP= 3.13D-07
 IDIUse=1 WtCom= 1.00D+00 WtEn= 0.00D+00
 Coeff-Com: -0.491D-06 0.160D-04-0.427D-03-0.151D-02-0.129D-02-0.429D-02
 Coeff-Com:  0.576D-02 0.238D-01 0.125D+00 0.348D+00 0.504D+00
 Coeff:     -0.491D-06 0.160D-04-0.427D-03-0.151D-02-0.129D-02-0.429D-02
 Coeff:      0.576D-02 0.238D-01 0.125D+00 0.348D+00 0.504D+00
 Gap=     0.076 Goal=   None    Shift=    0.000
 RMSDP=2.83D-07 MaxDP=4.17D-05 DE=-2.88D-07 OVMax= 6.90D-05

 Cycle  12  Pass 1  IDiag  1:
 RMSU=  1.85D-07    CP:  9.69D-01  1.84D+00  6.84D-01  6.31D-01  3.99D-01
                    CP:  6.28D-01  5.69D-01  5.45D-01  7.62D-01  8.26D-01
                    CP:  8.03D-01
 E= -3005.33540865664     Delta-E=       -0.000000047407 Rises=F Damp=F
 DIIS: error= 1.71D-06 at cycle  12 NSaved=  12.
 NSaved=12 IEnMin=12 EnMin= -3005.33540865664     IErMin=12 ErrMin= 1.71D-06
 ErrMax= 1.71D-06  0.00D+00 EMaxC= 1.00D-01 BMatC= 5.79D-09 BMatP= 5.16D-08
 IDIUse=1 WtCom= 1.00D+00 WtEn= 0.00D+00
 Coeff-Com: -0.106D-04 0.316D-04-0.116D-03-0.480D-03-0.606D-03-0.315D-02
 Coeff-Com: -0.173D-02-0.225D-02 0.212D-01 0.921D-01 0.247D+00 0.648D+00
 Coeff:     -0.106D-04 0.316D-04-0.116D-03-0.480D-03-0.606D-03-0.315D-02
 Coeff:     -0.173D-02-0.225D-02 0.212D-01 0.921D-01 0.247D+00 0.648D+00
 Gap=     0.076 Goal=   None    Shift=    0.000
 RMSDP=1.11D-07 MaxDP=1.74D-05 DE=-4.74D-08 OVMax= 4.73D-05

 Cycle  13  Pass 1  IDiag  1:
 RMSU=  8.02D-08    CP:  9.69D-01  1.84D+00  6.84D-01  6.31D-01  3.99D-01
                    CP:  6.28D-01  5.69D-01  5.46D-01  7.75D-01  8.47D-01
                    CP:  8.99D-01  9.15D-01
 E= -3005.33540866368     Delta-E=       -0.000000007041 Rises=F Damp=F
 DIIS: error= 7.75D-07 at cycle  13 NSaved=  13.
 NSaved=13 IEnMin=13 EnMin= -3005.33540866368     IErMin=13 ErrMin= 7.75D-07
 ErrMax= 7.75D-07  0.00D+00 EMaxC= 1.00D-01 BMatC= 1.37D-09 BMatP= 5.79D-09
 IDIUse=1 WtCom= 1.00D+00 WtEn= 0.00D+00
 Coeff-Com: -0.469D-05 0.138D-04 0.465D-05-0.304D-04-0.115D-03-0.139D-02
 Coeff-Com: -0.217D-02-0.686D-02-0.118D-01-0.130D-01 0.412D-01 0.360D+00
 Coeff-Com:  0.634D+00
 Coeff:     -0.469D-05 0.138D-04 0.465D-05-0.304D-04-0.115D-03-0.139D-02
 Coeff:     -0.217D-02-0.686D-02-0.118D-01-0.130D-01 0.412D-01 0.360D+00
 Coeff:      0.634D+00
 Gap=     0.076 Goal=   None    Shift=    0.000
 RMSDP=5.78D-08 MaxDP=4.17D-06 DE=-7.04D-09 OVMax= 2.33D-05

 Cycle  14  Pass 1  IDiag  1:
 RMSU=  3.59D-08    CP:  9.69D-01  1.84D+00  6.84D-01  6.31D-01  3.99D-01
                    CP:  6.28D-01  5.69D-01  5.47D-01  7.80D-01  8.63D-01
                    CP:  9.39D-01  1.05D+00  8.66D-01
 E= -3005.33540866532     Delta-E=       -0.000000001633 Rises=F Damp=F
 DIIS: error= 4.56D-07 at cycle  14 NSaved=  14.
 NSaved=14 IEnMin=14 EnMin= -3005.33540866532     IErMin=14 ErrMin= 4.56D-07
 ErrMax= 4.56D-07  0.00D+00 EMaxC= 1.00D-01 BMatC= 3.19D-10 BMatP= 1.37D-09
 IDIUse=1 WtCom= 1.00D+00 WtEn= 0.00D+00
 Coeff-Com:  0.453D-06 0.549D-06 0.256D-04 0.656D-04 0.744D-04-0.370D-03
 Coeff-Com: -0.873D-03-0.410D-02-0.109D-01-0.242D-01-0.178D-01 0.110D+00
 Coeff-Com:  0.406D+00 0.542D+00
 Coeff:      0.453D-06 0.549D-06 0.256D-04 0.656D-04 0.744D-04-0.370D-03
 Coeff:     -0.873D-03-0.410D-02-0.109D-01-0.242D-01-0.178D-01 0.110D+00
 Coeff:      0.406D+00 0.542D+00
 Gap=     0.076 Goal=   None    Shift=    0.000
 RMSDP=2.68D-08 MaxDP=4.82D-06 DE=-1.63D-09 OVMax= 1.37D-05

 Cycle  15  Pass 1  IDiag  1:
 RMSU=  1.59D-08    CP:  9.69D-01  1.84D+00  6.84D-01  6.31D-01  3.99D-01
                    CP:  6.28D-01  5.69D-01  5.47D-01  7.81D-01  8.67D-01
                    CP:  9.57D-01  1.09D+00  1.03D+00  8.16D-01
 E= -3005.33540866561     Delta-E=       -0.000000000291 Rises=F Damp=F
 DIIS: error= 1.45D-07 at cycle  15 NSaved=  15.
 NSaved=15 IEnMin=15 EnMin= -3005.33540866561     IErMin=15 ErrMin= 1.45D-07
 ErrMax= 1.45D-07  0.00D+00 EMaxC= 1.00D-01 BMatC= 5.41D-11 BMatP= 3.19D-10
 IDIUse=1 WtCom= 1.00D+00 WtEn= 0.00D+00
 Coeff-Com:  0.147D-05-0.271D-05 0.149D-04 0.422D-04 0.845D-04 0.351D-04
 Coeff-Com:  0.233D-04-0.107D-02-0.374D-02-0.112D-01-0.186D-01-0.111D-01
 Coeff-Com:  0.125D+00 0.335D+00 0.585D+00
 Coeff:      0.147D-05-0.271D-05 0.149D-04 0.422D-04 0.845D-04 0.351D-04
 Coeff:      0.233D-04-0.107D-02-0.374D-02-0.112D-01-0.186D-01-0.111D-01
 Coeff:      0.125D+00 0.335D+00 0.585D+00
 Gap=     0.076 Goal=   None    Shift=    0.000
 RMSDP=1.07D-08 MaxDP=7.90D-07 DE=-2.91D-10 OVMax= 4.48D-06

 Cycle  16  Pass 1  IDiag  1:
 RMSU=  6.03D-09    CP:  9.69D-01  1.84D+00  6.84D-01  6.31D-01  3.99D-01
                    CP:  6.28D-01  5.69D-01  5.48D-01  7.81D-01  8.68D-01
                    CP:  9.63D-01  1.11D+00  1.06D+00  9.63D-01  8.45D-01
 E= -3005.33540866574     Delta-E=       -0.000000000133 Rises=F Damp=F
 DIIS: error= 6.85D-08 at cycle  16 NSaved=  16.
 NSaved=16 IEnMin=16 EnMin= -3005.33540866574     IErMin=16 ErrMin= 6.85D-08
 ErrMax= 6.85D-08  0.00D+00 EMaxC= 1.00D-01 BMatC= 7.93D-12 BMatP= 5.41D-11
 IDIUse=1 WtCom= 1.00D+00 WtEn= 0.00D+00
 Coeff-Com:  0.696D-06-0.155D-05 0.399D-05 0.114D-04 0.392D-04 0.754D-04
 Coeff-Com:  0.182D-03 0.764D-04-0.150D-03-0.198D-02-0.705D-02-0.281D-01
 Coeff-Com:  0.150D-02 0.766D-01 0.306D+00 0.653D+00
 Coeff:      0.696D-06-0.155D-05 0.399D-05 0.114D-04 0.392D-04 0.754D-04
 Coeff:      0.182D-03 0.764D-04-0.150D-03-0.198D-02-0.705D-02-0.281D-01
 Coeff:      0.150D-02 0.766D-01 0.306D+00 0.653D+00
 Gap=     0.076 Goal=   None    Shift=    0.000
 RMSDP=4.72D-09 MaxDP=3.75D-07 DE=-1.33D-10 OVMax= 2.59D-06

 SCF Done:  E(RPBE1PBE) =  -3005.33540867     A.U. after   16 cycles
            NFock= 16  Conv=0.47D-08     -V/T= 2.0104
 KE= 2.974441933923D+03 PE=-2.615874026001D+04 EE= 1.059546405699D+04
 Leave Link  502 at Thu May  5 03:41:55 2022, MaxMem= 10066329600 cpu:            6959.4 elap:             292.3
 (Enter /sw/apps/gaussian-16.0/g16/l801.exe)
 DoSCS=F DFT=T ScalE2(SS,OS)=  1.000000  1.000000
 ExpMin= 3.36D-02 ExpMax= 4.95D+03 ExpMxC= 7.45D+02 IAcc=3 IRadAn=         5 AccDes= 0.00D+00
 HarFok:  IExCor=  205 AccDes= 0.00D+00 IRadAn=         5 IDoV=-2 UseB2=F ITyADJ=14
 ICtDFT= 12500011 ScaDFX=  1.000000  1.000000  1.000000  1.000000
 GSVD:  LWork=       -5460 too small for GESVD, short by       25550 words or       25550 for optimal perf.
 Largest valence mixing into a core orbital is  1.92D-04
 Largest core mixing into a valence orbital is  5.62D-05
 Range of M.O.s used for correlation:    71  1298
 NBasis=  1298 NAE=   246 NBE=   246 NFC=    70 NFV=     0
 NROrb=   1228 NOA=   176 NOB=   176 NVA=  1052 NVB=  1052

 **** Warning!!: The smallest alpha delta epsilon is  0.76025860D-01

 Leave Link  801 at Thu May  5 03:41:56 2022, MaxMem= 10066329600 cpu:               5.9 elap:               0.3
 (Enter /sw/apps/gaussian-16.0/g16/l914.exe)
 RHF ground state
 Two-electron integrals replicated using symmetry.
 MDV= 10066329600 DFT=T DoStab=F Mixed=T DoRPA=T DoScal=F NonHer=T
 Making orbital integer symmetry assigments:
 Orbital symmetries:
       Occupied  (A) (A) (A) (A) (A) (A) (A) (A) (A) (A) (A) (A)
                 (A) (A) (A) (A) (A) (A) (A) (A) (A) (A) (A) (A)
                 (A) (A) (A) (A) (A) (A) (A) (A) (A) (A) (A) (A)
                 (A) (A) (A) (A) (A) (A) (A) (A) (A) (A) (A) (A)
                 (A) (A) (A) (A) (A) (A) (A) (A) (A) (A) (A) (A)
                 (A) (A) (A) (A) (A) (A) (A) (A) (A) (A) (A) (A)
                 (A) (A) (A) (A) (A) (A) (A) (A) (A) (A) (A) (A)
                 (A) (A) (A) (A) (A) (A) (A) (A) (A) (A) (A) (A)
                 (A) (A) (A) (A) (A) (A) (A) (A) (A) (A) (A) (A)
                 (A) (A) (A) (A) (A) (A) (A) (A) (A) (A) (A) (A)
                 (A) (A) (A) (A) (A) (A) (A) (A) (A) (A) (A) (A)
                 (A) (A) (A) (A) (A) (A) (A) (A) (A) (A) (A) (A)
                 (A) (A) (A) (A) (A) (A) (A) (A) (A) (A) (A) (A)
                 (A) (A) (A) (A) (A) (A) (A) (A) (A) (A) (A) (A)
                 (A) (A) (A) (A) (A) (A) (A) (A) (A) (A) (A) (A)
                 (A) (A) (A) (A) (A) (A) (A) (A) (A) (A) (A) (A)
                 (A) (A) (A) (A) (A) (A) (A) (A) (A) (A) (A) (A)
                 (A) (A) (A) (A) (A) (A) (A) (A) (A) (A) (A) (A)
                 (A) (A) (A) (A) (A) (A) (A) (A) (A) (A) (A) (A)
                 (A) (A) (A) (A) (A) (A) (A) (A) (A) (A) (A) (A)
                 (A) (A) (A) (A) (A) (A)
       Virtual   (A) (A) (A) (A) (A) (A) (A) (A) (A) (A) (A) (A)
                 (A) (A) (A) (A) (A) (A) (A) (A) (A) (A) (A) (A)
                 (A) (A) (A) (A) (A) (A) (A) (A) (A) (A) (A) (A)
                 (A) (A) (A) (A) (A) (A) (A) (A) (A) (A) (A) (A)
                 (A) (A) (A) (A) (A) (A) (A) (A) (A) (A) (A) (A)
                 (A) (A) (A) (A) (A) (A) (A) (A) (A) (A) (A) (A)
                 (A) (A) (A) (A) (A) (A) (A) (A) (A) (A) (A) (A)
                 (A) (A) (A) (A) (A) (A) (A) (A) (A) (A) (A) (A)
                 (A) (A) (A) (A) (A) (A) (A) (A) (A) (A) (A) (A)
                 (A) (A) (A) (A) (A) (A) (A) (A) (A) (A) (A) (A)
                 (A) (A) (A) (A) (A) (A) (A) (A) (A) (A) (A) (A)
                 (A) (A) (A) (A) (A) (A) (A) (A) (A) (A) (A) (A)
                 (A) (A) (A) (A) (A) (A) (A) (A) (A) (A) (A) (A)
                 (A) (A) (A) (A) (A) (A) (A) (A) (A) (A) (A) (A)
                 (A) (A) (A) (A) (A) (A) (A) (A) (A) (A) (A) (A)
                 (A) (A) (A) (A) (A) (A) (A) (A) (A) (A) (A) (A)
                 (A) (A) (A) (A) (A) (A) (A) (A) (A) (A) (A) (A)
                 (A) (A) (A) (A) (A) (A) (A) (A) (A) (A) (A) (A)
                 (A) (A) (A) (A) (A) (A) (A) (A) (A) (A) (A) (A)
                 (A) (A) (A) (A) (A) (A) (A) (A) (A) (A) (A) (A)
                 (A) (A) (A) (A) (A) (A) (A) (A) (A) (A) (A) (A)
                 (A) (A) (A) (A) (A) (A) (A) (A) (A) (A) (A) (A)
                 (A) (A) (A) (A) (A) (A) (A) (A) (A) (A) (A) (A)
                 (A) (A) (A) (A) (A) (A) (A) (A) (A) (A) (A) (A)
                 (A) (A) (A) (A) (A) (A) (A) (A) (A) (A) (A) (A)
                 (A) (A) (A) (A) (A) (A) (A) (A) (A) (A) (A) (A)
                 (A) (A) (A) (A) (A) (A) (A) (A) (A) (A) (A) (A)
                 (A) (A) (A) (A) (A) (A) (A) (A) (A) (A) (A) (A)
                 (A) (A) (A) (A) (A) (A) (A) (A) (A) (A) (A) (A)
                 (A) (A) (A) (A) (A) (A) (A) (A) (A) (A) (A) (A)
                 (A) (A) (A) (A) (A) (A) (A) (A) (A) (A) (A) (A)
                 (A) (A) (A) (A) (A) (A) (A) (A) (A) (A) (A) (A)
                 (A) (A) (A) (A) (A) (A) (A) (A) (A) (A) (A) (A)
                 (A) (A) (A) (A) (A) (A) (A) (A) (A) (A) (A) (A)
                 (A) (A) (A) (A) (A) (A) (A) (A) (A) (A) (A) (A)
                 (A) (A) (A) (A) (A) (A) (A) (A) (A) (A) (A) (A)
                 (A) (A) (A) (A) (A) (A) (A) (A) (A) (A) (A) (A)
                 (A) (A) (A) (A) (A) (A) (A) (A) (A) (A) (A) (A)
                 (A) (A) (A) (A) (A) (A) (A) (A) (A) (A) (A) (A)
                 (A) (A) (A) (A) (A) (A) (A) (A) (A) (A) (A) (A)
                 (A) (A) (A) (A) (A) (A) (A) (A) (A) (A) (A) (A)
                 (A) (A) (A) (A) (A) (A) (A) (A) (A) (A) (A) (A)
                 (A) (A) (A) (A) (A) (A) (A) (A) (A) (A) (A) (A)
                 (A) (A) (A) (A) (A) (A) (A) (A) (A) (A) (A) (A)
                 (A) (A) (A) (A) (A) (A) (A) (A) (A) (A) (A) (A)
                 (A) (A) (A) (A) (A) (A) (A) (A) (A) (A) (A) (A)
                 (A) (A) (A) (A) (A) (A) (A) (A) (A) (A) (A) (A)
                 (A) (A) (A) (A) (A) (A) (A) (A) (A) (A) (A) (A)
                 (A) (A) (A) (A) (A) (A) (A) (A) (A) (A) (A) (A)
                 (A) (A) (A) (A) (A) (A) (A) (A) (A) (A) (A) (A)
                 (A) (A) (A) (A) (A) (A) (A) (A) (A) (A) (A) (A)
                 (A) (A) (A) (A) (A) (A) (A) (A) (A) (A) (A) (A)
                 (A) (A) (A) (A) (A) (A) (A) (A) (A) (A) (A) (A)
                 (A) (A) (A) (A) (A) (A) (A) (A) (A) (A) (A) (A)
                 (A) (A) (A) (A) (A) (A) (A) (A) (A) (A) (A) (A)
                 (A) (A) (A) (A) (A) (A) (A) (A) (A) (A) (A) (A)
                 (A) (A) (A) (A) (A) (A) (A) (A) (A) (A) (A) (A)
                 (A) (A) (A) (A) (A) (A) (A) (A) (A) (A) (A) (A)
                 (A) (A) (A) (A) (A) (A) (A) (A) (A) (A) (A) (A)
                 (A) (A) (A) (A) (A) (A) (A) (A) (A) (A) (A) (A)
                 (A) (A) (A) (A) (A) (A) (A) (A) (A) (A) (A) (A)
                 (A) (A) (A) (A) (A) (A) (A) (A) (A) (A) (A) (A)
                 (A) (A) (A) (A) (A) (A) (A) (A) (A) (A) (A) (A)
                 (A) (A) (A) (A) (A) (A) (A) (A) (A) (A) (A) (A)
                 (A) (A) (A) (A) (A) (A) (A) (A) (A) (A) (A) (A)
                 (A) (A) (A) (A) (A) (A) (A) (A) (A) (A) (A) (A)
                 (A) (A) (A) (A) (A) (A) (A) (A) (A) (A) (A) (A)
                 (A) (A) (A) (A) (A) (A) (A) (A) (A) (A) (A) (A)
                 (A) (A) (A) (A) (A) (A) (A) (A) (A) (A) (A) (A)
                 (A) (A) (A) (A) (A) (A) (A) (A) (A) (A) (A) (A)
                 (A) (A) (A) (A) (A) (A) (A) (A) (A) (A) (A) (A)
                 (A) (A) (A) (A) (A) (A) (A) (A) (A) (A) (A) (A)
                 (A) (A) (A) (A) (A) (A) (A) (A) (A) (A) (A) (A)
                 (A) (A) (A) (A) (A) (A) (A) (A) (A) (A) (A) (A)
                 (A) (A) (A) (A) (A) (A) (A) (A) (A) (A) (A) (A)
                 (A) (A) (A) (A) (A) (A) (A) (A) (A) (A) (A) (A)
                 (A) (A) (A) (A) (A) (A) (A) (A) (A) (A) (A) (A)
                 (A) (A) (A) (A) (A) (A) (A) (A) (A) (A) (A) (A)
                 (A) (A) (A) (A) (A) (A) (A) (A) (A) (A) (A) (A)
                 (A) (A) (A) (A) (A) (A) (A) (A) (A) (A) (A) (A)
                 (A) (A) (A) (A) (A) (A) (A) (A) (A) (A) (A) (A)
                 (A) (A) (A) (A) (A) (A) (A) (A) (A) (A) (A) (A)
                 (A) (A) (A) (A) (A) (A) (A) (A) (A) (A) (A) (A)
                 (A) (A) (A) (A) (A) (A) (A) (A) (A) (A) (A) (A)
                 (A) (A) (A) (A) (A) (A) (A) (A) (A) (A) (A) (A)
                 (A) (A) (A) (A) (A) (A) (A) (A) (A) (A) (A) (A)
                 (A) (A) (A) (A) (A) (A) (A) (A) (A) (A) (A) (A)
                 (A) (A) (A) (A) (A) (A) (A) (A)
    20 initial guesses have been made.
 Convergence on wavefunction:    0.001000000000000
 Davidson Disk Diagonalization:  ConvIn= 1.00D-03 SkipCon=T Conv= 1.00D-03.
 Max sub-space:  2000 roots to seek:    20 dimension of matrix:       370304
 Iteration     1 Dimension    20 NMult     0 NNew     20
 CISAX will form    20 AO SS matrices at one time.
 NMat=    20 NSing=    20 JSym2X= 0.
 FoFJK:  IHMeth= 1 ICntrl=       0 DoSepK=F KAlg= 0 I1Cent=           0 FoldK=F
 IRaf= 530000000 NMat=      40 IRICut=       1 DoRegI=T DoRafI=F ISym2E= 0 IDoP0=3 IntGTp=3.
 FoFCou: FMM=T IPFlag=           0 FMFlag=      100000 FMFlg1=        2001
         NFxFlg=           0 DoJE=F BraDBF=F KetDBF=F FulRan=T
         wScrn=  0.000000 ICntrl=         0 IOpCl=  0 I1Cent=           0 NGrid=           0
         NMat0=   40 NMatS0=     20 NMatT0=    0 NMatD0=   40 NMtDS0=    0 NMtDT0=    0
 Symmetry not used in FoFCou.
 FMM levels:  10  Number of levels for PrismC:   9
 New state      4 was old state      7
 Excitation Energies [eV] at current iteration:
 Root      1 :     2.242828970592519
 Root      2 :     2.529057348184334
 Root      3 :     2.951880239032393
 Root      4 :     3.302107976564754
 Root      5 :     3.401471063766928
 Root      6 :     3.561466024083105
 Root      7 :     3.638981329428540
 Root      8 :     3.768319371724965
 Root      9 :     3.889516366092093
 Root     10 :     3.933823118780420
 Root     11 :     3.963608030444361
 Root     12 :     4.185989492566891
 Root     13 :     4.278408973738416
 Root     14 :     4.431811628350859
 Root     15 :     4.515247036899870
 Root     16 :     4.591069275036269
 Root     17 :     4.688645921285265
 Root     18 :     4.690495682259273
 Root     19 :     4.799811325386621
 Root     20 :     4.844315476684880
 Iteration     2 Dimension    30 NMult    20 NNew     10
 CISAX will form    10 AO SS matrices at one time.
 NMat=    10 NSing=    10 JSym2X= 0.
 Root      1 not converged, maximum delta is    0.054986011031055
 Root      2 not converged, maximum delta is    0.061168038043218
 Root      3 not converged, maximum delta is    0.103234065576739
 New state      4 was old state      5
 Root      4 not converged, maximum delta is    0.322654656178419
 New state      5 was old state      4
 Root      5 not converged, maximum delta is    0.411640665288018
 Excitation Energies [eV] at current iteration:
 Root      1 :     1.901269935353245   Change is   -0.341559035239274
 Root      2 :     2.233476281132677   Change is   -0.295581067051657
 Root      3 :     2.836088148142482   Change is   -0.115792090889911
 Root      4 :     3.144076393985915   Change is   -0.257394669781013
 Root      5 :     3.213617807040602   Change is   -0.088490169524153
 Iteration     3 Dimension    40 NMult    30 NNew     10
 CISAX will form    10 AO SS matrices at one time.
 NMat=    10 NSing=    10 JSym2X= 0.
 Root      1 not converged, maximum delta is    0.023132526774072
 Root      2 not converged, maximum delta is    0.023527450087396
 Root      3 not converged, maximum delta is    0.017048818085602
 Root      4 not converged, maximum delta is    0.014928117111034
 Root      5 not converged, maximum delta is    0.029809500546240
 Excitation Energies [eV] at current iteration:
 Root      1 :     1.870065772361864   Change is   -0.031204162991381
 Root      2 :     2.212227675358691   Change is   -0.021248605773986
 Root      3 :     2.825735371231997   Change is   -0.010352776910485
 Root      4 :     3.133315849968386   Change is   -0.010760544017529
 Root      5 :     3.196817161623372   Change is   -0.016800645417229
 Iteration     4 Dimension    50 NMult    40 NNew     10
 CISAX will form    10 AO SS matrices at one time.
 NMat=    10 NSing=    10 JSym2X= 0.
 Root      1 not converged, maximum delta is    0.002870139870803
 Root      2 not converged, maximum delta is    0.007451043450530
 Root      3 not converged, maximum delta is    0.004474691668363
 Root      4 not converged, maximum delta is    0.007478855851161
 Root      5 not converged, maximum delta is    0.010610770185306
 Excitation Energies [eV] at current iteration:
 Root      1 :     1.866749086167475   Change is   -0.003316686194389
 Root      2 :     2.208733540561157   Change is   -0.003494134797534
 Root      3 :     2.824375210611523   Change is   -0.001360160620474
 Root      4 :     3.131314154541668   Change is   -0.002001695426718
 Root      5 :     3.194411855392466   Change is   -0.002405306230906
 Iteration     5 Dimension    60 NMult    50 NNew     10
 CISAX will form    10 AO SS matrices at one time.
 NMat=    10 NSing=    10 JSym2X= 0.
 Root      1 has converged.
 Root      2 has converged.
 Root      3 has converged.
 Root      4 not converged, maximum delta is    0.001589451720945
 Root      5 not converged, maximum delta is    0.001275919436123
 Excitation Energies [eV] at current iteration:
 Root      1 :     1.866396021144824   Change is   -0.000353065022651
 Root      2 :     2.208432977233438   Change is   -0.000300563327719
 Root      3 :     2.824175429079748   Change is   -0.000199781531776
 Root      4 :     3.131044123608810   Change is   -0.000270030932858
 Root      5 :     3.194117376630520   Change is   -0.000294478761946
 Iteration     6 Dimension    64 NMult    60 NNew      4
 CISAX will form     4 AO SS matrices at one time.
 NMat=     4 NSing=     4 JSym2X= 0.
 Root      1 has converged.
 Root      2 has converged.
 Root      3 has converged.
 Root      4 has converged.
 Root      5 has converged.
 Excitation Energies [eV] at current iteration:
 Root      1 :     1.866393635712059   Change is   -0.000002385432765
 Root      2 :     2.208429020866447   Change is   -0.000003956366991
 Root      3 :     2.824174895830659   Change is   -0.000000533249088
 Root      4 :     3.131014093868528   Change is   -0.000030029740282
 Root      5 :     3.194080851393065   Change is   -0.000036525237455
 Convergence achieved on expansion vectors.
 ***********************************************************************
 Excited states from <AA,BB:AA,BB> singles matrix:
 ***********************************************************************
 
 1PDM for each excited state written to RWF  633
 Ground to excited state transition densities written to RWF  633
 Ground to excited state transition electric dipole moments (Au):
       state          X           Y           Z        Dip. S.      Osc.
         1         0.5053      2.8254     -0.4703      8.4593      0.3868
         2         1.5097      0.1593      0.4380      2.4965      0.1351
         3        -0.0415      0.0758      0.0019      0.0075      0.0005
         4        -0.1181     -0.0723     -0.0340      0.0203      0.0016
         5         0.2216      0.0678      0.0656      0.0580      0.0045
 Ground to excited state transition velocity dipole moments (Au):
       state          X           Y           Z        Dip. S.      Osc.
         1        -0.0342     -0.1879      0.0316      0.0375      0.3643
         2        -0.1162     -0.0129     -0.0334      0.0148      0.1214
         3         0.0038     -0.0081      0.0025      0.0001      0.0006
         4         0.0121      0.0086      0.0041      0.0002      0.0014
         5        -0.0245     -0.0085     -0.0057      0.0007      0.0040
 Ground to excited state transition magnetic dipole moments (Au):
       state          X           Y           Z
         1        -0.0790     -0.3684     -2.2296
         2        -0.1030      0.3313      0.0342
         3        -0.2221     -0.4004      0.2167
         4         0.0271     -0.2684     -0.7108
         5        -0.4297      0.1372      0.1096
 Ground to excited state transition velocity quadrupole moments (Au):
       state          XX          YY          ZZ          XY          XZ          YZ
         1        -0.4649     -0.3824      0.0053     -1.9974      0.3666      0.0782
         2        -2.2477      0.0333      0.0450     -0.0775     -0.3355      0.0056
         3         0.1379     -0.0363      0.0084     -0.0360      0.0353      0.0294
         4         0.1875      0.1679      0.0111      0.2524      0.0652      0.0104
         5        -0.5284     -0.0304      0.0046     -0.2720     -0.0538     -0.0580
 <0|del|b> * <b|rxdel|0> + <0|del|b> * <b|delr+rdel|0>
 Rotatory Strengths (R) in cgs (10**-40 erg-esu-cm/Gauss)
       state          XX          YY          ZZ    R(velocity)    E-M Angle
         1        22.5828    -37.7288     29.5329      4.7956       89.82
         2       -31.2620     33.0728     55.1928     19.0012       81.12
         3        13.5598     -0.3953      6.7872      6.6506       51.62
         4       -14.6611    -10.8299     -4.7710    -10.0873      114.87
         5        -2.0924     29.5427     25.3547     17.6016       44.73
 1/2[<0|r|b>*<b|rxdel|0> + (<0|rxdel|b>*<b|r|0>)*]
 Rotatory Strengths (R) in cgs (10**-40 erg-esu-cm/Gauss)
       state          XX          YY          ZZ     R(length)
         1        28.2334    736.1155   -741.5748      7.5914
         2       109.9996    -37.3255    -10.6027     20.6905
         3        -6.5188     21.4718     -0.2909      4.8874
         4         2.2605    -13.7131    -17.0900     -9.5142
         5        67.3305     -6.5726     -5.0843     18.5579
  1/2[<0|del|b>*<b|r|0> + (<0|r|b>*<b|del|0>)*] (Au)
       state          X           Y           Z        Dip. S.   Osc.(frdel)
         1        -0.0173     -0.5309     -0.0149      0.5630      0.3754
         2        -0.1754     -0.0021     -0.0146      0.1921      0.1280
         3        -0.0002     -0.0006      0.0000      0.0008      0.0005
         4        -0.0014     -0.0006     -0.0001      0.0022      0.0015
         5        -0.0054     -0.0006     -0.0004      0.0064      0.0043

 Excitation energies and oscillator strengths:
 
 Excited State   1:      Singlet-A      1.8664 eV  664.30 nm  f=0.3868  <S**2>=0.000
     245 -> 248       -0.17084
     246 -> 247        0.69216
     246 <- 247       -0.11013
 This state for optimization and/or second-order correction.
 Total Energy, E(TD-HF/TD-DFT) =  -3005.26681996    
 Copying the excited state density for this state as the 1-particle RhoCI density.
 
 Excited State   2:      Singlet-A      2.2084 eV  561.41 nm  f=0.1351  <S**2>=0.000
     245 -> 247        0.65790
     246 -> 248        0.23914
 
 Excited State   3:      Singlet-A      2.8242 eV  439.01 nm  f=0.0005  <S**2>=0.000
     244 -> 247        0.67260
     244 -> 249       -0.11651
     244 -> 250       -0.10177
 
 Excited State   4:      Singlet-A      3.1310 eV  395.99 nm  f=0.0016  <S**2>=0.000
     242 -> 247        0.12750
     243 -> 247        0.67130
 
 Excited State   5:      Singlet-A      3.1941 eV  388.17 nm  f=0.0045  <S**2>=0.000
     240 -> 247        0.35479
     241 -> 247        0.55524
     243 -> 247       -0.12473
 SavETr:  write IOETrn=   770 NScale= 10 NData=  16 NLR=1 NState=    5 LETran=     100.
 Leave Link  914 at Thu May  5 03:53:56 2022, MaxMem= 10066329600 cpu:           17210.3 elap:             720.4
 (Enter /sw/apps/gaussian-16.0/g16/l601.exe)
 Copying SCF densities to generalized density rwf, IOpCl= 0 IROHF=0.
 Hyperfine terms turned off by default for NAtoms > 100.

 **********************************************************************

            Population analysis using the SCF density.

 **********************************************************************

 Orbital symmetries:
       Occupied  (A) (A) (A) (A) (A) (A) (A) (A) (A) (A) (A) (A)
                 (A) (A) (A) (A) (A) (A) (A) (A) (A) (A) (A) (A)
                 (A) (A) (A) (A) (A) (A) (A) (A) (A) (A) (A) (A)
                 (A) (A) (A) (A) (A) (A) (A) (A) (A) (A) (A) (A)
                 (A) (A) (A) (A) (A) (A) (A) (A) (A) (A) (A) (A)
                 (A) (A) (A) (A) (A) (A) (A) (A) (A) (A) (A) (A)
                 (A) (A) (A) (A) (A) (A) (A) (A) (A) (A) (A) (A)
                 (A) (A) (A) (A) (A) (A) (A) (A) (A) (A) (A) (A)
                 (A) (A) (A) (A) (A) (A) (A) (A) (A) (A) (A) (A)
                 (A) (A) (A) (A) (A) (A) (A) (A) (A) (A) (A) (A)
                 (A) (A) (A) (A) (A) (A) (A) (A) (A) (A) (A) (A)
                 (A) (A) (A) (A) (A) (A) (A) (A) (A) (A) (A) (A)
                 (A) (A) (A) (A) (A) (A) (A) (A) (A) (A) (A) (A)
                 (A) (A) (A) (A) (A) (A) (A) (A) (A) (A) (A) (A)
                 (A) (A) (A) (A) (A) (A) (A) (A) (A) (A) (A) (A)
                 (A) (A) (A) (A) (A) (A) (A) (A) (A) (A) (A) (A)
                 (A) (A) (A) (A) (A) (A) (A) (A) (A) (A) (A) (A)
                 (A) (A) (A) (A) (A) (A) (A) (A) (A) (A) (A) (A)
                 (A) (A) (A) (A) (A) (A) (A) (A) (A) (A) (A) (A)
                 (A) (A) (A) (A) (A) (A) (A) (A) (A) (A) (A) (A)
                 (A) (A) (A) (A) (A) (A)
       Virtual   (A) (A) (A) (A) (A) (A) (A) (A) (A) (A) (A) (A)
                 (A) (A) (A) (A) (A) (A) (A) (A) (A) (A) (A) (A)
                 (A) (A) (A) (A) (A) (A) (A) (A) (A) (A) (A) (A)
                 (A) (A) (A) (A) (A) (A) (A) (A) (A) (A) (A) (A)
                 (A) (A) (A) (A) (A) (A) (A) (A) (A) (A) (A) (A)
                 (A) (A) (A) (A) (A) (A) (A) (A) (A) (A) (A) (A)
                 (A) (A) (A) (A) (A) (A) (A) (A) (A) (A) (A) (A)
                 (A) (A) (A) (A) (A) (A) (A) (A) (A) (A) (A) (A)
                 (A) (A) (A) (A) (A) (A) (A) (A) (A) (A) (A) (A)
                 (A) (A) (A) (A) (A) (A) (A) (A) (A) (A) (A) (A)
                 (A) (A) (A) (A) (A) (A) (A) (A) (A) (A) (A) (A)
                 (A) (A) (A) (A) (A) (A) (A) (A) (A) (A) (A) (A)
                 (A) (A) (A) (A) (A) (A) (A) (A) (A) (A) (A) (A)
                 (A) (A) (A) (A) (A) (A) (A) (A) (A) (A) (A) (A)
                 (A) (A) (A) (A) (A) (A) (A) (A) (A) (A) (A) (A)
                 (A) (A) (A) (A) (A) (A) (A) (A) (A) (A) (A) (A)
                 (A) (A) (A) (A) (A) (A) (A) (A) (A) (A) (A) (A)
                 (A) (A) (A) (A) (A) (A) (A) (A) (A) (A) (A) (A)
                 (A) (A) (A) (A) (A) (A) (A) (A) (A) (A) (A) (A)
                 (A) (A) (A) (A) (A) (A) (A) (A) (A) (A) (A) (A)
                 (A) (A) (A) (A) (A) (A) (A) (A) (A) (A) (A) (A)
                 (A) (A) (A) (A) (A) (A) (A) (A) (A) (A) (A) (A)
                 (A) (A) (A) (A) (A) (A) (A) (A) (A) (A) (A) (A)
                 (A) (A) (A) (A) (A) (A) (A) (A) (A) (A) (A) (A)
                 (A) (A) (A) (A) (A) (A) (A) (A) (A) (A) (A) (A)
                 (A) (A) (A) (A) (A) (A) (A) (A) (A) (A) (A) (A)
                 (A) (A) (A) (A) (A) (A) (A) (A) (A) (A) (A) (A)
                 (A) (A) (A) (A) (A) (A) (A) (A) (A) (A) (A) (A)
                 (A) (A) (A) (A) (A) (A) (A) (A) (A) (A) (A) (A)
                 (A) (A) (A) (A) (A) (A) (A) (A) (A) (A) (A) (A)
                 (A) (A) (A) (A) (A) (A) (A) (A) (A) (A) (A) (A)
                 (A) (A) (A) (A) (A) (A) (A) (A) (A) (A) (A) (A)
                 (A) (A) (A) (A) (A) (A) (A) (A) (A) (A) (A) (A)
                 (A) (A) (A) (A) (A) (A) (A) (A) (A) (A) (A) (A)
                 (A) (A) (A) (A) (A) (A) (A) (A) (A) (A) (A) (A)
                 (A) (A) (A) (A) (A) (A) (A) (A) (A) (A) (A) (A)
                 (A) (A) (A) (A) (A) (A) (A) (A) (A) (A) (A) (A)
                 (A) (A) (A) (A) (A) (A) (A) (A) (A) (A) (A) (A)
                 (A) (A) (A) (A) (A) (A) (A) (A) (A) (A) (A) (A)
                 (A) (A) (A) (A) (A) (A) (A) (A) (A) (A) (A) (A)
                 (A) (A) (A) (A) (A) (A) (A) (A) (A) (A) (A) (A)
                 (A) (A) (A) (A) (A) (A) (A) (A) (A) (A) (A) (A)
                 (A) (A) (A) (A) (A) (A) (A) (A) (A) (A) (A) (A)
                 (A) (A) (A) (A) (A) (A) (A) (A) (A) (A) (A) (A)
                 (A) (A) (A) (A) (A) (A) (A) (A) (A) (A) (A) (A)
                 (A) (A) (A) (A) (A) (A) (A) (A) (A) (A) (A) (A)
[...]
 Alpha virt. eigenvalues --    1.12495   1.13042   1.13356   1.13984   1.14409
 Alpha virt. eigenvalues --    1.14662   1.15608   1.15988   1.16309   1.16687
 Alpha virt. eigenvalues --    1.17288   1.17783   1.18017   1.18211   1.18477
 Alpha virt. eigenvalues --    1.18849   1.19293   1.19698   1.20365   1.21290
 Alpha virt. eigenvalues --    1.21730   1.22029   1.22422   1.22863   1.23490
 Alpha virt. eigenvalues --    1.24298   1.24995   1.25517   1.25806   1.26947
 Alpha virt. eigenvalues --    1.27434   1.27963   1.28071   1.28361   1.29041
 Alpha virt. eigenvalues --    1.29525   1.30161   1.30214   1.30668   1.31351
 Alpha virt. eigenvalues --    1.31658   1.32091   1.32444   1.33210   1.33288
 Alpha virt. eigenvalues --    1.33984   1.34088   1.34348   1.34523   1.35183
 Alpha virt. eigenvalues --    1.35533   1.35680   1.35973   1.36585   1.36890
 Alpha virt. eigenvalues --    1.37519   1.37617   1.37680   1.38565   1.38687
 Alpha virt. eigenvalues --    1.39410   1.39947   1.39995   1.40057   1.40363
 Alpha virt. eigenvalues --    1.40696   1.41327   1.41767   1.42153   1.42216
 Alpha virt. eigenvalues --    1.42443   1.42746   1.42934   1.43558   1.43826
 Alpha virt. eigenvalues --    1.44545   1.44833   1.45032   1.46135   1.46260
 Alpha virt. eigenvalues --    1.46722   1.46850   1.47375   1.47808   1.48502
 Alpha virt. eigenvalues --    1.48804   1.48849   1.49738   1.49967   1.50394
 Alpha virt. eigenvalues --    1.50713   1.51027   1.51323   1.52255   1.52635
 Alpha virt. eigenvalues --    1.52807   1.53144   1.53509   1.53882   1.54060
 Alpha virt. eigenvalues --    1.54423   1.54456   1.54551   1.54946   1.54986
 Alpha virt. eigenvalues --    1.55155   1.55348   1.55444   1.55812   1.56298
 Alpha virt. eigenvalues --    1.56563   1.56703   1.57113   1.57166   1.57276
 Alpha virt. eigenvalues --    1.57463   1.57554   1.57592   1.58352   1.58457
 Alpha virt. eigenvalues --    1.58559   1.58678   1.59148   1.59687   1.60653
 Alpha virt. eigenvalues --    1.61074   1.61974   1.62053   1.62339   1.62761
 Alpha virt. eigenvalues --    1.62964   1.63216   1.64199   1.64753   1.64939
 Alpha virt. eigenvalues --    1.65479   1.65894   1.66604   1.67043   1.67500
 Alpha virt. eigenvalues --    1.67717   1.68213   1.68988   1.69266   1.69372
 Alpha virt. eigenvalues --    1.70246   1.70584   1.70824   1.71281   1.71393
 Alpha virt. eigenvalues --    1.71677   1.72220   1.72404   1.72576   1.72733
 Alpha virt. eigenvalues --    1.72801   1.73338   1.73554   1.73854   1.74180
 Alpha virt. eigenvalues --    1.74404   1.74801   1.74817   1.75627   1.75814
 Alpha virt. eigenvalues --    1.76117   1.76272   1.76504   1.76663   1.76880
 Alpha virt. eigenvalues --    1.77227   1.77380   1.77505   1.77654   1.77986
 Alpha virt. eigenvalues --    1.78030   1.78463   1.78668   1.78735   1.79020
 Alpha virt. eigenvalues --    1.79021   1.79336   1.79508   1.79656   1.80051
 Alpha virt. eigenvalues --    1.80106   1.80230   1.80359   1.80628   1.80980
 Alpha virt. eigenvalues --    1.81152   1.81330   1.81567   1.81730   1.81798
 Alpha virt. eigenvalues --    1.82000   1.82077   1.82535   1.82775   1.82951
 Alpha virt. eigenvalues --    1.83373   1.83734   1.83774   1.83868   1.83972
 Alpha virt. eigenvalues --    1.84152   1.84477   1.84666   1.84730   1.84875
 Alpha virt. eigenvalues --    1.85091   1.85509   1.85692   1.85731   1.85886
 Alpha virt. eigenvalues --    1.86160   1.86213   1.86466   1.86562   1.87005
 Alpha virt. eigenvalues --    1.87250   1.87643   1.87817   1.87973   1.88161
 Alpha virt. eigenvalues --    1.88228   1.88468   1.88736   1.88858   1.89162
 Alpha virt. eigenvalues --    1.89335   1.89433   1.89683   1.89840   1.90335
 Alpha virt. eigenvalues --    1.90460   1.90657   1.91183   1.91645   1.91806
 Alpha virt. eigenvalues --    1.91950   1.91997   1.92468   1.92541   1.92906
 Alpha virt. eigenvalues --    1.93268   1.93424   1.94161   1.94462   1.94884
 Alpha virt. eigenvalues --    1.95020   1.95248   1.95502   1.95558   1.95863
 Alpha virt. eigenvalues --    1.96017   1.96268   1.96383   1.96465   1.96792
 Alpha virt. eigenvalues --    1.97210   1.97424   1.97523   1.98055   1.98452
 Alpha virt. eigenvalues --    1.98626   1.99028   1.99233   1.99583   1.99891
 Alpha virt. eigenvalues --    2.00198   2.00707   2.01026   2.01364   2.01608
 Alpha virt. eigenvalues --    2.02090   2.02405   2.02726   2.02848   2.02911
 Alpha virt. eigenvalues --    2.03296   2.03596   2.04034   2.04174   2.04549
 Alpha virt. eigenvalues --    2.04716   2.05461   2.05946   2.06147   2.06340
 Alpha virt. eigenvalues --    2.06858   2.07545   2.07670   2.07769   2.07994
 Alpha virt. eigenvalues --    2.08353   2.08782   2.08903   2.08996   2.09331
 Alpha virt. eigenvalues --    2.09629   2.09761   2.09855   2.10450   2.10902
 Alpha virt. eigenvalues --    2.11373   2.11487   2.11647   2.12144   2.12336
 Alpha virt. eigenvalues --    2.12426   2.12513   2.12938   2.13400   2.13831
 Alpha virt. eigenvalues --    2.13939   2.14365   2.14781   2.15140   2.15641
 Alpha virt. eigenvalues --    2.15936   2.16161   2.16506   2.16901   2.17354
 Alpha virt. eigenvalues --    2.17648   2.18138   2.18267   2.18652   2.18918
 Alpha virt. eigenvalues --    2.19423   2.19475   2.20019   2.20537   2.20902
 Alpha virt. eigenvalues --    2.21105   2.21727   2.22276   2.22944   2.23386
 Alpha virt. eigenvalues --    2.23433   2.24055   2.24417   2.24716   2.24998
 Alpha virt. eigenvalues --    2.25869   2.25998   2.26447   2.26736   2.27396
 Alpha virt. eigenvalues --    2.27565   2.27890   2.28293   2.29198   2.29286
 Alpha virt. eigenvalues --    2.29509   2.30260   2.31085   2.31404   2.31918
 Alpha virt. eigenvalues --    2.32108   2.32170   2.32528   2.33029   2.33618
 Alpha virt. eigenvalues --    2.33864   2.34284   2.34700   2.34743   2.35256
 Alpha virt. eigenvalues --    2.35482   2.35678   2.36117   2.36400   2.36658
 Alpha virt. eigenvalues --    2.36757   2.37166   2.37627   2.37827   2.38366
 Alpha virt. eigenvalues --    2.38589   2.39285   2.39475   2.39717   2.40133
 Alpha virt. eigenvalues --    2.40177   2.40501   2.40793   2.41297   2.41543
 Alpha virt. eigenvalues --    2.41873   2.42496   2.42637   2.42657   2.42978
 Alpha virt. eigenvalues --    2.43756   2.44332   2.44479   2.45551   2.45722
 Alpha virt. eigenvalues --    2.45959   2.46542   2.46574   2.46596   2.46941
 Alpha virt. eigenvalues --    2.47155   2.47803   2.48182   2.48370   2.48692
 Alpha virt. eigenvalues --    2.48851   2.49522   2.50392   2.50646   2.51204
 Alpha virt. eigenvalues --    2.52524   2.53471   2.53682   2.54109   2.54406
 Alpha virt. eigenvalues --    2.54935   2.55141   2.55499   2.56398   2.56489
 Alpha virt. eigenvalues --    2.56883   2.57284   2.57384   2.58093   2.58660
 Alpha virt. eigenvalues --    2.59017   2.59136   2.59476   2.59679   2.59924
 Alpha virt. eigenvalues --    2.60355   2.60962   2.61323   2.61445   2.61534
 Alpha virt. eigenvalues --    2.62321   2.62552   2.63024   2.63097   2.63397
 Alpha virt. eigenvalues --    2.63933   2.63985   2.64440   2.65026   2.65246
 Alpha virt. eigenvalues --    2.65577   2.65770   2.66206   2.66508   2.67247
 Alpha virt. eigenvalues --    2.67393   2.68011   2.68407   2.68548   2.69330
 Alpha virt. eigenvalues --    2.69918   2.70361   2.70832   2.71345   2.71478
 Alpha virt. eigenvalues --    2.72125   2.72278   2.73114   2.73512   2.73960
 Alpha virt. eigenvalues --    2.74154   2.74723   2.74746   2.75642   2.75814
 Alpha virt. eigenvalues --    2.76213   2.76423   2.76558   2.76803   2.76981
 Alpha virt. eigenvalues --    2.77211   2.77906   2.79336   2.79784   2.80391
 Alpha virt. eigenvalues --    2.81220   2.81381   2.81720   2.82652   2.83550
 Alpha virt. eigenvalues --    2.84368   2.84702   2.85095   2.85441   2.85886
 Alpha virt. eigenvalues --    2.86079   2.86545   2.86555   2.87548   2.88433
 Alpha virt. eigenvalues --    2.88977   2.89627   2.89798   2.90120   2.90576
 Alpha virt. eigenvalues --    2.90879   2.91438   2.91848   2.92076   2.92129
 Alpha virt. eigenvalues --    2.93062   2.93692   2.93927   2.94013   2.94167
 Alpha virt. eigenvalues --    2.94381   2.94530   2.95008   2.95084   2.95341
 Alpha virt. eigenvalues --    2.95568   2.95950   2.96428   2.96568   2.96666
 Alpha virt. eigenvalues --    2.96970   2.97239   2.97950   2.98226   2.98488
 Alpha virt. eigenvalues --    2.98579   2.98651   2.99225   2.99361   2.99447
 Alpha virt. eigenvalues --    3.00667   3.01005   3.01484   3.01755   3.01927
 Alpha virt. eigenvalues --    3.02013   3.02207   3.03020   3.03090   3.03277
 Alpha virt. eigenvalues --    3.03881   3.04464   3.04707   3.05011   3.05145
 Alpha virt. eigenvalues --    3.05989   3.06169   3.06415   3.06685   3.06934
 Alpha virt. eigenvalues --    3.07374   3.07905   3.08311   3.08389   3.08892
 Alpha virt. eigenvalues --    3.09365   3.10326   3.10425   3.10739   3.11899
 Alpha virt. eigenvalues --    3.12060   3.12401   3.13196   3.13341   3.14229
 Alpha virt. eigenvalues --    3.14916   3.15066   3.16044   3.16398   3.17691
 Alpha virt. eigenvalues --    3.18662   3.20145   3.20578   3.21499   3.23037
 Alpha virt. eigenvalues --    3.23910   3.28493   3.35015   3.35941   3.38505
 Alpha virt. eigenvalues --    3.41488   3.44382   3.47195   3.50063   3.52949
 Alpha virt. eigenvalues --    3.54931   3.56876   3.58476   3.60871   3.62796
 Alpha virt. eigenvalues --    3.64682   3.69246
          Condensed to atoms (all electrons):
 Mulliken charges:
               1
     1  Mg   0.982665
     2  C   -0.030270
     3  C   -0.072684
     4  C   -0.043437
     5  C   -0.046059
     6  N   -0.431724
     7  C    0.032376
     8  C   -0.072963
     9  C   -0.150716
    10  C    0.119283
    11  C    0.001158
    12  C    0.027641
    13  C   -0.018670
    14  C    0.274808
    15  O   -0.272198
    16  O   -0.392458
    17  N   -0.570007
    18  C    0.196845
    19  C   -0.177495
    20  C   -0.112776
    21  C    0.189382
    22  C    0.062183
    23  C    0.068767
    24  O   -0.249885
    25  C   -0.009610
    26  N   -0.342171
    27  C    0.023029
    28  C   -0.133858
    29  C   -0.046951
    30  C    0.068221
    31  C    0.025788
    32  C   -0.052002
    33  C   -0.068038
    34  N   -0.418335
    35  C    0.087559
    36  C   -0.201736
    37  C   -0.024454
    38  C    0.158662
    39  C    0.060807
    40  C    0.173466
    41  O   -0.205187
    42  C   -0.131329
    43  C    0.275202
    44  O   -0.274555
    45  O   -0.390563
    46  C    0.118276
    47  C    0.215492
    48  C   -0.138301
    49  C   -0.194040
    50  C    0.012716
    51  C    0.032532
    52  C   -0.049364
    53  C    0.009482
    54  C   -0.226170
    55  C   -0.021710
    56  C   -0.001239
    57  C   -0.070199
    58  C   -0.005982
    59  C   -0.246500
    60  C    0.016107
    61  C    0.030114
    62  C   -0.054072
    63  C   -0.000966
    64  C   -0.258490
    65  C   -0.042830
    66  C   -0.028915
    67  H    0.003212
    68  H    0.028278
    69  H    0.005648
    70  H    0.052106
    71  H    0.038314
    72  H    0.054611
    73  H    0.026170
    74  H    0.046345
    75  H    0.036465
    76  H    0.064418
    77  H    0.062973
    78  H    0.064478
    79  H    0.045346
    80  H    0.062622
    81  H    0.042900
    82  H    0.046429
    83  H    0.085442
    84  H    0.057994
    85  H    0.054472
    86  H    0.040243
    87  H    0.048682
    88  H    0.046877
    89  H    0.042646
    90  H    0.034783
    91  H    0.036331
    92  H    0.038892
    93  H    0.042993
    94  H    0.042058
    95  H    0.053829
    96  H    0.046125
    97  H    0.059239
    98  H    0.101697
    99  H    0.074154
   100  H    0.067867
   101  H    0.050630
   102  H    0.042930
   103  H    0.055014
   104  H    0.030241
   105  H    0.046627
   106  H    0.059051
   107  H    0.052396
   108  H    0.043792
   109  H    0.012727
   110  H    0.033386
   111  H    0.039824
   112  H    0.019578
   113  H    0.026767
   114  H    0.036381
   115  H    0.033006
   116  H    0.020276
   117  H    0.039380
   118  H    0.020866
   119  H    0.014452
   120  H    0.036344
   121  H    0.044240
   122  H    0.021668
   123  H    0.034044
   124  H    0.036553
   125  H    0.034443
   126  H    0.031430
   127  H    0.022955
   128  H    0.029885
   129  H    0.028280
   130  H    0.032774
   131  H    0.028805
   132  H    0.024866
   133  H    0.024622
   134  H    0.038540
   135  H    0.027934
   136  H    0.038773
   137  H    0.037082
   138  H    0.031373
   139  H    0.031717
   140  H    0.048067
 Sum of Mulliken charges =  -0.00000
 Mulliken charges with hydrogens summed into heavy atoms:
               1
     1  Mg   0.982665
     2  C   -0.030270
     3  C   -0.069472
     4  C   -0.015160
     5  C   -0.040411
     6  N   -0.431724
     7  C    0.032376
     8  C   -0.020857
     9  C   -0.112402
    10  C    0.119283
    11  C    0.128283
    12  C    0.128524
    13  C    0.108781
    14  C    0.274808
    15  O   -0.272198
    16  O   -0.392458
    17  N   -0.570007
    18  C    0.196845
    19  C   -0.177495
    20  C   -0.112776
    21  C    0.189382
    22  C    0.213051
    23  C    0.068767
    24  O   -0.249885
    25  C    0.180254
    26  N   -0.342171
    27  C    0.023029
    28  C   -0.079386
    29  C   -0.006708
    30  C    0.068221
    31  C    0.163992
    32  C    0.019112
    33  C    0.055905
    34  N   -0.418335
    35  C    0.087559
    36  C   -0.201736
    37  C   -0.024454
    38  C    0.158662
    39  C    0.220000
    40  C    0.173466
    41  O   -0.205187
    42  C   -0.029633
    43  C    0.275202
    44  O   -0.274555
    45  O   -0.390563
    46  C    0.310926
    47  C    0.313436
    48  C   -0.108060
    49  C   -0.194040
    50  C    0.170790
    51  C    0.089050
    52  C    0.023847
    53  C    0.055827
    54  C   -0.189789
    55  C    0.070952
    56  C    0.034079
    57  C    0.010385
    58  C    0.049730
    59  C   -0.209947
    60  C    0.104935
    61  C    0.088279
    62  C    0.007506
    63  C    0.048521
    64  C   -0.219951
    65  C    0.060958
    66  C    0.082242
 Electronic spatial extent (au):  <R**2>=         124167.2197
 Charge=             -0.0000 electrons
 Dipole moment (field-independent basis, Debye):
    X=             -4.2482    Y=              5.0698    Z=             -0.2834  Tot=              6.6204
 Quadrupole moment (field-independent basis, Debye-Ang):
   XX=           -379.5185   YY=           -415.5612   ZZ=           -396.0007
   XY=              4.4125   XZ=             16.9489   YZ=             -5.2264
 Traceless Quadrupole moment (field-independent basis, Debye-Ang):
   XX=             17.5083   YY=            -18.5344   ZZ=              1.0261
   XY=              4.4125   XZ=             16.9489   YZ=             -5.2264
 Octapole moment (field-independent basis, Debye-Ang**2):
  XXX=            171.7440  YYY=            184.1254  ZZZ=             -2.1824  XYY=           -135.9468
  XXY=           -284.7202  XXZ=            173.3375  XZZ=            -16.4282  YZZ=             -9.0272
  YYZ=            -46.3561  XYZ=            -82.1064
 Hexadecapole moment (field-independent basis, Debye-Ang**3):
 XXXX=        -142093.6226 YYYY=         -20986.0458 ZZZZ=          -5703.6761 XXXY=          -2629.7589
 XXXZ=            727.6034 YYYX=            599.0276 YYYZ=           -162.7905 ZZZX=             51.5644
 ZZZY=             71.1907 XXYY=         -28160.0472 XXZZ=         -24849.9102 YYZZ=          -4417.7678
 XXYZ=           -426.2698 YYXZ=              7.4859 ZZXY=            132.6045
 N-N= 9.583498860426D+03 E-N=-2.615874023372D+04  KE= 2.974441933923D+03
 Leave Link  601 at Thu May  5 03:53:57 2022, MaxMem= 10066329600 cpu:              10.4 elap:               0.5
 (Enter /sw/apps/gaussian-16.0/g16/l9999.exe)
 1\1\GINC-BP1-COMPUTE192\SP\RPBE1PBE TD-FC\def2SVP\C55H74Mg1N4O6\OF1564
 1\05-May-2022\0\\#p PBE1PBE/Def2SVP td=(nstates=5)\\step_601_chromopho
 re_10 TDDFT with PBE1PBE functional\\0,1\Mg,0,41.115,7.502,29.435\C,0,
 42.635,9.055,32.094\C,0,38.925,5.993,31.579\C,0,39.757,6.068,26.784\C,
 0,43.726,8.843,27.29\N,0,41.012,7.372,31.593\C,0,41.61,8.2,32.51\C,0,4
 0.949,7.998,33.88\C,0,39.992,6.772,33.672\C,0,39.943,6.614,32.148\C,0,
 40.571,5.445,34.289\C,0,40.199,9.282,34.203\C,0,40.196,9.684,35.707\C,
 0,40.856,11.054,36.02\O,0,41.659,11.665,35.277\O,0,40.332,11.607,37.22
 8\N,0,39.6,6.265,29.212\C,0,38.7,5.876,30.224\C,0,37.539,5.184,29.606\
 C,0,37.819,5.217,28.186\C,0,39.08,5.853,28.006\C,0,36.393,4.427,30.384
 \C,0,36.885,4.771,27.008\O,0,37.225,4.832,25.815\C,0,35.516,4.462,27.4
 22\N,0,41.761,7.45,27.327\C,0,40.93,6.821,26.497\C,0,41.433,6.929,25.0
 05\C,0,42.605,7.91,25.153\C,0,42.71,8.116,26.643\C,0,41.779,5.573,24.3
 25\C,0,42.495,9.173,24.358\C,0,41.329,10.143,24.55\N,0,42.83,8.72,29.6
 62\C,0,43.786,9.171,28.745\C,0,44.722,10.019,29.415\C,0,44.327,10.016,
 30.718\C,0,43.148,9.194,30.814\C,0,45.914,10.711,28.728\C,0,44.61,10.5
 06,32.059\O,0,45.475,11.276,32.454\C,0,43.476,9.857,32.989\C,0,44.041,
 8.879,33.987\O,0,44.905,8.015,33.726\O,0,43.723,9.202,35.285\C,0,44.18
 4,8.446,36.538\C,0,40.79,12.97,37.603\C,0,40.339,13.188,39.082\C,0,41.
 066,12.864,40.184\C,0,42.463,12.232,40.129\C,0,40.494,13.065,41.597\C,
 0,39.275,12.263,42.025\C,0,39.468,10.999,42.88\C,0,38.595,11.094,44.16
 4\C,0,39.215,10.319,45.369\C,0,37.114,10.733,43.906\C,0,36.081,11.88,4
 4.311\C,0,35.489,12.657,43.158\C,0,33.921,12.695,43.302\C,0,33.23,12.9
 44,41.974\C,0,33.522,13.82,44.332\C,0,32.765,13.252,45.53\C,0,33.357,1
 3.787,46.901\C,0,33.921,12.67,47.773\C,0,33.379,12.711,49.278\C,0,35.5
 26,12.535,47.79\H,0,38.163,5.693,32.302\H,0,39.459,5.551,25.87\H,0,44.
 403,9.407,26.645\H,0,41.681,7.764,34.652\H,0,39.052,6.918,34.204\H,0,4
 0.598,4.638,33.556\H,0,39.863,5.171,35.07\H,0,41.513,5.447,34.837\H,0,
 39.148,9.242,33.916\H,0,40.633,10.067,33.583\H,0,40.786,8.949,36.253\H
 ,0,39.171,9.615,36.073\H,0,36.438,4.459,31.472\H,0,36.287,3.432,29.951
 \H,0,35.456,4.938,30.161\H,0,34.973,4.216,26.51\H,0,35.039,5.32,27.896
 \H,0,35.616,3.522,27.966\H,0,40.572,7.364,24.499\H,0,43.548,7.515,24.7
 73\H,0,41.315,4.763,24.887\H,0,42.863,5.485,24.252\H,0,41.277,5.505,23
 .36\H,0,42.401,8.8,23.338\H,0,43.435,9.723,24.333\H,0,40.665,10.109,23
 .687\H,0,41.63,11.178,24.713\H,0,40.657,9.965,25.389\H,0,46.444,11.472
 ,29.299\H,0,45.567,11.237,27.838\H,0,46.691,9.987,28.481\H,0,43.127,10
 .719,33.558\H,0,44.799,9.048,37.207\H,0,44.744,7.572,36.203\H,0,43.412
 ,8.019,37.178\H,0,40.333,13.78,37.033\H,0,41.849,13.207,37.501\H,0,39.
 305,13.532,39.116\H,0,42.365,11.371,40.79\H,0,43.22,12.886,40.562\H,0,
 42.74,11.92,39.122\H,0,40.317,14.128,41.763\H,0,41.309,12.85,42.287\H,
 0,38.81,11.84,41.135\H,0,38.502,12.918,42.426\H,0,40.521,10.777,43.055
 \H,0,39.08,10.129,42.352\H,0,38.6,12.132,44.497\H,0,38.654,10.269,46.3
 03\H,0,39.995,10.999,45.713\H,0,39.725,9.378,45.162\H,0,36.932,9.769,4
 4.381\H,0,36.91,10.465,42.87\H,0,36.648,12.546,44.961\H,0,35.329,11.39
 9,44.936\H,0,35.806,12.123,42.262\H,0,35.834,13.684,43.044\H,0,33.655,
 11.668,43.553\H,0,32.63,12.05,41.802\H,0,34.,13.208,41.25\H,0,32.529,1
 3.778,41.955\H,0,32.828,14.553,43.92\H,0,34.365,14.398,44.711\H,0,32.7
 9,12.17,45.655\H,0,31.726,13.572,45.459\H,0,32.566,14.31,47.439\H,0,34
 .149,14.522,46.758\H,0,33.55,11.713,47.404\H,0,34.079,12.35,50.031\H,0
 ,32.498,12.083,49.413\H,0,33.176,13.746,49.553\H,0,35.856,12.496,48.82
 8\H,0,35.992,13.399,47.317\H,0,35.887,11.666,47.239\\Version=ES64L-G16
 RevA.03\State=1-A\HF=-3005.3354087\RMSD=4.724e-09\PG=C01 [X(C55H74Mg1N
 4O6)]\\@


 "PERFECTION IS NOT AN ACCIDENT"
         --  EAGLE ELECTRIC MANUFACTURING CO.,INC. NY
 Job cpu time:       0 days  6 hours 47 minutes 14.4 seconds.
 Elapsed time:       0 days  0 hours 17 minutes  4.2 seconds.
 File lengths (MBytes):  RWF=   8929 Int=      0 D2E=      0 Chk=    390 Scr=      1
 Normal termination of Gaussian 16 at Thu May  5 03:53:58 2022.
