 Entering Gaussian System, Link 0=g16
 Initial command:
 /sw/apps/gaussian-16.0/g16/l1.exe "/tmp/Gau-173787.inp" -scrdir="/tmp/"
 Entering Link 1 = /sw/apps/gaussian-16.0/g16/l1.exe PID=    173788.
  
 Copyright (c) 1988,1990,1992,1993,1995,1998,2003,2009,2016,
            Gaussian, Inc.  All Rights Reserved.
  
 This is part of the Gaussian(R) 16 program.  It is based on
 the Gaussian(R) 09 system (copyright 2009, Gaussian, Inc.),
 the Gaussian(R) 03 system (copyright 2003, Gaussian, Inc.),
 the Gaussian(R) 98 system (copyright 1998, Gaussian, Inc.),
 the Gaussian(R) 94 system (copyright 1995, Gaussian, Inc.),
 the Gaussian 92(TM) system (copyright 1992, Gaussian, Inc.),
 the Gaussian 90(TM) system (copyright 1990, Gaussian, Inc.),
 the Gaussian 88(TM) system (copyright 1988, Gaussian, Inc.),
 the Gaussian 86(TM) system (copyright 1986, Carnegie Mellon
 University), and the Gaussian 82(TM) system (copyright 1983,
 Carnegie Mellon University). Gaussian is a federally registered
 trademark of Gaussian, Inc.
  
 This software contains proprietary and confidential information,
 including trade secrets, belonging to Gaussian, Inc.
  
 This software is provided under written license and may be
 used, copied, transmitted, or stored only in accord with that
 written license.
  
 The following legend is applicable only to US Government
 contracts under FAR:
  
                    RESTRICTED RIGHTS LEGEND
  
 Use, reproduction and disclosure by the US Government is
 subject to restrictions as set forth in subparagraphs (a)
 and (c) of the Commercial Computer Software - Restricted
 Rights clause in FAR 52.227-19.
  
 Gaussian, Inc.
 340 Quinnipiac St., Bldg. 40, Wallingford CT 06492
  
  
 ---------------------------------------------------------------
 Warning -- This program may not be used in any manner that
 competes with the business of Gaussian, Inc. or will provide
 assistance to any competitor of Gaussian, Inc.  The licensee
 of this program is prohibited from giving any competitor of
 Gaussian, Inc. access to this program.  By using this program,
 the user acknowledges that Gaussian, Inc. is engaged in the
 business of creating and licensing software in the field of
 computational chemistry and represents and warrants to the
 licensee that it is not a competitor of Gaussian, Inc. and that
 it will not use this program in any manner prohibited above.
 ---------------------------------------------------------------
  

 Cite this work as:
 Gaussian 16, Revision A.03,
 M. J. Frisch, G. W. Trucks, H. B. Schlegel, G. E. Scuseria, 
 M. A. Robb, J. R. Cheeseman, G. Scalmani, V. Barone, 
 G. A. Petersson, H. Nakatsuji, X. Li, M. Caricato, A. V. Marenich, 
 J. Bloino, B. G. Janesko, R. Gomperts, B. Mennucci, H. P. Hratchian, 
 J. V. Ortiz, A. F. Izmaylov, J. L. Sonnenberg, D. Williams-Young, 
 F. Ding, F. Lipparini, F. Egidi, J. Goings, B. Peng, A. Petrone, 
 T. Henderson, D. Ranasinghe, V. G. Zakrzewski, J. Gao, N. Rega, 
 G. Zheng, W. Liang, M. Hada, M. Ehara, K. Toyota, R. Fukuda, 
 J. Hasegawa, M. Ishida, T. Nakajima, Y. Honda, O. Kitao, H. Nakai, 
 T. Vreven, K. Throssell, J. A. Montgomery, Jr., J. E. Peralta, 
 F. Ogliaro, M. J. Bearpark, J. J. Heyd, E. N. Brothers, K. N. Kudin, 
 V. N. Staroverov, T. A. Keith, R. Kobayashi, J. Normand, 
 K. Raghavachari, A. P. Rendell, J. C. Burant, S. S. Iyengar, 
 J. Tomasi, M. Cossi, J. M. Millam, M. Klene, C. Adamo, R. Cammi, 
 J. W. Ochterski, R. L. Martin, K. Morokuma, O. Farkas, 
 J. B. Foresman, and D. J. Fox, Gaussian, Inc., Wallingford CT, 2016.
 
 ******************************************
 Gaussian 16:  ES64L-G16RevA.03 25-Dec-2016
                 4-May-2022 
 ******************************************
 %nproc=24
 Will use up to   24 processors via shared memory.
 %mem=50gb
 --------------------
 #p ZINDO=(nstates=5)
 --------------------
 1/38=1,172=1/1;
 2/12=2,17=6,18=5,40=1/2;
 3/5=2,25=1,41=400000/1,2,3,8;
 4/5=3,35=1/1;
 5/5=2,35=1,38=5/2;
 8/6=1,108=5/1;
 9/41=5,42=1,49=10/14;
 6/7=2,8=2,9=2,10=2/1;
 99/5=1,9=1/99;
 Leave Link    1 at Wed May  4 06:56:08 2022, MaxMem=  6710886400 cpu:               0.7 elap:               0.0
 (Enter /sw/apps/gaussian-16.0/g16/l101.exe)
 -----------------------------
 step_1401_chromophore_6 ZINDO
 -----------------------------
 Symbolic Z-matrix:
 Charge =  0 Multiplicity = 1
 Mg                    17.198   -2.429     28.143 
 C                     16.393   -0.194     30.806 
 C                     19.168   -4.089     30.29 
 C                     18.59    -3.86      25.599 
 C                     15.692    0.044     26.021 
 N                     17.879   -1.986     30.283 
 C                     17.214   -1.253     31.247 
 C                     17.525   -1.705     32.649 
 C                     18.644   -2.763     32.367 
 C                     18.521   -3.006     30.854 
 C                     20.048   -2.329     32.819 
 C                     16.303   -2.22      33.484 
 C                     16.242   -1.672     34.922 
 C                     17.492   -1.039     35.582 
 O                     17.658    0.166     35.749 
 O                     18.424   -1.981     35.98 
 N                     18.568   -3.975     27.97 
 C                     19.181   -4.545     28.967 
 C                     19.826   -5.772     28.487 
 C                     19.757   -5.69      27.066 
 C                     18.946   -4.48      26.838 
 C                     20.423   -6.87      29.356 
 C                     20.198   -6.64      25.982 
 O                     19.877   -6.466     24.81 
 C                     20.856   -8.034     26.33 
 N                     17.108   -1.985     26.146 
 C                     17.834   -2.704     25.26 
 C                     17.642   -2.238     23.742 
 C                     16.681   -1.084     23.96 
 C                     16.398   -1.006     25.441 
 C                     19.047   -1.693     23.131 
 C                     15.392   -1.052     23.081 
 C                     14.125   -1.569     23.633 
 N                     16.117   -0.514     28.318 
 C                     15.46     0.294     27.384 
 C                     14.851    1.362     28.031 
 C                     15.197    1.23      29.365 
 C                     15.996    0.095     29.483 
 C                     13.95     2.521     27.455 
 C                     15.054    1.84      30.634 
 O                     14.448    2.902     31.011 
 C                     15.673    0.85      31.658 
 C                     16.595    1.691     32.537 
 O                     17.69     2.229     32.318 
 O                     15.881    1.985     33.636 
 C                     16.303    3.086     34.448 
 C                     19.565   -1.505     36.677 
 C                     20.157   -2.753     37.276 
 C                     20.539   -2.979     38.554 
 C                     19.967   -2.197     39.63 
 C                     21.336   -4.251     38.833 
 C                     20.516   -5.479     39.093 
 C                     20.567   -5.917     40.563 
 C                     20.856   -7.421     40.603 
 C                     19.56    -8.291     40.905 
 C                     21.968   -7.864     41.523 
 C                     23.224   -8.459     40.757 
 C                     24.594   -8.303     41.367 
 C                     25.463   -9.58      41.569 
 C                     26.463   -9.258     42.707 
 C                     26.263   -10.121    40.268 
 C                     25.771   -11.465    39.716 
 C                     25.991   -11.591    38.206 
 C                     26.855   -12.803    37.745 
 C                     26.266   -13.454    36.533 
 C                     28.4     -12.529    37.662 
 H                     19.762   -4.701     30.972 
 H                     19.003   -4.291     24.684 
 H                     15.236    0.769     25.344 
 H                     17.789   -0.798     33.193 
 H                     18.433   -3.696     32.889 
 H                     20.2     -1.3       33.144 
 H                     20.704   -2.576     31.984 
 H                     20.403   -3.011     33.592 
 H                     16.274   -3.303     33.606 
 H                     15.44    -2.035     32.844 
 H                     16.008   -2.441     35.658 
 H                     15.431   -0.949     34.848 
 H                     20.567   -6.59      30.399 
 H                     21.401   -7.064     28.913 
 H                     19.71    -7.692     29.285 
 H                     20.17    -8.623     26.939 
 H                     21.848   -7.86      26.748 
 H                     20.982   -8.611     25.414 
 H                     17.157   -3.038     23.183 
 H                     17.194   -0.138     23.784 
 H                     18.921   -0.767     22.571 
 H                     19.364   -2.351     22.322 
 H                     19.933   -1.628     23.762 
 H                     15.543   -1.725     22.237 
 H                     15.186   -0.076     22.641 
 H                     14.349   -2.458     24.223 
 H                     13.392   -1.818     22.866 
 H                     13.703   -0.916     24.398 
 H                     12.932    2.284     27.145 
 H                     14.533    3.024     26.684 
 H                     13.861    3.322     28.189 
 H                     14.907    0.406     32.294 
 H                     15.992    4.035     34.012 
 H                     17.393    3.092     34.438 
 H                     15.805    2.953     35.408 
 H                     19.373   -0.689     37.374 
 H                     20.316   -1.286     35.919 
 H                     20.604   -3.408     36.528 
 H                     19.715   -2.936     40.391 
 H                     19.093   -1.602     39.364 
 H                     20.623   -1.392     39.962 
 H                     22.194   -3.956     39.436 
 H                     21.842   -4.488     37.897 
 H                     20.846   -6.166     38.314 
 H                     19.47    -5.205     38.953 
 H                     19.596   -5.771     41.037 
 H                     21.365   -5.417     41.111 
 H                     21.151   -7.77      39.613 
 H                     18.743   -7.623     40.634 
 H                     19.595   -8.552     41.963 
 H                     19.521   -9.16      40.249 
 H                     21.653   -8.548     42.31 
 H                     22.403   -7.011     42.044 
 H                     23.297   -7.917     39.814 
 H                     22.974   -9.467     40.425 
 H                     24.451   -7.772     42.308 
 H                     25.098   -7.606     40.697 
 H                     24.835   -10.396    41.928 
 H                     27.496   -9.542     42.507 
 H                     26.112   -9.916     43.502 
 H                     26.358   -8.255     43.122 
 H                     27.336   -10.219    40.433 
 H                     26.253   -9.297     39.554 
 H                     24.742   -11.441    40.073 
 H                     26.3     -12.306    40.165 
 H                     26.506   -10.733    37.772 
 H                     25.017   -11.613    37.718 
 H                     26.84    -13.495    38.587 
 H                     25.569   -14.265    36.739 
 H                     27.08    -13.865    35.936 
 H                     25.751   -12.693    35.946 
 H                     28.986   -13.312    38.142 
 H                     28.691   -11.547    38.034 
 H                     28.685   -12.481    36.611 
 
 ITRead=  0  0  0  0  0  0  0  0  0  0  0  0  0  0  0  0  0  0  0  0
 ITRead=  0  0  0  0  0  0  0  0  0  0  0  0  0  0  0  0  0  0  0  0
 ITRead=  0  0  0  0  0  0  0  0  0  0  0  0  0  0  0  0  0  0  0  0
 ITRead=  0  0  0  0  0  0  0  0  0  0  0  0  0  0  0  0  0  0  0  0
 ITRead=  0  0  0  0  0  0  0  0  0  0  0  0  0  0  0  0  0  0  0  0
 ITRead=  0  0  0  0  0  0  0  0  0  0  0  0  0  0  0  0  0  0  0  0
 ITRead=  0  0  0  0  0  0  0  0  0  0  0  0  0  0  0  0  0  0  0  0
 MicOpt= -1 -1 -1 -1 -1 -1 -1 -1 -1 -1 -1 -1 -1 -1 -1 -1 -1 -1 -1 -1
 MicOpt= -1 -1 -1 -1 -1 -1 -1 -1 -1 -1 -1 -1 -1 -1 -1 -1 -1 -1 -1 -1
 MicOpt= -1 -1 -1 -1 -1 -1 -1 -1 -1 -1 -1 -1 -1 -1 -1 -1 -1 -1 -1 -1
 MicOpt= -1 -1 -1 -1 -1 -1 -1 -1 -1 -1 -1 -1 -1 -1 -1 -1 -1 -1 -1 -1
 MicOpt= -1 -1 -1 -1 -1 -1 -1 -1 -1 -1 -1 -1 -1 -1 -1 -1 -1 -1 -1 -1
 MicOpt= -1 -1 -1 -1 -1 -1 -1 -1 -1 -1 -1 -1 -1 -1 -1 -1 -1 -1 -1 -1
 MicOpt= -1 -1 -1 -1 -1 -1 -1 -1 -1 -1 -1 -1 -1 -1 -1 -1 -1 -1 -1 -1
 NAtoms=    140 NQM=      140 NQMF=       0 NMMI=      0 NMMIF=      0
                NMic=       0 NMicF=      0.
                    Isotopes and Nuclear Properties:
 (Nuclear quadrupole moments (NQMom) in fm**2, nuclear magnetic moments (NMagM)
  in nuclear magnetons)

  Atom         1           2           3           4           5           6           7           8           9          10
 IAtWgt=          24          12          12          12          12          14          12          12          12          12
 AtmWgt=  23.9850450  12.0000000  12.0000000  12.0000000  12.0000000  14.0030740  12.0000000  12.0000000  12.0000000  12.0000000
 NucSpn=           0           0           0           0           0           2           0           0           0           0
 AtZEff=  -0.0000000  -0.0000000  -0.0000000  -0.0000000  -0.0000000  -0.0000000  -0.0000000  -0.0000000  -0.0000000  -0.0000000
 NQMom=    0.0000000   0.0000000   0.0000000   0.0000000   0.0000000   2.0440000   0.0000000   0.0000000   0.0000000   0.0000000
 NMagM=    0.0000000   0.0000000   0.0000000   0.0000000   0.0000000   0.4037610   0.0000000   0.0000000   0.0000000   0.0000000
 AtZNuc=  12.0000000   6.0000000   6.0000000   6.0000000   6.0000000   7.0000000   6.0000000   6.0000000   6.0000000   6.0000000

  Atom        11          12          13          14          15          16          17          18          19          20
 IAtWgt=          12          12          12          12          16          16          14          12          12          12
 AtmWgt=  12.0000000  12.0000000  12.0000000  12.0000000  15.9949146  15.9949146  14.0030740  12.0000000  12.0000000  12.0000000
 NucSpn=           0           0           0           0           0           0           2           0           0           0
 AtZEff=  -0.0000000  -0.0000000  -0.0000000  -0.0000000  -0.0000000  -0.0000000  -0.0000000  -0.0000000  -0.0000000  -0.0000000
 NQMom=    0.0000000   0.0000000   0.0000000   0.0000000   0.0000000   0.0000000   2.0440000   0.0000000   0.0000000   0.0000000
 NMagM=    0.0000000   0.0000000   0.0000000   0.0000000   0.0000000   0.0000000   0.4037610   0.0000000   0.0000000   0.0000000
 AtZNuc=   6.0000000   6.0000000   6.0000000   6.0000000   8.0000000   8.0000000   7.0000000   6.0000000   6.0000000   6.0000000

  Atom        21          22          23          24          25          26          27          28          29          30
 IAtWgt=          12          12          12          16          12          14          12          12          12          12
 AtmWgt=  12.0000000  12.0000000  12.0000000  15.9949146  12.0000000  14.0030740  12.0000000  12.0000000  12.0000000  12.0000000
 NucSpn=           0           0           0           0           0           2           0           0           0           0
 AtZEff=  -0.0000000  -0.0000000  -0.0000000  -0.0000000  -0.0000000  -0.0000000  -0.0000000  -0.0000000  -0.0000000  -0.0000000
 NQMom=    0.0000000   0.0000000   0.0000000   0.0000000   0.0000000   2.0440000   0.0000000   0.0000000   0.0000000   0.0000000
 NMagM=    0.0000000   0.0000000   0.0000000   0.0000000   0.0000000   0.4037610   0.0000000   0.0000000   0.0000000   0.0000000
 AtZNuc=   6.0000000   6.0000000   6.0000000   8.0000000   6.0000000   7.0000000   6.0000000   6.0000000   6.0000000   6.0000000

  Atom        31          32          33          34          35          36          37          38          39          40
 IAtWgt=          12          12          12          14          12          12          12          12          12          12
 AtmWgt=  12.0000000  12.0000000  12.0000000  14.0030740  12.0000000  12.0000000  12.0000000  12.0000000  12.0000000  12.0000000
 NucSpn=           0           0           0           2           0           0           0           0           0           0
 AtZEff=  -0.0000000  -0.0000000  -0.0000000  -0.0000000  -0.0000000  -0.0000000  -0.0000000  -0.0000000  -0.0000000  -0.0000000
 NQMom=    0.0000000   0.0000000   0.0000000   2.0440000   0.0000000   0.0000000   0.0000000   0.0000000   0.0000000   0.0000000
 NMagM=    0.0000000   0.0000000   0.0000000   0.4037610   0.0000000   0.0000000   0.0000000   0.0000000   0.0000000   0.0000000
 AtZNuc=   6.0000000   6.0000000   6.0000000   7.0000000   6.0000000   6.0000000   6.0000000   6.0000000   6.0000000   6.0000000

  Atom        41          42          43          44          45          46          47          48          49          50
 IAtWgt=          16          12          12          16          16          12          12          12          12          12
 AtmWgt=  15.9949146  12.0000000  12.0000000  15.9949146  15.9949146  12.0000000  12.0000000  12.0000000  12.0000000  12.0000000
 NucSpn=           0           0           0           0           0           0           0           0           0           0
 AtZEff=  -0.0000000  -0.0000000  -0.0000000  -0.0000000  -0.0000000  -0.0000000  -0.0000000  -0.0000000  -0.0000000  -0.0000000
 NQMom=    0.0000000   0.0000000   0.0000000   0.0000000   0.0000000   0.0000000   0.0000000   0.0000000   0.0000000   0.0000000
 NMagM=    0.0000000   0.0000000   0.0000000   0.0000000   0.0000000   0.0000000   0.0000000   0.0000000   0.0000000   0.0000000
 AtZNuc=   8.0000000   6.0000000   6.0000000   8.0000000   8.0000000   6.0000000   6.0000000   6.0000000   6.0000000   6.0000000

  Atom        51          52          53          54          55          56          57          58          59          60
 IAtWgt=          12          12          12          12          12          12          12          12          12          12
 AtmWgt=  12.0000000  12.0000000  12.0000000  12.0000000  12.0000000  12.0000000  12.0000000  12.0000000  12.0000000  12.0000000
 NucSpn=           0           0           0           0           0           0           0           0           0           0
 AtZEff=  -0.0000000  -0.0000000  -0.0000000  -0.0000000  -0.0000000  -0.0000000  -0.0000000  -0.0000000  -0.0000000  -0.0000000
 NQMom=    0.0000000   0.0000000   0.0000000   0.0000000   0.0000000   0.0000000   0.0000000   0.0000000   0.0000000   0.0000000
 NMagM=    0.0000000   0.0000000   0.0000000   0.0000000   0.0000000   0.0000000   0.0000000   0.0000000   0.0000000   0.0000000
 AtZNuc=   6.0000000   6.0000000   6.0000000   6.0000000   6.0000000   6.0000000   6.0000000   6.0000000   6.0000000   6.0000000

  Atom        61          62          63          64          65          66          67          68          69          70
 IAtWgt=          12          12          12          12          12          12           1           1           1           1
 AtmWgt=  12.0000000  12.0000000  12.0000000  12.0000000  12.0000000  12.0000000   1.0078250   1.0078250   1.0078250   1.0078250
 NucSpn=           0           0           0           0           0           0           1           1           1           1
 AtZEff=  -0.0000000  -0.0000000  -0.0000000  -0.0000000  -0.0000000  -0.0000000  -0.0000000  -0.0000000  -0.0000000  -0.0000000
 NQMom=    0.0000000   0.0000000   0.0000000   0.0000000   0.0000000   0.0000000   0.0000000   0.0000000   0.0000000   0.0000000
 NMagM=    0.0000000   0.0000000   0.0000000   0.0000000   0.0000000   0.0000000   2.7928460   2.7928460   2.7928460   2.7928460
 AtZNuc=   6.0000000   6.0000000   6.0000000   6.0000000   6.0000000   6.0000000   1.0000000   1.0000000   1.0000000   1.0000000

  Atom        71          72          73          74          75          76          77          78          79          80
 IAtWgt=           1           1           1           1           1           1           1           1           1           1
 AtmWgt=   1.0078250   1.0078250   1.0078250   1.0078250   1.0078250   1.0078250   1.0078250   1.0078250   1.0078250   1.0078250
 NucSpn=           1           1           1           1           1           1           1           1           1           1
 AtZEff=  -0.0000000  -0.0000000  -0.0000000  -0.0000000  -0.0000000  -0.0000000  -0.0000000  -0.0000000  -0.0000000  -0.0000000
 NQMom=    0.0000000   0.0000000   0.0000000   0.0000000   0.0000000   0.0000000   0.0000000   0.0000000   0.0000000   0.0000000
 NMagM=    2.7928460   2.7928460   2.7928460   2.7928460   2.7928460   2.7928460   2.7928460   2.7928460   2.7928460   2.7928460
 AtZNuc=   1.0000000   1.0000000   1.0000000   1.0000000   1.0000000   1.0000000   1.0000000   1.0000000   1.0000000   1.0000000

  Atom        81          82          83          84          85          86          87          88          89          90
 IAtWgt=           1           1           1           1           1           1           1           1           1           1
 AtmWgt=   1.0078250   1.0078250   1.0078250   1.0078250   1.0078250   1.0078250   1.0078250   1.0078250   1.0078250   1.0078250
 NucSpn=           1           1           1           1           1           1           1           1           1           1
 AtZEff=  -0.0000000  -0.0000000  -0.0000000  -0.0000000  -0.0000000  -0.0000000  -0.0000000  -0.0000000  -0.0000000  -0.0000000
 NQMom=    0.0000000   0.0000000   0.0000000   0.0000000   0.0000000   0.0000000   0.0000000   0.0000000   0.0000000   0.0000000
 NMagM=    2.7928460   2.7928460   2.7928460   2.7928460   2.7928460   2.7928460   2.7928460   2.7928460   2.7928460   2.7928460
 AtZNuc=   1.0000000   1.0000000   1.0000000   1.0000000   1.0000000   1.0000000   1.0000000   1.0000000   1.0000000   1.0000000

  Atom        91          92          93          94          95          96          97          98          99         100
 IAtWgt=           1           1           1           1           1           1           1           1           1           1
 AtmWgt=   1.0078250   1.0078250   1.0078250   1.0078250   1.0078250   1.0078250   1.0078250   1.0078250   1.0078250   1.0078250
 NucSpn=           1           1           1           1           1           1           1           1           1           1
 AtZEff=  -0.0000000  -0.0000000  -0.0000000  -0.0000000  -0.0000000  -0.0000000  -0.0000000  -0.0000000  -0.0000000  -0.0000000
 NQMom=    0.0000000   0.0000000   0.0000000   0.0000000   0.0000000   0.0000000   0.0000000   0.0000000   0.0000000   0.0000000
 NMagM=    2.7928460   2.7928460   2.7928460   2.7928460   2.7928460   2.7928460   2.7928460   2.7928460   2.7928460   2.7928460
 AtZNuc=   1.0000000   1.0000000   1.0000000   1.0000000   1.0000000   1.0000000   1.0000000   1.0000000   1.0000000   1.0000000

  Atom       101         102         103         104         105         106         107         108         109         110
 IAtWgt=           1           1           1           1           1           1           1           1           1           1
 AtmWgt=   1.0078250   1.0078250   1.0078250   1.0078250   1.0078250   1.0078250   1.0078250   1.0078250   1.0078250   1.0078250
 NucSpn=           1           1           1           1           1           1           1           1           1           1
 AtZEff=  -0.0000000  -0.0000000  -0.0000000  -0.0000000  -0.0000000  -0.0000000  -0.0000000  -0.0000000  -0.0000000  -0.0000000
 NQMom=    0.0000000   0.0000000   0.0000000   0.0000000   0.0000000   0.0000000   0.0000000   0.0000000   0.0000000   0.0000000
 NMagM=    2.7928460   2.7928460   2.7928460   2.7928460   2.7928460   2.7928460   2.7928460   2.7928460   2.7928460   2.7928460
 AtZNuc=   1.0000000   1.0000000   1.0000000   1.0000000   1.0000000   1.0000000   1.0000000   1.0000000   1.0000000   1.0000000

  Atom       111         112         113         114         115         116         117         118         119         120
 IAtWgt=           1           1           1           1           1           1           1           1           1           1
 AtmWgt=   1.0078250   1.0078250   1.0078250   1.0078250   1.0078250   1.0078250   1.0078250   1.0078250   1.0078250   1.0078250
 NucSpn=           1           1           1           1           1           1           1           1           1           1
 AtZEff=  -0.0000000  -0.0000000  -0.0000000  -0.0000000  -0.0000000  -0.0000000  -0.0000000  -0.0000000  -0.0000000  -0.0000000
 NQMom=    0.0000000   0.0000000   0.0000000   0.0000000   0.0000000   0.0000000   0.0000000   0.0000000   0.0000000   0.0000000
 NMagM=    2.7928460   2.7928460   2.7928460   2.7928460   2.7928460   2.7928460   2.7928460   2.7928460   2.7928460   2.7928460
 AtZNuc=   1.0000000   1.0000000   1.0000000   1.0000000   1.0000000   1.0000000   1.0000000   1.0000000   1.0000000   1.0000000

  Atom       121         122         123         124         125         126         127         128         129         130
 IAtWgt=           1           1           1           1           1           1           1           1           1           1
 AtmWgt=   1.0078250   1.0078250   1.0078250   1.0078250   1.0078250   1.0078250   1.0078250   1.0078250   1.0078250   1.0078250
 NucSpn=           1           1           1           1           1           1           1           1           1           1
 AtZEff=  -0.0000000  -0.0000000  -0.0000000  -0.0000000  -0.0000000  -0.0000000  -0.0000000  -0.0000000  -0.0000000  -0.0000000
 NQMom=    0.0000000   0.0000000   0.0000000   0.0000000   0.0000000   0.0000000   0.0000000   0.0000000   0.0000000   0.0000000
 NMagM=    2.7928460   2.7928460   2.7928460   2.7928460   2.7928460   2.7928460   2.7928460   2.7928460   2.7928460   2.7928460
 AtZNuc=   1.0000000   1.0000000   1.0000000   1.0000000   1.0000000   1.0000000   1.0000000   1.0000000   1.0000000   1.0000000

  Atom       131         132         133         134         135         136         137         138         139         140
 IAtWgt=           1           1           1           1           1           1           1           1           1           1
 AtmWgt=   1.0078250   1.0078250   1.0078250   1.0078250   1.0078250   1.0078250   1.0078250   1.0078250   1.0078250   1.0078250
 NucSpn=           1           1           1           1           1           1           1           1           1           1
 AtZEff=  -0.0000000  -0.0000000  -0.0000000  -0.0000000  -0.0000000  -0.0000000  -0.0000000  -0.0000000  -0.0000000  -0.0000000
 NQMom=    0.0000000   0.0000000   0.0000000   0.0000000   0.0000000   0.0000000   0.0000000   0.0000000   0.0000000   0.0000000
 NMagM=    2.7928460   2.7928460   2.7928460   2.7928460   2.7928460   2.7928460   2.7928460   2.7928460   2.7928460   2.7928460
 AtZNuc=   1.0000000   1.0000000   1.0000000   1.0000000   1.0000000   1.0000000   1.0000000   1.0000000   1.0000000   1.0000000
 Leave Link  101 at Wed May  4 06:56:08 2022, MaxMem=  6710886400 cpu:               3.0 elap:               0.1
 (Enter /sw/apps/gaussian-16.0/g16/l202.exe)
 Stoichiometry    C55H74MgN4O6
 Framework group  C1[X(C55H74MgN4O6)]
 Deg. of freedom   414
 Full point group                 C1      NOp   1
 Largest Abelian subgroup         C1      NOp   1
 Largest concise Abelian subgroup C1      NOp   1
                         Standard orientation:                         
 ---------------------------------------------------------------------
 Center     Atomic      Atomic             Coordinates (Angstroms)
 Number     Number       Type             X           Y           Z
 ---------------------------------------------------------------------
      1         12           0        4.838527    1.288476    0.434737
      2          6           0        4.303409   -2.224491    0.106823
      3          6           0        1.533245    1.707585    0.053202
      4          6           0        5.408039    4.415296   -0.161932
      5          6           0        8.308722    0.492921   -0.025145
      6          7           0        3.146738   -0.150013   -0.120429
      7          6           0        3.086194   -1.511476    0.106647
      8          6           0        1.678903   -2.017305    0.280710
      9          6           0        0.865982   -0.719714   -0.045581
     10          6           0        1.932964    0.385280    0.016746
     11          6           0        0.100191   -0.775754   -1.377609
     12          6           0        1.362134   -2.683455    1.663330
     13          6           0        0.583025   -4.008273    1.564768
     14          6           0       -0.171206   -4.388809    0.266648
     15          8           0        0.213815   -5.227012   -0.543688
     16          8           0       -1.350055   -3.682895    0.104187
     17          7           0        3.592980    2.928766    0.200198
     18          6           0        2.293079    2.878713    0.150906
     19          6           0        1.761656    4.239729    0.281974
     20          6           0        2.893239    5.091330    0.123794
     21          6           0        4.020296    4.143370    0.053670
     22          6           0        0.308124    4.614100    0.535480
     23          6           0        3.039933    6.590088    0.188940
     24          8           0        4.145139    7.123903    0.210441
     25          6           0        1.803637    7.522956    0.502998
     26          7           0        6.585289    2.272114    0.016975
     27          6           0        6.566654    3.596083   -0.258327
     28          6           0        8.013118    4.213240   -0.550224
     29          6           0        8.848476    2.953667   -0.414530
     30          6           0        7.910104    1.826115   -0.057290
     31          6           0        8.093984    4.781337   -2.071769
     32          6           0       10.106847    3.026700    0.505446
     33          6           0       10.020769    2.530493    1.892404
     34          7           0        6.130199   -0.487230    0.222934
     35          6           0        7.518712   -0.651115    0.177738
     36          6           0        7.831909   -2.003758    0.128969
     37          6           0        6.614834   -2.661952    0.082008
     38          6           0        5.611747   -1.695614    0.105626
     39          6           0        9.234853   -2.723848    0.120217
     40          6           0        6.029280   -3.947373   -0.005909
     41          8           0        6.539669   -5.118018   -0.085290
     42          6           0        4.502522   -3.737231    0.185631
     43          6           0        3.835241   -4.520443   -0.941898
     44          8           0        3.761353   -4.320558   -2.162970
     45          8           0        3.483067   -5.700584   -0.405919
     46          6           0        3.219720   -6.797490   -1.287437
     47          6           0       -2.158513   -4.025399   -1.010871
     48          6           0       -3.481145   -3.377516   -0.698363
     49          6           0       -4.718477   -3.923858   -0.726700
     50          6           0       -4.881144   -5.356100   -0.589931
     51          6           0       -5.907327   -2.973864   -0.603486
     52          6           0       -6.324355   -2.644942    0.798614
     53          6           0       -7.657201   -3.301744    1.182642
     54          6           0       -8.549074   -2.232823    1.822258
     55          6           0       -8.606837   -2.344370    3.407168
     56          6           0       -9.957051   -2.129173    1.287421
     57          6           0      -10.246334   -0.767040    0.526352
     58          6           0      -11.249556   -0.756886   -0.599161
     59          6           0      -12.416161    0.273773   -0.540261
     60          6           0      -13.564280   -0.309383   -1.400772
     61          6           0      -12.072372    1.780553   -1.026785
     62          6           0      -12.089177    2.840380    0.082083
     63          6           0      -11.123792    3.994880   -0.199936
     64          6           0      -11.761826    5.415492   -0.252252
     65          6           0      -10.905413    6.416749    0.457470
     66          6           0      -12.270311    5.867783   -1.668538
     67          1           0        0.456649    1.884420    0.006586
     68          1           0        5.693433    5.452217   -0.354030
     69          1           0        9.373631    0.290250   -0.154694
     70          1           0        1.593260   -2.870345   -0.392543
     71          1           0        0.119423   -0.528371    0.724829
     72          1           0        0.288212   -1.607225   -2.056486
     73          1           0        0.304606    0.178847   -1.862915
     74          1           0       -0.969481   -0.701983   -1.180029
     75          1           0        0.758333   -2.063481    2.326406
     76          1           0        2.322498   -2.708163    2.178775
     77          1           0       -0.233098   -4.073403    2.284153
     78          1           0        1.358652   -4.737539    1.793900
     79          1           0       -0.399739    3.800678    0.379724
     80          1           0        0.099153    5.397435   -0.194647
     81          1           0        0.286543    4.933489    1.577890
     82          1           0        1.375510    7.253903    1.468770
     83          1           0        1.124542    7.505774   -0.349996
     84          1           0        2.149552    8.549032    0.626979
     85          1           0        8.262549    4.923247    0.238053
     86          1           0        9.205655    2.639976   -1.395897
     87          1           0        9.018946    4.493475   -2.570299
     88          1           0        8.233749    5.861874   -2.042799
     89          1           0        7.251278    4.656470   -2.751207
     90          1           0       10.341029    4.077945    0.673100
     91          1           0       11.002975    2.597470    0.056752
     92          1           0        9.046768    2.811058    2.293904
     93          1           0       10.805929    2.922454    2.538522
     94          1           0        9.959218    1.442809    1.946003
     95          1           0        9.814601   -2.745817    1.043257
     96          1           0        9.788996   -2.330706   -0.731665
     97          1           0        9.116686   -3.763829   -0.184337
     98          1           0        4.161096   -4.149055    1.135482
     99          1           0        4.147561   -7.250884   -1.635233
    100          1           0        2.733782   -6.387290   -2.172782
    101          1           0        2.665537   -7.525534   -0.695721
    102          1           0       -2.194887   -5.089492   -1.245200
    103          1           0       -1.828494   -3.391568   -1.832985
    104          1           0       -3.444634   -2.290311   -0.769014
    105          1           0       -5.693157   -5.464032    0.129605
    106          1           0       -3.995727   -5.899095   -0.258495
    107          1           0       -5.036622   -5.856687   -1.545873
    108          1           0       -6.604688   -3.241800   -1.396389
    109          1           0       -5.554390   -2.015727   -0.985207
    110          1           0       -6.226979   -1.560171    0.837341
    111          1           0       -5.610538   -3.124153    1.469146
    112          1           0       -7.497861   -4.071275    1.938464
    113          1           0       -8.186641   -3.690613    0.313400
    114          1           0       -8.114161   -1.244694    1.669363
    115          1           0       -7.708189   -2.910684    3.649812
    116          1           0       -9.539004   -2.853325    3.653623
    117          1           0       -8.521615   -1.358739    3.863553
    118          1           0      -10.733067   -2.313798    2.029150
    119          1           0      -10.129619   -2.867758    0.504485
    120          1           0       -9.312684   -0.477483    0.043861
    121          1           0      -10.374310    0.018590    1.271465
    122          1           0      -11.628725   -1.775512   -0.679914
    123          1           0      -10.640589   -0.586793   -1.487391
    124          1           0      -12.794394    0.339219    0.480414
    125          1           0      -14.023329    0.394340   -2.094884
    126          1           0      -14.317247   -0.529776   -0.644029
    127          1           0      -13.339023   -1.278870   -1.846432
    128          1           0      -12.731662    2.137970   -1.817828
    129          1           0      -11.134852    1.703930   -1.578199
    130          1           0      -11.875374    2.205902    0.941497
    131          1           0      -13.073531    3.295892    0.192901
    132          1           0      -10.617744    3.908765   -1.162352
    133          1           0      -10.326839    3.964909    0.542540
    134          1           0      -12.719368    5.312254    0.258148
    135          1           0      -11.135632    6.553377    1.513073
    136          1           0      -11.030183    7.382096   -0.032901
    137          1           0       -9.863313    6.109411    0.365356
    138          1           0      -13.275582    6.286229   -1.633632
    139          1           0      -12.203479    5.088334   -2.427077
    140          1           0      -11.592520    6.631599   -2.049739
 ---------------------------------------------------------------------
 Rotational constants (GHZ):           0.0370967           0.0114341           0.0090041
 Leave Link  202 at Wed May  4 06:56:08 2022, MaxMem=  6710886400 cpu:               0.2 elap:               0.0
 (Enter /sw/apps/gaussian-16.0/g16/l301.exe)
 Standard basis: VSTO-6G (5D, 7F)
 Ernie: Thresh=  0.10000D-02 Tol=  0.10000D-05 Strict=F.
 There are   338 symmetry adapted cartesian basis functions of A   symmetry.
 There are   338 symmetry adapted basis functions of A   symmetry.
   338 basis functions,  2028 primitive gaussians,   338 cartesian basis functions
   176 alpha electrons      176 beta electrons
       nuclear repulsion energy      4821.8015429538 Hartrees.
 IExCor=    0 DFT=F Ex=HF Corr=None ExCW=0 ScaHFX=  1.000000
 ScaDFX=  1.000000  1.000000  1.000000  1.000000 ScalE2=  1.000000  1.000000
 IRadAn=      5 IRanWt=     -1 IRanGd=            0 ICorTp=0 IEmpDi=  4
 Integral buffers will be    131072 words long.
 Regular integral format.
 Two-electron integral symmetry is turned off.
 Leave Link  301 at Wed May  4 06:56:08 2022, MaxMem=  6710886400 cpu:               1.2 elap:               0.1
 (Enter /sw/apps/gaussian-16.0/g16/l302.exe)
 Do NDO integrals.
 NPDir=0 NMtPBC=     1 NCelOv=     1 NCel=       1 NClECP=     1 NCelD=      1
         NCelK=      1 NCelE2=     1 NClLst=     1 CellRange=     0.0.
 One-electron integrals computed using PRISM.
 Generate ZINDO/S integrals.
 NDO Nuclear repulsion=  4334.727660215788 Hartrees.
 NBasis=   338 RedAO= F EigKep=  0.00D+00  NBF=   338
 NBsUse=   338 1.00D-04 EigRej=  0.00D+00 NBFU=   338
 Leave Link  302 at Wed May  4 06:56:08 2022, MaxMem=  6710886400 cpu:               8.6 elap:               0.4
 (Enter /sw/apps/gaussian-16.0/g16/l303.exe)
 DipDrv:  MaxL=1.
 DipDrv:  will hold  3 matrices at once.
 Leave Link  303 at Wed May  4 06:56:08 2022, MaxMem=  6710886400 cpu:               0.8 elap:               0.0
 (Enter /sw/apps/gaussian-16.0/g16/l308.exe)
 Leave Link  308 at Wed May  4 06:56:09 2022, MaxMem=  6710886400 cpu:               4.9 elap:               0.2
 (Enter /sw/apps/gaussian-16.0/g16/l401.exe)
 Simple Huckel Guess.
 JPrj=0 DoOrth=F DoCkMO=F.
 Leave Link  401 at Wed May  4 06:56:09 2022, MaxMem=  6710886400 cpu:               2.5 elap:               0.1
 (Enter /sw/apps/gaussian-16.0/g16/l502.exe)
 Two-electron integral symmetry not used.
 Closed shell SCF:
 Using DIIS extrapolation, IDIIS=  1040.
 Overlap will be assumed to be unity.
 NGot=  6710886400 LenX=  6710643598 LenY=  6710528913
 Requested convergence on RMS density matrix=1.00D-08 within 128 cycles.
 Requested convergence on MAX density matrix=1.00D-06.
 Requested convergence on             energy=1.00D-06.
 No special actions if energy rises.
 Fock matrices will be formed incrementally for  20 cycles.

 Cycle   1  Pass 1  IDiag  1:
 E= -472.611412822657    
 DIIS: error= 6.28D-02 at cycle   1 NSaved=   1.
 NSaved= 1 IEnMin= 1 EnMin= -472.611412822657     IErMin= 1 ErrMin= 6.28D-02
 ErrMax= 6.28D-02  0.00D+00 EMaxC= 1.00D-01 BMatC= 8.42D-01 BMatP= 8.42D-01
 IDIUse=3 WtCom= 3.72D-01 WtEn= 6.28D-01
 Coeff-Com:  0.100D+01
 Coeff-En:   0.100D+01
 Coeff:      0.100D+01
 GapD=    2.000 DampG=2.000 DampE=0.500 DampFc=1.0000 IDamp=-1.
 RMSDP=4.12D-03 MaxDP=1.85D-01              OVMax= 0.00D+00

 Cycle   2  Pass 1  IDiag  1:
 RMSU=  4.11D-03    CP:  9.95D-01
 E= -474.462119184159     Delta-E=       -1.850706361502 Rises=F Damp=F
 DIIS: error= 2.11D-02 at cycle   2 NSaved=   2.
 NSaved= 2 IEnMin= 2 EnMin= -474.462119184159     IErMin= 2 ErrMin= 2.11D-02
 ErrMax= 2.11D-02  0.00D+00 EMaxC= 1.00D-01 BMatC= 5.61D-02 BMatP= 8.42D-01
 IDIUse=3 WtCom= 7.89D-01 WtEn= 2.11D-01
 Coeff-Com: -0.581D-01 0.106D+01
 Coeff-En:   0.000D+00 0.100D+01
 Coeff:     -0.459D-01 0.105D+01
 RMSDP=1.22D-03 MaxDP=6.11D-02 DE=-1.85D+00 OVMax= 0.00D+00

 Cycle   3  Pass 1  IDiag  1:
 RMSU=  1.20D-03    CP:  9.93D-01  1.06D+00
 E= -474.567992094044     Delta-E=       -0.105872909885 Rises=F Damp=F
 DIIS: error= 8.98D-03 at cycle   3 NSaved=   3.
 NSaved= 3 IEnMin= 3 EnMin= -474.567992094044     IErMin= 3 ErrMin= 8.98D-03
 ErrMax= 8.98D-03  0.00D+00 EMaxC= 1.00D-01 BMatC= 9.20D-03 BMatP= 5.61D-02
 IDIUse=3 WtCom= 9.10D-01 WtEn= 8.98D-02
 Coeff-Com: -0.708D-01 0.261D+00 0.810D+00
 Coeff-En:   0.000D+00 0.000D+00 0.100D+01
 Coeff:     -0.644D-01 0.238D+00 0.827D+00
 RMSDP=4.70D-04 MaxDP=2.38D-02 DE=-1.06D-01 OVMax= 0.00D+00

 Cycle   4  Pass 1  IDiag  1:
 RMSU=  3.03D-04    CP:  9.92D-01  1.14D+00  8.64D-01
 E= -474.584253626259     Delta-E=       -0.016261532215 Rises=F Damp=F
 DIIS: error= 1.58D-03 at cycle   4 NSaved=   4.
 NSaved= 4 IEnMin= 4 EnMin= -474.584253626259     IErMin= 4 ErrMin= 1.58D-03
 ErrMax= 1.58D-03  0.00D+00 EMaxC= 1.00D-01 BMatC= 4.77D-04 BMatP= 9.20D-03
 IDIUse=3 WtCom= 9.84D-01 WtEn= 1.58D-02
 Coeff-Com: -0.764D-02-0.936D-02 0.111D+00 0.906D+00
 Coeff-En:   0.000D+00 0.000D+00 0.000D+00 0.100D+01
 Coeff:     -0.752D-02-0.921D-02 0.110D+00 0.907D+00
 RMSDP=1.70D-04 MaxDP=8.73D-03 DE=-1.63D-02 OVMax= 0.00D+00

 Cycle   5  Pass 1  IDiag  1:
 RMSU=  1.11D-04    CP:  9.92D-01  1.14D+00  9.69D-01  9.10D-01
 E= -474.585599970385     Delta-E=       -0.001346344126 Rises=F Damp=F
 DIIS: error= 8.52D-04 at cycle   5 NSaved=   5.
 NSaved= 5 IEnMin= 5 EnMin= -474.585599970385     IErMin= 5 ErrMin= 8.52D-04
 ErrMax= 8.52D-04  0.00D+00 EMaxC= 1.00D-01 BMatC= 9.57D-05 BMatP= 4.77D-04
 IDIUse=3 WtCom= 9.91D-01 WtEn= 8.52D-03
 Coeff-Com:  0.696D-02-0.309D-01-0.100D+00 0.199D+00 0.925D+00
 Coeff-En:   0.000D+00 0.000D+00 0.000D+00 0.000D+00 0.100D+01
 Coeff:      0.690D-02-0.307D-01-0.992D-01 0.197D+00 0.926D+00
 RMSDP=7.11D-05 MaxDP=4.35D-03 DE=-1.35D-03 OVMax= 0.00D+00

 Cycle   6  Pass 1  IDiag  1:
 RMSU=  3.71D-05    CP:  9.92D-01  1.15D+00  9.84D-01  1.09D+00  1.12D+00
 E= -474.585917056808     Delta-E=       -0.000317086423 Rises=F Damp=F
 DIIS: error= 2.88D-04 at cycle   6 NSaved=   6.
 NSaved= 6 IEnMin= 6 EnMin= -474.585917056808     IErMin= 6 ErrMin= 2.88D-04
 ErrMax= 2.88D-04  0.00D+00 EMaxC= 1.00D-01 BMatC= 8.87D-06 BMatP= 9.57D-05
 IDIUse=3 WtCom= 9.97D-01 WtEn= 2.88D-03
 Coeff-Com:  0.241D-03 0.424D-02-0.188D-01-0.778D-01-0.206D-01 0.111D+01
 Coeff-En:   0.000D+00 0.000D+00 0.000D+00 0.000D+00 0.000D+00 0.100D+01
 Coeff:      0.241D-03 0.423D-02-0.188D-01-0.776D-01-0.206D-01 0.111D+01
 RMSDP=4.51D-05 MaxDP=2.34D-03 DE=-3.17D-04 OVMax= 0.00D+00

 Cycle   7  Pass 1  IDiag  1:
 RMSU=  2.10D-05    CP:  9.92D-01  1.15D+00  9.97D-01  1.11D+00  1.40D+00
                    CP:  1.48D+00
 E= -474.585983845653     Delta-E=       -0.000066788844 Rises=F Damp=F
 DIIS: error= 1.39D-04 at cycle   7 NSaved=   7.
 NSaved= 7 IEnMin= 7 EnMin= -474.585983845653     IErMin= 7 ErrMin= 1.39D-04
 ErrMax= 1.39D-04  0.00D+00 EMaxC= 1.00D-01 BMatC= 3.15D-06 BMatP= 8.87D-06
 IDIUse=3 WtCom= 9.99D-01 WtEn= 1.39D-03
 Coeff-Com: -0.906D-03 0.478D-02 0.850D-02-0.188D-01-0.164D+00 0.176D+00
 Coeff-Com:  0.994D+00
 Coeff-En:   0.000D+00 0.000D+00 0.000D+00 0.000D+00 0.000D+00 0.000D+00
 Coeff-En:   0.100D+01
 Coeff:     -0.905D-03 0.477D-02 0.849D-02-0.187D-01-0.163D+00 0.176D+00
 Coeff:      0.994D+00
 RMSDP=2.86D-05 MaxDP=1.46D-03 DE=-6.68D-05 OVMax= 0.00D+00

 Cycle   8  Pass 1  IDiag  1:
 RMSU=  7.44D-06    CP:  9.92D-01  1.15D+00  1.00D+00  1.11D+00  1.53D+00
                    CP:  1.92D+00  1.73D+00
 E= -474.586014044536     Delta-E=       -0.000030198883 Rises=F Damp=F
 DIIS: error= 8.29D-05 at cycle   8 NSaved=   8.
 NSaved= 8 IEnMin= 8 EnMin= -474.586014044536     IErMin= 8 ErrMin= 8.29D-05
 ErrMax= 8.29D-05  0.00D+00 EMaxC= 1.00D-01 BMatC= 1.44D-06 BMatP= 3.15D-06
 IDIUse=1 WtCom= 1.00D+00 WtEn= 0.00D+00
 Coeff-Com:  0.547D-04-0.167D-02 0.281D-02 0.365D-01-0.214D-01-0.179D+00
 Coeff-Com: -0.428D+00 0.159D+01
 Coeff:      0.547D-04-0.167D-02 0.281D-02 0.365D-01-0.214D-01-0.179D+00
 Coeff:     -0.428D+00 0.159D+01
 RMSDP=3.74D-05 MaxDP=1.72D-03 DE=-3.02D-05 OVMax= 0.00D+00

 Cycle   9  Pass 1  IDiag  1:
 RMSU=  4.58D-06    CP:  9.92D-01  1.15D+00  1.01D+00  1.10D+00  1.69D+00
                    CP:  2.40D+00  2.88D+00  2.20D+00
 E= -474.586041549543     Delta-E=       -0.000027505007 Rises=F Damp=F
 DIIS: error= 5.96D-05 at cycle   9 NSaved=   9.
 NSaved= 9 IEnMin= 9 EnMin= -474.586041549543     IErMin= 9 ErrMin= 5.96D-05
 ErrMax= 5.96D-05  0.00D+00 EMaxC= 1.00D-01 BMatC= 7.71D-07 BMatP= 1.44D-06
 IDIUse=1 WtCom= 1.00D+00 WtEn= 0.00D+00
 Coeff-Com:  0.472D-03-0.195D-02-0.640D-02 0.562D-02 0.585D-01 0.980D-01
 Coeff-Com: -0.856D+00-0.265D+00 0.197D+01
 Coeff:      0.472D-03-0.195D-02-0.640D-02 0.562D-02 0.585D-01 0.980D-01
 Coeff:     -0.856D+00-0.265D+00 0.197D+01
 RMSDP=5.48D-05 MaxDP=2.38D-03 DE=-2.75D-05 OVMax= 0.00D+00

 Cycle  10  Pass 1  IDiag  1:
 RMSU=  3.49D-05    CP:  9.92D-01  1.14D+00  1.02D+00  1.09D+00  1.91D+00
                    CP:  3.00D+00  3.00D+00  3.00D+00  2.60D+00
 E= -474.586064707351     Delta-E=       -0.000023157809 Rises=F Damp=F
 DIIS: error= 2.78D-05 at cycle  10 NSaved=  10.
 NSaved=10 IEnMin=10 EnMin= -474.586064707351     IErMin=10 ErrMin= 2.78D-05
 ErrMax= 2.78D-05  0.00D+00 EMaxC= 1.00D-01 BMatC= 1.24D-07 BMatP= 7.71D-07
 IDIUse=1 WtCom= 1.00D+00 WtEn= 0.00D+00
 Coeff-Com: -0.934D-04 0.969D-03-0.571D-03-0.130D-01-0.926D-02 0.107D+00
 Coeff-Com:  0.155D+00-0.420D+00-0.241D+00 0.142D+01
 Coeff:     -0.934D-04 0.969D-03-0.571D-03-0.130D-01-0.926D-02 0.107D+00
 Coeff:      0.155D+00-0.420D+00-0.241D+00 0.142D+01
 RMSDP=2.33D-05 MaxDP=9.93D-04 DE=-2.32D-05 OVMax= 0.00D+00

 Cycle  11  Pass 1  IDiag  1:
 RMSU=  9.21D-06    CP:  9.92D-01  1.14D+00  1.02D+00  1.08D+00  2.00D+00
                    CP:  3.00D+00  3.00D+00  3.00D+00  3.00D+00  1.51D+00
 E= -474.586068539010     Delta-E=       -0.000003831658 Rises=F Damp=F
 DIIS: error= 1.46D-05 at cycle  11 NSaved=  11.
 NSaved=11 IEnMin=11 EnMin= -474.586068539010     IErMin=11 ErrMin= 1.46D-05
 ErrMax= 1.46D-05  0.00D+00 EMaxC= 1.00D-01 BMatC= 2.35D-08 BMatP= 1.24D-07
 IDIUse=1 WtCom= 1.00D+00 WtEn= 0.00D+00
 Coeff-Com: -0.842D-04 0.402D-03 0.109D-02-0.194D-02-0.125D-01-0.177D-02
 Coeff-Com:  0.134D+00 0.232D-01-0.351D+00-0.995D-02 0.122D+01
 Coeff:     -0.842D-04 0.402D-03 0.109D-02-0.194D-02-0.125D-01-0.177D-02
 Coeff:      0.134D+00 0.232D-01-0.351D+00-0.995D-02 0.122D+01
 RMSDP=9.46D-06 MaxDP=3.85D-04 DE=-3.83D-06 OVMax= 0.00D+00

 Cycle  12  Pass 1  IDiag  1:
 RMSU=  1.74D-06    CP:  9.92D-01  1.14D+00  1.02D+00  1.08D+00  2.04D+00
                    CP:  3.00D+00  3.00D+00  3.00D+00  3.00D+00  1.71D+00
                    CP:  1.45D+00
 E= -474.586069112313     Delta-E=       -0.000000573304 Rises=F Damp=F
 DIIS: error= 6.39D-06 at cycle  12 NSaved=  12.
 NSaved=12 IEnMin=12 EnMin= -474.586069112313     IErMin=12 ErrMin= 6.39D-06
 ErrMax= 6.39D-06  0.00D+00 EMaxC= 1.00D-01 BMatC= 5.91D-09 BMatP= 2.35D-08
 IDIUse=1 WtCom= 1.00D+00 WtEn= 0.00D+00
 Coeff-Com:  0.384D-04-0.295D-03-0.736D-04 0.348D-02 0.295D-02-0.180D-01
 Coeff-Com: -0.744D-01 0.845D-01 0.176D+00-0.380D+00-0.192D+00 0.140D+01
 Coeff:      0.384D-04-0.295D-03-0.736D-04 0.348D-02 0.295D-02-0.180D-01
 Coeff:     -0.744D-01 0.845D-01 0.176D+00-0.380D+00-0.192D+00 0.140D+01
 RMSDP=2.57D-06 MaxDP=1.42D-04 DE=-5.73D-07 OVMax= 0.00D+00

 Cycle  13  Pass 1  IDiag  1:
 RMSU=  8.36D-07    CP:  9.92D-01  1.14D+00  1.02D+00  1.08D+00  2.05D+00
                    CP:  3.00D+00  3.00D+00  3.00D+00  3.00D+00  1.75D+00
                    CP:  1.56D+00  1.94D+00
 E= -474.586069213154     Delta-E=       -0.000000100840 Rises=F Damp=F
 DIIS: error= 3.78D-06 at cycle  13 NSaved=  13.
 NSaved=13 IEnMin=13 EnMin= -474.586069213154     IErMin=13 ErrMin= 3.78D-06
 ErrMax= 3.78D-06  0.00D+00 EMaxC= 1.00D-01 BMatC= 1.97D-09 BMatP= 5.91D-09
 IDIUse=1 WtCom= 1.00D+00 WtEn= 0.00D+00
 Coeff-Com:  0.113D-04-0.389D-04-0.249D-03 0.315D-03 0.114D-02 0.442D-02
 Coeff-Com: -0.200D-01-0.266D-01 0.760D-01 0.156D-01-0.210D+00-0.172D+00
 Coeff-Com:  0.133D+01
 Coeff:      0.113D-04-0.389D-04-0.249D-03 0.315D-03 0.114D-02 0.442D-02
 Coeff:     -0.200D-01-0.266D-01 0.760D-01 0.156D-01-0.210D+00-0.172D+00
 Coeff:      0.133D+01
 RMSDP=1.43D-06 MaxDP=7.26D-05 DE=-1.01D-07 OVMax= 0.00D+00

 Cycle  14  Pass 1  IDiag  1:
 RMSU=  3.27D-07    CP:  9.92D-01  1.14D+00  1.02D+00  1.08D+00  2.05D+00
                    CP:  3.00D+00  3.00D+00  3.00D+00  3.00D+00  1.76D+00
                    CP:  1.60D+00  2.48D+00  1.76D+00
 E= -474.586069247569     Delta-E=       -0.000000034415 Rises=F Damp=F
 DIIS: error= 2.23D-06 at cycle  14 NSaved=  14.
 NSaved=14 IEnMin=14 EnMin= -474.586069247569     IErMin=14 ErrMin= 2.23D-06
 ErrMax= 2.23D-06  0.00D+00 EMaxC= 1.00D-01 BMatC= 7.58D-10 BMatP= 1.97D-09
 IDIUse=1 WtCom= 1.00D+00 WtEn= 0.00D+00
 Coeff-Com: -0.200D-04 0.136D-03 0.752D-04-0.120D-02-0.276D-02 0.736D-02
 Coeff-Com:  0.374D-01-0.435D-01-0.695D-01 0.134D+00 0.155D+00-0.504D+00
 Coeff-Com: -0.465D+00 0.175D+01
 Coeff:     -0.200D-04 0.136D-03 0.752D-04-0.120D-02-0.276D-02 0.736D-02
 Coeff:      0.374D-01-0.435D-01-0.695D-01 0.134D+00 0.155D+00-0.504D+00
 Coeff:     -0.465D+00 0.175D+01
 RMSDP=1.26D-06 MaxDP=6.26D-05 DE=-3.44D-08 OVMax= 0.00D+00

 Cycle  15  Pass 1  IDiag  1:
 RMSU=  1.65D-07    CP:  9.92D-01  1.14D+00  1.02D+00  1.08D+00  2.05D+00
                    CP:  3.00D+00  3.00D+00  3.00D+00  3.00D+00  1.77D+00
                    CP:  1.64D+00  2.92D+00  2.61D+00  2.27D+00
 E= -474.586069264333     Delta-E=       -0.000000016764 Rises=F Damp=F
 DIIS: error= 1.14D-06 at cycle  15 NSaved=  15.
 NSaved=15 IEnMin=15 EnMin= -474.586069264333     IErMin=15 ErrMin= 1.14D-06
 ErrMax= 1.14D-06  0.00D+00 EMaxC= 1.00D-01 BMatC= 1.85D-10 BMatP= 7.58D-10
 IDIUse=1 WtCom= 1.00D+00 WtEn= 0.00D+00
 Coeff-Com: -0.360D-05 0.118D-04 0.855D-04 0.693D-04-0.100D-02-0.740D-03
 Coeff-Com:  0.817D-02 0.314D-02-0.128D-01-0.183D-01 0.614D-01 0.735D-01
 Coeff-Com: -0.473D+00 0.112D+00 0.125D+01
 Coeff:     -0.360D-05 0.118D-04 0.855D-04 0.693D-04-0.100D-02-0.740D-03
 Coeff:      0.817D-02 0.314D-02-0.128D-01-0.183D-01 0.614D-01 0.735D-01
 Coeff:     -0.473D+00 0.112D+00 0.125D+01
 RMSDP=5.57D-07 MaxDP=2.75D-05 DE=-1.68D-08 OVMax= 0.00D+00

 Cycle  16  Pass 1  IDiag  1:
 RMSU=  2.37D-07    CP:  9.92D-01  1.14D+00  1.02D+00  1.08D+00  2.05D+00
                    CP:  3.00D+00  3.00D+00  3.00D+00  3.00D+00  1.77D+00
                    CP:  1.64D+00  3.00D+00  3.00D+00  2.95D+00  1.48D+00
 E= -474.586069267250     Delta-E=       -0.000000002917 Rises=F Damp=F
 DIIS: error= 5.84D-07 at cycle  16 NSaved=  16.
 NSaved=16 IEnMin=16 EnMin= -474.586069267250     IErMin=16 ErrMin= 5.84D-07
 ErrMax= 5.84D-07  0.00D+00 EMaxC= 1.00D-01 BMatC= 2.75D-11 BMatP= 1.85D-10
 IDIUse=1 WtCom= 1.00D+00 WtEn= 0.00D+00
 Coeff-Com:  0.478D-05-0.324D-04-0.126D-04 0.329D-03 0.401D-03-0.158D-02
 Coeff-Com: -0.812D-02 0.710D-02 0.182D-01-0.332D-01-0.274D-01 0.125D+00
 Coeff-Com:  0.531D-01-0.332D+00-0.310D-01 0.123D+01
 Coeff:      0.478D-05-0.324D-04-0.126D-04 0.329D-03 0.401D-03-0.158D-02
 Coeff:     -0.812D-02 0.710D-02 0.182D-01-0.332D-01-0.274D-01 0.125D+00
 Coeff:      0.531D-01-0.332D+00-0.310D-01 0.123D+01
 RMSDP=1.94D-07 MaxDP=1.04D-05 DE=-2.92D-09 OVMax= 0.00D+00

 Cycle  17  Pass 1  IDiag  1:
 RMSU=  1.14D-07    CP:  9.92D-01  1.14D+00  1.02D+00  1.08D+00  2.05D+00
                    CP:  3.00D+00  3.00D+00  3.00D+00  3.00D+00  1.77D+00
                    CP:  1.65D+00  3.00D+00  3.00D+00  3.00D+00  1.81D+00
                    CP:  1.37D+00
 E= -474.586069267585     Delta-E=       -0.000000000336 Rises=F Damp=F
 DIIS: error= 3.51D-07 at cycle  17 NSaved=  17.
 NSaved=17 IEnMin=17 EnMin= -474.586069267585     IErMin=17 ErrMin= 3.51D-07
 ErrMax= 3.51D-07  0.00D+00 EMaxC= 1.00D-01 BMatC= 3.90D-12 BMatP= 2.75D-11
 IDIUse=1 WtCom= 1.00D+00 WtEn= 0.00D+00
 Coeff-Com:  0.633D-06-0.293D-05-0.133D-04 0.168D-04 0.115D-03 0.420D-04
 Coeff-Com: -0.132D-02-0.244D-03 0.325D-02-0.334D-03-0.764D-02-0.415D-02
 Coeff-Com:  0.528D-01-0.525D-02-0.187D+00 0.819D-01 0.107D+01
 Coeff:      0.633D-06-0.293D-05-0.133D-04 0.168D-04 0.115D-03 0.420D-04
 Coeff:     -0.132D-02-0.244D-03 0.325D-02-0.334D-03-0.764D-02-0.415D-02
 Coeff:      0.528D-01-0.525D-02-0.187D+00 0.819D-01 0.107D+01
 RMSDP=4.36D-08 MaxDP=2.38D-06 DE=-3.36D-10 OVMax= 0.00D+00

 Cycle  18  Pass 1  IDiag  1:
 RMSU=  1.68D-08    CP:  9.92D-01  1.14D+00  1.02D+00  1.08D+00  2.05D+00
                    CP:  3.00D+00  3.00D+00  3.00D+00  3.00D+00  1.77D+00
                    CP:  1.65D+00  3.00D+00  3.00D+00  3.00D+00  1.88D+00
                    CP:  1.46D+00  1.21D+00
 E= -474.586069267612     Delta-E=       -0.000000000027 Rises=F Damp=F
 DIIS: error= 2.01D-07 at cycle  18 NSaved=  18.
 NSaved=18 IEnMin=18 EnMin= -474.586069267612     IErMin=18 ErrMin= 2.01D-07
 ErrMax= 2.01D-07  0.00D+00 EMaxC= 1.00D-01 BMatC= 9.35D-13 BMatP= 3.90D-12
 IDIUse=1 WtCom= 1.00D+00 WtEn= 0.00D+00
 Coeff-Com: -0.131D-05 0.891D-05 0.247D-05-0.890D-04-0.101D-03 0.414D-03
 Coeff-Com:  0.218D-02-0.211D-02-0.467D-02 0.826D-02 0.836D-02-0.334D-01
 Coeff-Com: -0.177D-01 0.952D-01-0.675D-02-0.313D+00-0.442D-01 0.131D+01
 Coeff:     -0.131D-05 0.891D-05 0.247D-05-0.890D-04-0.101D-03 0.414D-03
 Coeff:      0.218D-02-0.211D-02-0.467D-02 0.826D-02 0.836D-02-0.334D-01
 Coeff:     -0.177D-01 0.952D-01-0.675D-02-0.313D+00-0.442D-01 0.131D+01
 RMSDP=2.76D-08 MaxDP=2.03D-06 DE=-2.73D-11 OVMax= 0.00D+00

 Cycle  19  Pass 1  IDiag  1:
 RMSU=  6.81D-09    CP:  9.92D-01  1.14D+00  1.02D+00  1.08D+00  2.05D+00
                    CP:  3.00D+00  3.00D+00  3.00D+00  3.00D+00  1.77D+00
                    CP:  1.65D+00  3.00D+00  3.00D+00  3.00D+00  1.93D+00
                    CP:  1.51D+00  1.33D+00  1.76D+00
 E= -474.586069267637     Delta-E=       -0.000000000025 Rises=F Damp=F
 DIIS: error= 7.55D-08 at cycle  19 NSaved=  19.
 NSaved=19 IEnMin=19 EnMin= -474.586069267637     IErMin=19 ErrMin= 7.55D-08
 ErrMax= 7.55D-08  0.00D+00 EMaxC= 1.00D-01 BMatC= 1.29D-13 BMatP= 9.35D-13
 IDIUse=1 WtCom= 1.00D+00 WtEn= 0.00D+00
 Coeff-Com: -0.284D-07 0.212D-07 0.250D-05 0.651D-06-0.107D-04-0.328D-04
 Coeff-Com:  0.498D-04 0.134D-03-0.112D-03-0.603D-03 0.105D-02 0.306D-02
 Coeff-Com: -0.745D-02-0.813D-02 0.330D-01 0.185D-01-0.194D+00-0.729D-01
 Coeff-Com:  0.123D+01
 Coeff:     -0.284D-07 0.212D-07 0.250D-05 0.651D-06-0.107D-04-0.328D-04
 Coeff:      0.498D-04 0.134D-03-0.112D-03-0.603D-03 0.105D-02 0.306D-02
 Coeff:     -0.745D-02-0.813D-02 0.330D-01 0.185D-01-0.194D+00-0.729D-01
 Coeff:      0.123D+01
 RMSDP=7.89D-09 MaxDP=8.31D-07 DE=-2.46D-11 OVMax= 0.00D+00

 SCF Done:  E(RZINDO/S) =  -474.586069268     A.U. after   19 cycles
            NFock= 19  Conv=0.79D-08     -V/T= 0.9492
 KE=-9.344232565506D+03 PE=-1.121041350416D-06 EE= 4.534918837143D+03
 Leave Link  502 at Wed May  4 06:56:10 2022, MaxMem=  6710886400 cpu:              20.6 elap:               0.9
 (Enter /sw/apps/gaussian-16.0/g16/l801.exe)
 Range of M.O.s used for correlation:     1   338
 NBasis=   338 NAE=   176 NBE=   176 NFC=     0 NFV=     0
 NROrb=    338 NOA=   176 NOB=   176 NVA=   162 NVB=   162
 Leave Link  801 at Wed May  4 06:56:10 2022, MaxMem=  6710886400 cpu:               0.5 elap:               0.0
 (Enter /sw/apps/gaussian-16.0/g16/l914.exe)
 RHF ground state
 Two-electron integral symmetry not used.
 MDV=  6710886400 DFT=F DoStab=F Mixed=F DoRPA=F DoScal=F NonHer=F
 Making orbital integer symmetry assigments:
 Orbital symmetries:
       Occupied  (A) (A) (A) (A) (A) (A) (A) (A) (A) (A) (A) (A)
                 (A) (A) (A) (A) (A) (A) (A) (A) (A) (A) (A) (A)
                 (A) (A) (A) (A) (A) (A) (A) (A) (A) (A) (A) (A)
                 (A) (A) (A) (A) (A) (A) (A) (A) (A) (A) (A) (A)
                 (A) (A) (A) (A) (A) (A) (A) (A) (A) (A) (A) (A)
                 (A) (A) (A) (A) (A) (A) (A) (A) (A) (A) (A) (A)
                 (A) (A) (A) (A) (A) (A) (A) (A) (A) (A) (A) (A)
                 (A) (A) (A) (A) (A) (A) (A) (A) (A) (A) (A) (A)
                 (A) (A) (A) (A) (A) (A) (A) (A) (A) (A) (A) (A)
                 (A) (A) (A) (A) (A) (A) (A) (A) (A) (A) (A) (A)
                 (A) (A) (A) (A) (A) (A) (A) (A) (A) (A) (A) (A)
                 (A) (A) (A) (A) (A) (A) (A) (A) (A) (A) (A) (A)
                 (A) (A) (A) (A) (A) (A) (A) (A) (A) (A) (A) (A)
                 (A) (A) (A) (A) (A) (A) (A) (A) (A) (A) (A) (A)
                 (A) (A) (A) (A) (A) (A) (A) (A)
       Virtual   (A) (A) (A) (A) (A) (A) (A) (A) (A) (A) (A) (A)
                 (A) (A) (A) (A) (A) (A) (A) (A) (A) (A) (A) (A)
                 (A) (A) (A) (A) (A) (A) (A) (A) (A) (A) (A) (A)
                 (A) (A) (A) (A) (A) (A) (A) (A) (A) (A) (A) (A)
                 (A) (A) (A) (A) (A) (A) (A) (A) (A) (A) (A) (A)
                 (A) (A) (A) (A) (A) (A) (A) (A) (A) (A) (A) (A)
                 (A) (A) (A) (A) (A) (A) (A) (A) (A) (A) (A) (A)
                 (A) (A) (A) (A) (A) (A) (A) (A) (A) (A) (A) (A)
                 (A) (A) (A) (A) (A) (A) (A) (A) (A) (A) (A) (A)
                 (A) (A) (A) (A) (A) (A) (A) (A) (A) (A) (A) (A)
                 (A) (A) (A) (A) (A) (A) (A) (A) (A) (A) (A) (A)
                 (A) (A) (A) (A) (A) (A) (A) (A) (A) (A) (A) (A)
                 (A) (A) (A) (A) (A) (A) (A) (A) (A) (A) (A) (A)
                 (A) (A) (A) (A) (A) (A)
    20 initial guesses have been made.
 Convergence on wavefunction:    0.001000000000000
 Davidson Disk Diagonalization:  ConvIn= 1.00D-03 SkipCon=T Conv= 1.00D-03.
 Max sub-space:  2000 roots to seek:    20 dimension of matrix:        57024
 Iteration     1 Dimension    20 NMult     0 NNew     20
 CISAX will form    20 AO SS matrices at one time.
 NMat=    20 NSing=    20 JSym2X= 0.
 New state      3 was old state      5
 New state      5 was old state      3
 Excitation Energies [eV] at current iteration:
 Root      1 :     1.612243429541768
 Root      2 :     2.119301521949669
 Root      3 :     3.009011517805345
 Root      4 :     3.306388597898162
 Root      5 :     3.362531998634235
 Root      6 :     3.472951669143723
 Root      7 :     3.691336331243636
 Root      8 :     3.733903468529869
 Root      9 :     3.951496479037398
 Root     10 :     3.975478906889751
 Root     11 :     4.111178057469925
 Root     12 :     4.212825283519805
 Root     13 :     4.325920807685371
 Root     14 :     4.427087867171932
 Root     15 :     4.471059240080560
 Root     16 :     4.549491425638359
 Root     17 :     4.575372582548807
 Root     18 :     4.665011438746784
 Root     19 :     4.864861427349551
 Root     20 :     5.733721709064029
 Iteration     2 Dimension    40 NMult    20 NNew     20
 CISAX will form    20 AO SS matrices at one time.
 NMat=    20 NSing=    20 JSym2X= 0.
 Root      1 not converged, maximum delta is    0.040751631918735
 Root      2 not converged, maximum delta is    0.026392275230050
 Root      3 not converged, maximum delta is    0.099503867657558
 New state      4 was old state      5
 Root      4 not converged, maximum delta is    0.502210515076432
 New state      5 was old state      4
 Root      5 not converged, maximum delta is    0.435178722607464
 Excitation Energies [eV] at current iteration:
 Root      1 :     1.290353270369300   Change is   -0.321890159172468
 Root      2 :     1.921065106340387   Change is   -0.198236415609282
 Root      3 :     2.980968146800439   Change is   -0.028043371004906
 Root      4 :     3.004609445567954   Change is   -0.357922553066281
 Root      5 :     3.108537587648881   Change is   -0.197851010249281
 Root      6 :     3.286768111213922   Change is   -0.186183557929801
 Root      7 :     3.471635225263395   Change is   -0.219701105980241
 Root      8 :     3.489079526785393   Change is   -0.244823941744477
 Root      9 :     3.615029578616677   Change is   -0.360449328273074
 Root     10 :     3.633818077447818   Change is   -0.837241162632742
 Root     11 :     3.710343891858412   Change is   -0.241152587178986
 Root     12 :     3.818349961383252   Change is   -0.394475322136553
 Root     13 :     4.010320644073481   Change is   -0.315600163611891
 Root     14 :     4.040084912456035   Change is   -0.071093145013891
 Root     15 :     4.177303548757710   Change is   -0.249784318414222
 Root     16 :     4.341927808921999   Change is   -0.207563616716360
 Root     17 :     4.470361275907718   Change is   -0.194650162839067
 Root     18 :     4.498059745548399   Change is   -0.077312837000408
 Root     19 :     4.855030814563984   Change is   -0.009830612785567
 Root     20 :     5.469823745940634
 Iteration     3 Dimension    45 NMult    40 NNew      5
 CISAX will form     5 AO SS matrices at one time.
 NMat=     5 NSing=     5 JSym2X= 0.
 Root      1 not converged, maximum delta is    0.011585533527726
 Root      2 not converged, maximum delta is    0.016376295767761
 Root      3 not converged, maximum delta is    0.223416415962650
 Root      4 not converged, maximum delta is    0.334538034916776
 Root      5 not converged, maximum delta is    0.028584763490560
 Excitation Energies [eV] at current iteration:
 Root      1 :     1.274391965265452   Change is   -0.015961305103849
 Root      2 :     1.897518765761287   Change is   -0.023546340579100
 Root      3 :     2.971808710941581   Change is   -0.009159435858859
 Root      4 :     2.985093825445702   Change is   -0.019515620122252
 Root      5 :     3.077927093328764   Change is   -0.030610494320117
 Iteration     4 Dimension    50 NMult    45 NNew      5
 CISAX will form     5 AO SS matrices at one time.
 NMat=     5 NSing=     5 JSym2X= 0.
 Root      1 not converged, maximum delta is    0.001981552694510
 Root      2 not converged, maximum delta is    0.001517896578316
 Root      3 not converged, maximum delta is    0.045217640330342
 Root      4 not converged, maximum delta is    0.043724680381941
 Root      5 not converged, maximum delta is    0.018155157873217
 Excitation Energies [eV] at current iteration:
 Root      1 :     1.273600629404131   Change is   -0.000791335861320
 Root      2 :     1.896936597825470   Change is   -0.000582167935817
 Root      3 :     2.969656015657233   Change is   -0.002152695284347
 Root      4 :     2.983752561618045   Change is   -0.001341263827656
 Root      5 :     3.072377583722965   Change is   -0.005549509605799
 Iteration     5 Dimension    55 NMult    50 NNew      5
 CISAX will form     5 AO SS matrices at one time.
 NMat=     5 NSing=     5 JSym2X= 0.
 Root      1 has converged.
 Root      2 has converged.
 Root      3 not converged, maximum delta is    0.030328835203556
 Root      4 not converged, maximum delta is    0.012626663542155
 Root      5 not converged, maximum delta is    0.125729589037415
 Excitation Energies [eV] at current iteration:
 Root      1 :     1.273551395906906   Change is   -0.000049233497226
 Root      2 :     1.896894758311766   Change is   -0.000041839513704
 Root      3 :     2.968059336441851   Change is   -0.001596679215382
 Root      4 :     2.983518345536035   Change is   -0.000234216082010
 Root      5 :     3.054159998174713   Change is   -0.018217585548252
 Iteration     6 Dimension    58 NMult    55 NNew      3
 CISAX will form     3 AO SS matrices at one time.
 NMat=     3 NSing=     3 JSym2X= 0.
 Root      1 has converged.
 Root      2 has converged.
 New state      3 was old state      5
 Root      3 not converged, maximum delta is    0.391340583961604
 New state      4 was old state      3
 Root      4 not converged, maximum delta is    0.196149446757204
 New state      5 was old state      4
 Root      5 not converged, maximum delta is    0.035457487096962
 Excitation Energies [eV] at current iteration:
 Root      1 :     1.273550697819495   Change is   -0.000000698087410
 Root      2 :     1.896894077734614   Change is   -0.000000680577152
 Root      3 :     2.942501543276002   Change is   -0.111658454898711
 Root      4 :     2.976204653534241   Change is    0.008145317092389
 Root      5 :     2.983526330261585   Change is    0.000007984725550
 Iteration     7 Dimension    61 NMult    58 NNew      3
 CISAX will form     3 AO SS matrices at one time.
 NMat=     3 NSing=     3 JSym2X= 0.
 Root      1 has converged.
 Root      2 has converged.
 Root      3 not converged, maximum delta is    0.077950201256225
 Root      4 not converged, maximum delta is    0.080828969009082
 Root      5 not converged, maximum delta is    0.040007120157210
 Excitation Energies [eV] at current iteration:
 Root      1 :     1.273550366114660   Change is   -0.000000331704835
 Root      2 :     1.896893646128744   Change is   -0.000000431605870
 Root      3 :     2.920482589436351   Change is   -0.022018953839651
 Root      4 :     2.972467095033623   Change is   -0.003737558500618
 Root      5 :     2.983026536816757   Change is   -0.000499793444828
 Iteration     8 Dimension    64 NMult    61 NNew      3
 CISAX will form     3 AO SS matrices at one time.
 NMat=     3 NSing=     3 JSym2X= 0.
 Root      1 has converged.
 Root      2 has converged.
 Root      3 not converged, maximum delta is    0.169100412308919
 Root      4 not converged, maximum delta is    0.361002731948420
 Root      5 not converged, maximum delta is    0.593401721013137
 Excitation Energies [eV] at current iteration:
 Root      1 :     1.273550315881905   Change is   -0.000000050232755
 Root      2 :     1.896893562604129   Change is   -0.000000083524615
 Root      3 :     2.908701022228246   Change is   -0.011781567208105
 Root      4 :     2.942853739593597   Change is   -0.029613355440025
 Root      5 :     2.975007039956650   Change is   -0.008019496860107
 Iteration     9 Dimension    67 NMult    64 NNew      3
 CISAX will form     3 AO SS matrices at one time.
 NMat=     3 NSing=     3 JSym2X= 0.
 Root      1 has converged.
 Root      2 has converged.
 Root      3 not converged, maximum delta is    0.173258025320425
 Root      4 not converged, maximum delta is    0.171322867095701
 Root      5 not converged, maximum delta is    0.054045873687893
 Excitation Energies [eV] at current iteration:
 Root      1 :     1.273550241946495   Change is   -0.000000073935410
 Root      2 :     1.896893519241953   Change is   -0.000000043362176
 Root      3 :     2.891892550882931   Change is   -0.016808471345315
 Root      4 :     2.926759674594654   Change is   -0.016094064998944
 Root      5 :     2.973825862898322   Change is   -0.001181177058327
 Iteration    10 Dimension    70 NMult    67 NNew      3
 CISAX will form     3 AO SS matrices at one time.
 NMat=     3 NSing=     3 JSym2X= 0.
 Root      1 has converged.
 Root      2 has converged.
 Root      3 not converged, maximum delta is    0.032819077399672
 Root      4 not converged, maximum delta is    0.032742705832299
 Root      5 not converged, maximum delta is    0.006069163921805
 Excitation Energies [eV] at current iteration:
 Root      1 :     1.273550145135193   Change is   -0.000000096811302
 Root      2 :     1.896893501694264   Change is   -0.000000017547689
 Root      3 :     2.887158551026051   Change is   -0.004733999856879
 Root      4 :     2.924777388219995   Change is   -0.001982286374659
 Root      5 :     2.973648008620490   Change is   -0.000177854277832
 Iteration    11 Dimension    73 NMult    70 NNew      3
 CISAX will form     3 AO SS matrices at one time.
 NMat=     3 NSing=     3 JSym2X= 0.
 Root      1 has converged.
 Root      2 has converged.
 Root      3 not converged, maximum delta is    0.005699603401142
 Root      4 not converged, maximum delta is    0.005305564180149
 Root      5 not converged, maximum delta is    0.001039365343527
 Excitation Energies [eV] at current iteration:
 Root      1 :     1.273549995043523   Change is   -0.000000150091670
 Root      2 :     1.896893478554071   Change is   -0.000000023140193
 Root      3 :     2.886345118280180   Change is   -0.000813432745872
 Root      4 :     2.924453792845978   Change is   -0.000323595374016
 Root      5 :     2.973615859796976   Change is   -0.000032148823514
 Iteration    12 Dimension    76 NMult    73 NNew      3
 CISAX will form     3 AO SS matrices at one time.
 NMat=     3 NSing=     3 JSym2X= 0.
 Root      1 has converged.
 Root      2 has converged.
 Root      3 has converged.
 Root      4 has converged.
 Root      5 has converged.
 Excitation Energies [eV] at current iteration:
 Root      1 :     1.273549953952153   Change is   -0.000000041091370
 Root      2 :     1.896893444533173   Change is   -0.000000034020899
 Root      3 :     2.886238646839524   Change is   -0.000106471440656
 Root      4 :     2.924411439873305   Change is   -0.000042352972673
 Root      5 :     2.973611550591178   Change is   -0.000004309205798
 Convergence achieved on expansion vectors.
 ***********************************************************************
 Excited states from <AA,BB:AA,BB> singles matrix:
 ***********************************************************************
 
 1PDM for each excited state written to RWF  633
 Ground to excited state transition densities written to RWF  633
 Ground to excited state transition electric dipole moments (Au):
       state          X           Y           Z        Dip. S.      Osc.
         1         2.7422     -3.3390      0.0384     18.6697      0.5825
         2        -0.8472     -1.0621     -0.0422      1.8475      0.0859
         3        -0.1364     -0.2354      0.0120      0.0741      0.0052
         4         0.4678     -0.0291     -0.0507      0.2222      0.0159
         5         1.6634      0.7408     -0.0708      3.3207      0.2419
 Ground to excited state transition velocity dipole moments (Au):
       state          X           Y           Z        Dip. S.      Osc.
         1         0.0527     -0.0223     -0.0023      0.0033      0.0467
         2         0.0126      0.0180     -0.0009      0.0005      0.0047
         3         0.0011      0.0143     -0.0062      0.0002      0.0015
         4        -0.0160      0.0016     -0.0007      0.0003      0.0016
         5        -0.0553     -0.0233      0.0080      0.0037      0.0224
 Ground to excited state transition magnetic dipole moments (Au):
       state          X           Y           Z
         1        -0.0268      0.0264      0.0369
         2        -0.0581      0.0291     -0.8151
         3         0.5731      0.4531      0.3197
         4        -0.2391      0.6689      0.2397
         5         0.0598     -0.2899      0.1648
 Ground to excited state transition velocity quadrupole moments (Au):
       state          XX          YY          ZZ          XY          XZ          YZ
         1         0.9870      0.0324     -0.0212     -0.2283     -0.0398      0.0022
         2         0.2463     -0.0014     -0.0037      0.1126     -0.0066     -0.0191
         3         0.1347      0.0798     -0.0067      0.1201     -0.0207     -0.0965
         4        -0.1343     -0.0660      0.0018      0.1324     -0.0075      0.0357
         5        -0.6095     -0.1083      0.0158      0.0133      0.0432     -0.0247
 <0|del|b> * <b|rxdel|0> + <0|del|b> * <b|delr+rdel|0>
 Rotatory Strengths (R) in cgs (10**-40 erg-esu-cm/Gauss)
       state          XX          YY          ZZ    R(velocity)    E-M Angle
         1        -7.8140    -14.4415     -9.3026    -10.5194      133.81
         2         6.3737     -0.8575     -0.4416      1.6915       88.41
         3        13.5397     -2.3876     22.9822     11.3781       65.67
         4         2.7029     10.4333     17.9729     10.3697       66.91
         5        29.6583     -2.3804      3.4531     10.2437       76.61
 1/2[<0|r|b>*<b|rxdel|0> + (<0|rxdel|b>*<b|r|0>)*]
 Rotatory Strengths (R) in cgs (10**-40 erg-esu-cm/Gauss)
       state          XX          YY          ZZ     R(length)
         1        52.0305     62.4170     -1.0011     37.8155
         2       -34.8172     21.8590    -24.3108    -12.4230
         3        55.2686     75.4166     -2.7185     42.6556
         4        79.0963     13.7548      8.5956     33.8156
         5       -70.3058    151.8574      8.2496     29.9337
  1/2[<0|del|b>*<b|r|0> + (<0|r|b>*<b|del|0>)*] (Au)
       state          X           Y           Z        Dip. S.   Osc.(frdel)
         1         0.1444      0.0745     -0.0001     -0.2189     -0.1459
         2        -0.0107     -0.0192      0.0000      0.0298      0.0199
         3        -0.0001     -0.0034     -0.0001      0.0036      0.0024
         4        -0.0075     -0.0000      0.0000      0.0075      0.0050
         5        -0.0920     -0.0172     -0.0006      0.1098      0.0732

 Excitation energies and oscillator strengths:
 
 Excited State   1:      Singlet-A      1.2735 eV  973.53 nm  f=0.5825  <S**2>=0.000
     175 ->178         0.16757
     176 ->177         0.67001
 This state for optimization and/or second-order correction.
 Total Energy, E(CIS/TDA) =  -474.539267168    
 Copying the excited state density for this state as the 1-particle RhoCI density.
 
 Excited State   2:      Singlet-A      1.8969 eV  653.62 nm  f=0.0859  <S**2>=0.000
     175 ->177         0.57923
     176 ->178        -0.36782
 
 Excited State   3:      Singlet-A      2.8862 eV  429.57 nm  f=0.0052  <S**2>=0.000
     166 ->179        -0.13990
     168 ->177         0.29612
     168 ->178        -0.10768
     168 ->179        -0.43113
     168 ->181         0.20303
     168 ->184         0.14556
     168 ->186        -0.14941
     176 ->179         0.12541
 
 Excited State   4:      Singlet-A      2.9244 eV  423.96 nm  f=0.0159  <S**2>=0.000
     171 ->177         0.29735
     171 ->178        -0.14837
     171 ->179         0.26376
     171 ->180         0.12409
     171 ->181         0.38414
     171 ->186         0.12895
     171 ->187        -0.14240
     171 ->188         0.13143
     176 ->179         0.12175
 
 Excited State   5:      Singlet-A      2.9736 eV  416.95 nm  f=0.2419  <S**2>=0.000
     171 ->181        -0.10129
     175 ->177        -0.19030
     176 ->178        -0.34173
     176 ->179         0.21162
     176 ->180         0.48076
 SavETr:  write IOETrn=   770 NScale= 10 NData=  16 NLR=1 NState=    5 LETran=     100.
 Leave Link  914 at Wed May  4 06:56:14 2022, MaxMem=  6710886400 cpu:             101.2 elap:               4.2
 (Enter /sw/apps/gaussian-16.0/g16/l601.exe)
 Copying SCF densities to generalized density rwf, IOpCl= 0 IROHF=0.

 **********************************************************************

            Population analysis using the SCF density.

 **********************************************************************

 Orbital symmetries:
       Occupied  (A) (A) (A) (A) (A) (A) (A) (A) (A) (A) (A) (A)
                 (A) (A) (A) (A) (A) (A) (A) (A) (A) (A) (A) (A)
                 (A) (A) (A) (A) (A) (A) (A) (A) (A) (A) (A) (A)
                 (A) (A) (A) (A) (A) (A) (A) (A) (A) (A) (A) (A)
                 (A) (A) (A) (A) (A) (A) (A) (A) (A) (A) (A) (A)
                 (A) (A) (A) (A) (A) (A) (A) (A) (A) (A) (A) (A)
                 (A) (A) (A) (A) (A) (A) (A) (A) (A) (A) (A) (A)
                 (A) (A) (A) (A) (A) (A) (A) (A) (A) (A) (A) (A)
                 (A) (A) (A) (A) (A) (A) (A) (A) (A) (A) (A) (A)
                 (A) (A) (A) (A) (A) (A) (A) (A) (A) (A) (A) (A)
                 (A) (A) (A) (A) (A) (A) (A) (A) (A) (A) (A) (A)
                 (A) (A) (A) (A) (A) (A) (A) (A) (A) (A) (A) (A)
                 (A) (A) (A) (A) (A) (A) (A) (A) (A) (A) (A) (A)
                 (A) (A) (A) (A) (A) (A) (A) (A) (A) (A) (A) (A)
                 (A) (A) (A) (A) (A) (A) (A) (A)
       Virtual   (A) (A) (A) (A) (A) (A) (A) (A) (A) (A) (A) (A)
                 (A) (A) (A) (A) (A) (A) (A) (A) (A) (A) (A) (A)
                 (A) (A) (A) (A) (A) (A) (A) (A) (A) (A) (A) (A)
                 (A) (A) (A) (A) (A) (A) (A) (A) (A) (A) (A) (A)
                 (A) (A) (A) (A) (A) (A) (A) (A) (A) (A) (A) (A)
                 (A) (A) (A) (A) (A) (A) (A) (A) (A) (A) (A) (A)
                 (A) (A) (A) (A) (A) (A) (A) (A) (A) (A) (A) (A)
                 (A) (A) (A) (A) (A) (A) (A) (A) (A) (A) (A) (A)
                 (A) (A) (A) (A) (A) (A) (A) (A) (A) (A) (A) (A)
                 (A) (A) (A) (A) (A) (A) (A) (A) (A) (A) (A) (A)
                 (A) (A) (A) (A) (A) (A) (A) (A) (A) (A) (A) (A)
                 (A) (A) (A) (A) (A) (A) (A) (A) (A) (A) (A) (A)
                 (A) (A) (A) (A) (A) (A) (A) (A) (A) (A) (A) (A)
                 (A) (A) (A) (A) (A) (A)
 The electronic state is 1-A.
 Alpha  occ. eigenvalues --   -1.86734  -1.84915  -1.80506  -1.74662  -1.73499
 Alpha  occ. eigenvalues --   -1.72291  -1.65675  -1.61620  -1.58913  -1.56769
 Alpha  occ. eigenvalues --   -1.56430  -1.52824  -1.49469  -1.48317  -1.44734
 Alpha  occ. eigenvalues --   -1.44467  -1.41374  -1.40104  -1.39311  -1.38515
 Alpha  occ. eigenvalues --   -1.35898  -1.34389  -1.33594  -1.30133  -1.29611
 Alpha  occ. eigenvalues --   -1.29059  -1.24436  -1.21654  -1.20850  -1.18504
 Alpha  occ. eigenvalues --   -1.17215  -1.16563  -1.16238  -1.15141  -1.12578
 Alpha  occ. eigenvalues --   -1.12553  -1.12090  -1.11325  -1.05815  -1.02575
 Alpha  occ. eigenvalues --   -1.02427  -1.01605  -0.99206  -0.98254  -0.97541
 Alpha  occ. eigenvalues --   -0.95948  -0.95679  -0.94475  -0.93711  -0.92222
 Alpha  occ. eigenvalues --   -0.91450  -0.89750  -0.89721  -0.89294  -0.88547
 Alpha  occ. eigenvalues --   -0.85579  -0.84346  -0.82990  -0.81468  -0.80229
 Alpha  occ. eigenvalues --   -0.79916  -0.77951  -0.76944  -0.76523  -0.75793
 Alpha  occ. eigenvalues --   -0.75725  -0.75043  -0.74726  -0.74168  -0.74077
 Alpha  occ. eigenvalues --   -0.73234  -0.72761  -0.72658  -0.71640  -0.71418
 Alpha  occ. eigenvalues --   -0.70801  -0.69743  -0.68675  -0.68597  -0.68217
 Alpha  occ. eigenvalues --   -0.67632  -0.67021  -0.66399  -0.66167  -0.65636
 Alpha  occ. eigenvalues --   -0.64921  -0.64623  -0.64269  -0.63681  -0.63506
 Alpha  occ. eigenvalues --   -0.63222  -0.62790  -0.62382  -0.61963  -0.61835
 Alpha  occ. eigenvalues --   -0.61748  -0.61176  -0.60714  -0.60368  -0.60074
 Alpha  occ. eigenvalues --   -0.59711  -0.59406  -0.58885  -0.58670  -0.58427
 Alpha  occ. eigenvalues --   -0.58223  -0.57630  -0.57520  -0.57055  -0.56763
 Alpha  occ. eigenvalues --   -0.56562  -0.56436  -0.55864  -0.54948  -0.54492
 Alpha  occ. eigenvalues --   -0.54052  -0.53778  -0.53317  -0.53084  -0.52619
 Alpha  occ. eigenvalues --   -0.52507  -0.52337  -0.51585  -0.51222  -0.51145
 Alpha  occ. eigenvalues --   -0.50898  -0.50684  -0.50327  -0.50103  -0.49904
 Alpha  occ. eigenvalues --   -0.49762  -0.49517  -0.49066  -0.48868  -0.48680
 Alpha  occ. eigenvalues --   -0.48296  -0.48001  -0.47761  -0.47522  -0.47297
 Alpha  occ. eigenvalues --   -0.47083  -0.47032  -0.46909  -0.46672  -0.45975
 Alpha  occ. eigenvalues --   -0.45942  -0.45681  -0.45604  -0.44966  -0.44844
 Alpha  occ. eigenvalues --   -0.44787  -0.44649  -0.44568  -0.43900  -0.43768
 Alpha  occ. eigenvalues --   -0.43386  -0.42910  -0.42667  -0.42514  -0.41504
 Alpha  occ. eigenvalues --   -0.41441  -0.41386  -0.39314  -0.38904  -0.38737
 Alpha  occ. eigenvalues --   -0.37177  -0.36591  -0.36425  -0.34857  -0.34035
 Alpha  occ. eigenvalues --   -0.33680  -0.32236  -0.31932  -0.31716  -0.26552
 Alpha  occ. eigenvalues --   -0.21944
 Alpha virt. eigenvalues --   -0.08623  -0.01650  -0.00932   0.00479   0.01140
 Alpha virt. eigenvalues --    0.01861   0.03092   0.03871   0.04428   0.04560
 Alpha virt. eigenvalues --    0.06006   0.06728   0.07757   0.07901   0.08277
 Alpha virt. eigenvalues --    0.08474   0.08680   0.09018   0.09416   0.09562
 Alpha virt. eigenvalues --    0.09825   0.10332   0.10425   0.10732   0.10825
 Alpha virt. eigenvalues --    0.10912   0.11405   0.11579   0.11857   0.12203
 Alpha virt. eigenvalues --    0.12731   0.12828   0.13175   0.13403   0.13628
 Alpha virt. eigenvalues --    0.13672   0.14124   0.14194   0.14793   0.15227
 Alpha virt. eigenvalues --    0.15240   0.15399   0.15657   0.15700   0.15807
 Alpha virt. eigenvalues --    0.16125   0.16537   0.16604   0.16737   0.17240
 Alpha virt. eigenvalues --    0.17374   0.17488   0.17731   0.17912   0.18089
 Alpha virt. eigenvalues --    0.18288   0.18371   0.18930   0.19326   0.19508
 Alpha virt. eigenvalues --    0.19869   0.19875   0.20410   0.20432   0.21399
 Alpha virt. eigenvalues --    0.21466   0.22356   0.22888   0.22937   0.23083
 Alpha virt. eigenvalues --    0.23517   0.23821   0.23903   0.24041   0.24224
 Alpha virt. eigenvalues --    0.24253   0.24255   0.24335   0.24362   0.24580
 Alpha virt. eigenvalues --    0.24615   0.24709   0.24944   0.24945   0.24996
 Alpha virt. eigenvalues --    0.25015   0.25037   0.25123   0.25268   0.25277
 Alpha virt. eigenvalues --    0.25351   0.25420   0.25580   0.25610   0.25738
 Alpha virt. eigenvalues --    0.25856   0.25877   0.25990   0.26109   0.26338
 Alpha virt. eigenvalues --    0.26387   0.26493   0.26596   0.26660   0.26665
 Alpha virt. eigenvalues --    0.26757   0.26757   0.26947   0.27052   0.27083
 Alpha virt. eigenvalues --    0.27333   0.27441   0.27445   0.27781   0.28123
 Alpha virt. eigenvalues --    0.28269   0.28889   0.29221   0.29234   0.29659
 Alpha virt. eigenvalues --    0.29906   0.30057   0.30922   0.31065   0.31086
 Alpha virt. eigenvalues --    0.31706   0.32683   0.32938   0.33050   0.33535
 Alpha virt. eigenvalues --    0.34930   0.35259   0.35606   0.36204   0.36751
 Alpha virt. eigenvalues --    0.36761   0.37233   0.37610   0.38283   0.38592
 Alpha virt. eigenvalues --    0.39062   0.39973   0.40176   0.40292   0.40380
 Alpha virt. eigenvalues --    0.40881   0.41405   0.41926   0.42187   0.44308
 Alpha virt. eigenvalues --    0.44403   0.44793   0.44899   0.45851   0.47244
 Alpha virt. eigenvalues --    0.47664   0.48487   0.49388   0.50948   0.53414
 Alpha virt. eigenvalues --    0.54887   0.58022
          Condensed to atoms (all electrons):
 Mulliken charges:
               1
     1  Mg   0.439773
     2  C   -0.043511
     3  C   -0.098535
     4  C   -0.087039
     5  C   -0.049092
     6  N   -0.283285
     7  C    0.100549
     8  C    0.003786
     9  C    0.010481
    10  C    0.170511
    11  C   -0.048990
    12  C   -0.022058
    13  C    0.006552
    14  C    0.462977
    15  O   -0.510735
    16  O   -0.270619
    17  N   -0.292451
    18  C    0.145355
    19  C    0.021197
    20  C   -0.046430
    21  C    0.164886
    22  C   -0.040252
    23  C    0.320604
    24  O   -0.508228
    25  C   -0.032929
    26  N   -0.267330
    27  C    0.155772
    28  C    0.010625
    29  C    0.010115
    30  C    0.083247
    31  C   -0.056876
    32  C   -0.024542
    33  C   -0.049655
    34  N   -0.335413
    35  C    0.069573
    36  C    0.018856
    37  C   -0.051221
    38  C    0.121070
    39  C   -0.050865
    40  C    0.325725
    41  O   -0.558760
    42  C    0.057972
    43  C    0.482889
    44  O   -0.534833
    45  O   -0.264086
    46  C    0.076843
    47  C    0.109012
    48  C   -0.109160
    49  C    0.002530
    50  C   -0.037759
    51  C   -0.024522
    52  C   -0.022125
    53  C   -0.027899
    54  C   -0.019939
    55  C   -0.068233
    56  C   -0.035484
    57  C   -0.044285
    58  C   -0.026565
    59  C   -0.015133
    60  C   -0.065793
    61  C   -0.041128
    62  C   -0.034936
    63  C   -0.031416
    64  C   -0.011604
    65  C   -0.048927
    66  C   -0.058528
    67  H    0.019813
    68  H    0.035877
    69  H    0.022176
    70  H    0.051653
    71  H    0.022109
    72  H    0.042072
    73  H    0.016314
    74  H    0.015188
    75  H    0.015897
    76  H    0.028388
    77  H    0.034984
    78  H    0.041587
    79  H    0.030288
    80  H    0.033649
    81  H    0.040671
    82  H    0.038998
    83  H    0.037084
    84  H    0.035267
    85  H    0.049390
    86  H    0.027738
    87  H    0.022557
    88  H    0.011780
    89  H    0.037221
    90  H    0.008118
    91  H    0.019084
    92  H    0.011911
    93  H    0.019366
    94  H    0.018309
    95  H    0.035543
    96  H    0.022339
    97  H    0.029063
    98  H    0.058509
    99  H    0.039936
   100  H    0.054423
   101  H    0.032764
   102  H    0.062073
   103  H    0.042851
   104  H    0.015628
   105  H    0.025746
   106  H    0.023699
   107  H    0.031688
   108  H    0.029092
   109  H    0.002975
   110  H    0.032728
   111  H    0.019850
   112  H    0.024923
   113  H    0.024677
   114  H    0.016856
   115  H    0.016993
   116  H    0.028295
   117  H    0.020971
   118  H    0.021349
   119  H    0.010446
   120  H    0.006815
   121  H    0.015816
   122  H    0.019001
   123  H    0.017069
   124  H    0.023261
   125  H    0.024211
   126  H    0.007336
   127  H    0.023911
   128  H    0.015630
   129  H    0.017247
   130  H    0.024701
   131  H    0.024036
   132  H    0.018174
   133  H    0.014344
   134  H    0.011557
   135  H    0.019933
   136  H    0.013423
   137  H    0.017629
   138  H    0.023485
   139  H    0.018962
   140  H    0.012826
 Sum of Mulliken charges =  -0.00000
 Mulliken charges with hydrogens summed into heavy atoms:
               1
     1  Mg   0.439773
     2  C   -0.043511
     3  C   -0.078722
     4  C   -0.051162
     5  C   -0.026916
     6  N   -0.283285
     7  C    0.100549
     8  C    0.055439
     9  C    0.032590
    10  C    0.170511
    11  C    0.024584
    12  C    0.022227
    13  C    0.083123
    14  C    0.462977
    15  O   -0.510735
    16  O   -0.270619
    17  N   -0.292451
    18  C    0.145355
    19  C    0.021197
    20  C   -0.046430
    21  C    0.164886
    22  C    0.064356
    23  C    0.320604
    24  O   -0.508228
    25  C    0.078421
    26  N   -0.267330
    27  C    0.155772
    28  C    0.060015
    29  C    0.037853
    30  C    0.083247
    31  C    0.014682
    32  C    0.002660
    33  C   -0.000070
    34  N   -0.335413
    35  C    0.069573
    36  C    0.018856
    37  C   -0.051221
    38  C    0.121070
    39  C    0.036080
    40  C    0.325725
    41  O   -0.558760
    42  C    0.116481
    43  C    0.482889
    44  O   -0.534833
    45  O   -0.264086
    46  C    0.203966
    47  C    0.213935
    48  C   -0.093533
    49  C    0.002530
    50  C    0.043374
    51  C    0.007545
    52  C    0.030453
    53  C    0.021700
    54  C   -0.003083
    55  C   -0.001973
    56  C   -0.003689
    57  C   -0.021654
    58  C    0.009505
    59  C    0.008128
    60  C   -0.010335
    61  C   -0.008251
    62  C    0.013801
    63  C    0.001101
    64  C   -0.000048
    65  C    0.002059
    66  C   -0.003255
 Charge=              0.0000 electrons
 Dipole moment (field-independent basis, Debye):
    X=             -9.6700    Y=              8.2799    Z=              4.8480  Tot=             13.6224
 N-N= 4.334727660216D+03 E-N= 0.000000000000D+00  KE=-9.344232565506D+03
 Leave Link  601 at Wed May  4 06:56:14 2022, MaxMem=  6710886400 cpu:               0.8 elap:               0.0
 (Enter /sw/apps/gaussian-16.0/g16/l9999.exe)
 1\1\GINC-BP1-COMPUTE102\SP\RZINDO CIS\STO-3G\C55H74Mg1N4O6\OF15641\04-
 May-2022\0\\#p ZINDO=(nstates=5)\\step_1401_chromophore_6 ZINDO\\0,1\M
 g,0,17.198,-2.429,28.143\C,0,16.393,-0.194,30.806\C,0,19.168,-4.089,30
 .29\C,0,18.59,-3.86,25.599\C,0,15.692,0.044,26.021\N,0,17.879,-1.986,3
 0.283\C,0,17.214,-1.253,31.247\C,0,17.525,-1.705,32.649\C,0,18.644,-2.
 763,32.367\C,0,18.521,-3.006,30.854\C,0,20.048,-2.329,32.819\C,0,16.30
 3,-2.22,33.484\C,0,16.242,-1.672,34.922\C,0,17.492,-1.039,35.582\O,0,1
 7.658,0.166,35.749\O,0,18.424,-1.981,35.98\N,0,18.568,-3.975,27.97\C,0
 ,19.181,-4.545,28.967\C,0,19.826,-5.772,28.487\C,0,19.757,-5.69,27.066
 \C,0,18.946,-4.48,26.838\C,0,20.423,-6.87,29.356\C,0,20.198,-6.64,25.9
 82\O,0,19.877,-6.466,24.81\C,0,20.856,-8.034,26.33\N,0,17.108,-1.985,2
 6.146\C,0,17.834,-2.704,25.26\C,0,17.642,-2.238,23.742\C,0,16.681,-1.0
 84,23.96\C,0,16.398,-1.006,25.441\C,0,19.047,-1.693,23.131\C,0,15.392,
 -1.052,23.081\C,0,14.125,-1.569,23.633\N,0,16.117,-0.514,28.318\C,0,15
 .46,0.294,27.384\C,0,14.851,1.362,28.031\C,0,15.197,1.23,29.365\C,0,15
 .996,0.095,29.483\C,0,13.95,2.521,27.455\C,0,15.054,1.84,30.634\O,0,14
 .448,2.902,31.011\C,0,15.673,0.85,31.658\C,0,16.595,1.691,32.537\O,0,1
 7.69,2.229,32.318\O,0,15.881,1.985,33.636\C,0,16.303,3.086,34.448\C,0,
 19.565,-1.505,36.677\C,0,20.157,-2.753,37.276\C,0,20.539,-2.979,38.554
 \C,0,19.967,-2.197,39.63\C,0,21.336,-4.251,38.833\C,0,20.516,-5.479,39
 .093\C,0,20.567,-5.917,40.563\C,0,20.856,-7.421,40.603\C,0,19.56,-8.29
 1,40.905\C,0,21.968,-7.864,41.523\C,0,23.224,-8.459,40.757\C,0,24.594,
 -8.303,41.367\C,0,25.463,-9.58,41.569\C,0,26.463,-9.258,42.707\C,0,26.
 263,-10.121,40.268\C,0,25.771,-11.465,39.716\C,0,25.991,-11.591,38.206
 \C,0,26.855,-12.803,37.745\C,0,26.266,-13.454,36.533\C,0,28.4,-12.529,
 37.662\H,0,19.762,-4.701,30.972\H,0,19.003,-4.291,24.684\H,0,15.236,0.
 769,25.344\H,0,17.789,-0.798,33.193\H,0,18.433,-3.696,32.889\H,0,20.2,
 -1.3,33.144\H,0,20.704,-2.576,31.984\H,0,20.403,-3.011,33.592\H,0,16.2
 74,-3.303,33.606\H,0,15.44,-2.035,32.844\H,0,16.008,-2.441,35.658\H,0,
 15.431,-0.949,34.848\H,0,20.567,-6.59,30.399\H,0,21.401,-7.064,28.913\
 H,0,19.71,-7.692,29.285\H,0,20.17,-8.623,26.939\H,0,21.848,-7.86,26.74
 8\H,0,20.982,-8.611,25.414\H,0,17.157,-3.038,23.183\H,0,17.194,-0.138,
 23.784\H,0,18.921,-0.767,22.571\H,0,19.364,-2.351,22.322\H,0,19.933,-1
 .628,23.762\H,0,15.543,-1.725,22.237\H,0,15.186,-0.076,22.641\H,0,14.3
 49,-2.458,24.223\H,0,13.392,-1.818,22.866\H,0,13.703,-0.916,24.398\H,0
 ,12.932,2.284,27.145\H,0,14.533,3.024,26.684\H,0,13.861,3.322,28.189\H
 ,0,14.907,0.406,32.294\H,0,15.992,4.035,34.012\H,0,17.393,3.092,34.438
 \H,0,15.805,2.953,35.408\H,0,19.373,-0.689,37.374\H,0,20.316,-1.286,35
 .919\H,0,20.604,-3.408,36.528\H,0,19.715,-2.936,40.391\H,0,19.093,-1.6
 02,39.364\H,0,20.623,-1.392,39.962\H,0,22.194,-3.956,39.436\H,0,21.842
 ,-4.488,37.897\H,0,20.846,-6.166,38.314\H,0,19.47,-5.205,38.953\H,0,19
 .596,-5.771,41.037\H,0,21.365,-5.417,41.111\H,0,21.151,-7.77,39.613\H,
 0,18.743,-7.623,40.634\H,0,19.595,-8.552,41.963\H,0,19.521,-9.16,40.24
 9\H,0,21.653,-8.548,42.31\H,0,22.403,-7.011,42.044\H,0,23.297,-7.917,3
 9.814\H,0,22.974,-9.467,40.425\H,0,24.451,-7.772,42.308\H,0,25.098,-7.
 606,40.697\H,0,24.835,-10.396,41.928\H,0,27.496,-9.542,42.507\H,0,26.1
 12,-9.916,43.502\H,0,26.358,-8.255,43.122\H,0,27.336,-10.219,40.433\H,
 0,26.253,-9.297,39.554\H,0,24.742,-11.441,40.073\H,0,26.3,-12.306,40.1
 65\H,0,26.506,-10.733,37.772\H,0,25.017,-11.613,37.718\H,0,26.84,-13.4
 95,38.587\H,0,25.569,-14.265,36.739\H,0,27.08,-13.865,35.936\H,0,25.75
 1,-12.693,35.946\H,0,28.986,-13.312,38.142\H,0,28.691,-11.547,38.034\H
 ,0,28.685,-12.481,36.611\\Version=ES64L-G16RevA.03\State=1-A\HF=-474.5
 860693\RMSD=7.892e-09\PG=C01 [X(C55H74Mg1N4O6)]\\@


 THE WISE MAN HAS THE POWER TO REASON AWAY
 WHAT A FOOL BELIEVES.
                     - DOOBIE BROTHERS
 Job cpu time:       0 days  0 hours  2 minutes 26.3 seconds.
 Elapsed time:       0 days  0 hours  0 minutes  6.3 seconds.
 File lengths (MBytes):  RWF=   1263 Int=      0 D2E=      0 Chk=     38 Scr=      1
 Normal termination of Gaussian 16 at Wed May  4 06:56:14 2022.
