 Entering Gaussian System, Link 0=g16
 Initial command:
 /sw/apps/gaussian-16.0/g16/l1.exe "/tmp/Gau-63716.inp" -scrdir="/tmp/"
 Entering Link 1 = /sw/apps/gaussian-16.0/g16/l1.exe PID=     63717.
  
 Copyright (c) 1988,1990,1992,1993,1995,1998,2003,2009,2016,
            Gaussian, Inc.  All Rights Reserved.
  
 This is part of the Gaussian(R) 16 program.  It is based on
 the Gaussian(R) 09 system (copyright 2009, Gaussian, Inc.),
 the Gaussian(R) 03 system (copyright 2003, Gaussian, Inc.),
 the Gaussian(R) 98 system (copyright 1998, Gaussian, Inc.),
 the Gaussian(R) 94 system (copyright 1995, Gaussian, Inc.),
 the Gaussian 92(TM) system (copyright 1992, Gaussian, Inc.),
 the Gaussian 90(TM) system (copyright 1990, Gaussian, Inc.),
 the Gaussian 88(TM) system (copyright 1988, Gaussian, Inc.),
 the Gaussian 86(TM) system (copyright 1986, Carnegie Mellon
 University), and the Gaussian 82(TM) system (copyright 1983,
 Carnegie Mellon University). Gaussian is a federally registered
 trademark of Gaussian, Inc.
  
 This software contains proprietary and confidential information,
 including trade secrets, belonging to Gaussian, Inc.
  
 This software is provided under written license and may be
 used, copied, transmitted, or stored only in accord with that
 written license.
  
 The following legend is applicable only to US Government
 contracts under FAR:
  
                    RESTRICTED RIGHTS LEGEND
  
 Use, reproduction and disclosure by the US Government is
 subject to restrictions as set forth in subparagraphs (a)
 and (c) of the Commercial Computer Software - Restricted
 Rights clause in FAR 52.227-19.
  
 Gaussian, Inc.
 340 Quinnipiac St., Bldg. 40, Wallingford CT 06492
  
  
 ---------------------------------------------------------------
 Warning -- This program may not be used in any manner that
 competes with the business of Gaussian, Inc. or will provide
 assistance to any competitor of Gaussian, Inc.  The licensee
 of this program is prohibited from giving any competitor of
 Gaussian, Inc. access to this program.  By using this program,
 the user acknowledges that Gaussian, Inc. is engaged in the
 business of creating and licensing software in the field of
 computational chemistry and represents and warrants to the
 licensee that it is not a competitor of Gaussian, Inc. and that
 it will not use this program in any manner prohibited above.
 ---------------------------------------------------------------
  

 Cite this work as:
 Gaussian 16, Revision A.03,
 M. J. Frisch, G. W. Trucks, H. B. Schlegel, G. E. Scuseria, 
 M. A. Robb, J. R. Cheeseman, G. Scalmani, V. Barone, 
 G. A. Petersson, H. Nakatsuji, X. Li, M. Caricato, A. V. Marenich, 
 J. Bloino, B. G. Janesko, R. Gomperts, B. Mennucci, H. P. Hratchian, 
 J. V. Ortiz, A. F. Izmaylov, J. L. Sonnenberg, D. Williams-Young, 
 F. Ding, F. Lipparini, F. Egidi, J. Goings, B. Peng, A. Petrone, 
 T. Henderson, D. Ranasinghe, V. G. Zakrzewski, J. Gao, N. Rega, 
 G. Zheng, W. Liang, M. Hada, M. Ehara, K. Toyota, R. Fukuda, 
 J. Hasegawa, M. Ishida, T. Nakajima, Y. Honda, O. Kitao, H. Nakai, 
 T. Vreven, K. Throssell, J. A. Montgomery, Jr., J. E. Peralta, 
 F. Ogliaro, M. J. Bearpark, J. J. Heyd, E. N. Brothers, K. N. Kudin, 
 V. N. Staroverov, T. A. Keith, R. Kobayashi, J. Normand, 
 K. Raghavachari, A. P. Rendell, J. C. Burant, S. S. Iyengar, 
 J. Tomasi, M. Cossi, J. M. Millam, M. Klene, C. Adamo, R. Cammi, 
 J. W. Ochterski, R. L. Martin, K. Morokuma, O. Farkas, 
 J. B. Foresman, and D. J. Fox, Gaussian, Inc., Wallingford CT, 2016.
 
 ******************************************
 Gaussian 16:  ES64L-G16RevA.03 25-Dec-2016
                29-Apr-2022 
 ******************************************
 %nproc=24
 Will use up to   24 processors via shared memory.
 %mem=75GB
 --------------------------------
 #p wB97XD/Def2SVP td=(nstates=5)
 --------------------------------
 1/38=1,172=1/1;
 2/12=2,17=6,18=5,40=1/2;
 3/5=43,7=101,11=9,25=1,30=1,74=-58/1,2,3,8;
 4//1;
 5/5=2,38=5/2;
 8/6=1,10=1,108=5/1;
 9/41=5,42=1,70=2/14;
 6/7=2,8=2,9=2,10=2/1;
 99/5=1,9=1/99;
 Leave Link    1 at Fri Apr 29 06:37:34 2022, MaxMem= 10066329600 cpu:               0.6 elap:               0.0
 (Enter /sw/apps/gaussian-16.0/g16/l101.exe)
 -------------------------------------------------
 step_1_chromophore_3 TDDFT with wB97XD functional
 -------------------------------------------------
 Symbolic Z-matrix:
 Charge =  0 Multiplicity = 1
 Mg                    1.397     7.672     26.334 
 C                     1.724     9.741     29.051 
 C                     2.013     4.991     28.381 
 C                     1.182     5.575     23.58 
 C                     1.222     10.435    24.247 
 N                     1.881     7.369     28.504 
 C                     1.86      8.397     29.403 
 C                     2.088     7.914     30.753 
 C                     2.4       6.433     30.607 
 C                     2.122     6.205     29.057 
 C                     3.813     5.913     31.044 
 C                     0.869     8.215     31.69 
 C                     1.184     8.506     33.198 
 C                     2.448     7.854     33.792 
 O                     3.525     8.347     34.183 
 O                     2.178     6.495     34.023 
 N                     1.466     5.549     26.075 
 C                     1.719     4.629     27.078 
 C                     1.707     3.272     26.495 
 C                     1.454     3.427     25.064 
 C                     1.331     4.879     24.847 
 C                     1.961     1.993     27.276 
 C                     1.226     2.335     24.045 
 O                     0.942     2.65      22.876 
 C                     1.349     0.883     24.32 
 N                     1.304     7.948     24.201 
 C                     1.17      6.942     23.332 
 C                     0.899     7.477     21.916 
 C                     0.648     9.069     22.124 
 C                     1.006     9.146     23.65 
 C                     2.063     7.12      20.941 
 C                    -0.806     9.555     21.874 
 C                    -1.005     10.456    20.646 
 N                     1.524     9.708     26.541 
 C                     1.451     10.734    25.596 
 C                     1.565     12.05     26.263 
 C                     1.69      11.659    27.617 
 C                     1.669     10.243    27.729 
 C                     1.493     13.371    25.672 
 C                     1.738     12.19     28.995 
 O                     1.682     13.313    29.421 
 C                     1.805     10.957    29.965 
 C                     2.974     11.12     30.844 
 O                     4.122     10.981    30.392 
 O                     2.681     11.286    32.163 
 C                     3.771     11.252    33.133 
 C                     3.048     5.855     35.05 
 C                     1.929     5.252     35.92 
 C                     1.869     5.066     37.262 
 C                     2.844     5.658     38.257 
 C                     0.649     4.441     37.846 
 C                     0.829     3.116     38.637 
 C                     0.458     1.834     37.761 
 C                     0.426     0.43      38.301 
 C                    -0.691    -0.398     37.669 
 C                     1.726    -0.354     38.157 
 C                     2.354    -0.963     39.38 
 C                     3.109    -2.224     38.988 
 C                     3.987    -2.755     40.173 
 C                     3.117    -3.186     41.378 
 C                     5.137    -1.851     40.639 
 C                     6.399    -2.671     41.039 
 C                     7.463    -1.796     41.848 
 C                     8.896    -2.176     41.372 
 C                     9.882    -2.039     42.589 
 C                     9.265    -1.108     40.271 
 H                     2.211     4.159     29.06 
 H                     1.154     4.901     22.721 
 H                     1.034     11.27     23.569 
 H                     2.966     8.427     31.147 
 H                     1.62      5.817     31.056 
 H                     4.563     6.577     31.475 
 H                     4.274     5.435     30.18 
 H                     3.771     5.074     31.739 
 H                     0.125     7.425     31.587 
 H                     0.273     9.011     31.244 
 H                     0.337     8.213     33.819 
 H                     1.413     9.554     33.389 
 H                     2.028     2.15      28.352 
 H                     2.913     1.543     26.993 
 H                     1.087     1.344     27.224 
 H                     1.036     0.372     23.41 
 H                     0.748     0.547     25.166 
 H                     2.368     0.659     24.636 
 H                    -0.069     7.08      21.61 
 H                     1.359     9.68      21.568 
 H                     1.725     6.673     20.006 
 H                     2.747     6.405     21.399 
 H                     2.592     8.064     20.808 
 H                    -1.226     10.107    22.714 
 H                    -1.498     8.721     21.755 
 H                    -0.249     10.22     19.897 
 H                    -0.863     11.489    20.962 
 H                    -2.045     10.342    20.343 
 H                     1.264     14.148    26.401 
 H                     0.762     13.444    24.867 
 H                     2.505     13.659    25.387 
 H                     0.852     11.055    30.486 
 H                     4.474     12.081    33.047 
 H                     4.27      10.283    33.126 
 H                     3.365     11.366    34.138 
 H                     3.669     6.537     35.629 
 H                     3.645     5.042     34.637 
 H                     1.141     4.853     35.281 
 H                     2.241     6.388     38.797 
 H                     3.667     6.079     37.68 
 H                     3.186     4.837     38.888 
 H                    -0.121     4.345     37.08 
 H                     0.245     5.038     38.663 
 H                     0.325     3.045     39.601 
 H                     1.867     2.982     38.94 
 H                     1.07      1.662     36.876 
 H                    -0.538     2.056     37.377 
 H                     0.219     0.481     39.37 
 H                    -1.049     0.006     36.722 
 H                    -1.532    -0.179     38.326 
 H                    -0.45     -1.431     37.415 
 H                     2.424     0.42      37.837 
 H                     1.644    -1.051     37.322 
 H                     1.593    -1.066     40.153 
 H                     3.027    -0.185     39.739 
 H                     3.572    -2.108     38.008 
 H                     2.339    -2.994     38.93 
 H                     4.472    -3.626     39.732 
 H                     2.35     -3.916     41.121 
 H                     2.586    -2.314     41.762 
 H                     3.682    -3.709     42.149 
 H                     4.662    -1.306     41.455 
 H                     5.377    -1.127     39.86 
 H                     6.758    -2.976     40.056 
 H                     5.986    -3.522     41.582 
 H                     7.254    -2.036     42.89 
 H                     7.172    -0.748     41.771 
 H                     9.044    -3.111     40.833 
 H                     9.386    -1.986     43.558 
 H                     10.42    -1.092     42.54 
 H                     10.532   -2.913     42.553 
 H                     9.459    -1.773     39.43 
 H                     10.177   -0.553     40.493 
 H                     8.54     -0.302     40.162 
 
 ITRead=  0  0  0  0  0  0  0  0  0  0  0  0  0  0  0  0  0  0  0  0
 ITRead=  0  0  0  0  0  0  0  0  0  0  0  0  0  0  0  0  0  0  0  0
 ITRead=  0  0  0  0  0  0  0  0  0  0  0  0  0  0  0  0  0  0  0  0
 ITRead=  0  0  0  0  0  0  0  0  0  0  0  0  0  0  0  0  0  0  0  0
 ITRead=  0  0  0  0  0  0  0  0  0  0  0  0  0  0  0  0  0  0  0  0
 ITRead=  0  0  0  0  0  0  0  0  0  0  0  0  0  0  0  0  0  0  0  0
 ITRead=  0  0  0  0  0  0  0  0  0  0  0  0  0  0  0  0  0  0  0  0
 MicOpt= -1 -1 -1 -1 -1 -1 -1 -1 -1 -1 -1 -1 -1 -1 -1 -1 -1 -1 -1 -1
 MicOpt= -1 -1 -1 -1 -1 -1 -1 -1 -1 -1 -1 -1 -1 -1 -1 -1 -1 -1 -1 -1
 MicOpt= -1 -1 -1 -1 -1 -1 -1 -1 -1 -1 -1 -1 -1 -1 -1 -1 -1 -1 -1 -1
 MicOpt= -1 -1 -1 -1 -1 -1 -1 -1 -1 -1 -1 -1 -1 -1 -1 -1 -1 -1 -1 -1
 MicOpt= -1 -1 -1 -1 -1 -1 -1 -1 -1 -1 -1 -1 -1 -1 -1 -1 -1 -1 -1 -1
 MicOpt= -1 -1 -1 -1 -1 -1 -1 -1 -1 -1 -1 -1 -1 -1 -1 -1 -1 -1 -1 -1
 MicOpt= -1 -1 -1 -1 -1 -1 -1 -1 -1 -1 -1 -1 -1 -1 -1 -1 -1 -1 -1 -1
 NAtoms=    140 NQM=      140 NQMF=       0 NMMI=      0 NMMIF=      0
                NMic=       0 NMicF=      0.
                    Isotopes and Nuclear Properties:
 (Nuclear quadrupole moments (NQMom) in fm**2, nuclear magnetic moments (NMagM)
  in nuclear magnetons)

  Atom         1           2           3           4           5           6           7           8           9          10
 IAtWgt=          24          12          12          12          12          14          12          12          12          12
 AtmWgt=  23.9850450  12.0000000  12.0000000  12.0000000  12.0000000  14.0030740  12.0000000  12.0000000  12.0000000  12.0000000
 NucSpn=           0           0           0           0           0           2           0           0           0           0
 AtZEff=  -0.0000000  -0.0000000  -0.0000000  -0.0000000  -0.0000000  -0.0000000  -0.0000000  -0.0000000  -0.0000000  -0.0000000
 NQMom=    0.0000000   0.0000000   0.0000000   0.0000000   0.0000000   2.0440000   0.0000000   0.0000000   0.0000000   0.0000000
 NMagM=    0.0000000   0.0000000   0.0000000   0.0000000   0.0000000   0.4037610   0.0000000   0.0000000   0.0000000   0.0000000
 AtZNuc=  12.0000000   6.0000000   6.0000000   6.0000000   6.0000000   7.0000000   6.0000000   6.0000000   6.0000000   6.0000000

  Atom        11          12          13          14          15          16          17          18          19          20
 IAtWgt=          12          12          12          12          16          16          14          12          12          12
 AtmWgt=  12.0000000  12.0000000  12.0000000  12.0000000  15.9949146  15.9949146  14.0030740  12.0000000  12.0000000  12.0000000
 NucSpn=           0           0           0           0           0           0           2           0           0           0
 AtZEff=  -0.0000000  -0.0000000  -0.0000000  -0.0000000  -0.0000000  -0.0000000  -0.0000000  -0.0000000  -0.0000000  -0.0000000
 NQMom=    0.0000000   0.0000000   0.0000000   0.0000000   0.0000000   0.0000000   2.0440000   0.0000000   0.0000000   0.0000000
 NMagM=    0.0000000   0.0000000   0.0000000   0.0000000   0.0000000   0.0000000   0.4037610   0.0000000   0.0000000   0.0000000
 AtZNuc=   6.0000000   6.0000000   6.0000000   6.0000000   8.0000000   8.0000000   7.0000000   6.0000000   6.0000000   6.0000000

  Atom        21          22          23          24          25          26          27          28          29          30
 IAtWgt=          12          12          12          16          12          14          12          12          12          12
 AtmWgt=  12.0000000  12.0000000  12.0000000  15.9949146  12.0000000  14.0030740  12.0000000  12.0000000  12.0000000  12.0000000
 NucSpn=           0           0           0           0           0           2           0           0           0           0
 AtZEff=  -0.0000000  -0.0000000  -0.0000000  -0.0000000  -0.0000000  -0.0000000  -0.0000000  -0.0000000  -0.0000000  -0.0000000
 NQMom=    0.0000000   0.0000000   0.0000000   0.0000000   0.0000000   2.0440000   0.0000000   0.0000000   0.0000000   0.0000000
 NMagM=    0.0000000   0.0000000   0.0000000   0.0000000   0.0000000   0.4037610   0.0000000   0.0000000   0.0000000   0.0000000
 AtZNuc=   6.0000000   6.0000000   6.0000000   8.0000000   6.0000000   7.0000000   6.0000000   6.0000000   6.0000000   6.0000000

  Atom        31          32          33          34          35          36          37          38          39          40
 IAtWgt=          12          12          12          14          12          12          12          12          12          12
 AtmWgt=  12.0000000  12.0000000  12.0000000  14.0030740  12.0000000  12.0000000  12.0000000  12.0000000  12.0000000  12.0000000
 NucSpn=           0           0           0           2           0           0           0           0           0           0
 AtZEff=  -0.0000000  -0.0000000  -0.0000000  -0.0000000  -0.0000000  -0.0000000  -0.0000000  -0.0000000  -0.0000000  -0.0000000
 NQMom=    0.0000000   0.0000000   0.0000000   2.0440000   0.0000000   0.0000000   0.0000000   0.0000000   0.0000000   0.0000000
 NMagM=    0.0000000   0.0000000   0.0000000   0.4037610   0.0000000   0.0000000   0.0000000   0.0000000   0.0000000   0.0000000
 AtZNuc=   6.0000000   6.0000000   6.0000000   7.0000000   6.0000000   6.0000000   6.0000000   6.0000000   6.0000000   6.0000000

  Atom        41          42          43          44          45          46          47          48          49          50
 IAtWgt=          16          12          12          16          16          12          12          12          12          12
 AtmWgt=  15.9949146  12.0000000  12.0000000  15.9949146  15.9949146  12.0000000  12.0000000  12.0000000  12.0000000  12.0000000
 NucSpn=           0           0           0           0           0           0           0           0           0           0
 AtZEff=  -0.0000000  -0.0000000  -0.0000000  -0.0000000  -0.0000000  -0.0000000  -0.0000000  -0.0000000  -0.0000000  -0.0000000
 NQMom=    0.0000000   0.0000000   0.0000000   0.0000000   0.0000000   0.0000000   0.0000000   0.0000000   0.0000000   0.0000000
 NMagM=    0.0000000   0.0000000   0.0000000   0.0000000   0.0000000   0.0000000   0.0000000   0.0000000   0.0000000   0.0000000
 AtZNuc=   8.0000000   6.0000000   6.0000000   8.0000000   8.0000000   6.0000000   6.0000000   6.0000000   6.0000000   6.0000000

  Atom        51          52          53          54          55          56          57          58          59          60
 IAtWgt=          12          12          12          12          12          12          12          12          12          12
 AtmWgt=  12.0000000  12.0000000  12.0000000  12.0000000  12.0000000  12.0000000  12.0000000  12.0000000  12.0000000  12.0000000
 NucSpn=           0           0           0           0           0           0           0           0           0           0
 AtZEff=  -0.0000000  -0.0000000  -0.0000000  -0.0000000  -0.0000000  -0.0000000  -0.0000000  -0.0000000  -0.0000000  -0.0000000
 NQMom=    0.0000000   0.0000000   0.0000000   0.0000000   0.0000000   0.0000000   0.0000000   0.0000000   0.0000000   0.0000000
 NMagM=    0.0000000   0.0000000   0.0000000   0.0000000   0.0000000   0.0000000   0.0000000   0.0000000   0.0000000   0.0000000
 AtZNuc=   6.0000000   6.0000000   6.0000000   6.0000000   6.0000000   6.0000000   6.0000000   6.0000000   6.0000000   6.0000000

  Atom        61          62          63          64          65          66          67          68          69          70
 IAtWgt=          12          12          12          12          12          12           1           1           1           1
 AtmWgt=  12.0000000  12.0000000  12.0000000  12.0000000  12.0000000  12.0000000   1.0078250   1.0078250   1.0078250   1.0078250
 NucSpn=           0           0           0           0           0           0           1           1           1           1
 AtZEff=  -0.0000000  -0.0000000  -0.0000000  -0.0000000  -0.0000000  -0.0000000  -0.0000000  -0.0000000  -0.0000000  -0.0000000
 NQMom=    0.0000000   0.0000000   0.0000000   0.0000000   0.0000000   0.0000000   0.0000000   0.0000000   0.0000000   0.0000000
 NMagM=    0.0000000   0.0000000   0.0000000   0.0000000   0.0000000   0.0000000   2.7928460   2.7928460   2.7928460   2.7928460
 AtZNuc=   6.0000000   6.0000000   6.0000000   6.0000000   6.0000000   6.0000000   1.0000000   1.0000000   1.0000000   1.0000000

  Atom        71          72          73          74          75          76          77          78          79          80
 IAtWgt=           1           1           1           1           1           1           1           1           1           1
 AtmWgt=   1.0078250   1.0078250   1.0078250   1.0078250   1.0078250   1.0078250   1.0078250   1.0078250   1.0078250   1.0078250
 NucSpn=           1           1           1           1           1           1           1           1           1           1
 AtZEff=  -0.0000000  -0.0000000  -0.0000000  -0.0000000  -0.0000000  -0.0000000  -0.0000000  -0.0000000  -0.0000000  -0.0000000
 NQMom=    0.0000000   0.0000000   0.0000000   0.0000000   0.0000000   0.0000000   0.0000000   0.0000000   0.0000000   0.0000000
 NMagM=    2.7928460   2.7928460   2.7928460   2.7928460   2.7928460   2.7928460   2.7928460   2.7928460   2.7928460   2.7928460
 AtZNuc=   1.0000000   1.0000000   1.0000000   1.0000000   1.0000000   1.0000000   1.0000000   1.0000000   1.0000000   1.0000000

  Atom        81          82          83          84          85          86          87          88          89          90
 IAtWgt=           1           1           1           1           1           1           1           1           1           1
 AtmWgt=   1.0078250   1.0078250   1.0078250   1.0078250   1.0078250   1.0078250   1.0078250   1.0078250   1.0078250   1.0078250
 NucSpn=           1           1           1           1           1           1           1           1           1           1
 AtZEff=  -0.0000000  -0.0000000  -0.0000000  -0.0000000  -0.0000000  -0.0000000  -0.0000000  -0.0000000  -0.0000000  -0.0000000
 NQMom=    0.0000000   0.0000000   0.0000000   0.0000000   0.0000000   0.0000000   0.0000000   0.0000000   0.0000000   0.0000000
 NMagM=    2.7928460   2.7928460   2.7928460   2.7928460   2.7928460   2.7928460   2.7928460   2.7928460   2.7928460   2.7928460
 AtZNuc=   1.0000000   1.0000000   1.0000000   1.0000000   1.0000000   1.0000000   1.0000000   1.0000000   1.0000000   1.0000000

  Atom        91          92          93          94          95          96          97          98          99         100
 IAtWgt=           1           1           1           1           1           1           1           1           1           1
 AtmWgt=   1.0078250   1.0078250   1.0078250   1.0078250   1.0078250   1.0078250   1.0078250   1.0078250   1.0078250   1.0078250
 NucSpn=           1           1           1           1           1           1           1           1           1           1
 AtZEff=  -0.0000000  -0.0000000  -0.0000000  -0.0000000  -0.0000000  -0.0000000  -0.0000000  -0.0000000  -0.0000000  -0.0000000
 NQMom=    0.0000000   0.0000000   0.0000000   0.0000000   0.0000000   0.0000000   0.0000000   0.0000000   0.0000000   0.0000000
 NMagM=    2.7928460   2.7928460   2.7928460   2.7928460   2.7928460   2.7928460   2.7928460   2.7928460   2.7928460   2.7928460
 AtZNuc=   1.0000000   1.0000000   1.0000000   1.0000000   1.0000000   1.0000000   1.0000000   1.0000000   1.0000000   1.0000000

  Atom       101         102         103         104         105         106         107         108         109         110
 IAtWgt=           1           1           1           1           1           1           1           1           1           1
 AtmWgt=   1.0078250   1.0078250   1.0078250   1.0078250   1.0078250   1.0078250   1.0078250   1.0078250   1.0078250   1.0078250
 NucSpn=           1           1           1           1           1           1           1           1           1           1
 AtZEff=  -0.0000000  -0.0000000  -0.0000000  -0.0000000  -0.0000000  -0.0000000  -0.0000000  -0.0000000  -0.0000000  -0.0000000
 NQMom=    0.0000000   0.0000000   0.0000000   0.0000000   0.0000000   0.0000000   0.0000000   0.0000000   0.0000000   0.0000000
 NMagM=    2.7928460   2.7928460   2.7928460   2.7928460   2.7928460   2.7928460   2.7928460   2.7928460   2.7928460   2.7928460
 AtZNuc=   1.0000000   1.0000000   1.0000000   1.0000000   1.0000000   1.0000000   1.0000000   1.0000000   1.0000000   1.0000000

  Atom       111         112         113         114         115         116         117         118         119         120
 IAtWgt=           1           1           1           1           1           1           1           1           1           1
 AtmWgt=   1.0078250   1.0078250   1.0078250   1.0078250   1.0078250   1.0078250   1.0078250   1.0078250   1.0078250   1.0078250
 NucSpn=           1           1           1           1           1           1           1           1           1           1
 AtZEff=  -0.0000000  -0.0000000  -0.0000000  -0.0000000  -0.0000000  -0.0000000  -0.0000000  -0.0000000  -0.0000000  -0.0000000
 NQMom=    0.0000000   0.0000000   0.0000000   0.0000000   0.0000000   0.0000000   0.0000000   0.0000000   0.0000000   0.0000000
 NMagM=    2.7928460   2.7928460   2.7928460   2.7928460   2.7928460   2.7928460   2.7928460   2.7928460   2.7928460   2.7928460
 AtZNuc=   1.0000000   1.0000000   1.0000000   1.0000000   1.0000000   1.0000000   1.0000000   1.0000000   1.0000000   1.0000000

  Atom       121         122         123         124         125         126         127         128         129         130
 IAtWgt=           1           1           1           1           1           1           1           1           1           1
 AtmWgt=   1.0078250   1.0078250   1.0078250   1.0078250   1.0078250   1.0078250   1.0078250   1.0078250   1.0078250   1.0078250
 NucSpn=           1           1           1           1           1           1           1           1           1           1
 AtZEff=  -0.0000000  -0.0000000  -0.0000000  -0.0000000  -0.0000000  -0.0000000  -0.0000000  -0.0000000  -0.0000000  -0.0000000
 NQMom=    0.0000000   0.0000000   0.0000000   0.0000000   0.0000000   0.0000000   0.0000000   0.0000000   0.0000000   0.0000000
 NMagM=    2.7928460   2.7928460   2.7928460   2.7928460   2.7928460   2.7928460   2.7928460   2.7928460   2.7928460   2.7928460
 AtZNuc=   1.0000000   1.0000000   1.0000000   1.0000000   1.0000000   1.0000000   1.0000000   1.0000000   1.0000000   1.0000000

  Atom       131         132         133         134         135         136         137         138         139         140
 IAtWgt=           1           1           1           1           1           1           1           1           1           1
 AtmWgt=   1.0078250   1.0078250   1.0078250   1.0078250   1.0078250   1.0078250   1.0078250   1.0078250   1.0078250   1.0078250
 NucSpn=           1           1           1           1           1           1           1           1           1           1
 AtZEff=  -0.0000000  -0.0000000  -0.0000000  -0.0000000  -0.0000000  -0.0000000  -0.0000000  -0.0000000  -0.0000000  -0.0000000
 NQMom=    0.0000000   0.0000000   0.0000000   0.0000000   0.0000000   0.0000000   0.0000000   0.0000000   0.0000000   0.0000000
 NMagM=    2.7928460   2.7928460   2.7928460   2.7928460   2.7928460   2.7928460   2.7928460   2.7928460   2.7928460   2.7928460
 AtZNuc=   1.0000000   1.0000000   1.0000000   1.0000000   1.0000000   1.0000000   1.0000000   1.0000000   1.0000000   1.0000000
 Leave Link  101 at Fri Apr 29 06:37:34 2022, MaxMem= 10066329600 cpu:               2.8 elap:               0.1
 (Enter /sw/apps/gaussian-16.0/g16/l202.exe)
 Stoichiometry    C55H74MgN4O6
 Framework group  C1[X(C55H74MgN4O6)]
 Deg. of freedom   414
 Full point group                 C1      NOp   1
 Largest Abelian subgroup         C1      NOp   1
 Largest concise Abelian subgroup C1      NOp   1
                         Standard orientation:                         
 ---------------------------------------------------------------------
 Center     Atomic      Atomic             Coordinates (Angstroms)
 Number     Number       Type             X           Y           Z
 ---------------------------------------------------------------------
      1         12           0       -5.354145    0.712393    0.087725
      2          6           0       -4.085157   -2.473661   -0.004536
      3          6           0       -2.146047    1.919766    0.175955
      4          6           0       -6.618796    3.935070    0.295471
      5          6           0       -8.555727   -0.569645    0.443553
      6          7           0       -3.292203   -0.171247    0.138138
      7          6           0       -3.073232   -1.512027   -0.002521
      8          6           0       -1.652443   -1.805551   -0.057089
      9          6           0       -0.953856   -0.480661    0.204951
     10          6           0       -2.185207    0.527042    0.213889
     11          6           0       -0.057050   -0.340488    1.483242
     12          6           0       -1.250655   -2.475606   -1.415074
     13          6           0       -0.079990   -3.517740   -1.376748
     14          6           0        0.988376   -3.336835   -0.280617
     15          8           0        1.262449   -4.020939    0.725735
     16          8           0        1.831097   -2.277107   -0.654700
     17          7           0       -4.464831    2.658645    0.101743
     18          6           0       -3.104709    2.916095    0.116096
     19          6           0       -2.896020    4.377895    0.148837
     20          6           0       -4.220351    4.995205    0.178332
     21          6           0       -5.172506    3.871002    0.168798
     22          6           0       -1.536611    5.056668    0.188740
     23          6           0       -4.553192    6.466588    0.094327
     24          8           0       -5.746466    6.814037    0.051682
     25          6           0       -3.552507    7.560976    0.092911
     26          7           0       -7.298338    1.577917    0.412527
     27          6           0       -7.532430    2.893249    0.396556
     28          6           0       -9.043233    3.178636    0.423921
     29          6           0       -9.735727    1.723408    0.215369
     30          6           0       -8.431794    0.852737    0.282134
     31          6           0       -9.458234    3.919278    1.732429
     32          6           0      -10.466201    1.518536   -1.140082
     33          6           0      -11.994737    1.389942   -1.059910
     34          7           0       -6.205634   -1.143798    0.271564
     35          6           0       -7.538253   -1.532009    0.427931
     36          6           0       -7.636532   -3.007690    0.477395
     37          6           0       -6.278969   -3.376161    0.325491
     38          6           0       -5.460051   -2.220617    0.215347
     39          6           0       -8.824662   -3.830415    0.582163
     40          6           0       -5.390430   -4.541717    0.138071
     41          8           0       -5.622672   -5.718674    0.056969
     42          6           0       -3.931425   -3.988850   -0.038900
     43          6           0       -3.061956   -4.646594    0.949617
     44          8           0       -3.154583   -4.360473    2.154227
     45          8           0       -2.098407   -5.450060    0.421241
     46          6           0       -1.066085   -5.981489    1.305578
     47          6           0        3.182141   -2.306679   -0.026181
     48          6           0        4.011992   -2.174257   -1.317104
     49          6           0        5.219470   -2.701509   -1.638293
     50          6           0        5.928937   -3.775038   -0.841232
     51          6           0        5.802518   -2.397504   -2.975348
     52          6           0        7.180186   -1.680298   -3.012137
     53          6           0        7.038174   -0.111686   -3.272575
     54          6           0        8.206982    0.814200   -3.473730
     55          6           0        7.896297    1.911181   -4.490000
     56          6           0        8.732522    1.485405   -2.209340
     57          6           0       10.186490    1.342290   -1.853686
     58          6           0       10.648542    2.580184   -1.100070
     59          6           0       12.077154    2.375647   -0.488268
     60          6           0       13.145160    2.174510   -1.589899
     61          6           0       12.215960    1.297076    0.595379
     62          6           0       13.208133    1.721609    1.718058
     63          6           0       13.632838    0.496424    2.651199
     64          6           0       13.697352    0.984965    4.128233
     65          6           0       14.828909    0.186117    4.872193
     66          6           0       12.294972    0.615897    4.749607
     67          1           0       -1.112590    2.271574    0.201781
     68          1           0       -6.995712    4.955091    0.397619
     69          1           0       -9.588028   -0.925103    0.427492
     70          1           0       -1.423254   -2.497014    0.754478
     71          1           0       -0.406380   -0.139951   -0.674619
     72          1           0        0.101485   -1.172939    2.169571
     73          1           0       -0.447918    0.486580    2.075427
     74          1           0        0.948660    0.022717    1.270310
     75          1           0       -1.068746   -1.704262   -2.163527
     76          1           0       -2.144810   -2.893773   -1.876996
     77          1           0        0.432597   -3.538090   -2.338902
     78          1           0       -0.417117   -4.525890   -1.137572
     79          1           0       -0.704643    4.365374    0.058903
     80          1           0       -1.364228    5.533225    1.154178
     81          1           0       -1.408865    5.688499   -0.690039
     82          1           0       -4.109155    8.483890   -0.066976
     83          1           0       -2.783658    7.447798   -0.672513
     84          1           0       -2.982806    7.532385    1.021898
     85          1           0       -9.275298    3.730692   -0.486930
     86          1           0      -10.383022    1.445899    1.047220
     87          1           0      -10.073415    4.801686    1.555833
     88          1           0       -8.579343    4.256953    2.282311
     89          1           0       -9.956987    3.149654    2.321998
     90          1           0      -10.125876    0.638142   -1.683947
     91          1           0      -10.265330    2.332810   -1.836638
     92          1           0      -12.358999    1.934018   -0.188402
     93          1           0      -12.235768    0.335315   -0.930389
     94          1           0      -12.383434    1.702330   -2.028276
     95          1           0       -8.657464   -4.857169    0.257461
     96          1           0       -9.672084   -3.437572    0.020678
     97          1           0       -9.022776   -3.987876    1.642479
     98          1           0       -3.723602   -4.286424   -1.067255
     99          1           0       -1.433860   -6.686728    2.051382
    100          1           0       -0.479970   -5.176882    1.749523
    101          1           0       -0.359557   -6.572620    0.723135
    102          1           0        3.431196   -3.223289    0.506550
    103          1           0        3.366486   -1.432451    0.598070
    104          1           0        3.535881   -1.459534   -1.988635
    105          1           0        5.892476   -4.643171   -1.499353
    106          1           0        5.382783   -3.885496    0.095259
    107          1           0        6.943410   -3.416148   -0.664573
    108          1           0        5.067479   -1.877850   -3.590612
    109          1           0        6.103410   -3.305498   -3.497004
    110          1           0        7.929399   -2.086451   -3.691897
    111          1           0        7.696209   -1.780316   -2.057713
    112          1           0        6.500320    0.455702   -2.513539
    113          1           0        6.416893   -0.047733   -4.166262
    114          1           0        9.036596    0.232788   -3.876113
    115          1           0        6.829155    2.072541   -4.642838
    116          1           0        8.176488    1.433775   -5.428332
    117          1           0        8.260600    2.912186   -4.255569
    118          1           0        8.196341    0.947810   -1.426919
    119          1           0        8.377464    2.515840   -2.165799
    120          1           0       10.744457    1.076304   -2.751006
    121          1           0       10.211727    0.453653   -1.223781
    122          1           0        9.855127    2.958375   -0.455330
    123          1           0       10.852958    3.312754   -1.881555
    124          1           0       12.247057    3.320269    0.028615
    125          1           0       13.163031    2.974971   -2.328940
    126          1           0       12.918473    1.260945   -2.141091
    127          1           0       14.164900    2.193718   -1.206551
    128          1           0       12.529555    0.438134    0.001761
    129          1           0       11.236090    1.064234    1.012819
    130          1           0       12.609601    2.467573    2.241022
    131          1           0       14.023681    2.194288    1.169355
    132          1           0       14.589328    0.178066    2.237894
    133          1           0       12.974534   -0.344429    2.430940
    134          1           0       13.755390    2.053879    4.329986
    135          1           0       15.519947   -0.329189    4.205326
    136          1           0       14.400575   -0.629765    5.454876
    137          1           0       15.369990    0.915748    5.474308
    138          1           0       11.969866    1.606354    5.066535
    139          1           0       12.364956   -0.025027    5.629022
    140          1           0       11.653599    0.023263    4.098019
 ---------------------------------------------------------------------
 Rotational constants (GHZ):           0.0422969           0.0098665           0.0087066
 Leave Link  202 at Fri Apr 29 06:37:34 2022, MaxMem= 10066329600 cpu:               0.2 elap:               0.0
 (Enter /sw/apps/gaussian-16.0/g16/l301.exe)
 Standard basis: def2SVP (5D, 7F)
 Ernie: Thresh=  0.10000D-02 Tol=  0.10000D-05 Strict=F.
 There are  1364 symmetry adapted cartesian basis functions of A   symmetry.
 There are  1298 symmetry adapted basis functions of A   symmetry.
  1298 basis functions,  2180 primitive gaussians,  1364 cartesian basis functions
   246 alpha electrons      246 beta electrons
       nuclear repulsion energy      9513.3974568715 Hartrees.
 IExCor= 4639 DFT=T Ex+Corr=wB97XD ExCW=0 ScaHFX=  1.000000
 ScaDFX=  1.000000  1.000000  1.000000  1.000000 ScalE2=  1.000000  1.000000
 IRadAn=      5 IRanWt=     -1 IRanGd=            0 ICorTp=0 IEmpDi=121
 HFx  wShort=  0.000000 wLong=  0.200000 cFull=  0.222036 cShort=  0.000000 cLong=  0.777964
 DFx  wShort=  0.000000 wLong=  0.200000 cFull=  0.000000 cShort=  0.000000 cLong=  1.000000
 NAtoms=  140 NActive=  140 NUniq=  140 SFac= 1.00D+00 NAtFMM=   60 NAOKFM=T Big=T
 Integral buffers will be    131072 words long.
 Raffenetti 1 integral format.
 Two-electron integral symmetry is turned on.
 R6Disp:  Grimme-D2 Dispersion energy=       -0.1351611216 Hartrees.
 Nuclear repulsion after empirical dispersion term =     9513.2622957499 Hartrees.
 Leave Link  301 at Fri Apr 29 06:37:34 2022, MaxMem= 10066329600 cpu:               2.2 elap:               0.1
 (Enter /sw/apps/gaussian-16.0/g16/l302.exe)
 NPDir=0 NMtPBC=     1 NCelOv=     1 NCel=       1 NClECP=     1 NCelD=      1
         NCelK=      1 NCelE2=     1 NClLst=     1 CellRange=     0.0.
 One-electron integrals computed using PRISM.
 One-electron integral symmetry used in STVInt
   1 Symmetry operations used in ECPInt.
 ECPInt:  NShTT=  192510 NPrTT=  683786 LenC2=   93082 LenP2D=  204283.
 LDataN:  DoStor=T MaxTD1= 4 Len=   56
 NBasis=  1298 RedAO= T EigKep=  2.38D-04  NBF=  1298
 NBsUse=  1298 1.00D-06 EigRej= -1.00D+00 NBFU=  1298
 Precomputing XC quadrature grid using
 IXCGrd= 4 IRadAn=           5 IRanWt=          -1 IRanGd=           0 AccXCQ= 0.00D+00.
 Generated NRdTot=       0 NPtTot=           0 NUsed=           0 NTot=          32
 NSgBfM=  1061  1041  1044  1052  1061 MxSgAt=   140 MxSgA2=   140.
 Leave Link  302 at Fri Apr 29 06:37:37 2022, MaxMem= 10066329600 cpu:              84.6 elap:               3.6
 (Enter /sw/apps/gaussian-16.0/g16/l303.exe)
 DipDrv:  MaxL=1.
 Leave Link  303 at Fri Apr 29 06:37:38 2022, MaxMem= 10066329600 cpu:               5.8 elap:               0.3
 (Enter /sw/apps/gaussian-16.0/g16/l308.exe)
 Leave Link  308 at Fri Apr 29 06:37:38 2022, MaxMem= 10066329600 cpu:              12.8 elap:               0.6
 (Enter /sw/apps/gaussian-16.0/g16/l401.exe)
 ExpMin= 3.36D-02 ExpMax= 4.95D+03 ExpMxC= 7.45D+02 IAcc=3 IRadAn=         5 AccDes= 0.00D+00
 Harris functional with IExCor= 4639 and IRadAn=       5 diagonalized for initial guess.
 HarFok:  IExCor= 4639 AccDes= 0.00D+00 IRadAn=         5 IDoV= 1 UseB2=F ITyADJ=14
 ICtDFT=  3500011 ScaDFX=  1.000000  1.000000  1.000000  1.000000
 FoFCou: FMM=F IPFlag=           0 FMFlag=      100000 FMFlg1=        2001
         NFxFlg=           0 DoJE=T BraDBF=F KetDBF=T FulRan=T
         wScrn=  0.000000 ICntrl=       500 IOpCl=  0 I1Cent=   200000004 NGrid=           0
         NMat0=    1 NMatS0=      1 NMatT0=    0 NMatD0=    1 NMtDS0=    0 NMtDT0=    0
 Petite list used in FoFCou.
 Harris En= -2878.04090553468    
 JPrj=0 DoOrth=F DoCkMO=F.
 Leave Link  401 at Fri Apr 29 06:37:44 2022, MaxMem= 10066329600 cpu:             132.3 elap:               5.5
 (Enter /sw/apps/gaussian-16.0/g16/l502.exe)
 Integral symmetry usage will be decided dynamically.
 Closed shell SCF:
 Using DIIS extrapolation, IDIIS=  1040.
 NGot= 10066329600 LenX= 10062561258 LenY= 10060699398
 Requested convergence on RMS density matrix=1.00D-08 within 128 cycles.
 Requested convergence on MAX density matrix=1.00D-06.
 Requested convergence on             energy=1.00D-06.
 No special actions if energy rises.
 Fock matrices will be formed incrementally for  20 cycles.

 Cycle   1  Pass 1  IDiag  1:
 FoFJK:  IHMeth= 1 ICntrl=       0 DoSepK=T KAlg= 0 I1Cent=           0 FoldK=F
 IRaf=         1 NMat=       1 IRICut=       1 DoRegI=T DoRafI=F ISym2E= 0 IDoP0=0 IntGTp=1.
 FoFCou: FMM=T IPFlag=           0 FMFlag=      100000 FMFlg1=        2001
         NFxFlg=           0 DoJE=T BraDBF=F KetDBF=F FulRan=T
         wScrn=  0.000000 ICntrl=       500 IOpCl=  0 I1Cent=           0 NGrid=           0
         NMat0=    1 NMatS0=      1 NMatT0=    0 NMatD0=    1 NMtDS0=    0 NMtDT0=    0
 Symmetry not used in FoFCou.
 FMM levels:  10  Number of levels for PrismC:   9
 E= -3007.22180673588    
 DIIS: error= 2.71D-02 at cycle   1 NSaved=   1.
 NSaved= 1 IEnMin= 1 EnMin= -3007.22180673588     IErMin= 1 ErrMin= 2.71D-02
 ErrMax= 2.71D-02  0.00D+00 EMaxC= 1.00D-01 BMatC= 1.49D+00 BMatP= 1.49D+00
 IDIUse=3 WtCom= 7.29D-01 WtEn= 2.71D-01
 Coeff-Com:  0.100D+01
 Coeff-En:   0.100D+01
 Coeff:      0.100D+01
 Gap=     0.159 Goal=   None    Shift=    0.000
 GapD=    0.159 DampG=1.000 DampE=0.500 DampFc=0.5000 IDamp=-1.
 Damping current iteration by 5.00D-01
 RMSDP=1.52D-03 MaxDP=1.72D-01              OVMax= 1.50D-01

 Cycle   2  Pass 1  IDiag  1:
 RMSU=  7.52D-04    CP:  9.87D-01
 E= -3007.54513747594     Delta-E=       -0.323330740051 Rises=F Damp=T
 DIIS: error= 1.54D-02 at cycle   2 NSaved=   2.
 NSaved= 2 IEnMin= 2 EnMin= -3007.54513747594     IErMin= 2 ErrMin= 1.54D-02
 ErrMax= 1.54D-02  0.00D+00 EMaxC= 1.00D-01 BMatC= 2.88D-01 BMatP= 1.49D+00
 IDIUse=3 WtCom= 8.46D-01 WtEn= 1.54D-01
 Coeff-Com: -0.364D+00 0.136D+01
 Coeff-En:   0.000D+00 0.100D+01
 Coeff:     -0.308D+00 0.131D+01
 Gap=     0.168 Goal=   None    Shift=    0.000
 RMSDP=6.85D-04 MaxDP=8.67D-02 DE=-3.23D-01 OVMax= 1.19D-01

 Cycle   3  Pass 1  IDiag  1:
 RMSU=  6.17D-04    CP:  9.78D-01  1.38D+00
 E= -3007.78770148849     Delta-E=       -0.242564012551 Rises=F Damp=F
 DIIS: error= 1.79D-02 at cycle   3 NSaved=   3.
 NSaved= 3 IEnMin= 3 EnMin= -3007.78770148849     IErMin= 2 ErrMin= 1.54D-02
 ErrMax= 1.79D-02  0.00D+00 EMaxC= 1.00D-01 BMatC= 1.27D-01 BMatP= 2.88D-01
 IDIUse=3 WtCom= 8.21D-01 WtEn= 1.79D-01
 Coeff-Com: -0.305D+00 0.678D+00 0.627D+00
 Coeff-En:   0.000D+00 0.000D+00 0.100D+01
 Coeff:     -0.250D+00 0.556D+00 0.694D+00
 Gap=     0.161 Goal=   None    Shift=    0.000
 RMSDP=4.00D-04 MaxDP=4.49D-02 DE=-2.43D-01 OVMax= 7.97D-02

 Cycle   4  Pass 1  IDiag  1:
 RMSU=  2.20D-04    CP:  9.74D-01  1.65D+00  5.72D-01
 E= -3007.87188387628     Delta-E=       -0.084182387796 Rises=F Damp=F
 DIIS: error= 7.90D-03 at cycle   4 NSaved=   4.
 NSaved= 4 IEnMin= 4 EnMin= -3007.87188387628     IErMin= 4 ErrMin= 7.90D-03
 ErrMax= 7.90D-03  0.00D+00 EMaxC= 1.00D-01 BMatC= 2.66D-02 BMatP= 1.27D-01
 IDIUse=3 WtCom= 9.21D-01 WtEn= 7.90D-02
 Coeff-Com: -0.111D+00 0.223D+00 0.395D+00 0.493D+00
 Coeff-En:   0.000D+00 0.000D+00 0.163D+00 0.837D+00
 Coeff:     -0.102D+00 0.205D+00 0.376D+00 0.521D+00
 Gap=     0.159 Goal=   None    Shift=    0.000
 RMSDP=1.41D-04 MaxDP=1.71D-02 DE=-8.42D-02 OVMax= 2.46D-02

 Cycle   5  Pass 1  IDiag  1:
 RMSU=  6.27D-05    CP:  9.75D-01  1.61D+00  7.18D-01  6.25D-01
 E= -3007.89285192451     Delta-E=       -0.020968048228 Rises=F Damp=F
 DIIS: error= 8.34D-04 at cycle   5 NSaved=   5.
 NSaved= 5 IEnMin= 5 EnMin= -3007.89285192451     IErMin= 5 ErrMin= 8.34D-04
 ErrMax= 8.34D-04  0.00D+00 EMaxC= 1.00D-01 BMatC= 6.05D-04 BMatP= 2.66D-02
 IDIUse=3 WtCom= 9.92D-01 WtEn= 8.34D-03
 Coeff-Com: -0.307D-01 0.585D-01 0.143D+00 0.247D+00 0.583D+00
 Coeff-En:   0.000D+00 0.000D+00 0.000D+00 0.000D+00 0.100D+01
 Coeff:     -0.304D-01 0.580D-01 0.142D+00 0.245D+00 0.586D+00
 Gap=     0.159 Goal=   None    Shift=    0.000
 RMSDP=2.57D-05 MaxDP=4.34D-03 DE=-2.10D-02 OVMax= 4.28D-03

 Cycle   6  Pass 1  IDiag  1:
 RMSU=  2.08D-05    CP:  9.74D-01  1.62D+00  7.18D-01  6.80D-01  8.74D-01
 E= -3007.89332449300     Delta-E=       -0.000472568492 Rises=F Damp=F
 DIIS: error= 2.79D-04 at cycle   6 NSaved=   6.
 NSaved= 6 IEnMin= 6 EnMin= -3007.89332449300     IErMin= 6 ErrMin= 2.79D-04
 ErrMax= 2.79D-04  0.00D+00 EMaxC= 1.00D-01 BMatC= 6.33D-05 BMatP= 6.05D-04
 IDIUse=3 WtCom= 9.97D-01 WtEn= 2.79D-03
 Coeff-Com:  0.965D-02-0.208D-01-0.158D-01 0.337D-02 0.253D+00 0.770D+00
 Coeff-En:   0.000D+00 0.000D+00 0.000D+00 0.000D+00 0.000D+00 0.100D+01
 Coeff:      0.962D-02-0.207D-01-0.158D-01 0.336D-02 0.253D+00 0.771D+00
 Gap=     0.159 Goal=   None    Shift=    0.000
 RMSDP=1.17D-05 MaxDP=1.43D-03 DE=-4.73D-04 OVMax= 3.77D-03

 Cycle   7  Pass 1  IDiag  1:
 RMSU=  7.93D-06    CP:  9.74D-01  1.62D+00  7.23D-01  6.98D-01  9.73D-01
                    CP:  9.74D-01
 E= -3007.89339966159     Delta-E=       -0.000075168588 Rises=F Damp=F
 DIIS: error= 4.97D-05 at cycle   7 NSaved=   7.
 NSaved= 7 IEnMin= 7 EnMin= -3007.89339966159     IErMin= 7 ErrMin= 4.97D-05
 ErrMax= 4.97D-05  0.00D+00 EMaxC= 1.00D-01 BMatC= 5.76D-06 BMatP= 6.33D-05
 IDIUse=1 WtCom= 1.00D+00 WtEn= 0.00D+00
 Coeff-Com:  0.602D-02-0.122D-01-0.169D-01-0.211D-01 0.357D-01 0.277D+00
 Coeff-Com:  0.732D+00
 Coeff:      0.602D-02-0.122D-01-0.169D-01-0.211D-01 0.357D-01 0.277D+00
 Coeff:      0.732D+00
 Gap=     0.160 Goal=   None    Shift=    0.000
 RMSDP=4.54D-06 MaxDP=7.51D-04 DE=-7.52D-05 OVMax= 1.52D-03

 Cycle   8  Pass 1  IDiag  1:
 RMSU=  3.12D-06    CP:  9.74D-01  1.62D+00  7.25D-01  7.02D-01  9.99D-01
                    CP:  1.09D+00  1.07D+00
 E= -3007.89341012002     Delta-E=       -0.000010458427 Rises=F Damp=F
 DIIS: error= 3.64D-05 at cycle   8 NSaved=   8.
 NSaved= 8 IEnMin= 8 EnMin= -3007.89341012002     IErMin= 8 ErrMin= 3.64D-05
 ErrMax= 3.64D-05  0.00D+00 EMaxC= 1.00D-01 BMatC= 1.57D-06 BMatP= 5.76D-06
 IDIUse=1 WtCom= 1.00D+00 WtEn= 0.00D+00
 Coeff-Com:  0.125D-02-0.228D-02-0.542D-02-0.116D-01-0.302D-01-0.716D-02
 Coeff-Com:  0.358D+00 0.698D+00
 Coeff:      0.125D-02-0.228D-02-0.542D-02-0.116D-01-0.302D-01-0.716D-02
 Coeff:      0.358D+00 0.698D+00
 Gap=     0.160 Goal=   None    Shift=    0.000
 RMSDP=2.47D-06 MaxDP=3.68D-04 DE=-1.05D-05 OVMax= 1.18D-03

 Cycle   9  Pass 1  IDiag  1:
 RMSU=  1.52D-06    CP:  9.74D-01  1.62D+00  7.25D-01  7.04D-01  1.01D+00
                    CP:  1.13D+00  1.25D+00  1.16D+00
 E= -3007.89341384122     Delta-E=       -0.000003721198 Rises=F Damp=F
 DIIS: error= 2.11D-05 at cycle   9 NSaved=   9.
 NSaved= 9 IEnMin= 9 EnMin= -3007.89341384122     IErMin= 9 ErrMin= 2.11D-05
 ErrMax= 2.11D-05  0.00D+00 EMaxC= 1.00D-01 BMatC= 2.35D-07 BMatP= 1.57D-06
 IDIUse=1 WtCom= 1.00D+00 WtEn= 0.00D+00
 Coeff-Com: -0.687D-03 0.146D-02 0.145D-02-0.419D-05-0.163D-01-0.539D-01
 Coeff-Com: -0.295D-02 0.201D+00 0.870D+00
 Coeff:     -0.687D-03 0.146D-02 0.145D-02-0.419D-05-0.163D-01-0.539D-01
 Coeff:     -0.295D-02 0.201D+00 0.870D+00
 Gap=     0.160 Goal=   None    Shift=    0.000
 RMSDP=1.62D-06 MaxDP=1.79D-04 DE=-3.72D-06 OVMax= 9.07D-04

 Cycle  10  Pass 1  IDiag  1:
 RMSU=  7.62D-07    CP:  9.74D-01  1.62D+00  7.26D-01  7.05D-01  1.01D+00
                    CP:  1.15D+00  1.34D+00  1.46D+00  1.38D+00
 E= -3007.89341524604     Delta-E=       -0.000001404822 Rises=F Damp=F
 DIIS: error= 1.30D-05 at cycle  10 NSaved=  10.
 NSaved=10 IEnMin=10 EnMin= -3007.89341524604     IErMin=10 ErrMin= 1.30D-05
 ErrMax= 1.30D-05  0.00D+00 EMaxC= 1.00D-01 BMatC= 9.65D-08 BMatP= 2.35D-07
 IDIUse=1 WtCom= 1.00D+00 WtEn= 0.00D+00
 Coeff-Com: -0.708D-03 0.138D-02 0.245D-02 0.378D-02 0.248D-02-0.227D-01
 Coeff-Com: -0.111D+00-0.162D+00 0.369D+00 0.918D+00
 Coeff:     -0.708D-03 0.138D-02 0.245D-02 0.378D-02 0.248D-02-0.227D-01
 Coeff:     -0.111D+00-0.162D+00 0.369D+00 0.918D+00
 Gap=     0.160 Goal=   None    Shift=    0.000
 RMSDP=1.39D-06 MaxDP=1.60D-04 DE=-1.40D-06 OVMax= 8.29D-04

 Cycle  11  Pass 1  IDiag  1:
 RMSU=  4.33D-07    CP:  9.74D-01  1.62D+00  7.26D-01  7.05D-01  1.02D+00
                    CP:  1.16D+00  1.42D+00  1.69D+00  1.89D+00  1.47D+00
 E= -3007.89341598655     Delta-E=       -0.000000740512 Rises=F Damp=F
 DIIS: error= 8.72D-06 at cycle  11 NSaved=  11.
 NSaved=11 IEnMin=11 EnMin= -3007.89341598655     IErMin=11 ErrMin= 8.72D-06
 ErrMax= 8.72D-06  0.00D+00 EMaxC= 1.00D-01 BMatC= 3.30D-08 BMatP= 9.65D-08
 IDIUse=1 WtCom= 1.00D+00 WtEn= 0.00D+00
 Coeff-Com: -0.837D-04 0.139D-03 0.597D-03 0.158D-02 0.537D-02 0.587D-02
 Coeff-Com: -0.383D-01-0.129D+00-0.910D-01 0.410D+00 0.835D+00
 Coeff:     -0.837D-04 0.139D-03 0.597D-03 0.158D-02 0.537D-02 0.587D-02
 Coeff:     -0.383D-01-0.129D+00-0.910D-01 0.410D+00 0.835D+00
 Gap=     0.160 Goal=   None    Shift=    0.000
 RMSDP=7.82D-07 MaxDP=5.79D-05 DE=-7.41D-07 OVMax= 4.98D-04

 Cycle  12  Pass 1  IDiag  1:
 RMSU=  2.47D-07    CP:  9.74D-01  1.62D+00  7.26D-01  7.05D-01  1.02D+00
                    CP:  1.16D+00  1.45D+00  1.81D+00  2.17D+00  1.97D+00
                    CP:  1.39D+00
 E= -3007.89341624112     Delta-E=       -0.000000254569 Rises=F Damp=F
 DIIS: error= 3.78D-06 at cycle  12 NSaved=  12.
 NSaved=12 IEnMin=12 EnMin= -3007.89341624112     IErMin=12 ErrMin= 3.78D-06
 ErrMax= 3.78D-06  0.00D+00 EMaxC= 1.00D-01 BMatC= 1.07D-08 BMatP= 3.30D-08
 IDIUse=1 WtCom= 1.00D+00 WtEn= 0.00D+00
 Coeff-Com:  0.276D-03-0.548D-03-0.828D-03-0.101D-02 0.444D-03 0.118D-01
 Coeff-Com:  0.384D-01 0.235D-01-0.213D+00-0.270D+00 0.261D+00 0.115D+01
 Coeff:      0.276D-03-0.548D-03-0.828D-03-0.101D-02 0.444D-03 0.118D-01
 Coeff:      0.384D-01 0.235D-01-0.213D+00-0.270D+00 0.261D+00 0.115D+01
 Gap=     0.160 Goal=   None    Shift=    0.000
 RMSDP=7.43D-07 MaxDP=5.71D-05 DE=-2.55D-07 OVMax= 4.68D-04

 Cycle  13  Pass 1  IDiag  1:
 RMSU=  1.39D-07    CP:  9.74D-01  1.62D+00  7.26D-01  7.06D-01  1.02D+00
                    CP:  1.17D+00  1.47D+00  1.91D+00  2.42D+00  2.45D+00
                    CP:  2.09D+00  1.57D+00
 E= -3007.89341636139     Delta-E=       -0.000000120275 Rises=F Damp=F
 DIIS: error= 1.85D-06 at cycle  13 NSaved=  13.
 NSaved=13 IEnMin=13 EnMin= -3007.89341636139     IErMin=13 ErrMin= 1.85D-06
 ErrMax= 1.85D-06  0.00D+00 EMaxC= 1.00D-01 BMatC= 2.38D-09 BMatP= 1.07D-08
 IDIUse=1 WtCom= 1.00D+00 WtEn= 0.00D+00
 Coeff-Com:  0.150D-03-0.292D-03-0.534D-03-0.853D-03-0.129D-02 0.353D-02
 Coeff-Com:  0.283D-01 0.449D-01-0.639D-01-0.210D+00-0.112D+00 0.494D+00
 Coeff-Com:  0.818D+00
 Coeff:      0.150D-03-0.292D-03-0.534D-03-0.853D-03-0.129D-02 0.353D-02
 Coeff:      0.283D-01 0.449D-01-0.639D-01-0.210D+00-0.112D+00 0.494D+00
 Coeff:      0.818D+00
 Gap=     0.160 Goal=   None    Shift=    0.000
 RMSDP=2.44D-07 MaxDP=1.82D-05 DE=-1.20D-07 OVMax= 1.57D-04

 Cycle  14  Pass 1  IDiag  1:
 RMSU=  6.44D-08    CP:  9.74D-01  1.62D+00  7.25D-01  7.06D-01  1.02D+00
                    CP:  1.17D+00  1.47D+00  1.94D+00  2.48D+00  2.62D+00
                    CP:  2.35D+00  1.95D+00  1.11D+00
 E= -3007.89341637650     Delta-E=       -0.000000015101 Rises=F Damp=F
 DIIS: error= 5.17D-07 at cycle  14 NSaved=  14.
 NSaved=14 IEnMin=14 EnMin= -3007.89341637650     IErMin=14 ErrMin= 5.17D-07
 ErrMax= 5.17D-07  0.00D+00 EMaxC= 1.00D-01 BMatC= 4.59D-10 BMatP= 2.38D-09
 IDIUse=1 WtCom= 1.00D+00 WtEn= 0.00D+00
 Coeff-Com:  0.153D-05-0.564D-06-0.301D-04-0.100D-03-0.515D-03-0.101D-02
 Coeff-Com:  0.258D-02 0.956D-02 0.153D-01-0.225D-01-0.861D-01-0.564D-01
 Coeff-Com:  0.288D+00 0.852D+00
 Coeff:      0.153D-05-0.564D-06-0.301D-04-0.100D-03-0.515D-03-0.101D-02
 Coeff:      0.258D-02 0.956D-02 0.153D-01-0.225D-01-0.861D-01-0.564D-01
 Coeff:      0.288D+00 0.852D+00
 Gap=     0.160 Goal=   None    Shift=    0.000
 RMSDP=1.00D-07 MaxDP=8.52D-06 DE=-1.51D-08 OVMax= 6.12D-05

 Cycle  15  Pass 1  IDiag  1:
 RMSU=  2.93D-08    CP:  9.74D-01  1.62D+00  7.25D-01  7.06D-01  1.02D+00
                    CP:  1.17D+00  1.48D+00  1.95D+00  2.51D+00  2.68D+00
                    CP:  2.45D+00  2.08D+00  1.35D+00  1.16D+00
 E= -3007.89341637878     Delta-E=       -0.000000002288 Rises=F Damp=F
 DIIS: error= 2.88D-07 at cycle  15 NSaved=  15.
 NSaved=15 IEnMin=15 EnMin= -3007.89341637878     IErMin=15 ErrMin= 2.88D-07
 ErrMax= 2.88D-07  0.00D+00 EMaxC= 1.00D-01 BMatC= 1.16D-10 BMatP= 4.59D-10
 IDIUse=1 WtCom= 1.00D+00 WtEn= 0.00D+00
 Coeff-Com: -0.314D-04 0.625D-04 0.102D-03 0.134D-03 0.240D-04-0.126D-02
 Coeff-Com: -0.469D-02-0.573D-02 0.210D-01 0.347D-01-0.121D-01-0.132D+00
 Coeff-Com: -0.296D-01 0.401D+00 0.729D+00
 Coeff:     -0.314D-04 0.625D-04 0.102D-03 0.134D-03 0.240D-04-0.126D-02
 Coeff:     -0.469D-02-0.573D-02 0.210D-01 0.347D-01-0.121D-01-0.132D+00
 Coeff:     -0.296D-01 0.401D+00 0.729D+00
 Gap=     0.160 Goal=   None    Shift=    0.000
 RMSDP=2.93D-08 MaxDP=2.46D-06 DE=-2.29D-09 OVMax= 1.99D-05

 Cycle  16  Pass 1  IDiag  1:
 RMSU=  1.56D-08    CP:  9.74D-01  1.62D+00  7.25D-01  7.06D-01  1.02D+00
                    CP:  1.17D+00  1.48D+00  1.95D+00  2.51D+00  2.69D+00
                    CP:  2.47D+00  2.13D+00  1.42D+00  1.38D+00  1.05D+00
 E= -3007.89341637908     Delta-E=       -0.000000000295 Rises=F Damp=F
 DIIS: error= 1.70D-07 at cycle  16 NSaved=  16.
 NSaved=16 IEnMin=16 EnMin= -3007.89341637908     IErMin=16 ErrMin= 1.70D-07
 ErrMax= 1.70D-07  0.00D+00 EMaxC= 1.00D-01 BMatC= 2.59D-11 BMatP= 1.16D-10
 IDIUse=1 WtCom= 1.00D+00 WtEn= 0.00D+00
 Coeff-Com: -0.116D-04 0.226D-04 0.429D-04 0.636D-04 0.101D-03-0.302D-03
 Coeff-Com: -0.209D-02-0.405D-02 0.634D-02 0.166D-01 0.103D-01-0.459D-01
 Coeff-Com: -0.590D-01-0.561D-02 0.285D+00 0.798D+00
 Coeff:     -0.116D-04 0.226D-04 0.429D-04 0.636D-04 0.101D-03-0.302D-03
 Coeff:     -0.209D-02-0.405D-02 0.634D-02 0.166D-01 0.103D-01-0.459D-01
 Coeff:     -0.590D-01-0.561D-02 0.285D+00 0.798D+00
 Gap=     0.160 Goal=   None    Shift=    0.000
 RMSDP=1.62D-08 MaxDP=1.35D-06 DE=-2.95D-10 OVMax= 9.55D-06

 Cycle  17  Pass 1  IDiag  1:
 RMSU=  7.23D-09    CP:  9.74D-01  1.62D+00  7.25D-01  7.06D-01  1.02D+00
                    CP:  1.17D+00  1.48D+00  1.95D+00  2.51D+00  2.69D+00
                    CP:  2.48D+00  2.14D+00  1.45D+00  1.47D+00  1.32D+00
                    CP:  1.34D+00
 E= -3007.89341637936     Delta-E=       -0.000000000278 Rises=F Damp=F
 DIIS: error= 1.44D-07 at cycle  17 NSaved=  17.
 NSaved=17 IEnMin=17 EnMin= -3007.89341637936     IErMin=17 ErrMin= 1.44D-07
 ErrMax= 1.44D-07  0.00D+00 EMaxC= 1.00D-01 BMatC= 7.55D-12 BMatP= 2.59D-11
 IDIUse=1 WtCom= 1.00D+00 WtEn= 0.00D+00
 Coeff-Com:  0.555D-05-0.112D-04-0.161D-04-0.206D-04 0.338D-04 0.274D-03
 Coeff-Com:  0.818D-03 0.112D-03-0.404D-02-0.523D-02 0.878D-02 0.238D-01
 Coeff-Com: -0.583D-02-0.127D+00-0.103D+00 0.223D+00 0.988D+00
 Coeff:      0.555D-05-0.112D-04-0.161D-04-0.206D-04 0.338D-04 0.274D-03
 Coeff:      0.818D-03 0.112D-03-0.404D-02-0.523D-02 0.878D-02 0.238D-01
 Coeff:     -0.583D-02-0.127D+00-0.103D+00 0.223D+00 0.988D+00
 Gap=     0.160 Goal=   None    Shift=    0.000
 RMSDP=1.28D-08 MaxDP=9.68D-07 DE=-2.78D-10 OVMax= 9.74D-06

 Cycle  18  Pass 1  IDiag  1:
 RMSU=  4.27D-09    CP:  9.74D-01  1.62D+00  7.25D-01  7.06D-01  1.02D+00
                    CP:  1.17D+00  1.48D+00  1.95D+00  2.51D+00  2.69D+00
                    CP:  2.48D+00  2.15D+00  1.46D+00  1.54D+00  1.52D+00
                    CP:  1.89D+00  1.59D+00
 E= -3007.89341637943     Delta-E=       -0.000000000075 Rises=F Damp=F
 DIIS: error= 7.03D-08 at cycle  18 NSaved=  18.
 NSaved=18 IEnMin=18 EnMin= -3007.89341637943     IErMin=18 ErrMin= 7.03D-08
 ErrMax= 7.03D-08  0.00D+00 EMaxC= 1.00D-01 BMatC= 4.29D-12 BMatP= 7.55D-12
 IDIUse=1 WtCom= 1.00D+00 WtEn= 0.00D+00
 Coeff-Com:  0.691D-05-0.136D-04-0.243D-04-0.351D-04-0.225D-04 0.220D-03
 Coeff-Com:  0.123D-02 0.161D-02-0.405D-02-0.923D-02-0.180D-03 0.262D-01
 Coeff-Com:  0.238D-01-0.566D-01-0.145D+00-0.271D+00 0.475D+00 0.958D+00
 Coeff:      0.691D-05-0.136D-04-0.243D-04-0.351D-04-0.225D-04 0.220D-03
 Coeff:      0.123D-02 0.161D-02-0.405D-02-0.923D-02-0.180D-03 0.262D-01
 Coeff:      0.238D-01-0.566D-01-0.145D+00-0.271D+00 0.475D+00 0.958D+00
 Gap=     0.160 Goal=   None    Shift=    0.000
 RMSDP=1.14D-08 MaxDP=8.50D-07 DE=-7.46D-11 OVMax= 7.72D-06

 Cycle  19  Pass 1  IDiag  1:
 RMSU=  2.45D-09    CP:  9.74D-01  1.62D+00  7.25D-01  7.06D-01  1.02D+00
                    CP:  1.17D+00  1.48D+00  1.95D+00  2.51D+00  2.69D+00
                    CP:  2.48D+00  2.15D+00  1.47D+00  1.58D+00  1.69D+00
                    CP:  2.32D+00  2.36D+00  1.58D+00
 E= -3007.89341637951     Delta-E=       -0.000000000076 Rises=F Damp=F
 DIIS: error= 5.38D-08 at cycle  19 NSaved=  19.
 NSaved=19 IEnMin=19 EnMin= -3007.89341637951     IErMin=19 ErrMin= 5.38D-08
 ErrMax= 5.38D-08  0.00D+00 EMaxC= 1.00D-01 BMatC= 1.05D-12 BMatP= 4.29D-12
 IDIUse=1 WtCom= 1.00D+00 WtEn= 0.00D+00
 Coeff-Com: -0.318D-06 0.772D-06-0.676D-06-0.179D-05-0.215D-04-0.648D-04
 Coeff-Com:  0.405D-04 0.438D-03 0.594D-03-0.638D-03-0.338D-02-0.318D-02
 Coeff-Com:  0.127D-01 0.389D-01 0.146D-01-0.212D+00-0.237D+00 0.196D+00
 Coeff-Com:  0.119D+01
 Coeff:     -0.318D-06 0.772D-06-0.676D-06-0.179D-05-0.215D-04-0.648D-04
 Coeff:      0.405D-04 0.438D-03 0.594D-03-0.638D-03-0.338D-02-0.318D-02
 Coeff:      0.127D-01 0.389D-01 0.146D-01-0.212D+00-0.237D+00 0.196D+00
 Coeff:      0.119D+01
 Gap=     0.160 Goal=   None    Shift=    0.000
 RMSDP=8.96D-09 MaxDP=6.75D-07 DE=-7.64D-11 OVMax= 6.66D-06

 SCF Done:  E(RwB97XD) =  -3007.89341638     A.U. after   19 cycles
            NFock= 19  Conv=0.90D-08     -V/T= 2.0109
 KE= 2.975379292236D+03 PE=-2.601903879141D+04 EE= 1.052250378704D+04
 Leave Link  502 at Fri Apr 29 06:44:04 2022, MaxMem= 10066329600 cpu:            8701.0 elap:             380.1
 (Enter /sw/apps/gaussian-16.0/g16/l801.exe)
 DoSCS=F DFT=T ScalE2(SS,OS)=  1.000000  1.000000
 ExpMin= 3.36D-02 ExpMax= 4.95D+03 ExpMxC= 7.45D+02 IAcc=3 IRadAn=         5 AccDes= 0.00D+00
 HarFok:  IExCor=  205 AccDes= 0.00D+00 IRadAn=         5 IDoV=-2 UseB2=F ITyADJ=14
 ICtDFT= 12500011 ScaDFX=  1.000000  1.000000  1.000000  1.000000
 GSVD:  LWork=       -5460 too small for GESVD, short by       25550 words or       25550 for optimal perf.
 Largest valence mixing into a core orbital is  1.45D-04
 Largest core mixing into a valence orbital is  5.66D-05
 Range of M.O.s used for correlation:    71  1298
 NBasis=  1298 NAE=   246 NBE=   246 NFC=    70 NFV=     0
 NROrb=   1228 NOA=   176 NOB=   176 NVA=  1052 NVB=  1052
 Leave Link  801 at Fri Apr 29 06:44:04 2022, MaxMem= 10066329600 cpu:               6.3 elap:               0.3
 (Enter /sw/apps/gaussian-16.0/g16/l914.exe)
 RHF ground state
 Two-electron integrals replicated using symmetry.
 MDV= 10066329600 DFT=T DoStab=F Mixed=T DoRPA=T DoScal=F NonHer=T
 Making orbital integer symmetry assigments:
 Orbital symmetries:
       Occupied  (A) (A) (A) (A) (A) (A) (A) (A) (A) (A) (A) (A)
                 (A) (A) (A) (A) (A) (A) (A) (A) (A) (A) (A) (A)
                 (A) (A) (A) (A) (A) (A) (A) (A) (A) (A) (A) (A)
                 (A) (A) (A) (A) (A) (A) (A) (A) (A) (A) (A) (A)
                 (A) (A) (A) (A) (A) (A) (A) (A) (A) (A) (A) (A)
                 (A) (A) (A) (A) (A) (A) (A) (A) (A) (A) (A) (A)
                 (A) (A) (A) (A) (A) (A) (A) (A) (A) (A) (A) (A)
                 (A) (A) (A) (A) (A) (A) (A) (A) (A) (A) (A) (A)
                 (A) (A) (A) (A) (A) (A) (A) (A) (A) (A) (A) (A)
                 (A) (A) (A) (A) (A) (A) (A) (A) (A) (A) (A) (A)
                 (A) (A) (A) (A) (A) (A) (A) (A) (A) (A) (A) (A)
                 (A) (A) (A) (A) (A) (A) (A) (A) (A) (A) (A) (A)
                 (A) (A) (A) (A) (A) (A) (A) (A) (A) (A) (A) (A)
                 (A) (A) (A) (A) (A) (A) (A) (A) (A) (A) (A) (A)
                 (A) (A) (A) (A) (A) (A) (A) (A) (A) (A) (A) (A)
                 (A) (A) (A) (A) (A) (A) (A) (A) (A) (A) (A) (A)
                 (A) (A) (A) (A) (A) (A) (A) (A) (A) (A) (A) (A)
                 (A) (A) (A) (A) (A) (A) (A) (A) (A) (A) (A) (A)
                 (A) (A) (A) (A) (A) (A) (A) (A) (A) (A) (A) (A)
                 (A) (A) (A) (A) (A) (A) (A) (A) (A) (A) (A) (A)
                 (A) (A) (A) (A) (A) (A)
       Virtual   (A) (A) (A) (A) (A) (A) (A) (A) (A) (A) (A) (A)
                 (A) (A) (A) (A) (A) (A) (A) (A) (A) (A) (A) (A)
                 (A) (A) (A) (A) (A) (A) (A) (A) (A) (A) (A) (A)
                 (A) (A) (A) (A) (A) (A) (A) (A) (A) (A) (A) (A)
                 (A) (A) (A) (A) (A) (A) (A) (A) (A) (A) (A) (A)
                 (A) (A) (A) (A) (A) (A) (A) (A) (A) (A) (A) (A)
                 (A) (A) (A) (A) (A) (A) (A) (A) (A) (A) (A) (A)
                 (A) (A) (A) (A) (A) (A) (A) (A) (A) (A) (A) (A)
                 (A) (A) (A) (A) (A) (A) (A) (A) (A) (A) (A) (A)
                 (A) (A) (A) (A) (A) (A) (A) (A) (A) (A) (A) (A)
                 (A) (A) (A) (A) (A) (A) (A) (A) (A) (A) (A) (A)
                 (A) (A) (A) (A) (A) (A) (A) (A) (A) (A) (A) (A)
                 (A) (A) (A) (A) (A) (A) (A) (A) (A) (A) (A) (A)
                 (A) (A) (A) (A) (A) (A) (A) (A) (A) (A) (A) (A)
                 (A) (A) (A) (A) (A) (A) (A) (A) (A) (A) (A) (A)
                 (A) (A) (A) (A) (A) (A) (A) (A) (A) (A) (A) (A)
                 (A) (A) (A) (A) (A) (A) (A) (A) (A) (A) (A) (A)
                 (A) (A) (A) (A) (A) (A) (A) (A) (A) (A) (A) (A)
                 (A) (A) (A) (A) (A) (A) (A) (A) (A) (A) (A) (A)
                 (A) (A) (A) (A) (A) (A) (A) (A) (A) (A) (A) (A)
                 (A) (A) (A) (A) (A) (A) (A) (A) (A) (A) (A) (A)
                 (A) (A) (A) (A) (A) (A) (A) (A) (A) (A) (A) (A)
                 (A) (A) (A) (A) (A) (A) (A) (A) (A) (A) (A) (A)
                 (A) (A) (A) (A) (A) (A) (A) (A) (A) (A) (A) (A)
                 (A) (A) (A) (A) (A) (A) (A) (A) (A) (A) (A) (A)
                 (A) (A) (A) (A) (A) (A) (A) (A) (A) (A) (A) (A)
                 (A) (A) (A) (A) (A) (A) (A) (A) (A) (A) (A) (A)
                 (A) (A) (A) (A) (A) (A) (A) (A) (A) (A) (A) (A)
                 (A) (A) (A) (A) (A) (A) (A) (A) (A) (A) (A) (A)
                 (A) (A) (A) (A) (A) (A) (A) (A) (A) (A) (A) (A)
                 (A) (A) (A) (A) (A) (A) (A) (A) (A) (A) (A) (A)
                 (A) (A) (A) (A) (A) (A) (A) (A) (A) (A) (A) (A)
                 (A) (A) (A) (A) (A) (A) (A) (A) (A) (A) (A) (A)
                 (A) (A) (A) (A) (A) (A) (A) (A) (A) (A) (A) (A)
                 (A) (A) (A) (A) (A) (A) (A) (A) (A) (A) (A) (A)
                 (A) (A) (A) (A) (A) (A) (A) (A) (A) (A) (A) (A)
                 (A) (A) (A) (A) (A) (A) (A) (A) (A) (A) (A) (A)
                 (A) (A) (A) (A) (A) (A) (A) (A) (A) (A) (A) (A)
                 (A) (A) (A) (A) (A) (A) (A) (A) (A) (A) (A) (A)
                 (A) (A) (A) (A) (A) (A) (A) (A) (A) (A) (A) (A)
                 (A) (A) (A) (A) (A) (A) (A) (A) (A) (A) (A) (A)
                 (A) (A) (A) (A) (A) (A) (A) (A) (A) (A) (A) (A)
                 (A) (A) (A) (A) (A) (A) (A) (A) (A) (A) (A) (A)
                 (A) (A) (A) (A) (A) (A) (A) (A) (A) (A) (A) (A)
                 (A) (A) (A) (A) (A) (A) (A) (A) (A) (A) (A) (A)
                 (A) (A) (A) (A) (A) (A) (A) (A) (A) (A) (A) (A)
                 (A) (A) (A) (A) (A) (A) (A) (A) (A) (A) (A) (A)
                 (A) (A) (A) (A) (A) (A) (A) (A) (A) (A) (A) (A)
                 (A) (A) (A) (A) (A) (A) (A) (A) (A) (A) (A) (A)
                 (A) (A) (A) (A) (A) (A) (A) (A) (A) (A) (A) (A)
                 (A) (A) (A) (A) (A) (A) (A) (A) (A) (A) (A) (A)
                 (A) (A) (A) (A) (A) (A) (A) (A) (A) (A) (A) (A)
                 (A) (A) (A) (A) (A) (A) (A) (A) (A) (A) (A) (A)
                 (A) (A) (A) (A) (A) (A) (A) (A) (A) (A) (A) (A)
                 (A) (A) (A) (A) (A) (A) (A) (A) (A) (A) (A) (A)
                 (A) (A) (A) (A) (A) (A) (A) (A) (A) (A) (A) (A)
                 (A) (A) (A) (A) (A) (A) (A) (A) (A) (A) (A) (A)
                 (A) (A) (A) (A) (A) (A) (A) (A) (A) (A) (A) (A)
                 (A) (A) (A) (A) (A) (A) (A) (A) (A) (A) (A) (A)
                 (A) (A) (A) (A) (A) (A) (A) (A) (A) (A) (A) (A)
                 (A) (A) (A) (A) (A) (A) (A) (A) (A) (A) (A) (A)
                 (A) (A) (A) (A) (A) (A) (A) (A) (A) (A) (A) (A)
                 (A) (A) (A) (A) (A) (A) (A) (A) (A) (A) (A) (A)
                 (A) (A) (A) (A) (A) (A) (A) (A) (A) (A) (A) (A)
                 (A) (A) (A) (A) (A) (A) (A) (A) (A) (A) (A) (A)
                 (A) (A) (A) (A) (A) (A) (A) (A) (A) (A) (A) (A)
                 (A) (A) (A) (A) (A) (A) (A) (A) (A) (A) (A) (A)
                 (A) (A) (A) (A) (A) (A) (A) (A) (A) (A) (A) (A)
                 (A) (A) (A) (A) (A) (A) (A) (A) (A) (A) (A) (A)
                 (A) (A) (A) (A) (A) (A) (A) (A) (A) (A) (A) (A)
                 (A) (A) (A) (A) (A) (A) (A) (A) (A) (A) (A) (A)
                 (A) (A) (A) (A) (A) (A) (A) (A) (A) (A) (A) (A)
                 (A) (A) (A) (A) (A) (A) (A) (A) (A) (A) (A) (A)
                 (A) (A) (A) (A) (A) (A) (A) (A) (A) (A) (A) (A)
                 (A) (A) (A) (A) (A) (A) (A) (A) (A) (A) (A) (A)
                 (A) (A) (A) (A) (A) (A) (A) (A) (A) (A) (A) (A)
                 (A) (A) (A) (A) (A) (A) (A) (A) (A) (A) (A) (A)
                 (A) (A) (A) (A) (A) (A) (A) (A) (A) (A) (A) (A)
                 (A) (A) (A) (A) (A) (A) (A) (A) (A) (A) (A) (A)
                 (A) (A) (A) (A) (A) (A) (A) (A) (A) (A) (A) (A)
                 (A) (A) (A) (A) (A) (A) (A) (A) (A) (A) (A) (A)
                 (A) (A) (A) (A) (A) (A) (A) (A) (A) (A) (A) (A)
                 (A) (A) (A) (A) (A) (A) (A) (A) (A) (A) (A) (A)
                 (A) (A) (A) (A) (A) (A) (A) (A) (A) (A) (A) (A)
                 (A) (A) (A) (A) (A) (A) (A) (A) (A) (A) (A) (A)
                 (A) (A) (A) (A) (A) (A) (A) (A) (A) (A) (A) (A)
                 (A) (A) (A) (A) (A) (A) (A) (A) (A) (A) (A) (A)
                 (A) (A) (A) (A) (A) (A) (A) (A)
    20 initial guesses have been made.
 Convergence on wavefunction:    0.001000000000000
 Davidson Disk Diagonalization:  ConvIn= 1.00D-03 SkipCon=T Conv= 1.00D-03.
 Max sub-space:  2000 roots to seek:    20 dimension of matrix:       370304
 Iteration     1 Dimension    20 NMult     0 NNew     20
 CISAX will form    20 AO SS matrices at one time.
 NMat=    20 NSing=    20 JSym2X= 0.
 FoFJK:  IHMeth= 1 ICntrl=       0 DoSepK=T KAlg= 0 I1Cent=           0 FoldK=F
 IRaf=         1 NMat=      40 IRICut=       1 DoRegI=T DoRafI=F ISym2E= 0 IDoP0=3 IntGTp=3.
 FoFCou: FMM=T IPFlag=           0 FMFlag=      100000 FMFlg1=        2001
         NFxFlg=           0 DoJE=F BraDBF=F KetDBF=F FulRan=T
         wScrn=  0.000000 ICntrl=       500 IOpCl=  0 I1Cent=           0 NGrid=           0
         NMat0=   20 NMatS0=     20 NMatT0=    0 NMatD0=   20 NMtDS0=    0 NMtDT0=    0
 Symmetry not used in FoFCou.
 FMM levels:  10  Number of levels for PrismC:   9
 New state      3 was old state      4
 New state      4 was old state      6
 New state      5 was old state      8
 Excitation Energies [eV] at current iteration:
 Root      1 :     2.217322532113672
 Root      2 :     2.613121961979992
 Root      3 :     3.873560124006888
 Root      4 :     4.088187875858580
 Root      5 :     4.317125632306189
 Root      6 :     4.387716155687343
 Root      7 :     4.424591108933269
 Root      8 :     4.449496059128232
 Root      9 :     4.561145653480264
 Root     10 :     4.613841827985190
 Root     11 :     4.663761366531883
 Root     12 :     4.995786497019363
 Root     13 :     5.094001160721185
 Root     14 :     5.163612165189812
 Root     15 :     5.360545894765761
 Root     16 :     5.458794962784181
 Root     17 :     5.490194204533655
 Root     18 :     5.626819031902852
 Root     19 :     5.640011460329589
 Root     20 :     7.070277779199173
 Iteration     2 Dimension    30 NMult    20 NNew     10
 CISAX will form    10 AO SS matrices at one time.
 NMat=    10 NSing=    10 JSym2X= 0.
 Root      1 not converged, maximum delta is    0.079030616251592
 Root      2 not converged, maximum delta is    0.057658603192446
 Root      3 not converged, maximum delta is    0.127260686210784
 Root      4 not converged, maximum delta is    0.186679845779454
 Root      5 not converged, maximum delta is    0.207535575239842
 Excitation Energies [eV] at current iteration:
 Root      1 :     1.715154659129238   Change is   -0.502167872984434
 Root      2 :     2.217288110510653   Change is   -0.395833851469339
 Root      3 :     3.459194004500388   Change is   -0.414366119506500
 Root      4 :     3.629729155953379   Change is   -0.458458719905201
 Root      5 :     3.863446514509534   Change is   -0.453679117796655
 Iteration     3 Dimension    40 NMult    30 NNew     10
 CISAX will form    10 AO SS matrices at one time.
 NMat=    10 NSing=    10 JSym2X= 0.
 Root      1 not converged, maximum delta is    0.018151765683434
 Root      2 not converged, maximum delta is    0.011078539934480
 Root      3 not converged, maximum delta is    0.076636079745584
 Root      4 not converged, maximum delta is    0.122473762286921
 Root      5 not converged, maximum delta is    0.093385588792981
 Excitation Energies [eV] at current iteration:
 Root      1 :     1.675970311120501   Change is   -0.039184348008738
 Root      2 :     2.199057925070633   Change is   -0.018230185440019
 Root      3 :     3.431486839406376   Change is   -0.027707165094012
 Root      4 :     3.568958710303483   Change is   -0.060770445649895
 Root      5 :     3.712738443604802   Change is   -0.150708070904732
 Iteration     4 Dimension    50 NMult    40 NNew     10
 CISAX will form    10 AO SS matrices at one time.
 NMat=    10 NSing=    10 JSym2X= 0.
 Root      1 not converged, maximum delta is    0.003334649414089
 Root      2 not converged, maximum delta is    0.003548407978473
 Root      3 not converged, maximum delta is    0.027244167581547
 Root      4 not converged, maximum delta is    0.059928222667698
 Root      5 not converged, maximum delta is    0.116344240949134
 Excitation Energies [eV] at current iteration:
 Root      1 :     1.671622050661589   Change is   -0.004348260458912
 Root      2 :     2.196772180909779   Change is   -0.002285744160854
 Root      3 :     3.423993284854896   Change is   -0.007493554551480
 Root      4 :     3.554501682151561   Change is   -0.014457028151923
 Root      5 :     3.678956954040812   Change is   -0.033781489563990
 Iteration     5 Dimension    60 NMult    50 NNew     10
 CISAX will form    10 AO SS matrices at one time.
 NMat=    10 NSing=    10 JSym2X= 0.
 Root      1 not converged, maximum delta is    0.001307556561751
 Root      2 has converged.
 Root      3 not converged, maximum delta is    0.003950621650802
 Root      4 not converged, maximum delta is    0.016158995756887
 Root      5 not converged, maximum delta is    0.048473231789834
 Excitation Energies [eV] at current iteration:
 Root      1 :     1.671228275137662   Change is   -0.000393775523927
 Root      2 :     2.196589285054010   Change is   -0.000182895855769
 Root      3 :     3.423108102831626   Change is   -0.000885182023270
 Root      4 :     3.552343179325630   Change is   -0.002158502825931
 Root      5 :     3.673079041831802   Change is   -0.005877912209010
 Iteration     6 Dimension    68 NMult    60 NNew      8
 CISAX will form     8 AO SS matrices at one time.
 NMat=     8 NSing=     8 JSym2X= 0.
 Root      1 has converged.
 Root      2 has converged.
 Root      3 not converged, maximum delta is    0.002828201877398
 Root      4 not converged, maximum delta is    0.004770242112910
 Root      5 not converged, maximum delta is    0.017123600544004
 Excitation Energies [eV] at current iteration:
 Root      1 :     1.671195132295342   Change is   -0.000033142842320
 Root      2 :     2.196588623680479   Change is   -0.000000661373532
 Root      3 :     3.422922355375331   Change is   -0.000185747456296
 Root      4 :     3.551940303326544   Change is   -0.000402875999086
 Root      5 :     3.671792645692397   Change is   -0.001286396139404
 Iteration     7 Dimension    74 NMult    68 NNew      6
 CISAX will form     6 AO SS matrices at one time.
 NMat=     6 NSing=     6 JSym2X= 0.
 Root      1 has converged.
 Root      2 has converged.
 Root      3 not converged, maximum delta is    0.004491499987119
 Root      4 has converged.
 Root      5 not converged, maximum delta is    0.012933259908690
 Excitation Energies [eV] at current iteration:
 Root      1 :     1.671194978838858   Change is   -0.000000153456484
 Root      2 :     2.196588431507150   Change is   -0.000000192173328
 Root      3 :     3.422812927149554   Change is   -0.000109428225777
 Root      4 :     3.551894921346647   Change is   -0.000045381979898
 Root      5 :     3.671448890400876   Change is   -0.000343755291521
 Iteration     8 Dimension    78 NMult    74 NNew      4
 CISAX will form     4 AO SS matrices at one time.
 NMat=     4 NSing=     4 JSym2X= 0.
 Root      1 has converged.
 Root      2 has converged.
 Root      3 not converged, maximum delta is    0.003786218044451
 Root      4 has converged.
 Root      5 not converged, maximum delta is    0.097062153070205
 Excitation Energies [eV] at current iteration:
 Root      1 :     1.671194935555919   Change is   -0.000000043282939
 Root      2 :     2.196588358576542   Change is   -0.000000072930608
 Root      3 :     3.422748130906796   Change is   -0.000064796242757
 Root      4 :     3.551893447700948   Change is   -0.000001473645699
 Root      5 :     3.670261987176294   Change is   -0.001186903224582
 Iteration     9 Dimension    82 NMult    78 NNew      4
 CISAX will form     4 AO SS matrices at one time.
 NMat=     4 NSing=     4 JSym2X= 0.
 Root      1 has converged.
 Root      2 has converged.
 Root      3 not converged, maximum delta is    0.001171516628415
 Root      4 has converged.
 Root      5 not converged, maximum delta is    0.334424868360643
 Excitation Energies [eV] at current iteration:
 Root      1 :     1.671194811607541   Change is   -0.000000123948379
 Root      2 :     2.196587901867088   Change is   -0.000000456709454
 Root      3 :     3.422732232413391   Change is   -0.000015898493406
 Root      4 :     3.551892620065536   Change is   -0.000000827635411
 Root      5 :     3.659262712175280   Change is   -0.010999275001015
 Iteration    10 Dimension    86 NMult    82 NNew      4
 CISAX will form     4 AO SS matrices at one time.
 NMat=     4 NSing=     4 JSym2X= 0.
 Root      1 has converged.
 Root      2 has converged.
 Root      3 has converged.
 Root      4 has converged.
 Root      5 not converged, maximum delta is    0.045401875976583
 Excitation Energies [eV] at current iteration:
 Root      1 :     1.671194739375036   Change is   -0.000000072232505
 Root      2 :     2.196587329551424   Change is   -0.000000572315665
 Root      3 :     3.422729653585276   Change is   -0.000002578828115
 Root      4 :     3.551892287918415   Change is   -0.000000332147121
 Root      5 :     3.655173707294499   Change is   -0.004089004880780
 Iteration    11 Dimension    88 NMult    86 NNew      2
 CISAX will form     2 AO SS matrices at one time.
 NMat=     2 NSing=     2 JSym2X= 0.
 Root      1 has converged.
 Root      2 has converged.
 Root      3 has converged.
 Root      4 has converged.
 Root      5 not converged, maximum delta is    0.004606084726272
 Excitation Energies [eV] at current iteration:
 Root      1 :     1.671194689182840   Change is   -0.000000050192196
 Root      2 :     2.196587216440771   Change is   -0.000000113110652
 Root      3 :     3.422729554591850   Change is   -0.000000098993426
 Root      4 :     3.551892220922025   Change is   -0.000000066996390
 Root      5 :     3.654621196055279   Change is   -0.000552511239220
 Iteration    12 Dimension    90 NMult    88 NNew      2
 CISAX will form     2 AO SS matrices at one time.
 NMat=     2 NSing=     2 JSym2X= 0.
 Root      1 has converged.
 Root      2 has converged.
 Root      3 has converged.
 Root      4 has converged.
 Root      5 not converged, maximum delta is    0.001528622437852
 Excitation Energies [eV] at current iteration:
 Root      1 :     1.671194672141058   Change is   -0.000000017041783
 Root      2 :     2.196586858310032   Change is   -0.000000358130739
 Root      3 :     3.422729549035595   Change is   -0.000000005556255
 Root      4 :     3.551892083663546   Change is   -0.000000137258479
 Root      5 :     3.654546690161932   Change is   -0.000074505893347
 Iteration    13 Dimension    92 NMult    90 NNew      2
 CISAX will form     2 AO SS matrices at one time.
 NMat=     2 NSing=     2 JSym2X= 0.
 Root      1 has converged.
 Root      2 has converged.
 Root      3 has converged.
 Root      4 has converged.
 Root      5 has converged.
 Excitation Energies [eV] at current iteration:
 Root      1 :     1.671194671788162   Change is   -0.000000000352895
 Root      2 :     2.196586793072778   Change is   -0.000000065237253
 Root      3 :     3.422729534572222   Change is   -0.000000014463373
 Root      4 :     3.551891997282044   Change is   -0.000000086381502
 Root      5 :     3.654535345585943   Change is   -0.000011344575989
 Convergence achieved on expansion vectors.
 ***********************************************************************
 Excited states from <AA,BB:AA,BB> singles matrix:
 ***********************************************************************
 
 1PDM for each excited state written to RWF  633
 Ground to excited state transition densities written to RWF  633
 Ground to excited state transition electric dipole moments (Au):
       state          X           Y           Z        Dip. S.      Osc.
         1         1.5615      2.6057     -0.0200      9.2285      0.3778
         2         1.0187     -0.7547     -0.0806      1.6138      0.0868
         3         1.2514     -1.0702     -0.0433      2.7132      0.2275
         4        -1.5892      1.5131      0.0330      4.8159      0.4191
         5        -0.1811      0.1781     -0.0146      0.0647      0.0058
 Ground to excited state transition velocity dipole moments (Au):
       state          X           Y           Z        Dip. S.      Osc.
[...]
 Alpha virt. eigenvalues --    1.46743   1.47150   1.47219   1.47343   1.47556
 Alpha virt. eigenvalues --    1.48149   1.48301   1.48420   1.49046   1.49480
 Alpha virt. eigenvalues --    1.49547   1.50012   1.50423   1.50916   1.51081
 Alpha virt. eigenvalues --    1.51491   1.52461   1.52723   1.53595   1.54042
 Alpha virt. eigenvalues --    1.54324   1.54895   1.55030   1.55508   1.56172
 Alpha virt. eigenvalues --    1.57071   1.57503   1.57747   1.57933   1.58358
 Alpha virt. eigenvalues --    1.58721   1.58797   1.59131   1.59368   1.59469
 Alpha virt. eigenvalues --    1.60025   1.60413   1.60604   1.60990   1.61130
 Alpha virt. eigenvalues --    1.61481   1.61638   1.61868   1.62845   1.63155
 Alpha virt. eigenvalues --    1.63420   1.63515   1.63656   1.63811   1.64420
 Alpha virt. eigenvalues --    1.64769   1.64855   1.64879   1.65196   1.65439
 Alpha virt. eigenvalues --    1.65860   1.65975   1.66338   1.66559   1.66699
 Alpha virt. eigenvalues --    1.67076   1.67522   1.67645   1.68355   1.68778
 Alpha virt. eigenvalues --    1.69137   1.69798   1.70057   1.70263   1.70995
 Alpha virt. eigenvalues --    1.71193   1.72238   1.73061   1.73383   1.73588
 Alpha virt. eigenvalues --    1.73988   1.74130   1.74489   1.75054   1.75392
 Alpha virt. eigenvalues --    1.75750   1.75819   1.76137   1.76199   1.76720
 Alpha virt. eigenvalues --    1.77123   1.77532   1.77827   1.78548   1.78931
 Alpha virt. eigenvalues --    1.79473   1.80126   1.80329   1.80528   1.80691
 Alpha virt. eigenvalues --    1.80842   1.80969   1.81469   1.81882   1.81897
 Alpha virt. eigenvalues --    1.82126   1.82302   1.82372   1.82804   1.83093
 Alpha virt. eigenvalues --    1.83366   1.83509   1.83797   1.83941   1.84101
 Alpha virt. eigenvalues --    1.84179   1.84405   1.84667   1.85304   1.85454
 Alpha virt. eigenvalues --    1.85591   1.85722   1.85864   1.86103   1.86196
 Alpha virt. eigenvalues --    1.86467   1.86625   1.86789   1.87027   1.87133
 Alpha virt. eigenvalues --    1.87288   1.87331   1.87958   1.88346   1.88549
 Alpha virt. eigenvalues --    1.88820   1.88875   1.88905   1.89240   1.89345
 Alpha virt. eigenvalues --    1.89562   1.89669   1.89751   1.89816   1.90372
 Alpha virt. eigenvalues --    1.90457   1.90625   1.90719   1.90984   1.91158
 Alpha virt. eigenvalues --    1.91287   1.91534   1.91729   1.91893   1.92048
 Alpha virt. eigenvalues --    1.92184   1.92480   1.92818   1.92995   1.93137
 Alpha virt. eigenvalues --    1.93148   1.93474   1.93611   1.93827   1.94221
 Alpha virt. eigenvalues --    1.94530   1.94766   1.94828   1.94962   1.95483
 Alpha virt. eigenvalues --    1.95723   1.96106   1.96430   1.96631   1.96673
 Alpha virt. eigenvalues --    1.97043   1.97344   1.98064   1.98215   1.98330
 Alpha virt. eigenvalues --    1.98444   1.98713   1.98738   1.98970   1.99296
 Alpha virt. eigenvalues --    1.99983   2.00214   2.00400   2.00510   2.00611
 Alpha virt. eigenvalues --    2.01007   2.01200   2.01360   2.01613   2.01939
 Alpha virt. eigenvalues --    2.02426   2.02556   2.02827   2.03130   2.03275
 Alpha virt. eigenvalues --    2.03350   2.03436   2.03736   2.04091   2.04173
 Alpha virt. eigenvalues --    2.04335   2.04448   2.04969   2.05148   2.05425
 Alpha virt. eigenvalues --    2.05553   2.05693   2.05956   2.06123   2.06445
 Alpha virt. eigenvalues --    2.07146   2.07635   2.07895   2.08248   2.08419
 Alpha virt. eigenvalues --    2.08530   2.08743   2.09042   2.09832   2.10141
 Alpha virt. eigenvalues --    2.10381   2.10828   2.11324   2.11531   2.11644
 Alpha virt. eigenvalues --    2.12142   2.12575   2.13023   2.13146   2.13407
 Alpha virt. eigenvalues --    2.13568   2.13920   2.14331   2.14796   2.14955
 Alpha virt. eigenvalues --    2.15261   2.16075   2.16349   2.16700   2.16920
 Alpha virt. eigenvalues --    2.16957   2.17072   2.17292   2.17538   2.18038
 Alpha virt. eigenvalues --    2.18314   2.18410   2.18619   2.19469   2.19847
 Alpha virt. eigenvalues --    2.19994   2.20261   2.20353   2.20533   2.20919
 Alpha virt. eigenvalues --    2.21397   2.21560   2.21768   2.22012   2.22159
 Alpha virt. eigenvalues --    2.22836   2.23152   2.23439   2.23721   2.23854
 Alpha virt. eigenvalues --    2.24148   2.24301   2.24674   2.24814   2.25138
 Alpha virt. eigenvalues --    2.25643   2.26106   2.26900   2.27205   2.28470
 Alpha virt. eigenvalues --    2.28898   2.29348   2.29534   2.29964   2.30566
 Alpha virt. eigenvalues --    2.31203   2.31404   2.32584   2.32880   2.33217
 Alpha virt. eigenvalues --    2.34203   2.34385   2.34733   2.34804   2.35207
 Alpha virt. eigenvalues --    2.35392   2.35521   2.35908   2.36370   2.36732
 Alpha virt. eigenvalues --    2.36863   2.37513   2.37871   2.38117   2.38392
 Alpha virt. eigenvalues --    2.38626   2.38827   2.38995   2.39009   2.39485
 Alpha virt. eigenvalues --    2.40095   2.40611   2.40993   2.41322   2.41983
 Alpha virt. eigenvalues --    2.42670   2.42982   2.43345   2.43884   2.44313
 Alpha virt. eigenvalues --    2.44464   2.44919   2.44953   2.45107   2.45654
 Alpha virt. eigenvalues --    2.46691   2.46905   2.47120   2.47264   2.47867
 Alpha virt. eigenvalues --    2.47952   2.48049   2.48390   2.48546   2.48911
 Alpha virt. eigenvalues --    2.49415   2.49486   2.49579   2.50023   2.50291
 Alpha virt. eigenvalues --    2.51273   2.51337   2.51699   2.52325   2.52489
 Alpha virt. eigenvalues --    2.52585   2.53152   2.53508   2.53861   2.54238
 Alpha virt. eigenvalues --    2.54744   2.55371   2.55685   2.55730   2.56070
 Alpha virt. eigenvalues --    2.56182   2.56602   2.57271   2.58151   2.58665
 Alpha virt. eigenvalues --    2.59544   2.60661   2.60834   2.61417   2.61584
 Alpha virt. eigenvalues --    2.61878   2.62010   2.62101   2.63184   2.63471
 Alpha virt. eigenvalues --    2.63644   2.64284   2.64634   2.65127   2.65806
 Alpha virt. eigenvalues --    2.66294   2.66979   2.67305   2.67571   2.67638
 Alpha virt. eigenvalues --    2.68452   2.69246   2.69346   2.69416   2.69882
 Alpha virt. eigenvalues --    2.70092   2.70136   2.70704   2.70836   2.70904
 Alpha virt. eigenvalues --    2.71579   2.71793   2.72410   2.72638   2.72788
 Alpha virt. eigenvalues --    2.73396   2.73731   2.74875   2.74947   2.75633
 Alpha virt. eigenvalues --    2.76016   2.76111   2.76253   2.76991   2.77620
 Alpha virt. eigenvalues --    2.77817   2.78338   2.78619   2.79388   2.79666
 Alpha virt. eigenvalues --    2.80458   2.80599   2.81104   2.81305   2.81438
 Alpha virt. eigenvalues --    2.81693   2.81828   2.82064   2.83278   2.83420
 Alpha virt. eigenvalues --    2.83589   2.83859   2.84329   2.84379   2.85136
 Alpha virt. eigenvalues --    2.85746   2.86366   2.87335   2.88059   2.88566
 Alpha virt. eigenvalues --    2.88820   2.89381   2.89467   2.89621   2.89717
 Alpha virt. eigenvalues --    2.91265   2.92084   2.92744   2.93282   2.93668
 Alpha virt. eigenvalues --    2.94056   2.94568   2.95027   2.95509   2.96109
 Alpha virt. eigenvalues --    2.96290   2.96673   2.96875   2.97408   2.97720
 Alpha virt. eigenvalues --    2.97854   2.98082   2.98280   2.98549   2.98778
 Alpha virt. eigenvalues --    2.99114   2.99195   2.99405   2.99854   3.00267
 Alpha virt. eigenvalues --    3.00393   3.00727   3.01150   3.01758   3.01937
 Alpha virt. eigenvalues --    3.02109   3.02326   3.02546   3.02923   3.03671
 Alpha virt. eigenvalues --    3.03941   3.04184   3.04683   3.04778   3.05297
 Alpha virt. eigenvalues --    3.05591   3.06346   3.06409   3.06532   3.06615
 Alpha virt. eigenvalues --    3.06819   3.07286   3.07801   3.08009   3.08299
 Alpha virt. eigenvalues --    3.08407   3.08922   3.09770   3.09979   3.10408
 Alpha virt. eigenvalues --    3.11073   3.11099   3.11297   3.12339   3.12473
 Alpha virt. eigenvalues --    3.12991   3.13282   3.13913   3.14652   3.14745
 Alpha virt. eigenvalues --    3.15072   3.15766   3.16547   3.16550   3.17031
 Alpha virt. eigenvalues --    3.17757   3.17911   3.19227   3.19869   3.20012
 Alpha virt. eigenvalues --    3.20787   3.20942   3.21300   3.21696   3.22097
 Alpha virt. eigenvalues --    3.23197   3.23947   3.24439   3.25682   3.25820
 Alpha virt. eigenvalues --    3.26530   3.27191   3.28311   3.30203   3.31268
 Alpha virt. eigenvalues --    3.31347   3.35968   3.44811   3.45974   3.47796
 Alpha virt. eigenvalues --    3.48909   3.52310   3.53873   3.57064   3.59735
 Alpha virt. eigenvalues --    3.63127   3.64316   3.68935   3.70063   3.70603
 Alpha virt. eigenvalues --    3.73231   3.77815
          Condensed to atoms (all electrons):
 Mulliken charges:
               1
     1  Mg   0.952668
     2  C   -0.033393
     3  C   -0.087376
     4  C   -0.053781
     5  C   -0.078890
     6  N   -0.317156
     7  C    0.007237
     8  C   -0.102072
     9  C   -0.039033
    10  C   -0.006299
    11  C    0.015999
    12  C    0.042772
    13  C    0.042913
    14  C    0.213475
    15  O   -0.278746
    16  O   -0.392434
    17  N   -0.461413
    18  C    0.197135
    19  C   -0.169542
    20  C   -0.061119
    21  C    0.119985
    22  C    0.061330
    23  C    0.038512
    24  O   -0.262775
    25  C    0.013357
    26  N   -0.333072
    27  C    0.064307
    28  C   -0.091936
    29  C   -0.098951
    30  C    0.041463
    31  C    0.031100
    32  C   -0.015251
    33  C   -0.053805
    34  N   -0.449142
    35  C    0.129998
    36  C   -0.162374
    37  C   -0.054297
    38  C    0.143002
    39  C    0.075936
    40  C    0.096623
    41  O   -0.182885
    42  C   -0.038213
    43  C    0.280107
    44  O   -0.276174
    45  O   -0.358530
    46  C    0.134775
    47  C    0.241432
    48  C   -0.173858
    49  C   -0.186355
    50  C    0.066139
    51  C    0.058610
    52  C   -0.021057
    53  C   -0.015225
    54  C   -0.187812
    55  C    0.007313
    56  C    0.016632
    57  C   -0.028322
    58  C    0.001597
    59  C   -0.156887
    60  C   -0.017970
    61  C   -0.024048
    62  C   -0.037126
    63  C    0.028461
    64  C   -0.236783
    65  C    0.009408
    66  C   -0.011985
    67  H   -0.023468
    68  H    0.028188
    69  H   -0.002281
    70  H    0.060835
    71  H    0.038538
    72  H    0.058075
    73  H    0.030009
    74  H    0.024185
    75  H    0.024148
    76  H    0.028994
    77  H    0.066001
    78  H    0.062153
    79  H    0.025640
    80  H    0.064280
    81  H    0.051251
    82  H    0.063673
    83  H    0.041513
    84  H    0.053157
    85  H    0.040475
    86  H    0.038501
    87  H    0.048199
    88  H    0.046140
    89  H    0.029863
    90  H    0.031722
    91  H    0.025629
    92  H    0.040633
    93  H    0.032265
    94  H    0.041467
    95  H    0.049992
    96  H    0.047227
    97  H    0.057821
    98  H    0.064068
    99  H    0.056072
   100  H    0.072399
   101  H    0.044585
   102  H    0.064860
   103  H    0.062227
   104  H    0.025444
   105  H    0.054331
   106  H    0.026584
   107  H    0.043256
   108  H    0.022435
   109  H    0.021545
   110  H    0.022587
   111  H    0.009582
   112  H    0.010137
   113  H    0.005154
   114  H    0.000561
   115  H    0.013289
   116  H    0.028999
   117  H    0.036887
   118  H    0.000709
   119  H    0.009287
   120  H    0.020951
   121  H    0.012798
   122  H    0.031047
   123  H    0.014264
   124  H    0.005630
   125  H    0.022779
   126  H    0.035885
   127  H    0.029447
   128  H    0.008275
   129  H    0.014671
   130  H    0.024319
   131  H    0.027524
   132  H    0.018155
   133  H    0.028756
   134  H    0.039444
   135  H    0.022851
   136  H    0.023950
   137  H    0.035611
   138  H    0.032290
   139  H    0.020977
   140  H    0.034351
 Sum of Mulliken charges =  -0.00000
 Mulliken charges with hydrogens summed into heavy atoms:
               1
     1  Mg   0.952668
     2  C   -0.033393
     3  C   -0.110843
     4  C   -0.025593
     5  C   -0.081171
     6  N   -0.317156
     7  C    0.007237
     8  C   -0.041237
     9  C   -0.000495
    10  C   -0.006299
    11  C    0.128268
    12  C    0.095914
    13  C    0.171068
    14  C    0.213475
    15  O   -0.278746
    16  O   -0.392434
    17  N   -0.461413
    18  C    0.197135
    19  C   -0.169542
    20  C   -0.061119
    21  C    0.119985
    22  C    0.202501
    23  C    0.038512
    24  O   -0.262775
    25  C    0.171700
    26  N   -0.333072
    27  C    0.064307
    28  C   -0.051461
    29  C   -0.060450
    30  C    0.041463
    31  C    0.155302
    32  C    0.042099
    33  C    0.060560
    34  N   -0.449142
    35  C    0.129998
    36  C   -0.162374
    37  C   -0.054297
    38  C    0.143002
    39  C    0.230976
    40  C    0.096623
    41  O   -0.182885
    42  C    0.025855
    43  C    0.280107
    44  O   -0.276174
    45  O   -0.358530
    46  C    0.307830
    47  C    0.368520
    48  C   -0.148414
    49  C   -0.186355
    50  C    0.190309
    51  C    0.102590
    52  C    0.011112
    53  C    0.000066
    54  C   -0.187250
    55  C    0.086489
    56  C    0.026629
    57  C    0.005427
    58  C    0.046908
    59  C   -0.151256
    60  C    0.070141
    61  C   -0.001103
    62  C    0.014717
    63  C    0.075373
    64  C   -0.197339
    65  C    0.091820
    66  C    0.075633
 Electronic spatial extent (au):  <R**2>=         121762.5011
 Charge=             -0.0000 electrons
 Dipole moment (field-independent basis, Debye):
    X=              4.2778    Y=              2.5018    Z=             -3.2438  Tot=              5.9229
 Quadrupole moment (field-independent basis, Debye-Ang):
   XX=           -375.1844   YY=           -428.7990   ZZ=           -404.5468
   XY=             -8.8195   XZ=              6.9360   YZ=             12.9871
 Traceless Quadrupole moment (field-independent basis, Debye-Ang):
   XX=             27.6590   YY=            -25.9556   ZZ=             -1.7034
   XY=             -8.8195   XZ=              6.9360   YZ=             12.9871
 Octapole moment (field-independent basis, Debye-Ang**2):
  XXX=           -366.2318  YYY=             20.6728  ZZZ=            -20.6255  XYY=            320.2561
  XXY=            -76.8827  XXZ=            -52.1223  XZZ=              1.8297  YZZ=             -9.3139
  YYZ=            -10.3251  XYZ=              4.7892
 Hexadecapole moment (field-independent basis, Debye-Ang**3):
 XXXX=        -130219.3679 YYYY=         -25612.7023 ZZZZ=          -7918.2430 XXXY=            318.6325
 XXXZ=           -378.1224 YYYX=             30.6995 YYYZ=            -13.0208 ZZZX=             25.2335
 ZZZY=             98.2990 XXYY=         -28190.6837 XXZZ=         -23949.1475 YYZZ=          -5381.1120
 XXYZ=            296.9214 YYXZ=              9.9187 ZZXY=            -89.6915
 N-N= 9.513262295750D+03 E-N=-2.601903878467D+04  KE= 2.975379292236D+03
 Leave Link  601 at Fri Apr 29 07:07:01 2022, MaxMem= 10066329600 cpu:              17.8 elap:               0.8
 (Enter /sw/apps/gaussian-16.0/g16/l9999.exe)
 1\1\GINC-BP1-COMPUTE162\SP\RwB97XD TD-FC\def2SVP\C55H74Mg1N4O6\OF15641
 \29-Apr-2022\0\\#p wB97XD/Def2SVP td=(nstates=5)\\step_1_chromophore_3
  TDDFT with wB97XD functional\\0,1\Mg,0,1.397,7.672,26.334\C,0,1.724,9
 .741,29.051\C,0,2.013,4.991,28.381\C,0,1.182,5.575,23.58\C,0,1.222,10.
 435,24.247\N,0,1.881,7.369,28.504\C,0,1.86,8.397,29.403\C,0,2.088,7.91
 4,30.753\C,0,2.4,6.433,30.607\C,0,2.122,6.205,29.057\C,0,3.813,5.913,3
 1.044\C,0,0.869,8.215,31.69\C,0,1.184,8.506,33.198\C,0,2.448,7.854,33.
 792\O,0,3.525,8.347,34.183\O,0,2.178,6.495,34.023\N,0,1.466,5.549,26.0
 75\C,0,1.719,4.629,27.078\C,0,1.707,3.272,26.495\C,0,1.454,3.427,25.06
 4\C,0,1.331,4.879,24.847\C,0,1.961,1.993,27.276\C,0,1.226,2.335,24.045
 \O,0,0.942,2.65,22.876\C,0,1.349,0.883,24.32\N,0,1.304,7.948,24.201\C,
 0,1.17,6.942,23.332\C,0,0.899,7.477,21.916\C,0,0.648,9.069,22.124\C,0,
 1.006,9.146,23.65\C,0,2.063,7.12,20.941\C,0,-0.806,9.555,21.874\C,0,-1
 .005,10.456,20.646\N,0,1.524,9.708,26.541\C,0,1.451,10.734,25.596\C,0,
 1.565,12.05,26.263\C,0,1.69,11.659,27.617\C,0,1.669,10.243,27.729\C,0,
 1.493,13.371,25.672\C,0,1.738,12.19,28.995\O,0,1.682,13.313,29.421\C,0
 ,1.805,10.957,29.965\C,0,2.974,11.12,30.844\O,0,4.122,10.981,30.392\O,
 0,2.681,11.286,32.163\C,0,3.771,11.252,33.133\C,0,3.048,5.855,35.05\C,
 0,1.929,5.252,35.92\C,0,1.869,5.066,37.262\C,0,2.844,5.658,38.257\C,0,
 0.649,4.441,37.846\C,0,0.829,3.116,38.637\C,0,0.458,1.834,37.761\C,0,0
 .426,0.43,38.301\C,0,-0.691,-0.398,37.669\C,0,1.726,-0.354,38.157\C,0,
 2.354,-0.963,39.38\C,0,3.109,-2.224,38.988\C,0,3.987,-2.755,40.173\C,0
 ,3.117,-3.186,41.378\C,0,5.137,-1.851,40.639\C,0,6.399,-2.671,41.039\C
 ,0,7.463,-1.796,41.848\C,0,8.896,-2.176,41.372\C,0,9.882,-2.039,42.589
 \C,0,9.265,-1.108,40.271\H,0,2.211,4.159,29.06\H,0,1.154,4.901,22.721\
 H,0,1.034,11.27,23.569\H,0,2.966,8.427,31.147\H,0,1.62,5.817,31.056\H,
 0,4.563,6.577,31.475\H,0,4.274,5.435,30.18\H,0,3.771,5.074,31.739\H,0,
 0.125,7.425,31.587\H,0,0.273,9.011,31.244\H,0,0.337,8.213,33.819\H,0,1
 .413,9.554,33.389\H,0,2.028,2.15,28.352\H,0,2.913,1.543,26.993\H,0,1.0
 87,1.344,27.224\H,0,1.036,0.372,23.41\H,0,0.748,0.547,25.166\H,0,2.368
 ,0.659,24.636\H,0,-0.069,7.08,21.61\H,0,1.359,9.68,21.568\H,0,1.725,6.
 673,20.006\H,0,2.747,6.405,21.399\H,0,2.592,8.064,20.808\H,0,-1.226,10
 .107,22.714\H,0,-1.498,8.721,21.755\H,0,-0.249,10.22,19.897\H,0,-0.863
 ,11.489,20.962\H,0,-2.045,10.342,20.343\H,0,1.264,14.148,26.401\H,0,0.
 762,13.444,24.867\H,0,2.505,13.659,25.387\H,0,0.852,11.055,30.486\H,0,
 4.474,12.081,33.047\H,0,4.27,10.283,33.126\H,0,3.365,11.366,34.138\H,0
 ,3.669,6.537,35.629\H,0,3.645,5.042,34.637\H,0,1.141,4.853,35.281\H,0,
 2.241,6.388,38.797\H,0,3.667,6.079,37.68\H,0,3.186,4.837,38.888\H,0,-0
 .121,4.345,37.08\H,0,0.245,5.038,38.663\H,0,0.325,3.045,39.601\H,0,1.8
 67,2.982,38.94\H,0,1.07,1.662,36.876\H,0,-0.538,2.056,37.377\H,0,0.219
 ,0.481,39.37\H,0,-1.049,0.006,36.722\H,0,-1.532,-0.179,38.326\H,0,-0.4
 5,-1.431,37.415\H,0,2.424,0.42,37.837\H,0,1.644,-1.051,37.322\H,0,1.59
 3,-1.066,40.153\H,0,3.027,-0.185,39.739\H,0,3.572,-2.108,38.008\H,0,2.
 339,-2.994,38.93\H,0,4.472,-3.626,39.732\H,0,2.35,-3.916,41.121\H,0,2.
 586,-2.314,41.762\H,0,3.682,-3.709,42.149\H,0,4.662,-1.306,41.455\H,0,
 5.377,-1.127,39.86\H,0,6.758,-2.976,40.056\H,0,5.986,-3.522,41.582\H,0
 ,7.254,-2.036,42.89\H,0,7.172,-0.748,41.771\H,0,9.044,-3.111,40.833\H,
 0,9.386,-1.986,43.558\H,0,10.42,-1.092,42.54\H,0,10.532,-2.913,42.553\
 H,0,9.459,-1.773,39.43\H,0,10.177,-0.553,40.493\H,0,8.54,-0.302,40.162
 \\Version=ES64L-G16RevA.03\State=1-A\HF=-3007.8934164\RMSD=8.959e-09\P
 G=C01 [X(C55H74Mg1N4O6)]\\@


 EXPERIMENTALISTS THINK SILICON IS REALLY FUN TO USE
     ITS PLACE IN NOVEL COMPOUNDS IS CERTAIN TO AMUSE
 THEY SIT ALL DAY IN LABORATORIES MAKING ALL THIS SLUDGE
     "LOADED WITH THE SILICON THEY SAY", TO ME IT LOOKS LIKE FUDGE.
 FOR HAPPY THOUGH THEY BE WITH CRUD, I'D LIKE TO KNOW A LITTLE
      ABOUT THE PI BONDS ON THE EDGE AND SIGMAS IN THE MIDDLE.

 SO LETS DERIVE A WAVEFUNCTION.....6-31G*
     USE AN OPTIMAL GEOMETRY AND SEE WHERE ELECTRONS ARE.
 BUT WHAT OF CORRELATION?  ASKS THE WIRY LITTLE SKEPTIC.
     WE'LL THROW IN PERTURBATION AS AN ELECTRON ANTISEPTIC.
 AND WHEN THE PROGRAM GIVES US ANSWERS IN THEM WE CAN TRUST
     SINCE NOBODY CAN MAKE THE STUFF, WE HAVE NO CHOICE, WE MUST.

 SO THEORY GUYS HAVE GOT IT MADE, IN ROOMS FREE OF POLLUTION.
     INSTEAD OF PROBLEMS WITH THE REFLUX, THEY HAVE ONLY SOLUTIONS.
 AND WHEN THE FEDS ANNOUNCE THE LIST OF CARCINOGENIC TERRORS,
     THE THEORISTS SIT SAFELY AT THEIR TERMINALS FIXING ERRORS.
 IN OTHER WORDS, EXPERIMENTALISTS WILL LIKELY DIE OF CANCER
     FROM WORKING HARD YET FRUITLESSLY...TILL THEORY GIVES THE ANSWER.
          -- THOMAS A. HOLME, 1983
 Job cpu time:       0 days 11 hours 34 minutes  6.7 seconds.
 Elapsed time:       0 days  0 hours 29 minutes 27.5 seconds.
 File lengths (MBytes):  RWF=   8929 Int=      0 D2E=      0 Chk=    390 Scr=      1
 Normal termination of Gaussian 16 at Fri Apr 29 07:07:02 2022.
