 Entering Gaussian System, Link 0=g16
 Initial command:
 /sw/apps/gaussian-16.0/g16/l1.exe "/tmp/Gau-199746.inp" -scrdir="/tmp/"
 Entering Link 1 = /sw/apps/gaussian-16.0/g16/l1.exe PID=    199747.
  
 Copyright (c) 1988,1990,1992,1993,1995,1998,2003,2009,2016,
            Gaussian, Inc.  All Rights Reserved.
  
 This is part of the Gaussian(R) 16 program.  It is based on
 the Gaussian(R) 09 system (copyright 2009, Gaussian, Inc.),
 the Gaussian(R) 03 system (copyright 2003, Gaussian, Inc.),
 the Gaussian(R) 98 system (copyright 1998, Gaussian, Inc.),
 the Gaussian(R) 94 system (copyright 1995, Gaussian, Inc.),
 the Gaussian 92(TM) system (copyright 1992, Gaussian, Inc.),
 the Gaussian 90(TM) system (copyright 1990, Gaussian, Inc.),
 the Gaussian 88(TM) system (copyright 1988, Gaussian, Inc.),
 the Gaussian 86(TM) system (copyright 1986, Carnegie Mellon
 University), and the Gaussian 82(TM) system (copyright 1983,
 Carnegie Mellon University). Gaussian is a federally registered
 trademark of Gaussian, Inc.
  
 This software contains proprietary and confidential information,
 including trade secrets, belonging to Gaussian, Inc.
  
 This software is provided under written license and may be
 used, copied, transmitted, or stored only in accord with that
 written license.
  
 The following legend is applicable only to US Government
 contracts under FAR:
  
                    RESTRICTED RIGHTS LEGEND
  
 Use, reproduction and disclosure by the US Government is
 subject to restrictions as set forth in subparagraphs (a)
 and (c) of the Commercial Computer Software - Restricted
 Rights clause in FAR 52.227-19.
  
 Gaussian, Inc.
 340 Quinnipiac St., Bldg. 40, Wallingford CT 06492
  
  
 ---------------------------------------------------------------
 Warning -- This program may not be used in any manner that
 competes with the business of Gaussian, Inc. or will provide
 assistance to any competitor of Gaussian, Inc.  The licensee
 of this program is prohibited from giving any competitor of
 Gaussian, Inc. access to this program.  By using this program,
 the user acknowledges that Gaussian, Inc. is engaged in the
 business of creating and licensing software in the field of
 computational chemistry and represents and warrants to the
 licensee that it is not a competitor of Gaussian, Inc. and that
 it will not use this program in any manner prohibited above.
 ---------------------------------------------------------------
  

 Cite this work as:
 Gaussian 16, Revision A.03,
 M. J. Frisch, G. W. Trucks, H. B. Schlegel, G. E. Scuseria, 
 M. A. Robb, J. R. Cheeseman, G. Scalmani, V. Barone, 
 G. A. Petersson, H. Nakatsuji, X. Li, M. Caricato, A. V. Marenich, 
 J. Bloino, B. G. Janesko, R. Gomperts, B. Mennucci, H. P. Hratchian, 
 J. V. Ortiz, A. F. Izmaylov, J. L. Sonnenberg, D. Williams-Young, 
 F. Ding, F. Lipparini, F. Egidi, J. Goings, B. Peng, A. Petrone, 
 T. Henderson, D. Ranasinghe, V. G. Zakrzewski, J. Gao, N. Rega, 
 G. Zheng, W. Liang, M. Hada, M. Ehara, K. Toyota, R. Fukuda, 
 J. Hasegawa, M. Ishida, T. Nakajima, Y. Honda, O. Kitao, H. Nakai, 
 T. Vreven, K. Throssell, J. A. Montgomery, Jr., J. E. Peralta, 
 F. Ogliaro, M. J. Bearpark, J. J. Heyd, E. N. Brothers, K. N. Kudin, 
 V. N. Staroverov, T. A. Keith, R. Kobayashi, J. Normand, 
 K. Raghavachari, A. P. Rendell, J. C. Burant, S. S. Iyengar, 
 J. Tomasi, M. Cossi, J. M. Millam, M. Klene, C. Adamo, R. Cammi, 
 J. W. Ochterski, R. L. Martin, K. Morokuma, O. Farkas, 
 J. B. Foresman, and D. J. Fox, Gaussian, Inc., Wallingford CT, 2016.
 
 ******************************************
 Gaussian 16:  ES64L-G16RevA.03 25-Dec-2016
                29-Apr-2022 
 ******************************************
 %nproc=24
 Will use up to   24 processors via shared memory.
 %mem=75GB
 --------------------------------
 #p wB97XD/Def2SVP td=(nstates=5)
 --------------------------------
 1/38=1,172=1/1;
 2/12=2,17=6,18=5,40=1/2;
 3/5=43,7=101,11=9,25=1,30=1,74=-58/1,2,3,8;
 4//1;
 5/5=2,38=5/2;
 8/6=1,10=1,108=5/1;
 9/41=5,42=1,70=2/14;
 6/7=2,8=2,9=2,10=2/1;
 99/5=1,9=1/99;
 Leave Link    1 at Fri Apr 29 06:53:36 2022, MaxMem= 10066329600 cpu:               0.5 elap:               0.0
 (Enter /sw/apps/gaussian-16.0/g16/l101.exe)
 -------------------------------------------------
 step_1_chromophore_6 TDDFT with wB97XD functional
 -------------------------------------------------
 Symbolic Z-matrix:
 Charge =  0 Multiplicity = 1
 Mg                    17.054   -2.288     27.75 
 C                     16.548   -0.354     30.726 
 C                     18.852   -4.529     29.657 
 C                     18.013   -3.67      24.949 
 C                     15.392    0.222     26.033 
 N                     17.886   -2.277     29.962 
 C                     17.412   -1.437     30.933 
 C                     17.782   -2.001     32.331 
 C                     18.585   -3.327     31.996 
 C                     18.484   -3.424     30.43 
 C                     20.102   -3.411     32.453 
 C                     16.578   -2.286     33.268 
 C                     16.684   -1.85      34.686 
 C                     18.053   -1.523     35.396 
 O                     18.778   -0.591     35.104 
 O                     18.548   -2.518     36.236 
 N                     18.305   -3.918     27.31 
 C                     18.859   -4.819     28.219 
 C                     19.641   -5.825     27.475 
 C                     19.293   -5.632     26.083 
 C                     18.516   -4.371     26.058 
 C                     20.531   -6.871     28.075 
 C                     19.639   -6.463     24.825 
 O                     19.045   -6.384     23.729 
 C                     20.63    -7.546     24.977 
 N                     16.791   -1.754     25.844 
 C                     17.373   -2.499     24.842 
 C                     16.845   -2.07      23.445 
 C                     15.703   -1.041     23.862 
 C                     15.953   -0.843     25.347 
 C                     17.88    -1.479     22.403 
 C                     14.265   -1.461     23.602 
 C                     13.502   -0.619     22.558 
 N                     15.981   -0.538     28.255 
 C                     15.386    0.394     27.438 
 C                     14.878    1.514     28.241 
 C                     15.273    1.207     29.531 
 C                     15.938   -0.039     29.497 
 C                     14.172    2.751     27.793 
 C                     15.189    1.699     30.859 
 O                     14.574    2.682     31.362 
 C                     15.981    0.758     31.664 
 C                     17.012    1.503     32.468 
 O                     17.975    2.031     32.027 
 O                     16.72     1.423     33.766 
 C                     17.368    2.297     34.684 
 C                     19.982   -2.452     36.552 
 C                     20.408   -3.764     37.247 
 C                     20.356   -4.021     38.546 
 C                     19.854   -3.056     39.583 
 C                     20.837   -5.333     39.057 
 C                     22.258   -5.655     39.002 
 C                     22.74    -6.699     40.128 
 C                     23.734   -7.691     39.446 
 C                     22.955   -8.755     38.715 
 C                     24.769   -8.272     40.501 
 C                     26.123   -7.521     40.532 
 C                     26.806   -7.793     41.936 
 C                     27.491   -9.18      41.978 
 C                     26.842   -9.995     43.104 
 C                     29.044   -9.062     42.251 
 C                     29.902   -9.093     40.942 
 C                     31.024   -10.168    41.003 
 C                     31.344   -10.751    39.606 
 C                     32.091   -9.703     38.807 
 C                     32.157   -12.063    39.749 
 H                     19.445   -5.281     30.182 
 H                     18.215   -4.046     23.943 
 H                     14.94     1.043     25.474 
 H                     18.422   -1.249     32.794 
 H                     18.07    -4.189     32.419 
 H                     20.439   -2.604     33.103 
 H                     20.706   -3.311     31.55 
 H                     20.311   -4.382     32.903 
 H                     16.349   -3.349     33.352 
 H                     15.66    -1.804     32.933 
 H                     16.309   -2.637     35.341 
 H                     16.049   -0.972     34.801 
 H                     21.524   -6.798     27.632 
 H                     20.096   -7.833     27.804 
 H                     20.474   -6.87      29.164 
 H                     21.579   -7.085     25.251 
 H                     20.755   -7.963     23.978 
 H                     20.262   -8.353     25.61 
 H                     16.37    -2.96      23.031 
 H                     15.888   -0.125     23.301 
 H                     18.88    -1.465     22.835 
 H                     17.571   -0.518     21.99 
 H                     17.864   -2.133     21.531 
 H                     13.635   -1.616     24.478 
 H                     14.307   -2.459     23.167 
 H                     12.479   -0.335     22.804 
 H                     13.298   -1.281     21.716 
 H                     13.992    0.304     22.251 
 H                     13.755    2.656     26.79 
 H                     14.889    3.56      27.654 
 H                     13.497    3.03      28.602 
 H                     15.272    0.271     32.333 
 H                     16.919    3.28      34.535 
 H                     18.417    2.432     34.42 
 H                     17.174    2.        35.715 
 H                     20.182   -1.599     37.201 
 H                     20.542   -2.446     35.617 
 H                     20.69    -4.616     36.628 
 H                     19.138   -2.446     39.033 
 H                     20.664   -2.451     39.99 
 H                     19.457   -3.682     40.382 
 H                     20.285   -6.003     38.398 
 H                     20.431   -5.496     40.055 
 H                     22.825   -4.727     38.932 
 H                     22.485   -6.036     38.007 
 H                     21.94    -7.281     40.587 
 H                     23.253   -6.066     40.853 
 H                     24.429   -7.174     38.785 
 H                     23.377   -8.933     37.726 
 H                     21.938   -8.39      38.577 
 H                     22.868   -9.662     39.313 
 H                     24.871   -9.356     40.539 
 H                     24.367   -7.952     41.462 
 H                     25.835   -6.482     40.376 
 H                     26.762   -7.954     39.763 
 H                     26.064   -7.77      42.733 
 H                     27.439   -6.93      42.144 
 H                     27.284   -9.649     41.016 
 H                     27.2     -9.702     44.091 
 H                     27.061   -11.049    42.931 
 H                     25.773   -9.788     43.068 
 H                     29.359   -9.968     42.769 
 H                     29.234   -8.137     42.796 
 H                     30.419   -8.134     40.972 
 H                     29.28    -9.128     40.047 
 H                     30.802   -11.04     41.618 
 H                     31.87    -9.865     41.621 
 H                     30.338   -10.853    39.2 
 H                     31.684   -9.983     37.835 
 H                     33.179   -9.737     38.747 
 H                     31.83    -8.679     39.075 
 H                     33.195   -11.825    39.514 
 H                     31.775   -12.699    38.95 
 H                     32.036   -12.58     40.701 
 
 ITRead=  0  0  0  0  0  0  0  0  0  0  0  0  0  0  0  0  0  0  0  0
 ITRead=  0  0  0  0  0  0  0  0  0  0  0  0  0  0  0  0  0  0  0  0
 ITRead=  0  0  0  0  0  0  0  0  0  0  0  0  0  0  0  0  0  0  0  0
 ITRead=  0  0  0  0  0  0  0  0  0  0  0  0  0  0  0  0  0  0  0  0
 ITRead=  0  0  0  0  0  0  0  0  0  0  0  0  0  0  0  0  0  0  0  0
 ITRead=  0  0  0  0  0  0  0  0  0  0  0  0  0  0  0  0  0  0  0  0
 ITRead=  0  0  0  0  0  0  0  0  0  0  0  0  0  0  0  0  0  0  0  0
 MicOpt= -1 -1 -1 -1 -1 -1 -1 -1 -1 -1 -1 -1 -1 -1 -1 -1 -1 -1 -1 -1
 MicOpt= -1 -1 -1 -1 -1 -1 -1 -1 -1 -1 -1 -1 -1 -1 -1 -1 -1 -1 -1 -1
 MicOpt= -1 -1 -1 -1 -1 -1 -1 -1 -1 -1 -1 -1 -1 -1 -1 -1 -1 -1 -1 -1
 MicOpt= -1 -1 -1 -1 -1 -1 -1 -1 -1 -1 -1 -1 -1 -1 -1 -1 -1 -1 -1 -1
 MicOpt= -1 -1 -1 -1 -1 -1 -1 -1 -1 -1 -1 -1 -1 -1 -1 -1 -1 -1 -1 -1
 MicOpt= -1 -1 -1 -1 -1 -1 -1 -1 -1 -1 -1 -1 -1 -1 -1 -1 -1 -1 -1 -1
 MicOpt= -1 -1 -1 -1 -1 -1 -1 -1 -1 -1 -1 -1 -1 -1 -1 -1 -1 -1 -1 -1
 NAtoms=    140 NQM=      140 NQMF=       0 NMMI=      0 NMMIF=      0
                NMic=       0 NMicF=      0.
                    Isotopes and Nuclear Properties:
 (Nuclear quadrupole moments (NQMom) in fm**2, nuclear magnetic moments (NMagM)
  in nuclear magnetons)

  Atom         1           2           3           4           5           6           7           8           9          10
 IAtWgt=          24          12          12          12          12          14          12          12          12          12
 AtmWgt=  23.9850450  12.0000000  12.0000000  12.0000000  12.0000000  14.0030740  12.0000000  12.0000000  12.0000000  12.0000000
 NucSpn=           0           0           0           0           0           2           0           0           0           0
 AtZEff=  -0.0000000  -0.0000000  -0.0000000  -0.0000000  -0.0000000  -0.0000000  -0.0000000  -0.0000000  -0.0000000  -0.0000000
 NQMom=    0.0000000   0.0000000   0.0000000   0.0000000   0.0000000   2.0440000   0.0000000   0.0000000   0.0000000   0.0000000
 NMagM=    0.0000000   0.0000000   0.0000000   0.0000000   0.0000000   0.4037610   0.0000000   0.0000000   0.0000000   0.0000000
 AtZNuc=  12.0000000   6.0000000   6.0000000   6.0000000   6.0000000   7.0000000   6.0000000   6.0000000   6.0000000   6.0000000

  Atom        11          12          13          14          15          16          17          18          19          20
 IAtWgt=          12          12          12          12          16          16          14          12          12          12
 AtmWgt=  12.0000000  12.0000000  12.0000000  12.0000000  15.9949146  15.9949146  14.0030740  12.0000000  12.0000000  12.0000000
 NucSpn=           0           0           0           0           0           0           2           0           0           0
 AtZEff=  -0.0000000  -0.0000000  -0.0000000  -0.0000000  -0.0000000  -0.0000000  -0.0000000  -0.0000000  -0.0000000  -0.0000000
 NQMom=    0.0000000   0.0000000   0.0000000   0.0000000   0.0000000   0.0000000   2.0440000   0.0000000   0.0000000   0.0000000
 NMagM=    0.0000000   0.0000000   0.0000000   0.0000000   0.0000000   0.0000000   0.4037610   0.0000000   0.0000000   0.0000000
 AtZNuc=   6.0000000   6.0000000   6.0000000   6.0000000   8.0000000   8.0000000   7.0000000   6.0000000   6.0000000   6.0000000

  Atom        21          22          23          24          25          26          27          28          29          30
 IAtWgt=          12          12          12          16          12          14          12          12          12          12
 AtmWgt=  12.0000000  12.0000000  12.0000000  15.9949146  12.0000000  14.0030740  12.0000000  12.0000000  12.0000000  12.0000000
 NucSpn=           0           0           0           0           0           2           0           0           0           0
 AtZEff=  -0.0000000  -0.0000000  -0.0000000  -0.0000000  -0.0000000  -0.0000000  -0.0000000  -0.0000000  -0.0000000  -0.0000000
 NQMom=    0.0000000   0.0000000   0.0000000   0.0000000   0.0000000   2.0440000   0.0000000   0.0000000   0.0000000   0.0000000
 NMagM=    0.0000000   0.0000000   0.0000000   0.0000000   0.0000000   0.4037610   0.0000000   0.0000000   0.0000000   0.0000000
 AtZNuc=   6.0000000   6.0000000   6.0000000   8.0000000   6.0000000   7.0000000   6.0000000   6.0000000   6.0000000   6.0000000

  Atom        31          32          33          34          35          36          37          38          39          40
 IAtWgt=          12          12          12          14          12          12          12          12          12          12
 AtmWgt=  12.0000000  12.0000000  12.0000000  14.0030740  12.0000000  12.0000000  12.0000000  12.0000000  12.0000000  12.0000000
 NucSpn=           0           0           0           2           0           0           0           0           0           0
 AtZEff=  -0.0000000  -0.0000000  -0.0000000  -0.0000000  -0.0000000  -0.0000000  -0.0000000  -0.0000000  -0.0000000  -0.0000000
 NQMom=    0.0000000   0.0000000   0.0000000   2.0440000   0.0000000   0.0000000   0.0000000   0.0000000   0.0000000   0.0000000
 NMagM=    0.0000000   0.0000000   0.0000000   0.4037610   0.0000000   0.0000000   0.0000000   0.0000000   0.0000000   0.0000000
 AtZNuc=   6.0000000   6.0000000   6.0000000   7.0000000   6.0000000   6.0000000   6.0000000   6.0000000   6.0000000   6.0000000

  Atom        41          42          43          44          45          46          47          48          49          50
 IAtWgt=          16          12          12          16          16          12          12          12          12          12
 AtmWgt=  15.9949146  12.0000000  12.0000000  15.9949146  15.9949146  12.0000000  12.0000000  12.0000000  12.0000000  12.0000000
 NucSpn=           0           0           0           0           0           0           0           0           0           0
 AtZEff=  -0.0000000  -0.0000000  -0.0000000  -0.0000000  -0.0000000  -0.0000000  -0.0000000  -0.0000000  -0.0000000  -0.0000000
 NQMom=    0.0000000   0.0000000   0.0000000   0.0000000   0.0000000   0.0000000   0.0000000   0.0000000   0.0000000   0.0000000
 NMagM=    0.0000000   0.0000000   0.0000000   0.0000000   0.0000000   0.0000000   0.0000000   0.0000000   0.0000000   0.0000000
 AtZNuc=   8.0000000   6.0000000   6.0000000   8.0000000   8.0000000   6.0000000   6.0000000   6.0000000   6.0000000   6.0000000

  Atom        51          52          53          54          55          56          57          58          59          60
 IAtWgt=          12          12          12          12          12          12          12          12          12          12
 AtmWgt=  12.0000000  12.0000000  12.0000000  12.0000000  12.0000000  12.0000000  12.0000000  12.0000000  12.0000000  12.0000000
 NucSpn=           0           0           0           0           0           0           0           0           0           0
 AtZEff=  -0.0000000  -0.0000000  -0.0000000  -0.0000000  -0.0000000  -0.0000000  -0.0000000  -0.0000000  -0.0000000  -0.0000000
 NQMom=    0.0000000   0.0000000   0.0000000   0.0000000   0.0000000   0.0000000   0.0000000   0.0000000   0.0000000   0.0000000
 NMagM=    0.0000000   0.0000000   0.0000000   0.0000000   0.0000000   0.0000000   0.0000000   0.0000000   0.0000000   0.0000000
 AtZNuc=   6.0000000   6.0000000   6.0000000   6.0000000   6.0000000   6.0000000   6.0000000   6.0000000   6.0000000   6.0000000

  Atom        61          62          63          64          65          66          67          68          69          70
 IAtWgt=          12          12          12          12          12          12           1           1           1           1
 AtmWgt=  12.0000000  12.0000000  12.0000000  12.0000000  12.0000000  12.0000000   1.0078250   1.0078250   1.0078250   1.0078250
 NucSpn=           0           0           0           0           0           0           1           1           1           1
 AtZEff=  -0.0000000  -0.0000000  -0.0000000  -0.0000000  -0.0000000  -0.0000000  -0.0000000  -0.0000000  -0.0000000  -0.0000000
 NQMom=    0.0000000   0.0000000   0.0000000   0.0000000   0.0000000   0.0000000   0.0000000   0.0000000   0.0000000   0.0000000
 NMagM=    0.0000000   0.0000000   0.0000000   0.0000000   0.0000000   0.0000000   2.7928460   2.7928460   2.7928460   2.7928460
 AtZNuc=   6.0000000   6.0000000   6.0000000   6.0000000   6.0000000   6.0000000   1.0000000   1.0000000   1.0000000   1.0000000

  Atom        71          72          73          74          75          76          77          78          79          80
 IAtWgt=           1           1           1           1           1           1           1           1           1           1
 AtmWgt=   1.0078250   1.0078250   1.0078250   1.0078250   1.0078250   1.0078250   1.0078250   1.0078250   1.0078250   1.0078250
 NucSpn=           1           1           1           1           1           1           1           1           1           1
 AtZEff=  -0.0000000  -0.0000000  -0.0000000  -0.0000000  -0.0000000  -0.0000000  -0.0000000  -0.0000000  -0.0000000  -0.0000000
 NQMom=    0.0000000   0.0000000   0.0000000   0.0000000   0.0000000   0.0000000   0.0000000   0.0000000   0.0000000   0.0000000
 NMagM=    2.7928460   2.7928460   2.7928460   2.7928460   2.7928460   2.7928460   2.7928460   2.7928460   2.7928460   2.7928460
 AtZNuc=   1.0000000   1.0000000   1.0000000   1.0000000   1.0000000   1.0000000   1.0000000   1.0000000   1.0000000   1.0000000

  Atom        81          82          83          84          85          86          87          88          89          90
 IAtWgt=           1           1           1           1           1           1           1           1           1           1
 AtmWgt=   1.0078250   1.0078250   1.0078250   1.0078250   1.0078250   1.0078250   1.0078250   1.0078250   1.0078250   1.0078250
 NucSpn=           1           1           1           1           1           1           1           1           1           1
 AtZEff=  -0.0000000  -0.0000000  -0.0000000  -0.0000000  -0.0000000  -0.0000000  -0.0000000  -0.0000000  -0.0000000  -0.0000000
 NQMom=    0.0000000   0.0000000   0.0000000   0.0000000   0.0000000   0.0000000   0.0000000   0.0000000   0.0000000   0.0000000
 NMagM=    2.7928460   2.7928460   2.7928460   2.7928460   2.7928460   2.7928460   2.7928460   2.7928460   2.7928460   2.7928460
 AtZNuc=   1.0000000   1.0000000   1.0000000   1.0000000   1.0000000   1.0000000   1.0000000   1.0000000   1.0000000   1.0000000

  Atom        91          92          93          94          95          96          97          98          99         100
 IAtWgt=           1           1           1           1           1           1           1           1           1           1
 AtmWgt=   1.0078250   1.0078250   1.0078250   1.0078250   1.0078250   1.0078250   1.0078250   1.0078250   1.0078250   1.0078250
 NucSpn=           1           1           1           1           1           1           1           1           1           1
 AtZEff=  -0.0000000  -0.0000000  -0.0000000  -0.0000000  -0.0000000  -0.0000000  -0.0000000  -0.0000000  -0.0000000  -0.0000000
 NQMom=    0.0000000   0.0000000   0.0000000   0.0000000   0.0000000   0.0000000   0.0000000   0.0000000   0.0000000   0.0000000
 NMagM=    2.7928460   2.7928460   2.7928460   2.7928460   2.7928460   2.7928460   2.7928460   2.7928460   2.7928460   2.7928460
 AtZNuc=   1.0000000   1.0000000   1.0000000   1.0000000   1.0000000   1.0000000   1.0000000   1.0000000   1.0000000   1.0000000

  Atom       101         102         103         104         105         106         107         108         109         110
 IAtWgt=           1           1           1           1           1           1           1           1           1           1
 AtmWgt=   1.0078250   1.0078250   1.0078250   1.0078250   1.0078250   1.0078250   1.0078250   1.0078250   1.0078250   1.0078250
 NucSpn=           1           1           1           1           1           1           1           1           1           1
 AtZEff=  -0.0000000  -0.0000000  -0.0000000  -0.0000000  -0.0000000  -0.0000000  -0.0000000  -0.0000000  -0.0000000  -0.0000000
 NQMom=    0.0000000   0.0000000   0.0000000   0.0000000   0.0000000   0.0000000   0.0000000   0.0000000   0.0000000   0.0000000
 NMagM=    2.7928460   2.7928460   2.7928460   2.7928460   2.7928460   2.7928460   2.7928460   2.7928460   2.7928460   2.7928460
 AtZNuc=   1.0000000   1.0000000   1.0000000   1.0000000   1.0000000   1.0000000   1.0000000   1.0000000   1.0000000   1.0000000

  Atom       111         112         113         114         115         116         117         118         119         120
 IAtWgt=           1           1           1           1           1           1           1           1           1           1
 AtmWgt=   1.0078250   1.0078250   1.0078250   1.0078250   1.0078250   1.0078250   1.0078250   1.0078250   1.0078250   1.0078250
 NucSpn=           1           1           1           1           1           1           1           1           1           1
 AtZEff=  -0.0000000  -0.0000000  -0.0000000  -0.0000000  -0.0000000  -0.0000000  -0.0000000  -0.0000000  -0.0000000  -0.0000000
 NQMom=    0.0000000   0.0000000   0.0000000   0.0000000   0.0000000   0.0000000   0.0000000   0.0000000   0.0000000   0.0000000
 NMagM=    2.7928460   2.7928460   2.7928460   2.7928460   2.7928460   2.7928460   2.7928460   2.7928460   2.7928460   2.7928460
 AtZNuc=   1.0000000   1.0000000   1.0000000   1.0000000   1.0000000   1.0000000   1.0000000   1.0000000   1.0000000   1.0000000

  Atom       121         122         123         124         125         126         127         128         129         130
 IAtWgt=           1           1           1           1           1           1           1           1           1           1
 AtmWgt=   1.0078250   1.0078250   1.0078250   1.0078250   1.0078250   1.0078250   1.0078250   1.0078250   1.0078250   1.0078250
 NucSpn=           1           1           1           1           1           1           1           1           1           1
 AtZEff=  -0.0000000  -0.0000000  -0.0000000  -0.0000000  -0.0000000  -0.0000000  -0.0000000  -0.0000000  -0.0000000  -0.0000000
 NQMom=    0.0000000   0.0000000   0.0000000   0.0000000   0.0000000   0.0000000   0.0000000   0.0000000   0.0000000   0.0000000
 NMagM=    2.7928460   2.7928460   2.7928460   2.7928460   2.7928460   2.7928460   2.7928460   2.7928460   2.7928460   2.7928460
 AtZNuc=   1.0000000   1.0000000   1.0000000   1.0000000   1.0000000   1.0000000   1.0000000   1.0000000   1.0000000   1.0000000

  Atom       131         132         133         134         135         136         137         138         139         140
 IAtWgt=           1           1           1           1           1           1           1           1           1           1
 AtmWgt=   1.0078250   1.0078250   1.0078250   1.0078250   1.0078250   1.0078250   1.0078250   1.0078250   1.0078250   1.0078250
 NucSpn=           1           1           1           1           1           1           1           1           1           1
 AtZEff=  -0.0000000  -0.0000000  -0.0000000  -0.0000000  -0.0000000  -0.0000000  -0.0000000  -0.0000000  -0.0000000  -0.0000000
 NQMom=    0.0000000   0.0000000   0.0000000   0.0000000   0.0000000   0.0000000   0.0000000   0.0000000   0.0000000   0.0000000
 NMagM=    2.7928460   2.7928460   2.7928460   2.7928460   2.7928460   2.7928460   2.7928460   2.7928460   2.7928460   2.7928460
 AtZNuc=   1.0000000   1.0000000   1.0000000   1.0000000   1.0000000   1.0000000   1.0000000   1.0000000   1.0000000   1.0000000
 Leave Link  101 at Fri Apr 29 06:53:37 2022, MaxMem= 10066329600 cpu:               2.7 elap:               0.1
 (Enter /sw/apps/gaussian-16.0/g16/l202.exe)
 Stoichiometry    C55H74MgN4O6
 Framework group  C1[X(C55H74MgN4O6)]
 Deg. of freedom   414
 Full point group                 C1      NOp   1
 Largest Abelian subgroup         C1      NOp   1
 Largest concise Abelian subgroup C1      NOp   1
                         Standard orientation:                         
 ---------------------------------------------------------------------
 Center     Atomic      Atomic             Coordinates (Angstroms)
 Number     Number       Type             X           Y           Z
 ---------------------------------------------------------------------
      1         12           0       -5.601503    1.079346   -0.239005
      2          6           0       -4.507644   -2.306886    0.196743
      3          6           0       -2.320278    1.930439   -0.872047
      4          6           0       -6.526202    4.204572   -0.008570
      5          6           0       -8.773491   -0.005083    0.640164
      6          7           0       -3.537035   -0.055680   -0.051975
      7          6           0       -3.439059   -1.419003    0.017787
      8          6           0       -1.999795   -1.854807   -0.366912
      9          6           0       -1.261003   -0.481783   -0.657259
     10          6           0       -2.407941    0.583373   -0.509132
     11          6           0       -0.029889   -0.092436    0.264674
     12          6           0       -1.903621   -2.820249   -1.578309
     13          6           0       -0.993218   -3.990605   -1.462174
     14          6           0        0.174076   -4.083899   -0.406754
     15          8           0        0.014036   -4.147992    0.797319
     16          8           0        1.452305   -3.830347   -0.899187
     17          7           0       -4.562406    2.898126   -0.405802
     18          6           0       -3.237553    3.073268   -0.804661
     19          6           0       -2.930594    4.516451   -0.814436
     20          6           0       -4.207510    5.183529   -0.671224
     21          6           0       -5.165024    4.102279   -0.341771
     22          6           0       -1.578763    5.129593   -1.021380
     23          6           0       -4.588921    6.679252   -0.772116
     24          8           0       -5.749077    7.113003   -0.933951
     25          6           0       -3.487146    7.657916   -0.852020
     26          7           0       -7.333313    1.919148    0.292716
     27          6           0       -7.428952    3.291249    0.369813
     28          6           0       -8.905117    3.741495    0.550503
     29          6           0       -9.662729    2.350443    0.383494
     30          6           0       -8.528298    1.341317    0.424224
     31          6           0       -9.293647    4.519130    1.873606
     32          6           0      -10.509232    2.169640   -0.866541
     33          6           0      -12.027883    2.032092   -0.630213
     34          7           0       -6.538856   -0.780455    0.123431
     35          6           0       -7.833140   -1.053517    0.498138
     36          6           0       -7.985313   -2.489275    0.767795
     37          6           0       -6.710192   -2.998638    0.597536
     38          6           0       -5.865199   -1.934572    0.210693
     39          6           0       -9.197178   -3.242409    1.207662
     40          6           0       -5.995388   -4.223512    0.635539
     41          8           0       -6.371090   -5.420325    0.790488
     42          6           0       -4.593328   -3.853259    0.394893
     43          6           0       -3.715908   -4.407649    1.484476
     44          8           0       -3.688449   -4.024804    2.603989
     45          8           0       -2.917674   -5.352406    0.987762
     46          6           0       -2.228239   -6.224393    1.877044
     47          6           0        2.475581   -3.473158    0.093733
     48          6           0        3.734169   -2.958722   -0.639177
     49          6           0        4.740029   -3.694417   -1.089903
     50          6           0        4.820465   -5.189971   -0.965622
     51          6           0        5.897704   -3.033370   -1.750683
     52          6           0        6.798601   -2.196887   -0.966700
     53          6           0        8.294428   -2.110590   -1.554227
     54          6           0        8.762004   -0.627422   -1.417074
     55          6           0        8.206567    0.179380   -2.563311
     56          6           0       10.342127   -0.540673   -1.284801
     57          6           0       10.845936   -0.443740    0.176383
     58          6           0       12.354417   -0.928460    0.211308
     59          6           0       13.320838    0.179065   -0.272609
     60          6           0       14.078815   -0.354470   -1.494948
     61          6           0       14.360973    0.583931    0.847421
     62          6           0       13.922662    1.844053    1.666311
     63          6           0       15.030871    2.934439    1.700348
     64          6           0       14.437310    4.361189    1.777602
     65          6           0       13.879508    4.575404    3.169609
     66          6           0       15.520371    5.409748    1.416681
     67          1           0       -1.307855    2.288622   -1.070750
     68          1           0       -6.987108    5.193226    0.057350
     69          1           0       -9.756634   -0.322628    0.991475
     70          1           0       -1.594596   -2.351111    0.515680
     71          1           0       -0.913783   -0.458879   -1.689786
     72          1           0        0.314713   -0.876189    0.938691
     73          1           0       -0.372890    0.708066    0.921768
     74          1           0        0.794357    0.286268   -0.340490
     75          1           0       -1.557715   -2.326381   -2.487105
     76          1           0       -2.859696   -3.279300   -1.828243
     77          1           0       -0.428197   -4.109321   -2.387203
     78          1           0       -1.618475   -4.872065   -1.322832
     79          1           0       -1.357203    5.803628   -0.194207
     80          1           0       -1.645990    5.712250   -1.940130
     81          1           0       -0.828040    4.375312   -1.259389
     82          1           0       -2.926846    7.596681    0.080992
     83          1           0       -3.971066    8.634147   -0.869617
     84          1           0       -2.926109    7.569090   -1.781918
     85          1           0       -9.126408    4.359102   -0.320538
     86          1           0      -10.319535    2.246931    1.247145
     87          1           0       -8.415193    4.645955    2.505312
     88          1           0      -10.144646    4.079260    2.395032
     89          1           0       -9.674060    5.494744    1.570588
     90          1           0      -10.179004    1.409678   -1.574854
     91          1           0      -10.407051    3.086671   -1.445855
     92          1           0      -12.548355    1.259851   -1.196300
     93          1           0      -12.491296    2.912634   -1.075990
     94          1           0      -12.329851    1.883717    0.405682
     95          1           0      -10.120771   -2.689806    1.032936
     96          1           0       -9.203472   -3.337476    2.293394
     97          1           0       -9.111075   -4.240922    0.779289
     98          1           0       -4.327214   -4.305920   -0.559933
     99          1           0       -2.978078   -6.913962    2.267334
    100          1           0       -1.870062   -5.684236    2.753550
    101          1           0       -1.480955   -6.816519    1.348122
    102          1           0        2.722928   -4.342443    0.703628
    103          1           0        2.121182   -2.612660    0.661013
    104          1           0        3.784218   -1.905423   -0.916026
    105          1           0        3.775228   -5.497167   -0.946478
    106          1           0        5.340393   -5.487033   -0.055016
    107          1           0        5.413410   -5.512542   -1.821338
    108          1           0        5.369724   -2.418342   -2.479286
    109          1           0        6.447232   -3.775043   -2.329778
    110          1           0        6.709369   -2.474357    0.083358
    111          1           0        6.361897   -1.201938   -0.888712
    112          1           0        8.394493   -2.403375   -2.600014
    113          1           0        8.862066   -2.763859   -0.890517
    114          1           0        8.481866   -0.204338   -0.452835
    115          1           0        7.806349    1.129498   -2.209771
    116          1           0        7.381410   -0.382423   -2.999260
    117          1           0        8.942631    0.294249   -3.358821
    118          1           0       10.852828    0.137381   -1.967686
    119          1           0       10.677992   -1.550023   -1.521301
    120          1           0       10.161365   -1.094346    0.719407
    121          1           0       10.828357    0.606480    0.466038
    122          1           0       12.493837   -1.791481   -0.438352
    123          1           0       12.528566   -1.324528    1.212070
    124          1           0       12.693688    1.021173   -0.565510
    125          1           0       14.879473   -1.042001   -1.222130
    126          1           0       14.492939    0.496344   -2.036634
    127          1           0       13.359204   -0.910456   -2.094904
    128          1           0       15.269422    0.922519    0.348960
    129          1           0       14.499516   -0.263788    1.518933
    130          1           0       13.864600    1.459482    2.684449
    131          1           0       12.935810    2.200701    1.369563
    132          1           0       15.688093    2.959268    0.831247
    133          1           0       15.841667    2.695257    2.389442
    134          1           0       13.608624    4.267993    1.076267
    135          1           0       13.056472    5.224158    2.868673
    136          1           0       14.473100    5.098403    3.919689
    137          1           0       13.521450    3.661387    3.643833
    138          1           0       15.852744    5.863078    2.351204
    139          1           0       14.975717    6.170051    0.856224
    140          1           0       16.338863    5.035531    0.801646
 ---------------------------------------------------------------------
 Rotational constants (GHZ):           0.0405708           0.0090404           0.0076651
 Leave Link  202 at Fri Apr 29 06:53:37 2022, MaxMem= 10066329600 cpu:               0.2 elap:               0.0
 (Enter /sw/apps/gaussian-16.0/g16/l301.exe)
 Standard basis: def2SVP (5D, 7F)
 Ernie: Thresh=  0.10000D-02 Tol=  0.10000D-05 Strict=F.
 There are  1364 symmetry adapted cartesian basis functions of A   symmetry.
 There are  1298 symmetry adapted basis functions of A   symmetry.
  1298 basis functions,  2180 primitive gaussians,  1364 cartesian basis functions
   246 alpha electrons      246 beta electrons
       nuclear repulsion energy      9400.2312711260 Hartrees.
 IExCor= 4639 DFT=T Ex+Corr=wB97XD ExCW=0 ScaHFX=  1.000000
 ScaDFX=  1.000000  1.000000  1.000000  1.000000 ScalE2=  1.000000  1.000000
 IRadAn=      5 IRanWt=     -1 IRanGd=            0 ICorTp=0 IEmpDi=121
 HFx  wShort=  0.000000 wLong=  0.200000 cFull=  0.222036 cShort=  0.000000 cLong=  0.777964
 DFx  wShort=  0.000000 wLong=  0.200000 cFull=  0.000000 cShort=  0.000000 cLong=  1.000000
 NAtoms=  140 NActive=  140 NUniq=  140 SFac= 1.00D+00 NAtFMM=   60 NAOKFM=T Big=T
 Integral buffers will be    131072 words long.
 Raffenetti 1 integral format.
 Two-electron integral symmetry is turned on.
 R6Disp:  Grimme-D2 Dispersion energy=       -0.1344145689 Hartrees.
 Nuclear repulsion after empirical dispersion term =     9400.0968565571 Hartrees.
 Leave Link  301 at Fri Apr 29 06:53:37 2022, MaxMem= 10066329600 cpu:               1.3 elap:               0.1
 (Enter /sw/apps/gaussian-16.0/g16/l302.exe)
 NPDir=0 NMtPBC=     1 NCelOv=     1 NCel=       1 NClECP=     1 NCelD=      1
         NCelK=      1 NCelE2=     1 NClLst=     1 CellRange=     0.0.
 One-electron integrals computed using PRISM.
 One-electron integral symmetry used in STVInt
   1 Symmetry operations used in ECPInt.
 ECPInt:  NShTT=  192510 NPrTT=  683786 LenC2=   89988 LenP2D=  199262.
 LDataN:  DoStor=T MaxTD1= 4 Len=   56
 NBasis=  1298 RedAO= T EigKep=  3.12D-04  NBF=  1298
 NBsUse=  1298 1.00D-06 EigRej= -1.00D+00 NBFU=  1298
 Precomputing XC quadrature grid using
 IXCGrd= 4 IRadAn=           5 IRanWt=          -1 IRanGd=           0 AccXCQ= 0.00D+00.
 Generated NRdTot=       0 NPtTot=           0 NUsed=           0 NTot=          32
 NSgBfM=  1031  1022  1023  1024  1031 MxSgAt=   140 MxSgA2=   140.
 Leave Link  302 at Fri Apr 29 06:53:40 2022, MaxMem= 10066329600 cpu:              88.1 elap:               3.7
 (Enter /sw/apps/gaussian-16.0/g16/l303.exe)
 DipDrv:  MaxL=1.
 Leave Link  303 at Fri Apr 29 06:53:41 2022, MaxMem= 10066329600 cpu:               5.9 elap:               0.3
 (Enter /sw/apps/gaussian-16.0/g16/l308.exe)
 Leave Link  308 at Fri Apr 29 06:53:41 2022, MaxMem= 10066329600 cpu:               9.2 elap:               0.4
 (Enter /sw/apps/gaussian-16.0/g16/l401.exe)
 ExpMin= 3.36D-02 ExpMax= 4.95D+03 ExpMxC= 7.45D+02 IAcc=3 IRadAn=         5 AccDes= 0.00D+00
 Harris functional with IExCor= 4639 and IRadAn=       5 diagonalized for initial guess.
 HarFok:  IExCor= 4639 AccDes= 0.00D+00 IRadAn=         5 IDoV= 1 UseB2=F ITyADJ=14
 ICtDFT=  3500011 ScaDFX=  1.000000  1.000000  1.000000  1.000000
 FoFCou: FMM=F IPFlag=           0 FMFlag=      100000 FMFlg1=        2001
         NFxFlg=           0 DoJE=T BraDBF=F KetDBF=T FulRan=T
         wScrn=  0.000000 ICntrl=       500 IOpCl=  0 I1Cent=   200000004 NGrid=           0
         NMat0=    1 NMatS0=      1 NMatT0=    0 NMatD0=    1 NMtDS0=    0 NMtDT0=    0
 Petite list used in FoFCou.
 Harris En= -2877.97988907718    
 JPrj=0 DoOrth=F DoCkMO=F.
 Leave Link  401 at Fri Apr 29 06:53:48 2022, MaxMem= 10066329600 cpu:             165.2 elap:               6.9
 (Enter /sw/apps/gaussian-16.0/g16/l502.exe)
 Integral symmetry usage will be decided dynamically.
 Closed shell SCF:
 Using DIIS extrapolation, IDIIS=  1040.
 NGot= 10066329600 LenX= 10062561258 LenY= 10060699398
 Requested convergence on RMS density matrix=1.00D-08 within 128 cycles.
 Requested convergence on MAX density matrix=1.00D-06.
 Requested convergence on             energy=1.00D-06.
 No special actions if energy rises.
 Fock matrices will be formed incrementally for  20 cycles.

 Cycle   1  Pass 1  IDiag  1:
 FoFJK:  IHMeth= 1 ICntrl=       0 DoSepK=T KAlg= 0 I1Cent=           0 FoldK=F
 IRaf=         1 NMat=       1 IRICut=       1 DoRegI=T DoRafI=F ISym2E= 0 IDoP0=0 IntGTp=1.
 FoFCou: FMM=T IPFlag=           0 FMFlag=      100000 FMFlg1=        2001
         NFxFlg=           0 DoJE=T BraDBF=F KetDBF=F FulRan=T
         wScrn=  0.000000 ICntrl=       500 IOpCl=  0 I1Cent=           0 NGrid=           0
         NMat0=    1 NMatS0=      1 NMatT0=    0 NMatD0=    1 NMtDS0=    0 NMtDT0=    0
 Symmetry not used in FoFCou.
 FMM levels:  10  Number of levels for PrismC:   9
 E= -3007.19824442251    
 DIIS: error= 2.87D-02 at cycle   1 NSaved=   1.
 NSaved= 1 IEnMin= 1 EnMin= -3007.19824442251     IErMin= 1 ErrMin= 2.87D-02
 ErrMax= 2.87D-02  0.00D+00 EMaxC= 1.00D-01 BMatC= 1.47D+00 BMatP= 1.47D+00
 IDIUse=3 WtCom= 7.13D-01 WtEn= 2.87D-01
 Coeff-Com:  0.100D+01
 Coeff-En:   0.100D+01
 Coeff:      0.100D+01
 Gap=     0.155 Goal=   None    Shift=    0.000
 GapD=    0.155 DampG=1.000 DampE=0.500 DampFc=0.5000 IDamp=-1.
 Damping current iteration by 5.00D-01
 RMSDP=1.52D-03 MaxDP=2.10D-01              OVMax= 1.72D-01

 Cycle   2  Pass 1  IDiag  1:
 RMSU=  7.49D-04    CP:  9.87D-01
 E= -3007.51635195861     Delta-E=       -0.318107536101 Rises=F Damp=T
 DIIS: error= 1.66D-02 at cycle   2 NSaved=   2.
 NSaved= 2 IEnMin= 2 EnMin= -3007.51635195861     IErMin= 2 ErrMin= 1.66D-02
 ErrMax= 1.66D-02  0.00D+00 EMaxC= 1.00D-01 BMatC= 2.87D-01 BMatP= 1.47D+00
 IDIUse=3 WtCom= 8.34D-01 WtEn= 1.66D-01
 Coeff-Com: -0.364D+00 0.136D+01
 Coeff-En:   0.000D+00 0.100D+01
 Coeff:     -0.303D+00 0.130D+01
 Gap=     0.171 Goal=   None    Shift=    0.000
 RMSDP=6.96D-04 MaxDP=7.31D-02 DE=-3.18D-01 OVMax= 1.60D-01

 Cycle   3  Pass 1  IDiag  1:
 RMSU=  6.53D-04    CP:  9.80D-01  1.31D+00
 E= -3007.75389340864     Delta-E=       -0.237541450026 Rises=F Damp=F
 DIIS: error= 1.13D-02 at cycle   3 NSaved=   3.
 NSaved= 3 IEnMin= 3 EnMin= -3007.75389340864     IErMin= 3 ErrMin= 1.13D-02
 ErrMax= 1.13D-02  0.00D+00 EMaxC= 1.00D-01 BMatC= 1.27D-01 BMatP= 2.87D-01
 IDIUse=3 WtCom= 8.87D-01 WtEn= 1.13D-01
 Coeff-Com: -0.306D+00 0.678D+00 0.628D+00
 Coeff-En:   0.000D+00 0.000D+00 0.100D+01
 Coeff:     -0.272D+00 0.602D+00 0.670D+00
 Gap=     0.160 Goal=   None    Shift=    0.000
 RMSDP=4.28D-04 MaxDP=5.67D-02 DE=-2.38D-01 OVMax= 9.38D-02

 Cycle   4  Pass 1  IDiag  1:
 RMSU=  2.28D-04    CP:  9.75D-01  1.60D+00  5.64D-01
 E= -3007.84756533416     Delta-E=       -0.093671925517 Rises=F Damp=F
 DIIS: error= 3.97D-03 at cycle   4 NSaved=   4.
 NSaved= 4 IEnMin= 4 EnMin= -3007.84756533416     IErMin= 4 ErrMin= 3.97D-03
 ErrMax= 3.97D-03  0.00D+00 EMaxC= 1.00D-01 BMatC= 1.82D-02 BMatP= 1.27D-01
 IDIUse=3 WtCom= 9.60D-01 WtEn= 3.97D-02
 Coeff-Com: -0.118D+00 0.237D+00 0.368D+00 0.513D+00
 Coeff-En:   0.000D+00 0.000D+00 0.903D-01 0.910D+00
 Coeff:     -0.113D+00 0.227D+00 0.357D+00 0.529D+00
 Gap=     0.157 Goal=   None    Shift=    0.000
 RMSDP=1.34D-04 MaxDP=1.42D-02 DE=-9.37D-02 OVMax= 2.56D-02

 Cycle   5  Pass 1  IDiag  1:
 RMSU=  6.11D-05    CP:  9.76D-01  1.57D+00  6.94D-01  6.49D-01
 E= -3007.86295632846     Delta-E=       -0.015390994306 Rises=F Damp=F
 DIIS: error= 6.16D-04 at cycle   5 NSaved=   5.
 NSaved= 5 IEnMin= 5 EnMin= -3007.86295632846     IErMin= 5 ErrMin= 6.16D-04
 ErrMax= 6.16D-04  0.00D+00 EMaxC= 1.00D-01 BMatC= 4.02D-04 BMatP= 1.82D-02
 IDIUse=3 WtCom= 9.94D-01 WtEn= 6.16D-03
 Coeff-Com: -0.307D-01 0.586D-01 0.119D+00 0.223D+00 0.630D+00
 Coeff-En:   0.000D+00 0.000D+00 0.000D+00 0.000D+00 0.100D+01
 Coeff:     -0.306D-01 0.583D-01 0.118D+00 0.222D+00 0.632D+00
 Gap=     0.158 Goal=   None    Shift=    0.000
 RMSDP=3.10D-05 MaxDP=8.32D-03 DE=-1.54D-02 OVMax= 1.09D-02

 Cycle   6  Pass 1  IDiag  1:
 RMSU=  2.51D-05    CP:  9.75D-01  1.58D+00  6.93D-01  7.18D-01  9.00D-01
 E= -3007.86332119451     Delta-E=       -0.000364866044 Rises=F Damp=F
 DIIS: error= 2.87D-04 at cycle   6 NSaved=   6.
 NSaved= 6 IEnMin= 6 EnMin= -3007.86332119451     IErMin= 6 ErrMin= 2.87D-04
 ErrMax= 2.87D-04  0.00D+00 EMaxC= 1.00D-01 BMatC= 7.59D-05 BMatP= 4.02D-04
 IDIUse=3 WtCom= 9.97D-01 WtEn= 2.87D-03
 Coeff-Com:  0.977D-02-0.210D-01-0.158D-01-0.103D-02 0.303D+00 0.725D+00
 Coeff-En:   0.000D+00 0.000D+00 0.000D+00 0.000D+00 0.000D+00 0.100D+01
 Coeff:      0.974D-02-0.210D-01-0.157D-01-0.103D-02 0.302D+00 0.726D+00
 Gap=     0.158 Goal=   None    Shift=    0.000
 RMSDP=1.41D-05 MaxDP=1.83D-03 DE=-3.65D-04 OVMax= 4.62D-03

 Cycle   7  Pass 1  IDiag  1:
 RMSU=  1.04D-05    CP:  9.75D-01  1.58D+00  6.99D-01  7.29D-01  1.03D+00
                    CP:  9.34D-01
 E= -3007.86343213254     Delta-E=       -0.000110938039 Rises=F Damp=F
 DIIS: error= 1.09D-04 at cycle   7 NSaved=   7.
 NSaved= 7 IEnMin= 7 EnMin= -3007.86343213254     IErMin= 7 ErrMin= 1.09D-04
 ErrMax= 1.09D-04  0.00D+00 EMaxC= 1.00D-01 BMatC= 9.03D-06 BMatP= 7.59D-05
 IDIUse=3 WtCom= 9.99D-01 WtEn= 1.09D-03
 Coeff-Com:  0.703D-02-0.143D-01-0.177D-01-0.250D-01 0.523D-01 0.283D+00
 Coeff-Com:  0.715D+00
 Coeff-En:   0.000D+00 0.000D+00 0.000D+00 0.000D+00 0.000D+00 0.000D+00
 Coeff-En:   0.100D+01
 Coeff:      0.702D-02-0.143D-01-0.176D-01-0.250D-01 0.523D-01 0.283D+00
 Coeff:      0.715D+00
 Gap=     0.158 Goal=   None    Shift=    0.000
 RMSDP=8.11D-06 MaxDP=1.89D-03 DE=-1.11D-04 OVMax= 4.59D-03

 Cycle   8  Pass 1  IDiag  1:
 RMSU=  4.96D-06    CP:  9.75D-01  1.58D+00  7.00D-01  7.40D-01  1.06D+00
                    CP:  1.14D+00  1.18D+00
 E= -3007.86346019132     Delta-E=       -0.000028058777 Rises=F Damp=F
 DIIS: error= 6.03D-05 at cycle   8 NSaved=   8.
 NSaved= 8 IEnMin= 8 EnMin= -3007.86346019132     IErMin= 8 ErrMin= 6.03D-05
 ErrMax= 6.03D-05  0.00D+00 EMaxC= 1.00D-01 BMatC= 3.55D-06 BMatP= 9.03D-06
 IDIUse=1 WtCom= 1.00D+00 WtEn= 0.00D+00
 Coeff-Com:  0.103D-02-0.176D-02-0.445D-02-0.128D-01-0.491D-01-0.597D-01
 Coeff-Com:  0.367D+00 0.760D+00
 Coeff:      0.103D-02-0.176D-02-0.445D-02-0.128D-01-0.491D-01-0.597D-01
 Coeff:      0.367D+00 0.760D+00
 Gap=     0.158 Goal=   None    Shift=    0.000
 RMSDP=5.68D-06 MaxDP=3.51D-04 DE=-2.81D-05 OVMax= 3.34D-03

 Cycle   9  Pass 1  IDiag  1:
 RMSU=  2.57D-06    CP:  9.75D-01  1.58D+00  7.01D-01  7.43D-01  1.08D+00
                    CP:  1.22D+00  1.56D+00  1.35D+00
 E= -3007.86347756952     Delta-E=       -0.000017378195 Rises=F Damp=F
 DIIS: error= 4.85D-05 at cycle   9 NSaved=   9.
 NSaved= 9 IEnMin= 9 EnMin= -3007.86347756952     IErMin= 9 ErrMin= 4.85D-05
 ErrMax= 4.85D-05  0.00D+00 EMaxC= 1.00D-01 BMatC= 1.03D-06 BMatP= 3.55D-06
 IDIUse=1 WtCom= 1.00D+00 WtEn= 0.00D+00
 Coeff-Com: -0.206D-02 0.424D-02 0.476D-02 0.404D-02-0.280D-01-0.126D+00
 Coeff-Com: -0.785D-01 0.175D+00 0.105D+01
 Coeff:     -0.206D-02 0.424D-02 0.476D-02 0.404D-02-0.280D-01-0.126D+00
 Coeff:     -0.785D-01 0.175D+00 0.105D+01
 Gap=     0.158 Goal=   None    Shift=    0.000
 RMSDP=5.78D-06 MaxDP=4.81D-04 DE=-1.74D-05 OVMax= 3.81D-03

 Cycle  10  Pass 1  IDiag  1:
 RMSU=  1.47D-06    CP:  9.75D-01  1.58D+00  7.01D-01  7.47D-01  1.10D+00
                    CP:  1.31D+00  1.90D+00  1.98D+00  1.68D+00
 E= -3007.86348876198     Delta-E=       -0.000011192464 Rises=F Damp=F
 DIIS: error= 2.58D-05 at cycle  10 NSaved=  10.
 NSaved=10 IEnMin=10 EnMin= -3007.86348876198     IErMin=10 ErrMin= 2.58D-05
 ErrMax= 2.58D-05  0.00D+00 EMaxC= 1.00D-01 BMatC= 5.11D-07 BMatP= 1.03D-06
 IDIUse=1 WtCom= 1.00D+00 WtEn= 0.00D+00
 Coeff-Com: -0.168D-02 0.326D-02 0.508D-02 0.917D-02 0.156D-01-0.447D-01
 Coeff-Com: -0.217D+00-0.368D+00 0.550D+00 0.105D+01
 Coeff:     -0.168D-02 0.326D-02 0.508D-02 0.917D-02 0.156D-01-0.447D-01
 Coeff:     -0.217D+00-0.368D+00 0.550D+00 0.105D+01
 Gap=     0.158 Goal=   None    Shift=    0.000
 RMSDP=5.56D-06 MaxDP=3.78D-04 DE=-1.12D-05 OVMax= 3.81D-03

 Cycle  11  Pass 1  IDiag  1:
 RMSU=  9.53D-07    CP:  9.75D-01  1.58D+00  7.01D-01  7.49D-01  1.11D+00
                    CP:  1.37D+00  2.23D+00  2.54D+00  2.65D+00  1.56D+00
 E= -3007.86349508118     Delta-E=       -0.000006319195 Rises=F Damp=F
 DIIS: error= 1.28D-05 at cycle  11 NSaved=  11.
 NSaved=11 IEnMin=11 EnMin= -3007.86349508118     IErMin=11 ErrMin= 1.28D-05
 ErrMax= 1.28D-05  0.00D+00 EMaxC= 1.00D-01 BMatC= 1.34D-07 BMatP= 5.11D-07
 IDIUse=1 WtCom= 1.00D+00 WtEn= 0.00D+00
 Coeff-Com: -0.928D-04 0.120D-03 0.689D-03 0.257D-02 0.157D-01 0.137D-01
 Coeff-Com: -0.520D-01-0.219D+00-0.689D-01 0.418D+00 0.889D+00
 Coeff:     -0.928D-04 0.120D-03 0.689D-03 0.257D-02 0.157D-01 0.137D-01
 Coeff:     -0.520D-01-0.219D+00-0.689D-01 0.418D+00 0.889D+00
 Gap=     0.158 Goal=   None    Shift=    0.000
 RMSDP=2.52D-06 MaxDP=1.70D-04 DE=-6.32D-06 OVMax= 1.72D-03

 Cycle  12  Pass 1  IDiag  1:
 RMSU=  5.15D-07    CP:  9.75D-01  1.58D+00  7.01D-01  7.50D-01  1.12D+00
                    CP:  1.40D+00  2.36D+00  2.80D+00  3.00D+00  2.08D+00
                    CP:  1.34D+00
 E= -3007.86349634614     Delta-E=       -0.000001264965 Rises=F Damp=F
 DIIS: error= 4.37D-06 at cycle  12 NSaved=  12.
 NSaved=12 IEnMin=12 EnMin= -3007.86349634614     IErMin=12 ErrMin= 4.37D-06
 ErrMax= 4.37D-06  0.00D+00 EMaxC= 1.00D-01 BMatC= 3.16D-08 BMatP= 1.34D-07
 IDIUse=1 WtCom= 1.00D+00 WtEn= 0.00D+00
 Coeff-Com:  0.499D-03-0.989D-03-0.138D-02-0.200D-02 0.962D-03 0.165D-01
 Coeff-Com:  0.607D-01 0.337D-01-0.191D+00-0.222D+00 0.316D+00 0.989D+00
 Coeff:      0.499D-03-0.989D-03-0.138D-02-0.200D-02 0.962D-03 0.165D-01
 Coeff:      0.607D-01 0.337D-01-0.191D+00-0.222D+00 0.316D+00 0.989D+00
 Gap=     0.158 Goal=   None    Shift=    0.000
 RMSDP=1.26D-06 MaxDP=8.74D-05 DE=-1.26D-06 OVMax= 8.99D-04

 Cycle  13  Pass 1  IDiag  1:
 RMSU=  5.66D-07    CP:  9.75D-01  1.58D+00  7.01D-01  7.50D-01  1.12D+00
                    CP:  1.40D+00  2.42D+00  2.90D+00  3.00D+00  2.36D+00
                    CP:  1.80D+00  1.83D+00
 E= -3007.86349660452     Delta-E=       -0.000000258384 Rises=F Damp=F
 DIIS: error= 1.55D-06 at cycle  13 NSaved=  13.
 NSaved=13 IEnMin=13 EnMin= -3007.86349660452     IErMin=13 ErrMin= 1.55D-06
 ErrMax= 1.55D-06  0.00D+00 EMaxC= 1.00D-01 BMatC= 5.71D-09 BMatP= 3.16D-08
 IDIUse=1 WtCom= 1.00D+00 WtEn= 0.00D+00
 Coeff-Com:  0.223D-03-0.435D-03-0.690D-03-0.123D-02-0.193D-02 0.374D-02
 Coeff-Com:  0.344D-01 0.461D-01-0.582D-01-0.165D+00-0.266D-01 0.397D+00
 Coeff-Com:  0.773D+00
 Coeff:      0.223D-03-0.435D-03-0.690D-03-0.123D-02-0.193D-02 0.374D-02
 Coeff:      0.344D-01 0.461D-01-0.582D-01-0.165D+00-0.266D-01 0.397D+00
 Coeff:      0.773D+00
 Gap=     0.158 Goal=   None    Shift=    0.000
 RMSDP=3.29D-07 MaxDP=2.30D-05 DE=-2.58D-07 OVMax= 2.08D-04

 Cycle  14  Pass 1  IDiag  1:
 RMSU=  9.22D-08    CP:  9.75D-01  1.58D+00  7.01D-01  7.50D-01  1.12D+00
                    CP:  1.40D+00  2.44D+00  2.92D+00  3.00D+00  2.44D+00
                    CP:  1.93D+00  2.13D+00  1.16D+00
 E= -3007.86349662644     Delta-E=       -0.000000021912 Rises=F Damp=F
 DIIS: error= 5.72D-07 at cycle  14 NSaved=  14.
 NSaved=14 IEnMin=14 EnMin= -3007.86349662644     IErMin=14 ErrMin= 5.72D-07
 ErrMax= 5.72D-07  0.00D+00 EMaxC= 1.00D-01 BMatC= 6.91D-10 BMatP= 5.71D-09
 IDIUse=1 WtCom= 1.00D+00 WtEn= 0.00D+00
 Coeff-Com: -0.167D-04 0.358D-04 0.255D-04-0.298D-04-0.620D-03-0.179D-02
 Coeff-Com:  0.601D-03 0.560D-02 0.167D-01-0.128D-01-0.498D-01-0.379D-01
 Coeff-Com:  0.215D+00 0.865D+00
 Coeff:     -0.167D-04 0.358D-04 0.255D-04-0.298D-04-0.620D-03-0.179D-02
 Coeff:      0.601D-03 0.560D-02 0.167D-01-0.128D-01-0.498D-01-0.379D-01
 Coeff:      0.215D+00 0.865D+00
 Gap=     0.158 Goal=   None    Shift=    0.000
 RMSDP=8.08D-08 MaxDP=6.52D-06 DE=-2.19D-08 OVMax= 4.13D-05

 Cycle  15  Pass 1  IDiag  1:
 RMSU=  5.55D-08    CP:  9.75D-01  1.58D+00  7.01D-01  7.50D-01  1.12D+00
                    CP:  1.40D+00  2.44D+00  2.92D+00  3.00D+00  2.45D+00
                    CP:  1.97D+00  2.20D+00  1.20D+00  1.16D+00
 E= -3007.86349662900     Delta-E=       -0.000000002565 Rises=F Damp=F
 DIIS: error= 4.25D-07 at cycle  15 NSaved=  15.
 NSaved=15 IEnMin=15 EnMin= -3007.86349662900     IErMin=15 ErrMin= 4.25D-07
 ErrMax= 4.25D-07  0.00D+00 EMaxC= 1.00D-01 BMatC= 2.18D-10 BMatP= 6.91D-10
 IDIUse=1 WtCom= 1.00D+00 WtEn= 0.00D+00
 Coeff-Com: -0.535D-04 0.106D-03 0.153D-03 0.233D-03 0.817D-04-0.160D-02
 Coeff-Com: -0.672D-02-0.740D-02 0.204D-01 0.256D-01-0.170D-01-0.100D+00
 Coeff-Com: -0.637D-01 0.374D+00 0.777D+00
 Coeff:     -0.535D-04 0.106D-03 0.153D-03 0.233D-03 0.817D-04-0.160D-02
 Coeff:     -0.672D-02-0.740D-02 0.204D-01 0.256D-01-0.170D-01-0.100D+00
 Coeff:     -0.637D-01 0.374D+00 0.777D+00
 Gap=     0.158 Goal=   None    Shift=    0.000
 RMSDP=5.10D-08 MaxDP=3.29D-06 DE=-2.56D-09 OVMax= 2.68D-05

 Cycle  16  Pass 1  IDiag  1:
 RMSU=  2.23D-08    CP:  9.75D-01  1.58D+00  7.01D-01  7.50D-01  1.12D+00
                    CP:  1.40D+00  2.44D+00  2.92D+00  3.00D+00  2.46D+00
                    CP:  1.98D+00  2.24D+00  1.22D+00  1.39D+00  1.35D+00
 E= -3007.86349663022     Delta-E=       -0.000000001221 Rises=F Damp=F
 DIIS: error= 2.35D-07 at cycle  16 NSaved=  16.
 NSaved=16 IEnMin=16 EnMin= -3007.86349663022     IErMin=16 ErrMin= 2.35D-07
 ErrMax= 2.35D-07  0.00D+00 EMaxC= 1.00D-01 BMatC= 5.20D-11 BMatP= 2.18D-10
 IDIUse=1 WtCom= 1.00D+00 WtEn= 0.00D+00
 Coeff-Com: -0.135D-04 0.260D-04 0.431D-04 0.771D-04 0.152D-03-0.857D-04
 Coeff-Com: -0.212D-02-0.377D-02 0.398D-02 0.988D-02 0.578D-02-0.232D-01
 Coeff-Com: -0.602D-01-0.726D-01 0.276D+00 0.866D+00
 Coeff:     -0.135D-04 0.260D-04 0.431D-04 0.771D-04 0.152D-03-0.857D-04
 Coeff:     -0.212D-02-0.377D-02 0.398D-02 0.988D-02 0.578D-02-0.232D-01
 Coeff:     -0.602D-01-0.726D-01 0.276D+00 0.866D+00
 Gap=     0.158 Goal=   None    Shift=    0.000
 RMSDP=2.65D-08 MaxDP=1.71D-06 DE=-1.22D-09 OVMax= 1.53D-05

 Cycle  17  Pass 1  IDiag  1:
 RMSU=  1.17D-08    CP:  9.75D-01  1.58D+00  7.01D-01  7.50D-01  1.12D+00
                    CP:  1.40D+00  2.44D+00  2.92D+00  3.00D+00  2.46D+00
                    CP:  1.99D+00  2.24D+00  1.23D+00  1.50D+00  1.67D+00
                    CP:  1.35D+00
 E= -3007.86349663028     Delta-E=       -0.000000000060 Rises=F Damp=F
 DIIS: error= 1.67D-07 at cycle  17 NSaved=  17.
 NSaved=17 IEnMin=17 EnMin= -3007.86349663028     IErMin=17 ErrMin= 1.67D-07
 ErrMax= 1.67D-07  0.00D+00 EMaxC= 1.00D-01 BMatC= 1.74D-11 BMatP= 5.20D-11
 IDIUse=1 WtCom= 1.00D+00 WtEn= 0.00D+00
 Coeff-Com:  0.127D-04-0.255D-04-0.356D-04-0.504D-04 0.240D-04 0.538D-03
 Coeff-Com:  0.145D-02 0.866D-03-0.502D-02-0.560D-02 0.789D-02 0.246D-01
 Coeff-Com: -0.109D-02-0.170D+00-0.129D+00 0.319D+00 0.957D+00
 Coeff:      0.127D-04-0.255D-04-0.356D-04-0.504D-04 0.240D-04 0.538D-03
 Coeff:      0.145D-02 0.866D-03-0.502D-02-0.560D-02 0.789D-02 0.246D-01
 Coeff:     -0.109D-02-0.170D+00-0.129D+00 0.319D+00 0.957D+00
 Gap=     0.158 Goal=   None    Shift=    0.000
 RMSDP=2.21D-08 MaxDP=1.54D-06 DE=-6.00D-11 OVMax= 1.41D-05

 Cycle  18  Pass 1  IDiag  1:
 RMSU=  7.16D-09    CP:  9.75D-01  1.58D+00  7.01D-01  7.50D-01  1.12D+00
                    CP:  1.40D+00  2.44D+00  2.92D+00  3.00D+00  2.46D+00
                    CP:  1.99D+00  2.25D+00  1.23D+00  1.58D+00  1.89D+00
                    CP:  1.79D+00  1.70D+00
 E= -3007.86349663048     Delta-E=       -0.000000000198 Rises=F Damp=F
 DIIS: error= 8.66D-08 at cycle  18 NSaved=  18.
 NSaved=18 IEnMin=18 EnMin= -3007.86349663048     IErMin=18 ErrMin= 8.66D-08
 ErrMax= 8.66D-08  0.00D+00 EMaxC= 1.00D-01 BMatC= 5.53D-12 BMatP= 1.74D-11
 IDIUse=1 WtCom= 1.00D+00 WtEn= 0.00D+00
 Coeff-Com:  0.902D-05-0.177D-04-0.282D-04-0.447D-04-0.469D-04 0.237D-03
 Coeff-Com:  0.131D-02 0.161D-02-0.315D-02-0.599D-02 0.125D-02 0.186D-01
 Coeff-Com:  0.232D-01-0.439D-01-0.139D+00-0.206D+00 0.350D+00 0.100D+01
 Coeff:      0.902D-05-0.177D-04-0.282D-04-0.447D-04-0.469D-04 0.237D-03
 Coeff:      0.131D-02 0.161D-02-0.315D-02-0.599D-02 0.125D-02 0.186D-01
 Coeff:      0.232D-01-0.439D-01-0.139D+00-0.206D+00 0.350D+00 0.100D+01
 Gap=     0.158 Goal=   None    Shift=    0.000
 RMSDP=1.48D-08 MaxDP=9.43D-07 DE=-1.98D-10 OVMax= 9.25D-06

 Cycle  19  Pass 1  IDiag  1:
 RMSU=  3.13D-09    CP:  9.75D-01  1.58D+00  7.01D-01  7.50D-01  1.12D+00
                    CP:  1.40D+00  2.44D+00  2.92D+00  3.00D+00  2.46D+00
                    CP:  1.99D+00  2.25D+00  1.24D+00  1.63D+00  2.04D+00
                    CP:  2.09D+00  2.39D+00  1.47D+00
 E= -3007.86349663057     Delta-E=       -0.000000000095 Rises=F Damp=F
 DIIS: error= 4.05D-08 at cycle  19 NSaved=  19.
 NSaved=19 IEnMin=19 EnMin= -3007.86349663057     IErMin=19 ErrMin= 4.05D-08
 ErrMax= 4.05D-08  0.00D+00 EMaxC= 1.00D-01 BMatC= 1.38D-12 BMatP= 5.53D-12
 IDIUse=1 WtCom= 1.00D+00 WtEn= 0.00D+00
 Coeff-Com: -0.614D-06 0.138D-05 0.310D-06-0.270D-06-0.245D-04-0.766D-04
 Coeff-Com:  0.162D-04 0.278D-03 0.551D-03-0.544D-03-0.193D-02-0.100D-02
 Coeff-Com:  0.808D-02 0.329D-01-0.358D-02-0.155D+00-0.166D+00 0.366D+00
 Coeff-Com:  0.921D+00
 Coeff:     -0.614D-06 0.138D-05 0.310D-06-0.270D-06-0.245D-04-0.766D-04
 Coeff:      0.162D-04 0.278D-03 0.551D-03-0.544D-03-0.193D-02-0.100D-02
 Coeff:      0.808D-02 0.329D-01-0.358D-02-0.155D+00-0.166D+00 0.366D+00
 Coeff:      0.921D+00
 Gap=     0.158 Goal=   None    Shift=    0.000
 RMSDP=6.60D-09 MaxDP=4.39D-07 DE=-9.46D-11 OVMax= 4.25D-06

 SCF Done:  E(RwB97XD) =  -3007.86349663     A.U. after   19 cycles
            NFock= 19  Conv=0.66D-08     -V/T= 2.0107
 KE= 2.976069430847D+03 PE=-2.579343756685D+04 EE= 1.040940778282D+04
 Leave Link  502 at Fri Apr 29 07:02:51 2022, MaxMem= 10066329600 cpu:           12631.0 elap:             542.7
 (Enter /sw/apps/gaussian-16.0/g16/l801.exe)
 DoSCS=F DFT=T ScalE2(SS,OS)=  1.000000  1.000000
 ExpMin= 3.36D-02 ExpMax= 4.95D+03 ExpMxC= 7.45D+02 IAcc=3 IRadAn=         5 AccDes= 0.00D+00
 HarFok:  IExCor=  205 AccDes= 0.00D+00 IRadAn=         5 IDoV=-2 UseB2=F ITyADJ=14
 ICtDFT= 12500011 ScaDFX=  1.000000  1.000000  1.000000  1.000000
 GSVD:  LWork=       -5460 too small for GESVD, short by       25550 words or       25550 for optimal perf.
 Largest valence mixing into a core orbital is  1.41D-04
 Largest core mixing into a valence orbital is  5.57D-05
 Range of M.O.s used for correlation:    71  1298
 NBasis=  1298 NAE=   246 NBE=   246 NFC=    70 NFV=     0
 NROrb=   1228 NOA=   176 NOB=   176 NVA=  1052 NVB=  1052
 Leave Link  801 at Fri Apr 29 07:02:51 2022, MaxMem= 10066329600 cpu:               7.3 elap:               0.3
 (Enter /sw/apps/gaussian-16.0/g16/l914.exe)
 RHF ground state
 Two-electron integrals replicated using symmetry.
 MDV= 10066329600 DFT=T DoStab=F Mixed=T DoRPA=T DoScal=F NonHer=T
 Making orbital integer symmetry assigments:
 Orbital symmetries:
       Occupied  (A) (A) (A) (A) (A) (A) (A) (A) (A) (A) (A) (A)
                 (A) (A) (A) (A) (A) (A) (A) (A) (A) (A) (A) (A)
                 (A) (A) (A) (A) (A) (A) (A) (A) (A) (A) (A) (A)
                 (A) (A) (A) (A) (A) (A) (A) (A) (A) (A) (A) (A)
                 (A) (A) (A) (A) (A) (A) (A) (A) (A) (A) (A) (A)
                 (A) (A) (A) (A) (A) (A) (A) (A) (A) (A) (A) (A)
                 (A) (A) (A) (A) (A) (A) (A) (A) (A) (A) (A) (A)
                 (A) (A) (A) (A) (A) (A) (A) (A) (A) (A) (A) (A)
                 (A) (A) (A) (A) (A) (A) (A) (A) (A) (A) (A) (A)
                 (A) (A) (A) (A) (A) (A) (A) (A) (A) (A) (A) (A)
                 (A) (A) (A) (A) (A) (A) (A) (A) (A) (A) (A) (A)
                 (A) (A) (A) (A) (A) (A) (A) (A) (A) (A) (A) (A)
                 (A) (A) (A) (A) (A) (A) (A) (A) (A) (A) (A) (A)
                 (A) (A) (A) (A) (A) (A) (A) (A) (A) (A) (A) (A)
                 (A) (A) (A) (A) (A) (A) (A) (A) (A) (A) (A) (A)
                 (A) (A) (A) (A) (A) (A) (A) (A) (A) (A) (A) (A)
                 (A) (A) (A) (A) (A) (A) (A) (A) (A) (A) (A) (A)
                 (A) (A) (A) (A) (A) (A) (A) (A) (A) (A) (A) (A)
                 (A) (A) (A) (A) (A) (A) (A) (A) (A) (A) (A) (A)
                 (A) (A) (A) (A) (A) (A) (A) (A) (A) (A) (A) (A)
                 (A) (A) (A) (A) (A) (A)
       Virtual   (A) (A) (A) (A) (A) (A) (A) (A) (A) (A) (A) (A)
                 (A) (A) (A) (A) (A) (A) (A) (A) (A) (A) (A) (A)
                 (A) (A) (A) (A) (A) (A) (A) (A) (A) (A) (A) (A)
                 (A) (A) (A) (A) (A) (A) (A) (A) (A) (A) (A) (A)
                 (A) (A) (A) (A) (A) (A) (A) (A) (A) (A) (A) (A)
                 (A) (A) (A) (A) (A) (A) (A) (A) (A) (A) (A) (A)
                 (A) (A) (A) (A) (A) (A) (A) (A) (A) (A) (A) (A)
                 (A) (A) (A) (A) (A) (A) (A) (A) (A) (A) (A) (A)
                 (A) (A) (A) (A) (A) (A) (A) (A) (A) (A) (A) (A)
                 (A) (A) (A) (A) (A) (A) (A) (A) (A) (A) (A) (A)
                 (A) (A) (A) (A) (A) (A) (A) (A) (A) (A) (A) (A)
                 (A) (A) (A) (A) (A) (A) (A) (A) (A) (A) (A) (A)
                 (A) (A) (A) (A) (A) (A) (A) (A) (A) (A) (A) (A)
                 (A) (A) (A) (A) (A) (A) (A) (A) (A) (A) (A) (A)
                 (A) (A) (A) (A) (A) (A) (A) (A) (A) (A) (A) (A)
                 (A) (A) (A) (A) (A) (A) (A) (A) (A) (A) (A) (A)
                 (A) (A) (A) (A) (A) (A) (A) (A) (A) (A) (A) (A)
                 (A) (A) (A) (A) (A) (A) (A) (A) (A) (A) (A) (A)
                 (A) (A) (A) (A) (A) (A) (A) (A) (A) (A) (A) (A)
                 (A) (A) (A) (A) (A) (A) (A) (A) (A) (A) (A) (A)
                 (A) (A) (A) (A) (A) (A) (A) (A) (A) (A) (A) (A)
                 (A) (A) (A) (A) (A) (A) (A) (A) (A) (A) (A) (A)
                 (A) (A) (A) (A) (A) (A) (A) (A) (A) (A) (A) (A)
                 (A) (A) (A) (A) (A) (A) (A) (A) (A) (A) (A) (A)
                 (A) (A) (A) (A) (A) (A) (A) (A) (A) (A) (A) (A)
                 (A) (A) (A) (A) (A) (A) (A) (A) (A) (A) (A) (A)
                 (A) (A) (A) (A) (A) (A) (A) (A) (A) (A) (A) (A)
                 (A) (A) (A) (A) (A) (A) (A) (A) (A) (A) (A) (A)
                 (A) (A) (A) (A) (A) (A) (A) (A) (A) (A) (A) (A)
                 (A) (A) (A) (A) (A) (A) (A) (A) (A) (A) (A) (A)
                 (A) (A) (A) (A) (A) (A) (A) (A) (A) (A) (A) (A)
                 (A) (A) (A) (A) (A) (A) (A) (A) (A) (A) (A) (A)
                 (A) (A) (A) (A) (A) (A) (A) (A) (A) (A) (A) (A)
                 (A) (A) (A) (A) (A) (A) (A) (A) (A) (A) (A) (A)
                 (A) (A) (A) (A) (A) (A) (A) (A) (A) (A) (A) (A)
                 (A) (A) (A) (A) (A) (A) (A) (A) (A) (A) (A) (A)
                 (A) (A) (A) (A) (A) (A) (A) (A) (A) (A) (A) (A)
                 (A) (A) (A) (A) (A) (A) (A) (A) (A) (A) (A) (A)
                 (A) (A) (A) (A) (A) (A) (A) (A) (A) (A) (A) (A)
                 (A) (A) (A) (A) (A) (A) (A) (A) (A) (A) (A) (A)
                 (A) (A) (A) (A) (A) (A) (A) (A) (A) (A) (A) (A)
                 (A) (A) (A) (A) (A) (A) (A) (A) (A) (A) (A) (A)
                 (A) (A) (A) (A) (A) (A) (A) (A) (A) (A) (A) (A)
                 (A) (A) (A) (A) (A) (A) (A) (A) (A) (A) (A) (A)
                 (A) (A) (A) (A) (A) (A) (A) (A) (A) (A) (A) (A)
                 (A) (A) (A) (A) (A) (A) (A) (A) (A) (A) (A) (A)
                 (A) (A) (A) (A) (A) (A) (A) (A) (A) (A) (A) (A)
                 (A) (A) (A) (A) (A) (A) (A) (A) (A) (A) (A) (A)
                 (A) (A) (A) (A) (A) (A) (A) (A) (A) (A) (A) (A)
                 (A) (A) (A) (A) (A) (A) (A) (A) (A) (A) (A) (A)
                 (A) (A) (A) (A) (A) (A) (A) (A) (A) (A) (A) (A)
                 (A) (A) (A) (A) (A) (A) (A) (A) (A) (A) (A) (A)
                 (A) (A) (A) (A) (A) (A) (A) (A) (A) (A) (A) (A)
                 (A) (A) (A) (A) (A) (A) (A) (A) (A) (A) (A) (A)
                 (A) (A) (A) (A) (A) (A) (A) (A) (A) (A) (A) (A)
                 (A) (A) (A) (A) (A) (A) (A) (A) (A) (A) (A) (A)
                 (A) (A) (A) (A) (A) (A) (A) (A) (A) (A) (A) (A)
                 (A) (A) (A) (A) (A) (A) (A) (A) (A) (A) (A) (A)
                 (A) (A) (A) (A) (A) (A) (A) (A) (A) (A) (A) (A)
                 (A) (A) (A) (A) (A) (A) (A) (A) (A) (A) (A) (A)
                 (A) (A) (A) (A) (A) (A) (A) (A) (A) (A) (A) (A)
                 (A) (A) (A) (A) (A) (A) (A) (A) (A) (A) (A) (A)
                 (A) (A) (A) (A) (A) (A) (A) (A) (A) (A) (A) (A)
                 (A) (A) (A) (A) (A) (A) (A) (A) (A) (A) (A) (A)
                 (A) (A) (A) (A) (A) (A) (A) (A) (A) (A) (A) (A)
                 (A) (A) (A) (A) (A) (A) (A) (A) (A) (A) (A) (A)
                 (A) (A) (A) (A) (A) (A) (A) (A) (A) (A) (A) (A)
                 (A) (A) (A) (A) (A) (A) (A) (A) (A) (A) (A) (A)
                 (A) (A) (A) (A) (A) (A) (A) (A) (A) (A) (A) (A)
                 (A) (A) (A) (A) (A) (A) (A) (A) (A) (A) (A) (A)
                 (A) (A) (A) (A) (A) (A) (A) (A) (A) (A) (A) (A)
                 (A) (A) (A) (A) (A) (A) (A) (A) (A) (A) (A) (A)
                 (A) (A) (A) (A) (A) (A) (A) (A) (A) (A) (A) (A)
                 (A) (A) (A) (A) (A) (A) (A) (A) (A) (A) (A) (A)
                 (A) (A) (A) (A) (A) (A) (A) (A) (A) (A) (A) (A)
                 (A) (A) (A) (A) (A) (A) (A) (A) (A) (A) (A) (A)
                 (A) (A) (A) (A) (A) (A) (A) (A) (A) (A) (A) (A)
                 (A) (A) (A) (A) (A) (A) (A) (A) (A) (A) (A) (A)
                 (A) (A) (A) (A) (A) (A) (A) (A) (A) (A) (A) (A)
                 (A) (A) (A) (A) (A) (A) (A) (A) (A) (A) (A) (A)
                 (A) (A) (A) (A) (A) (A) (A) (A) (A) (A) (A) (A)
                 (A) (A) (A) (A) (A) (A) (A) (A) (A) (A) (A) (A)
                 (A) (A) (A) (A) (A) (A) (A) (A) (A) (A) (A) (A)
                 (A) (A) (A) (A) (A) (A) (A) (A) (A) (A) (A) (A)
                 (A) (A) (A) (A) (A) (A) (A) (A) (A) (A) (A) (A)
                 (A) (A) (A) (A) (A) (A) (A) (A) (A) (A) (A) (A)
                 (A) (A) (A) (A) (A) (A) (A) (A) (A) (A) (A) (A)
                 (A) (A) (A) (A) (A) (A) (A) (A)
    20 initial guesses have been made.
 Convergence on wavefunction:    0.001000000000000
 Davidson Disk Diagonalization:  ConvIn= 1.00D-03 SkipCon=T Conv= 1.00D-03.
 Max sub-space:  2000 roots to seek:    20 dimension of matrix:       370304
 Iteration     1 Dimension    20 NMult     0 NNew     20
 CISAX will form    20 AO SS matrices at one time.
 NMat=    20 NSing=    20 JSym2X= 0.
 FoFJK:  IHMeth= 1 ICntrl=       0 DoSepK=T KAlg= 0 I1Cent=           0 FoldK=F
 IRaf=         1 NMat=      40 IRICut=       1 DoRegI=T DoRafI=F ISym2E= 0 IDoP0=3 IntGTp=3.
 FoFCou: FMM=T IPFlag=           0 FMFlag=      100000 FMFlg1=        2001
         NFxFlg=           0 DoJE=F BraDBF=F KetDBF=F FulRan=T
         wScrn=  0.000000 ICntrl=       500 IOpCl=  0 I1Cent=           0 NGrid=           0
         NMat0=   20 NMatS0=     20 NMatT0=    0 NMatD0=   20 NMtDS0=    0 NMtDT0=    0
 Symmetry not used in FoFCou.
 FMM levels:  10  Number of levels for PrismC:   9
 New state      3 was old state      4
 New state      4 was old state      8
 New state      5 was old state      9
 Excitation Energies [eV] at current iteration:
 Root      1 :     2.220377755601409
 Root      2 :     2.595050076015359
 Root      3 :     3.834585615511056
 Root      4 :     3.999581952932006
 Root      5 :     4.174963415789163
 Root      6 :     4.366686563080656
 Root      7 :     4.390638203223765
 Root      8 :     4.440080180034721
 Root      9 :     4.513977230804426
 Root     10 :     4.537708059312682
 Root     11 :     4.596298946477916
 Root     12 :     4.861032582832882
 Root     13 :     4.949248620159376
 Root     14 :     5.109143948707023
 Root     15 :     5.145366111016741
 Root     16 :     5.353031088356941
 Root     17 :     5.468408476866620
 Root     18 :     5.993394027156194
 Root     19 :     6.068177658540076
 Root     20 :     6.969472466952227
 Iteration     2 Dimension    30 NMult    20 NNew     10
 CISAX will form    10 AO SS matrices at one time.
 NMat=    10 NSing=    10 JSym2X= 0.
 Root      1 not converged, maximum delta is    0.075043703242229
 Root      2 not converged, maximum delta is    0.061309476823962
 Root      3 not converged, maximum delta is    0.119283303990132
 Root      4 not converged, maximum delta is    0.238235581694980
 Root      5 not converged, maximum delta is    0.199696523279226
 Excitation Energies [eV] at current iteration:
 Root      1 :     1.719085672283642   Change is   -0.501292083317768
 Root      2 :     2.181441689358047   Change is   -0.413608386657312
 Root      3 :     3.464010290475050   Change is   -0.370575325036007
 Root      4 :     3.564633461539779   Change is   -0.434948491392227
 Root      5 :     3.623771688308801   Change is   -0.551191727480362
 Iteration     3 Dimension    40 NMult    30 NNew     10
 CISAX will form    10 AO SS matrices at one time.
 NMat=    10 NSing=    10 JSym2X= 0.
 Root      1 not converged, maximum delta is    0.019834037879188
 Root      2 not converged, maximum delta is    0.014680674065051
 Root      3 not converged, maximum delta is    0.343502638332839
 Root      4 not converged, maximum delta is    0.559720880270054
 Root      5 not converged, maximum delta is    0.358547834984789
 Excitation Energies [eV] at current iteration:
 Root      1 :     1.678841601167754   Change is   -0.040244071115887
 Root      2 :     2.160479929712933   Change is   -0.020961759645114
 Root      3 :     3.393313950662973   Change is   -0.070696339812076
 Root      4 :     3.467495763650170   Change is   -0.097137697889609
 Root      5 :     3.558806200521407   Change is   -0.064965487787394
 Iteration     4 Dimension    50 NMult    40 NNew     10
 CISAX will form    10 AO SS matrices at one time.
 NMat=    10 NSing=    10 JSym2X= 0.
 Root      1 not converged, maximum delta is    0.005259802855545
 Root      2 not converged, maximum delta is    0.002977074252066
 Root      3 not converged, maximum delta is    0.032567042963916
 Root      4 not converged, maximum delta is    0.044110333552555
 Root      5 not converged, maximum delta is    0.058729757072145
 Excitation Energies [eV] at current iteration:
 Root      1 :     1.674068730939322   Change is   -0.004772870228433
 Root      2 :     2.158069985267492   Change is   -0.002409944445441
 Root      3 :     3.377651533143961   Change is   -0.015662417519012
 Root      4 :     3.460139745501634   Change is   -0.007356018148537
 Root      5 :     3.545852969416163   Change is   -0.012953231105244
 Iteration     5 Dimension    60 NMult    50 NNew     10
 CISAX will form    10 AO SS matrices at one time.
 NMat=    10 NSing=    10 JSym2X= 0.
 Root      1 not converged, maximum delta is    0.001411697755831
 Root      2 has converged.
 Root      3 not converged, maximum delta is    0.005863353197693
 Root      4 not converged, maximum delta is    0.009466479632079
 Root      5 not converged, maximum delta is    0.022489531669457
 Excitation Energies [eV] at current iteration:
 Root      1 :     1.673633543328994   Change is   -0.000435187610328
 Root      2 :     2.157875718672690   Change is   -0.000194266594802
 Root      3 :     3.375973123943041   Change is   -0.001678409200919
 Root      4 :     3.459238627018930   Change is   -0.000901118482704
 Root      5 :     3.542998522903658   Change is   -0.002854446512505
 Iteration     6 Dimension    68 NMult    60 NNew      8
 CISAX will form     8 AO SS matrices at one time.
 NMat=     8 NSing=     8 JSym2X= 0.
 Root      1 has converged.
 Root      2 has converged.
 Root      3 not converged, maximum delta is    0.002471590153564
 Root      4 not converged, maximum delta is    0.001532808589262
 Root      5 not converged, maximum delta is    0.007250126969627
 Excitation Energies [eV] at current iteration:
 Root      1 :     1.673594762695033   Change is   -0.000038780633961
 Root      2 :     2.157874520464997   Change is   -0.000001198207692
 Root      3 :     3.375727480915493   Change is   -0.000245643027549
 Root      4 :     3.459127330588019   Change is   -0.000111296430911
 Root      5 :     3.542397312218651   Change is   -0.000601210685008
 Iteration     7 Dimension    74 NMult    68 NNew      6
 CISAX will form     6 AO SS matrices at one time.
 NMat=     6 NSing=     6 JSym2X= 0.
 Root      1 has converged.
 Root      2 has converged.
 Root      3 has converged.
 Root      4 has converged.
 Root      5 not converged, maximum delta is    0.001834740283268
 Excitation Energies [eV] at current iteration:
 Root      1 :     1.673594671793550   Change is   -0.000000090901483
 Root      2 :     2.157873940241734   Change is   -0.000000580223263
 Root      3 :     3.375699832380836   Change is   -0.000027648534657
 Root      4 :     3.459114126550872   Change is   -0.000013204037147
 Root      5 :     3.542311152845907   Change is   -0.000086159372744
 Iteration     8 Dimension    76 NMult    74 NNew      2
 CISAX will form     2 AO SS matrices at one time.
 NMat=     2 NSing=     2 JSym2X= 0.
 Root      1 has converged.
 Root      2 has converged.
 Root      3 has converged.
 Root      4 has converged.
 Root      5 has converged.
 Excitation Energies [eV] at current iteration:
 Root      1 :     1.673594630283337   Change is   -0.000000041510213
 Root      2 :     2.157873747939608   Change is   -0.000000192302126
 Root      3 :     3.375699528885694   Change is   -0.000000303495142
 Root      4 :     3.459113819069863   Change is   -0.000000307481009
 Root      5 :     3.542295845195954   Change is   -0.000015307649953
 Convergence achieved on expansion vectors.
 ***********************************************************************
 Excited states from <AA,BB:AA,BB> singles matrix:
 ***********************************************************************
 
 1PDM for each excited state written to RWF  633
 Ground to excited state transition densities written to RWF  633
 Ground to excited state transition electric dipole moments (Au):
       state          X           Y           Z        Dip. S.      Osc.
         1         1.5166      2.7240     -0.5066      9.9765      0.4091
         2        -1.2235      1.0153      0.0926      2.5363      0.1341
         3        -0.2865      0.2643     -0.0142      0.1521      0.0126
         4         0.3397     -0.2954      0.0078      0.2027      0.0172
         5        -1.3761      0.8725      0.1815      2.6878      0.2333
 Ground to excited state transition velocity dipole moments (Au):
       state          X           Y           Z        Dip. S.      Osc.
         1        -0.0896     -0.1637      0.0296      0.0357      0.3872
         2         0.0910     -0.0773     -0.0073      0.0143      0.1203
         3         0.0322     -0.0329     -0.0004      0.0021      0.0114
         4        -0.0391      0.0348     -0.0015      0.0027      0.0144
         5         0.1734     -0.1112     -0.0236      0.0430      0.2201
 Ground to excited state transition magnetic dipole moments (Au):
       state          X           Y           Z
         1         0.0592      0.2808      1.7806
         2         0.0105     -0.0905      1.1526
         3        -0.2887     -0.7906     -0.1230
         4         0.1757     -0.1354      0.7886
         5        -0.1666     -0.2005      0.8151
 Ground to excited state transition velocity quadrupole moments (Au):
       state          XX          YY          ZZ          XY          XZ          YZ
         1         1.9382     -0.6978      0.0044      1.4752     -0.2842      0.0513
         2        -1.7990     -0.1535      0.0105      0.8657      0.0754     -0.0331
         3        -0.5212     -0.1340      0.0071      0.3760      0.0020     -0.0191
         4         0.5371      0.5071     -0.0353     -0.6058      0.1399     -0.0364
         5        -3.3170      0.0327      0.0060      1.2999      0.2250     -0.1383
 <0|del|b> * <b|rxdel|0> + <0|del|b> * <b|delr+rdel|0>
 Rotatory Strengths (R) in cgs (10**-40 erg-esu-cm/Gauss)
       state          XX          YY          ZZ    R(velocity)    E-M Angle
         1        22.8307     -4.8833     -0.9296      5.6726       89.75
         2        -8.5512    -18.5060     22.8994     -1.3859       90.19
         3        74.0782    -27.6114     49.2981     31.9216       64.59
         4       -27.4266    -21.0314    -22.6279    -23.6953      107.33
         5        -7.2105   -112.4426    -20.7080    -46.7870       98.37
 1/2[<0|r|b>*<b|rxdel|0> + (<0|rxdel|b>*<b|r|0>)*]
 Rotatory Strengths (R) in cgs (10**-40 erg-esu-cm/Gauss)
       state          XX          YY          ZZ     R(length)
         1       -63.5112   -540.9347    637.8494     11.1345
         2         9.0821     64.9959    -75.4996     -0.4739
         3       -58.5028    147.7405     -1.2351     29.3342
         4       -42.2189    -28.2852     -4.3777    -24.9606
         5      -162.0802    123.7181   -104.6170    -47.6597
  1/2[<0|del|b>*<b|r|0> + (<0|r|b>*<b|del|0>)*] (Au)
       state          X           Y           Z        Dip. S.   Osc.(frdel)
         1        -0.1359     -0.4460     -0.0150      0.5969      0.3980
         2        -0.1114     -0.0785     -0.0007      0.1905      0.1270
         3        -0.0092     -0.0087      0.0000      0.0179      0.0119
         4        -0.0133     -0.0103     -0.0000      0.0236      0.0157
         5        -0.2386     -0.0970     -0.0043      0.3399      0.2266

 Excitation energies and oscillator strengths:
 
 Excited State   1:      Singlet-A      1.6736 eV  740.83 nm  f=0.4091  <S**2>=0.000
     245 -> 248        0.18083
     246 -> 247        0.68463
     245 <- 248        0.11395
 This state for optimization and/or second-order correction.
 Total Energy, E(TD-HF/TD-DFT) =  -3007.80199316    
 Copying the excited state density for this state as the 1-particle RhoCI density.
 
 Excited State   2:      Singlet-A      2.1579 eV  574.57 nm  f=0.1341  <S**2>=0.000
     245 -> 247        0.64782
     246 -> 248       -0.26914
 
 Excited State   3:      Singlet-A      3.3757 eV  367.28 nm  f=0.0126  <S**2>=0.000
     239 -> 247       -0.13993
     239 -> 249        0.11496
     240 -> 247        0.48348
     240 -> 249       -0.31738
[...]
 Alpha virt. eigenvalues --    1.22596   1.22963   1.23229   1.23626   1.23945
 Alpha virt. eigenvalues --    1.24296   1.24355   1.24920   1.26041   1.26490
 Alpha virt. eigenvalues --    1.26646   1.27338   1.28134   1.28297   1.28714
 Alpha virt. eigenvalues --    1.29318   1.29529   1.30103   1.30304   1.30499
 Alpha virt. eigenvalues --    1.31174   1.31905   1.32040   1.32251   1.32544
 Alpha virt. eigenvalues --    1.33146   1.33593   1.33932   1.34894   1.35016
 Alpha virt. eigenvalues --    1.35718   1.36159   1.36285   1.36584   1.36813
 Alpha virt. eigenvalues --    1.37572   1.38077   1.38616   1.38899   1.39200
 Alpha virt. eigenvalues --    1.39999   1.40422   1.40695   1.41516   1.41804
 Alpha virt. eigenvalues --    1.42180   1.42484   1.43095   1.43327   1.44042
 Alpha virt. eigenvalues --    1.44387   1.44889   1.45235   1.45464   1.45875
 Alpha virt. eigenvalues --    1.46377   1.46757   1.47029   1.47904   1.47962
 Alpha virt. eigenvalues --    1.48406   1.48682   1.49135   1.49709   1.50262
 Alpha virt. eigenvalues --    1.51188   1.51609   1.51688   1.51891   1.52071
 Alpha virt. eigenvalues --    1.52792   1.52882   1.53053   1.53251   1.53783
 Alpha virt. eigenvalues --    1.53998   1.54317   1.54936   1.55648   1.56316
 Alpha virt. eigenvalues --    1.56598   1.57089   1.57346   1.57624   1.58389
 Alpha virt. eigenvalues --    1.58718   1.58997   1.59270   1.59676   1.59958
 Alpha virt. eigenvalues --    1.60144   1.60661   1.60853   1.61088   1.61236
 Alpha virt. eigenvalues --    1.61315   1.61734   1.61911   1.62032   1.62527
 Alpha virt. eigenvalues --    1.62582   1.63130   1.63466   1.63519   1.63718
 Alpha virt. eigenvalues --    1.63925   1.64312   1.64684   1.65166   1.65233
 Alpha virt. eigenvalues --    1.65282   1.65442   1.65993   1.66056   1.66585
 Alpha virt. eigenvalues --    1.67028   1.67666   1.67979   1.68909   1.69780
 Alpha virt. eigenvalues --    1.70053   1.70250   1.70662   1.70758   1.71819
 Alpha virt. eigenvalues --    1.72214   1.72348   1.73023   1.73370   1.73578
 Alpha virt. eigenvalues --    1.73960   1.74565   1.74821   1.75340   1.75529
 Alpha virt. eigenvalues --    1.75671   1.76256   1.76424   1.76810   1.77069
 Alpha virt. eigenvalues --    1.77418   1.78030   1.78623   1.78779   1.79037
 Alpha virt. eigenvalues --    1.79598   1.79679   1.80097   1.80530   1.81014
 Alpha virt. eigenvalues --    1.81130   1.81473   1.81684   1.82072   1.82463
 Alpha virt. eigenvalues --    1.82622   1.82684   1.82954   1.83007   1.83328
 Alpha virt. eigenvalues --    1.83659   1.83763   1.84047   1.84377   1.84653
 Alpha virt. eigenvalues --    1.84806   1.84906   1.85021   1.85261   1.85546
 Alpha virt. eigenvalues --    1.85677   1.85748   1.85882   1.85969   1.86333
 Alpha virt. eigenvalues --    1.86429   1.86507   1.86783   1.86840   1.87160
 Alpha virt. eigenvalues --    1.87589   1.87616   1.87834   1.87946   1.88107
 Alpha virt. eigenvalues --    1.88182   1.88226   1.88503   1.88566   1.88973
 Alpha virt. eigenvalues --    1.89099   1.89166   1.89494   1.89762   1.89952
 Alpha virt. eigenvalues --    1.90070   1.90513   1.90747   1.90848   1.91173
 Alpha virt. eigenvalues --    1.91276   1.91463   1.91775   1.91980   1.92398
 Alpha virt. eigenvalues --    1.92520   1.92572   1.92759   1.93323   1.93407
 Alpha virt. eigenvalues --    1.93527   1.93747   1.94186   1.94228   1.94299
 Alpha virt. eigenvalues --    1.94571   1.94971   1.95076   1.95172   1.95336
 Alpha virt. eigenvalues --    1.95498   1.95881   1.96078   1.96346   1.96459
 Alpha virt. eigenvalues --    1.96905   1.96997   1.97238   1.97616   1.97938
 Alpha virt. eigenvalues --    1.98133   1.98291   1.98823   1.98925   1.99484
 Alpha virt. eigenvalues --    1.99744   1.99946   2.00302   2.00357   2.00922
 Alpha virt. eigenvalues --    2.01292   2.01341   2.01434   2.01618   2.01721
 Alpha virt. eigenvalues --    2.01799   2.02246   2.02427   2.02848   2.03045
 Alpha virt. eigenvalues --    2.03187   2.03605   2.04154   2.04392   2.04845
 Alpha virt. eigenvalues --    2.04960   2.05072   2.05291   2.05507   2.05788
 Alpha virt. eigenvalues --    2.06410   2.06905   2.07282   2.07353   2.07705
 Alpha virt. eigenvalues --    2.07724   2.07831   2.07989   2.08087   2.08623
 Alpha virt. eigenvalues --    2.08792   2.09478   2.09640   2.10139   2.10738
 Alpha virt. eigenvalues --    2.10975   2.11498   2.11605   2.11871   2.12195
 Alpha virt. eigenvalues --    2.12801   2.12825   2.13117   2.13265   2.13700
 Alpha virt. eigenvalues --    2.13853   2.13988   2.14268   2.14573   2.14972
 Alpha virt. eigenvalues --    2.15257   2.15403   2.15881   2.16088   2.16482
 Alpha virt. eigenvalues --    2.16592   2.16760   2.17070   2.17382   2.17888
 Alpha virt. eigenvalues --    2.18337   2.18471   2.18789   2.19009   2.19673
 Alpha virt. eigenvalues --    2.19798   2.19979   2.20326   2.21087   2.21172
 Alpha virt. eigenvalues --    2.21291   2.21760   2.21840   2.22323   2.22764
 Alpha virt. eigenvalues --    2.23036   2.23527   2.24041   2.24310   2.24685
 Alpha virt. eigenvalues --    2.24848   2.25099   2.25410   2.25893   2.25997
 Alpha virt. eigenvalues --    2.26644   2.27096   2.27184   2.27808   2.28318
 Alpha virt. eigenvalues --    2.28931   2.29349   2.29770   2.30392   2.30604
 Alpha virt. eigenvalues --    2.30840   2.31284   2.31449   2.31776   2.32412
 Alpha virt. eigenvalues --    2.32536   2.33784   2.34093   2.34455   2.35012
 Alpha virt. eigenvalues --    2.35485   2.35874   2.36105   2.36217   2.36596
 Alpha virt. eigenvalues --    2.36713   2.37272   2.38214   2.38239   2.38783
 Alpha virt. eigenvalues --    2.39159   2.39410   2.39535   2.39665   2.39962
 Alpha virt. eigenvalues --    2.40240   2.40445   2.41069   2.41279   2.42147
 Alpha virt. eigenvalues --    2.42430   2.42577   2.43069   2.43672   2.44067
 Alpha virt. eigenvalues --    2.44487   2.44757   2.44874   2.45270   2.45644
 Alpha virt. eigenvalues --    2.45664   2.46422   2.46509   2.47194   2.47243
 Alpha virt. eigenvalues --    2.47731   2.47872   2.48195   2.48538   2.48712
 Alpha virt. eigenvalues --    2.49496   2.49588   2.49829   2.50491   2.50544
 Alpha virt. eigenvalues --    2.51202   2.51284   2.51786   2.52296   2.53031
 Alpha virt. eigenvalues --    2.53533   2.53749   2.53985   2.54168   2.54610
 Alpha virt. eigenvalues --    2.55791   2.55938   2.56685   2.56853   2.57625
 Alpha virt. eigenvalues --    2.57851   2.58082   2.58898   2.58956   2.59422
 Alpha virt. eigenvalues --    2.59678   2.59920   2.60114   2.60630   2.61061
 Alpha virt. eigenvalues --    2.61184   2.62175   2.62225   2.62720   2.62937
 Alpha virt. eigenvalues --    2.62950   2.63230   2.63908   2.64524   2.65140
 Alpha virt. eigenvalues --    2.65317   2.65879   2.66530   2.67016   2.67426
 Alpha virt. eigenvalues --    2.67904   2.68615   2.68781   2.69315   2.69990
 Alpha virt. eigenvalues --    2.70090   2.70491   2.70618   2.70678   2.71960
 Alpha virt. eigenvalues --    2.72207   2.72446   2.72717   2.73091   2.73194
 Alpha virt. eigenvalues --    2.73603   2.74003   2.74338   2.75328   2.75763
 Alpha virt. eigenvalues --    2.76449   2.76917   2.77338   2.77653   2.78243
 Alpha virt. eigenvalues --    2.78532   2.78694   2.78886   2.79305   2.79605
 Alpha virt. eigenvalues --    2.79890   2.80389   2.80686   2.81224   2.81339
 Alpha virt. eigenvalues --    2.81546   2.81733   2.82015   2.82716   2.83651
 Alpha virt. eigenvalues --    2.84064   2.84351   2.84710   2.85270   2.85495
 Alpha virt. eigenvalues --    2.85944   2.86047   2.86781   2.87593   2.88862
 Alpha virt. eigenvalues --    2.89504   2.89915   2.90717   2.91480   2.91683
 Alpha virt. eigenvalues --    2.91923   2.92457   2.93391   2.94435   2.94586
 Alpha virt. eigenvalues --    2.95186   2.95417   2.95497   2.95649   2.95899
 Alpha virt. eigenvalues --    2.96657   2.96767   2.97433   2.97825   2.98185
 Alpha virt. eigenvalues --    2.98627   2.98670   2.98725   2.99260   2.99483
 Alpha virt. eigenvalues --    2.99505   3.00139   3.00194   3.00518   3.00725
 Alpha virt. eigenvalues --    3.01258   3.01738   3.01867   3.02135   3.02346
 Alpha virt. eigenvalues --    3.02560   3.03085   3.03406   3.03973   3.04102
 Alpha virt. eigenvalues --    3.04336   3.04587   3.04917   3.04937   3.05320
 Alpha virt. eigenvalues --    3.05879   3.06474   3.06552   3.06684   3.06755
 Alpha virt. eigenvalues --    3.07166   3.07420   3.07786   3.07904   3.08200
 Alpha virt. eigenvalues --    3.08477   3.08926   3.09399   3.09429   3.10748
 Alpha virt. eigenvalues --    3.10832   3.11167   3.11302   3.12044   3.12078
 Alpha virt. eigenvalues --    3.12299   3.12931   3.13380   3.13889   3.14438
 Alpha virt. eigenvalues --    3.14565   3.15177   3.15578   3.15601   3.16838
 Alpha virt. eigenvalues --    3.16845   3.17037   3.17189   3.17829   3.18034
 Alpha virt. eigenvalues --    3.19262   3.20413   3.20934   3.21072   3.21638
 Alpha virt. eigenvalues --    3.22437   3.23043   3.23532   3.23652   3.24673
 Alpha virt. eigenvalues --    3.27201   3.27226   3.29614   3.31269   3.34313
 Alpha virt. eigenvalues --    3.35908   3.36659   3.43322   3.48093   3.49319
 Alpha virt. eigenvalues --    3.49870   3.53164   3.54807   3.56695   3.59444
 Alpha virt. eigenvalues --    3.61716   3.63816   3.69147   3.72279   3.72865
 Alpha virt. eigenvalues --    3.75531   3.81232
          Condensed to atoms (all electrons):
 Mulliken charges:
               1
     1  Mg   0.968427
     2  C   -0.023093
     3  C   -0.037738
     4  C   -0.069037
     5  C   -0.100638
     6  N   -0.319652
     7  C    0.005918
     8  C   -0.069044
     9  C   -0.108634
    10  C    0.040910
    11  C    0.002416
    12  C    0.044146
    13  C   -0.009946
    14  C    0.208238
    15  O   -0.263907
    16  O   -0.376652
    17  N   -0.444789
    18  C    0.109307
    19  C   -0.188717
    20  C   -0.082434
    21  C    0.150361
    22  C    0.091070
    23  C    0.056627
    24  O   -0.260358
    25  C   -0.010050
    26  N   -0.429073
    27  C    0.096442
    28  C   -0.122904
    29  C   -0.082067
    30  C    0.106830
    31  C    0.028049
    32  C    0.012509
    33  C   -0.064865
    34  N   -0.411527
    35  C    0.114351
    36  C   -0.171031
    37  C   -0.050189
    38  C    0.144180
    39  C    0.088628
    40  C    0.114167
    41  O   -0.250535
    42  C   -0.026985
    43  C    0.232189
    44  O   -0.206421
    45  O   -0.334441
    46  C    0.147138
    47  C    0.262948
    48  C   -0.159673
    49  C   -0.228068
    50  C    0.044865
    51  C    0.038900
    52  C   -0.009114
    53  C    0.011101
    54  C   -0.204962
    55  C    0.030001
    56  C   -0.014329
    57  C   -0.052638
    58  C    0.022314
    59  C   -0.209804
    60  C    0.002786
    61  C    0.034879
    62  C   -0.025020
    63  C   -0.036266
    64  C   -0.213373
    65  C   -0.008207
    66  C    0.017464
    67  H   -0.014633
    68  H    0.019888
    69  H   -0.001553
    70  H    0.069779
    71  H    0.040965
    72  H    0.049401
    73  H    0.041135
    74  H    0.038908
    75  H    0.035756
    76  H    0.032209
    77  H    0.045295
    78  H    0.059640
    79  H    0.057989
    80  H    0.040965
    81  H    0.034699
    82  H    0.054000
    83  H    0.046686
    84  H    0.065952
    85  H    0.046144
    86  H    0.023322
    87  H    0.051698
    88  H    0.034733
    89  H    0.038053
    90  H    0.040846
    91  H    0.022447
    92  H    0.029548
    93  H    0.032144
    94  H    0.037131
    95  H    0.030618
    96  H    0.058592
    97  H    0.072600
    98  H    0.065107
    99  H    0.039498
   100  H    0.062708
   101  H    0.054577
   102  H    0.048807
   103  H    0.044289
   104  H    0.010804
   105  H    0.055796
   106  H    0.054610
   107  H    0.035750
   108  H    0.032566
   109  H    0.008338
   110  H    0.018606
   111  H    0.013319
   112  H    0.034313
   113  H    0.028070
   114  H    0.020952
   115  H    0.034800
   116  H    0.015151
   117  H    0.032240
   118  H    0.021411
   119  H   -0.002812
   120  H    0.022798
   121  H    0.032732
   122  H    0.006787
   123  H    0.014283
   124  H    0.020438
   125  H    0.032373
   126  H    0.032255
   127  H    0.022922
   128  H    0.015877
   129  H    0.024436
   130  H    0.024362
   131  H    0.024000
   132  H   -0.003771
   133  H    0.009769
   134  H    0.023445
   135  H    0.023955
   136  H    0.032281
   137  H    0.032622
   138  H    0.030267
   139  H    0.027547
   140  H    0.035787
 Sum of Mulliken charges =  -0.00000
 Mulliken charges with hydrogens summed into heavy atoms:
               1
     1  Mg   0.968427
     2  C   -0.023093
     3  C   -0.052371
     4  C   -0.049149
     5  C   -0.102192
     6  N   -0.319652
     7  C    0.005918
     8  C    0.000735
     9  C   -0.067668
    10  C    0.040910
    11  C    0.131859
    12  C    0.112111
    13  C    0.094989
    14  C    0.208238
    15  O   -0.263907
    16  O   -0.376652
    17  N   -0.444789
    18  C    0.109307
    19  C   -0.188717
    20  C   -0.082434
    21  C    0.150361
    22  C    0.224723
    23  C    0.056627
    24  O   -0.260358
    25  C    0.156588
    26  N   -0.429073
    27  C    0.096442
    28  C   -0.076760
    29  C   -0.058745
    30  C    0.106830
    31  C    0.152533
    32  C    0.075802
    33  C    0.033958
    34  N   -0.411527
    35  C    0.114351
    36  C   -0.171031
    37  C   -0.050189
    38  C    0.144180
    39  C    0.250438
    40  C    0.114167
    41  O   -0.250535
    42  C    0.038122
    43  C    0.232189
    44  O   -0.206421
    45  O   -0.334441
    46  C    0.303922
    47  C    0.356043
    48  C   -0.148869
    49  C   -0.228068
    50  C    0.191020
    51  C    0.079805
    52  C    0.022811
    53  C    0.073483
    54  C   -0.184009
    55  C    0.112192
    56  C    0.004270
    57  C    0.002892
    58  C    0.043384
    59  C   -0.189366
    60  C    0.090336
    61  C    0.075192
    62  C    0.023342
    63  C   -0.030268
    64  C   -0.189928
    65  C    0.080651
    66  C    0.111065
 Electronic spatial extent (au):  <R**2>=         134880.0227
 Charge=             -0.0000 electrons
 Dipole moment (field-independent basis, Debye):
    X=              3.3805    Y=              0.9781    Z=             -3.2080  Tot=              4.7619
 Quadrupole moment (field-independent basis, Debye-Ang):
   XX=           -368.3728   YY=           -422.8666   ZZ=           -406.8190
   XY=            -11.9990   XZ=              3.9678   YZ=             11.7594
 Traceless Quadrupole moment (field-independent basis, Debye-Ang):
   XX=             30.9800   YY=            -23.5138   ZZ=             -7.4662
   XY=            -11.9990   XZ=              3.9678   YZ=             11.7594
 Octapole moment (field-independent basis, Debye-Ang**2):
  XXX=           -479.3552  YYY=           -140.0691  ZZZ=             -8.1403  XYY=            316.5603
  XXY=             14.1933  XXZ=             43.1613  XZZ=            -13.5133  YZZ=            -13.4440
  YYZ=              8.6347  XYZ=            -81.2388
 Hexadecapole moment (field-independent basis, Debye-Ang**3):
 XXXX=        -145286.0794 YYYY=         -30617.1277 ZZZZ=          -3889.8456 XXXY=           -989.7928
 XXXZ=           -279.8941 YYYX=            237.8325 YYYZ=             56.5652 ZZZX=             65.5699
 ZZZY=            -50.6285 XXYY=         -32285.8948 XXZZ=         -26032.9273 YYZZ=          -5591.6311
 XXYZ=            308.8173 YYXZ=           -196.1246 ZZXY=            -53.6663
 N-N= 9.400096856557D+03 E-N=-2.579343756448D+04  KE= 2.976069430847D+03
 Leave Link  601 at Fri Apr 29 07:27:20 2022, MaxMem= 10066329600 cpu:              11.5 elap:               0.6
 (Enter /sw/apps/gaussian-16.0/g16/l9999.exe)
 1\1\GINC-BP1-COMPUTE138\SP\RwB97XD TD-FC\def2SVP\C55H74Mg1N4O6\OF15641
 \29-Apr-2022\0\\#p wB97XD/Def2SVP td=(nstates=5)\\step_1_chromophore_6
  TDDFT with wB97XD functional\\0,1\Mg,0,17.054,-2.288,27.75\C,0,16.548
 ,-0.354,30.726\C,0,18.852,-4.529,29.657\C,0,18.013,-3.67,24.949\C,0,15
 .392,0.222,26.033\N,0,17.886,-2.277,29.962\C,0,17.412,-1.437,30.933\C,
 0,17.782,-2.001,32.331\C,0,18.585,-3.327,31.996\C,0,18.484,-3.424,30.4
 3\C,0,20.102,-3.411,32.453\C,0,16.578,-2.286,33.268\C,0,16.684,-1.85,3
 4.686\C,0,18.053,-1.523,35.396\O,0,18.778,-0.591,35.104\O,0,18.548,-2.
 518,36.236\N,0,18.305,-3.918,27.31\C,0,18.859,-4.819,28.219\C,0,19.641
 ,-5.825,27.475\C,0,19.293,-5.632,26.083\C,0,18.516,-4.371,26.058\C,0,2
 0.531,-6.871,28.075\C,0,19.639,-6.463,24.825\O,0,19.045,-6.384,23.729\
 C,0,20.63,-7.546,24.977\N,0,16.791,-1.754,25.844\C,0,17.373,-2.499,24.
 842\C,0,16.845,-2.07,23.445\C,0,15.703,-1.041,23.862\C,0,15.953,-0.843
 ,25.347\C,0,17.88,-1.479,22.403\C,0,14.265,-1.461,23.602\C,0,13.502,-0
 .619,22.558\N,0,15.981,-0.538,28.255\C,0,15.386,0.394,27.438\C,0,14.87
 8,1.514,28.241\C,0,15.273,1.207,29.531\C,0,15.938,-0.039,29.497\C,0,14
 .172,2.751,27.793\C,0,15.189,1.699,30.859\O,0,14.574,2.682,31.362\C,0,
 15.981,0.758,31.664\C,0,17.012,1.503,32.468\O,0,17.975,2.031,32.027\O,
 0,16.72,1.423,33.766\C,0,17.368,2.297,34.684\C,0,19.982,-2.452,36.552\
 C,0,20.408,-3.764,37.247\C,0,20.356,-4.021,38.546\C,0,19.854,-3.056,39
 .583\C,0,20.837,-5.333,39.057\C,0,22.258,-5.655,39.002\C,0,22.74,-6.69
 9,40.128\C,0,23.734,-7.691,39.446\C,0,22.955,-8.755,38.715\C,0,24.769,
 -8.272,40.501\C,0,26.123,-7.521,40.532\C,0,26.806,-7.793,41.936\C,0,27
 .491,-9.18,41.978\C,0,26.842,-9.995,43.104\C,0,29.044,-9.062,42.251\C,
 0,29.902,-9.093,40.942\C,0,31.024,-10.168,41.003\C,0,31.344,-10.751,39
 .606\C,0,32.091,-9.703,38.807\C,0,32.157,-12.063,39.749\H,0,19.445,-5.
 281,30.182\H,0,18.215,-4.046,23.943\H,0,14.94,1.043,25.474\H,0,18.422,
 -1.249,32.794\H,0,18.07,-4.189,32.419\H,0,20.439,-2.604,33.103\H,0,20.
 706,-3.311,31.55\H,0,20.311,-4.382,32.903\H,0,16.349,-3.349,33.352\H,0
 ,15.66,-1.804,32.933\H,0,16.309,-2.637,35.341\H,0,16.049,-0.972,34.801
 \H,0,21.524,-6.798,27.632\H,0,20.096,-7.833,27.804\H,0,20.474,-6.87,29
 .164\H,0,21.579,-7.085,25.251\H,0,20.755,-7.963,23.978\H,0,20.262,-8.3
 53,25.61\H,0,16.37,-2.96,23.031\H,0,15.888,-0.125,23.301\H,0,18.88,-1.
 465,22.835\H,0,17.571,-0.518,21.99\H,0,17.864,-2.133,21.531\H,0,13.635
 ,-1.616,24.478\H,0,14.307,-2.459,23.167\H,0,12.479,-0.335,22.804\H,0,1
 3.298,-1.281,21.716\H,0,13.992,0.304,22.251\H,0,13.755,2.656,26.79\H,0
 ,14.889,3.56,27.654\H,0,13.497,3.03,28.602\H,0,15.272,0.271,32.333\H,0
 ,16.919,3.28,34.535\H,0,18.417,2.432,34.42\H,0,17.174,2.,35.715\H,0,20
 .182,-1.599,37.201\H,0,20.542,-2.446,35.617\H,0,20.69,-4.616,36.628\H,
 0,19.138,-2.446,39.033\H,0,20.664,-2.451,39.99\H,0,19.457,-3.682,40.38
 2\H,0,20.285,-6.003,38.398\H,0,20.431,-5.496,40.055\H,0,22.825,-4.727,
 38.932\H,0,22.485,-6.036,38.007\H,0,21.94,-7.281,40.587\H,0,23.253,-6.
 066,40.853\H,0,24.429,-7.174,38.785\H,0,23.377,-8.933,37.726\H,0,21.93
 8,-8.39,38.577\H,0,22.868,-9.662,39.313\H,0,24.871,-9.356,40.539\H,0,2
 4.367,-7.952,41.462\H,0,25.835,-6.482,40.376\H,0,26.762,-7.954,39.763\
 H,0,26.064,-7.77,42.733\H,0,27.439,-6.93,42.144\H,0,27.284,-9.649,41.0
 16\H,0,27.2,-9.702,44.091\H,0,27.061,-11.049,42.931\H,0,25.773,-9.788,
 43.068\H,0,29.359,-9.968,42.769\H,0,29.234,-8.137,42.796\H,0,30.419,-8
 .134,40.972\H,0,29.28,-9.128,40.047\H,0,30.802,-11.04,41.618\H,0,31.87
 ,-9.865,41.621\H,0,30.338,-10.853,39.2\H,0,31.684,-9.983,37.835\H,0,33
 .179,-9.737,38.747\H,0,31.83,-8.679,39.075\H,0,33.195,-11.825,39.514\H
 ,0,31.775,-12.699,38.95\H,0,32.036,-12.58,40.701\\Version=ES64L-G16Rev
 A.03\State=1-A\HF=-3007.8634966\RMSD=6.600e-09\PG=C01 [X(C55H74Mg1N4O6
 )]\\@


 Sacred cows make the best hamburger.
                               -- Mark Twain
 Job cpu time:       0 days 13 hours 19 minutes  7.4 seconds.
 Elapsed time:       0 days  0 hours 33 minutes 43.2 seconds.
 File lengths (MBytes):  RWF=   8929 Int=      0 D2E=      0 Chk=    390 Scr=      1
 Normal termination of Gaussian 16 at Fri Apr 29 07:27:20 2022.
