 Entering Gaussian System, Link 0=g16
 Initial command:
 /sw/apps/gaussian-16.0/g16/l1.exe "/tmp/Gau-95397.inp" -scrdir="/tmp/"
 Entering Link 1 = /sw/apps/gaussian-16.0/g16/l1.exe PID=     95398.
  
 Copyright (c) 1988,1990,1992,1993,1995,1998,2003,2009,2016,
            Gaussian, Inc.  All Rights Reserved.
  
 This is part of the Gaussian(R) 16 program.  It is based on
 the Gaussian(R) 09 system (copyright 2009, Gaussian, Inc.),
 the Gaussian(R) 03 system (copyright 2003, Gaussian, Inc.),
 the Gaussian(R) 98 system (copyright 1998, Gaussian, Inc.),
 the Gaussian(R) 94 system (copyright 1995, Gaussian, Inc.),
 the Gaussian 92(TM) system (copyright 1992, Gaussian, Inc.),
 the Gaussian 90(TM) system (copyright 1990, Gaussian, Inc.),
 the Gaussian 88(TM) system (copyright 1988, Gaussian, Inc.),
 the Gaussian 86(TM) system (copyright 1986, Carnegie Mellon
 University), and the Gaussian 82(TM) system (copyright 1983,
 Carnegie Mellon University). Gaussian is a federally registered
 trademark of Gaussian, Inc.
  
 This software contains proprietary and confidential information,
 including trade secrets, belonging to Gaussian, Inc.
  
 This software is provided under written license and may be
 used, copied, transmitted, or stored only in accord with that
 written license.
  
 The following legend is applicable only to US Government
 contracts under FAR:
  
                    RESTRICTED RIGHTS LEGEND
  
 Use, reproduction and disclosure by the US Government is
 subject to restrictions as set forth in subparagraphs (a)
 and (c) of the Commercial Computer Software - Restricted
 Rights clause in FAR 52.227-19.
  
 Gaussian, Inc.
 340 Quinnipiac St., Bldg. 40, Wallingford CT 06492
  
  
 ---------------------------------------------------------------
 Warning -- This program may not be used in any manner that
 competes with the business of Gaussian, Inc. or will provide
 assistance to any competitor of Gaussian, Inc.  The licensee
 of this program is prohibited from giving any competitor of
 Gaussian, Inc. access to this program.  By using this program,
 the user acknowledges that Gaussian, Inc. is engaged in the
 business of creating and licensing software in the field of
 computational chemistry and represents and warrants to the
 licensee that it is not a competitor of Gaussian, Inc. and that
 it will not use this program in any manner prohibited above.
 ---------------------------------------------------------------
  

 Cite this work as:
 Gaussian 16, Revision A.03,
 M. J. Frisch, G. W. Trucks, H. B. Schlegel, G. E. Scuseria, 
 M. A. Robb, J. R. Cheeseman, G. Scalmani, V. Barone, 
 G. A. Petersson, H. Nakatsuji, X. Li, M. Caricato, A. V. Marenich, 
 J. Bloino, B. G. Janesko, R. Gomperts, B. Mennucci, H. P. Hratchian, 
 J. V. Ortiz, A. F. Izmaylov, J. L. Sonnenberg, D. Williams-Young, 
 F. Ding, F. Lipparini, F. Egidi, J. Goings, B. Peng, A. Petrone, 
 T. Henderson, D. Ranasinghe, V. G. Zakrzewski, J. Gao, N. Rega, 
 G. Zheng, W. Liang, M. Hada, M. Ehara, K. Toyota, R. Fukuda, 
 J. Hasegawa, M. Ishida, T. Nakajima, Y. Honda, O. Kitao, H. Nakai, 
 T. Vreven, K. Throssell, J. A. Montgomery, Jr., J. E. Peralta, 
 F. Ogliaro, M. J. Bearpark, J. J. Heyd, E. N. Brothers, K. N. Kudin, 
 V. N. Staroverov, T. A. Keith, R. Kobayashi, J. Normand, 
 K. Raghavachari, A. P. Rendell, J. C. Burant, S. S. Iyengar, 
 J. Tomasi, M. Cossi, J. M. Millam, M. Klene, C. Adamo, R. Cammi, 
 J. W. Ochterski, R. L. Martin, K. Morokuma, O. Farkas, 
 J. B. Foresman, and D. J. Fox, Gaussian, Inc., Wallingford CT, 2016.
 
 ******************************************
 Gaussian 16:  ES64L-G16RevA.03 25-Dec-2016
                29-Apr-2022 
 ******************************************
 %nproc=24
 Will use up to   24 processors via shared memory.
 %mem=75GB
 ------------------------------
 #p blyp/Def2SVP td=(nstates=5)
 ------------------------------
 1/38=1,172=1/1;
 2/12=2,17=6,18=5,40=1/2;
 3/5=43,7=101,11=9,25=1,30=1,74=402/1,2,3,8;
 4//1;
 5/5=2,38=5/2;
 8/6=1,10=1,108=5/1;
 9/41=5,42=1,70=2/14;
 6/7=2,8=2,9=2,10=2/1;
 99/5=1,9=1/99;
 Leave Link    1 at Fri Apr 29 23:01:44 2022, MaxMem= 10066329600 cpu:               1.4 elap:               0.1
 (Enter /sw/apps/gaussian-16.0/g16/l101.exe)
 --------------------------------------------------
 step_501_chromophore_23 TDDFT with blyp functional
 --------------------------------------------------
 Symbolic Z-matrix:
 Charge =  0 Multiplicity = 1
 Mg                   -10.089    40.792    42.947 
 C                    -8.616     37.873    41.739 
 C                    -7.782     42.641    41.174 
 C                    -11.691    43.406    44.117 
 C                    -13.011    38.808    43.846 
 N                    -8.298     40.231    41.615 
 C                    -7.899     38.981    41.233 
 C                    -6.678     39.048    40.386 
 C                    -6.44      40.596    40.172 
 C                    -7.577     41.257    41.045 
 C                    -4.986     41.069    40.423 
 C                    -6.832     38.299    39.04 
 C                    -5.676     37.323    38.828 
 C                    -4.885     37.425    37.489 
 O                    -3.848     38.095    37.42 
 O                    -5.495     36.664    36.515 
 N                    -9.754     42.766    42.703 
 C                    -8.729     43.366    41.973 
 C                    -8.872     44.797    42.208 
 C                    -10.006    45.055    43.11 
 C                    -10.525    43.687    43.427 
 C                    -8.103     45.788    41.488 
 C                    -10.495    46.415    43.392 
 O                    -9.976     47.428    42.972 
 C                    -11.745    46.708    44.146 
 N                    -12.017    41.036    43.776 
 C                    -12.309    42.201    44.439 
 C                    -13.681    42.11     45.073 
 C                    -14.242    40.842    44.547 
 C                    -13.083    40.198    43.966 
 C                    -13.708    42.291    46.646 
 C                    -15.267    41.057    43.381 
 C                    -16.322    40.059    43.244 
 N                    -10.729    38.743    42.866 
 C                    -11.88     38.083    43.316 
 C                    -11.647    36.673    43.294 
 C                    -10.421    36.526    42.656 
 C                    -9.9       37.838    42.369 
 C                    -12.608    35.666    43.809 
 C                    -9.507     35.582    42.148 
 O                    -9.55      34.372    42.157 
 C                    -8.306     36.384    41.599 
 C                    -7.079     35.935    42.276 
 O                    -6.651     36.366    43.36 
 O                    -6.556     34.851    41.609 
 C                    -5.284     34.28     42.021 
 C                    -4.682     36.339    35.38 
 C                    -5.567     36.267    34.104 
 C                    -5.543     37.135    33.13 
 C                    -5.233     38.628    33.323 
 C                    -6.294     36.838    31.818 
 C                    -5.341     36.654    30.566 
 C                    -5.948     36.493    29.221 
 C                    -5.38      37.457    28.174 
 C                    -4.524     36.743    27.077 
 C                    -6.398     38.356    27.474 
 C                    -6.769     39.601    28.387 
 C                    -8.295     39.682    28.539 
 C                    -8.751     39.91     29.948 
 C                    -9.819     38.867    30.417 
 C                    -9.411     41.355    30.06 
 C                    -8.263     42.456    30.423 
 C                    -8.563     43.732    29.612 
 C                    -7.733     43.792    28.331 
 C                    -6.67      44.855    28.246 
 C                    -8.628     43.841    27.044 
 H                    -6.984     43.159    40.639 
 H                    -12.352    44.181    44.513 
 H                    -13.898    38.251    44.155 
 H                    -5.867     38.791    41.068 
 H                    -6.604     40.924    39.146 
 H                    -4.425     40.136    40.357 
 H                    -4.81      41.649    41.329 
 H                    -4.661     41.714    39.607 
 H                    -6.76      38.942    38.163 
 H                    -7.799     37.798    39.081 
 H                    -6.244     36.396    38.751 
 H                    -5.062     37.35     39.727 
 H                    -7.399     45.263    40.842 
 H                    -7.461     46.428    42.094 
 H                    -8.771     46.371    40.853 
 H                    -11.592    46.043    44.996 
 H                    -12.597    46.391    43.544 
 H                    -11.786    47.753    44.454 
 H                    -14.192    42.985    44.673 
 H                    -14.608    40.109    45.266 
 H                    -12.74     42.639    47.007 
 H                    -14.11     41.442    47.2 
 H                    -14.307    43.142    46.969 
 H                    -14.724    41.146    42.44 
 H                    -15.785    42.009    43.496 
 H                    -17.155    40.343    43.888 
 H                    -15.968    39.05     43.458 
 H                    -16.801    40.164    42.27 
 H                    -13.094    36.015    44.72 
 H                    -12.173    34.679    43.967 
 H                    -13.399    35.663    43.059 
 H                    -8.067     36.135    40.565 
 H                    -5.235     33.707    42.947 
 H                    -4.523     35.06     42.034 
 H                    -5.072     33.535    41.255 
 H                    -4.205     35.369    35.52 
 H                    -3.841     37.023    35.267 
 H                    -5.67      35.191    33.961 
 H                    -4.896     38.856    34.335 
 H                    -5.984     39.349    33.002 
 H                    -4.357     38.859    32.719 
 H                    -6.969     37.642    31.527 
 H                    -6.892     35.932    31.912 
 H                    -4.817     35.739    30.841 
 H                    -4.796     37.598    30.549 
 H                    -7.028     36.642    29.237 
 H                    -5.65      35.473    28.977 
 H                    -4.667     38.105    28.685 
 H                    -4.042     37.441    26.393 
 H                    -5.239     36.297    26.386 
 H                    -3.773     35.997    27.337 
 H                    -7.283     38.03     26.929 
 H                    -5.809     38.82     26.683 
 H                    -6.327     40.493    27.942 
 H                    -6.346     39.375    29.365 
 H                    -8.818     38.863    28.045 
 H                    -8.631     40.524    27.935 
 H                    -8.        39.87     30.737 
 H                    -9.642     38.391    31.381 
 H                    -9.954     38.099    29.655 
 H                    -10.827    39.277    30.352 
 H                    -10.089    41.284    30.91 
 H                    -9.994     41.727    29.218 
 H                    -7.293     42.028    30.172 
 H                    -8.069     42.678    31.473 
 H                    -8.354     44.647    30.168 
 H                    -9.619     43.847    29.371 
 H                    -7.174     42.86     28.24 
 H                    -6.263     45.228    29.186 
 H                    -7.177     45.736    27.852 
 H                    -5.879     44.61     27.538 
 H                    -8.58      42.818    26.671 
 H                    -8.35      44.633    26.349 
 H                    -9.667     44.073    27.28 
 
 ITRead=  0  0  0  0  0  0  0  0  0  0  0  0  0  0  0  0  0  0  0  0
 ITRead=  0  0  0  0  0  0  0  0  0  0  0  0  0  0  0  0  0  0  0  0
 ITRead=  0  0  0  0  0  0  0  0  0  0  0  0  0  0  0  0  0  0  0  0
 ITRead=  0  0  0  0  0  0  0  0  0  0  0  0  0  0  0  0  0  0  0  0
 ITRead=  0  0  0  0  0  0  0  0  0  0  0  0  0  0  0  0  0  0  0  0
 ITRead=  0  0  0  0  0  0  0  0  0  0  0  0  0  0  0  0  0  0  0  0
 ITRead=  0  0  0  0  0  0  0  0  0  0  0  0  0  0  0  0  0  0  0  0
 MicOpt= -1 -1 -1 -1 -1 -1 -1 -1 -1 -1 -1 -1 -1 -1 -1 -1 -1 -1 -1 -1
 MicOpt= -1 -1 -1 -1 -1 -1 -1 -1 -1 -1 -1 -1 -1 -1 -1 -1 -1 -1 -1 -1
 MicOpt= -1 -1 -1 -1 -1 -1 -1 -1 -1 -1 -1 -1 -1 -1 -1 -1 -1 -1 -1 -1
 MicOpt= -1 -1 -1 -1 -1 -1 -1 -1 -1 -1 -1 -1 -1 -1 -1 -1 -1 -1 -1 -1
 MicOpt= -1 -1 -1 -1 -1 -1 -1 -1 -1 -1 -1 -1 -1 -1 -1 -1 -1 -1 -1 -1
 MicOpt= -1 -1 -1 -1 -1 -1 -1 -1 -1 -1 -1 -1 -1 -1 -1 -1 -1 -1 -1 -1
 MicOpt= -1 -1 -1 -1 -1 -1 -1 -1 -1 -1 -1 -1 -1 -1 -1 -1 -1 -1 -1 -1
 NAtoms=    140 NQM=      140 NQMF=       0 NMMI=      0 NMMIF=      0
                NMic=       0 NMicF=      0.
                    Isotopes and Nuclear Properties:
 (Nuclear quadrupole moments (NQMom) in fm**2, nuclear magnetic moments (NMagM)
  in nuclear magnetons)

  Atom         1           2           3           4           5           6           7           8           9          10
 IAtWgt=          24          12          12          12          12          14          12          12          12          12
 AtmWgt=  23.9850450  12.0000000  12.0000000  12.0000000  12.0000000  14.0030740  12.0000000  12.0000000  12.0000000  12.0000000
 NucSpn=           0           0           0           0           0           2           0           0           0           0
 AtZEff=  -0.0000000  -0.0000000  -0.0000000  -0.0000000  -0.0000000  -0.0000000  -0.0000000  -0.0000000  -0.0000000  -0.0000000
 NQMom=    0.0000000   0.0000000   0.0000000   0.0000000   0.0000000   2.0440000   0.0000000   0.0000000   0.0000000   0.0000000
 NMagM=    0.0000000   0.0000000   0.0000000   0.0000000   0.0000000   0.4037610   0.0000000   0.0000000   0.0000000   0.0000000
 AtZNuc=  12.0000000   6.0000000   6.0000000   6.0000000   6.0000000   7.0000000   6.0000000   6.0000000   6.0000000   6.0000000

  Atom        11          12          13          14          15          16          17          18          19          20
 IAtWgt=          12          12          12          12          16          16          14          12          12          12
 AtmWgt=  12.0000000  12.0000000  12.0000000  12.0000000  15.9949146  15.9949146  14.0030740  12.0000000  12.0000000  12.0000000
 NucSpn=           0           0           0           0           0           0           2           0           0           0
 AtZEff=  -0.0000000  -0.0000000  -0.0000000  -0.0000000  -0.0000000  -0.0000000  -0.0000000  -0.0000000  -0.0000000  -0.0000000
 NQMom=    0.0000000   0.0000000   0.0000000   0.0000000   0.0000000   0.0000000   2.0440000   0.0000000   0.0000000   0.0000000
 NMagM=    0.0000000   0.0000000   0.0000000   0.0000000   0.0000000   0.0000000   0.4037610   0.0000000   0.0000000   0.0000000
 AtZNuc=   6.0000000   6.0000000   6.0000000   6.0000000   8.0000000   8.0000000   7.0000000   6.0000000   6.0000000   6.0000000

  Atom        21          22          23          24          25          26          27          28          29          30
 IAtWgt=          12          12          12          16          12          14          12          12          12          12
 AtmWgt=  12.0000000  12.0000000  12.0000000  15.9949146  12.0000000  14.0030740  12.0000000  12.0000000  12.0000000  12.0000000
 NucSpn=           0           0           0           0           0           2           0           0           0           0
 AtZEff=  -0.0000000  -0.0000000  -0.0000000  -0.0000000  -0.0000000  -0.0000000  -0.0000000  -0.0000000  -0.0000000  -0.0000000
 NQMom=    0.0000000   0.0000000   0.0000000   0.0000000   0.0000000   2.0440000   0.0000000   0.0000000   0.0000000   0.0000000
 NMagM=    0.0000000   0.0000000   0.0000000   0.0000000   0.0000000   0.4037610   0.0000000   0.0000000   0.0000000   0.0000000
 AtZNuc=   6.0000000   6.0000000   6.0000000   8.0000000   6.0000000   7.0000000   6.0000000   6.0000000   6.0000000   6.0000000

  Atom        31          32          33          34          35          36          37          38          39          40
 IAtWgt=          12          12          12          14          12          12          12          12          12          12
 AtmWgt=  12.0000000  12.0000000  12.0000000  14.0030740  12.0000000  12.0000000  12.0000000  12.0000000  12.0000000  12.0000000
 NucSpn=           0           0           0           2           0           0           0           0           0           0
 AtZEff=  -0.0000000  -0.0000000  -0.0000000  -0.0000000  -0.0000000  -0.0000000  -0.0000000  -0.0000000  -0.0000000  -0.0000000
 NQMom=    0.0000000   0.0000000   0.0000000   2.0440000   0.0000000   0.0000000   0.0000000   0.0000000   0.0000000   0.0000000
 NMagM=    0.0000000   0.0000000   0.0000000   0.4037610   0.0000000   0.0000000   0.0000000   0.0000000   0.0000000   0.0000000
 AtZNuc=   6.0000000   6.0000000   6.0000000   7.0000000   6.0000000   6.0000000   6.0000000   6.0000000   6.0000000   6.0000000

  Atom        41          42          43          44          45          46          47          48          49          50
 IAtWgt=          16          12          12          16          16          12          12          12          12          12
 AtmWgt=  15.9949146  12.0000000  12.0000000  15.9949146  15.9949146  12.0000000  12.0000000  12.0000000  12.0000000  12.0000000
 NucSpn=           0           0           0           0           0           0           0           0           0           0
 AtZEff=  -0.0000000  -0.0000000  -0.0000000  -0.0000000  -0.0000000  -0.0000000  -0.0000000  -0.0000000  -0.0000000  -0.0000000
 NQMom=    0.0000000   0.0000000   0.0000000   0.0000000   0.0000000   0.0000000   0.0000000   0.0000000   0.0000000   0.0000000
 NMagM=    0.0000000   0.0000000   0.0000000   0.0000000   0.0000000   0.0000000   0.0000000   0.0000000   0.0000000   0.0000000
 AtZNuc=   8.0000000   6.0000000   6.0000000   8.0000000   8.0000000   6.0000000   6.0000000   6.0000000   6.0000000   6.0000000

  Atom        51          52          53          54          55          56          57          58          59          60
 IAtWgt=          12          12          12          12          12          12          12          12          12          12
 AtmWgt=  12.0000000  12.0000000  12.0000000  12.0000000  12.0000000  12.0000000  12.0000000  12.0000000  12.0000000  12.0000000
 NucSpn=           0           0           0           0           0           0           0           0           0           0
 AtZEff=  -0.0000000  -0.0000000  -0.0000000  -0.0000000  -0.0000000  -0.0000000  -0.0000000  -0.0000000  -0.0000000  -0.0000000
 NQMom=    0.0000000   0.0000000   0.0000000   0.0000000   0.0000000   0.0000000   0.0000000   0.0000000   0.0000000   0.0000000
 NMagM=    0.0000000   0.0000000   0.0000000   0.0000000   0.0000000   0.0000000   0.0000000   0.0000000   0.0000000   0.0000000
 AtZNuc=   6.0000000   6.0000000   6.0000000   6.0000000   6.0000000   6.0000000   6.0000000   6.0000000   6.0000000   6.0000000

  Atom        61          62          63          64          65          66          67          68          69          70
 IAtWgt=          12          12          12          12          12          12           1           1           1           1
 AtmWgt=  12.0000000  12.0000000  12.0000000  12.0000000  12.0000000  12.0000000   1.0078250   1.0078250   1.0078250   1.0078250
 NucSpn=           0           0           0           0           0           0           1           1           1           1
 AtZEff=  -0.0000000  -0.0000000  -0.0000000  -0.0000000  -0.0000000  -0.0000000  -0.0000000  -0.0000000  -0.0000000  -0.0000000
 NQMom=    0.0000000   0.0000000   0.0000000   0.0000000   0.0000000   0.0000000   0.0000000   0.0000000   0.0000000   0.0000000
 NMagM=    0.0000000   0.0000000   0.0000000   0.0000000   0.0000000   0.0000000   2.7928460   2.7928460   2.7928460   2.7928460
 AtZNuc=   6.0000000   6.0000000   6.0000000   6.0000000   6.0000000   6.0000000   1.0000000   1.0000000   1.0000000   1.0000000

  Atom        71          72          73          74          75          76          77          78          79          80
 IAtWgt=           1           1           1           1           1           1           1           1           1           1
 AtmWgt=   1.0078250   1.0078250   1.0078250   1.0078250   1.0078250   1.0078250   1.0078250   1.0078250   1.0078250   1.0078250
 NucSpn=           1           1           1           1           1           1           1           1           1           1
 AtZEff=  -0.0000000  -0.0000000  -0.0000000  -0.0000000  -0.0000000  -0.0000000  -0.0000000  -0.0000000  -0.0000000  -0.0000000
 NQMom=    0.0000000   0.0000000   0.0000000   0.0000000   0.0000000   0.0000000   0.0000000   0.0000000   0.0000000   0.0000000
 NMagM=    2.7928460   2.7928460   2.7928460   2.7928460   2.7928460   2.7928460   2.7928460   2.7928460   2.7928460   2.7928460
 AtZNuc=   1.0000000   1.0000000   1.0000000   1.0000000   1.0000000   1.0000000   1.0000000   1.0000000   1.0000000   1.0000000

  Atom        81          82          83          84          85          86          87          88          89          90
 IAtWgt=           1           1           1           1           1           1           1           1           1           1
 AtmWgt=   1.0078250   1.0078250   1.0078250   1.0078250   1.0078250   1.0078250   1.0078250   1.0078250   1.0078250   1.0078250
 NucSpn=           1           1           1           1           1           1           1           1           1           1
 AtZEff=  -0.0000000  -0.0000000  -0.0000000  -0.0000000  -0.0000000  -0.0000000  -0.0000000  -0.0000000  -0.0000000  -0.0000000
 NQMom=    0.0000000   0.0000000   0.0000000   0.0000000   0.0000000   0.0000000   0.0000000   0.0000000   0.0000000   0.0000000
 NMagM=    2.7928460   2.7928460   2.7928460   2.7928460   2.7928460   2.7928460   2.7928460   2.7928460   2.7928460   2.7928460
 AtZNuc=   1.0000000   1.0000000   1.0000000   1.0000000   1.0000000   1.0000000   1.0000000   1.0000000   1.0000000   1.0000000

  Atom        91          92          93          94          95          96          97          98          99         100
 IAtWgt=           1           1           1           1           1           1           1           1           1           1
 AtmWgt=   1.0078250   1.0078250   1.0078250   1.0078250   1.0078250   1.0078250   1.0078250   1.0078250   1.0078250   1.0078250
 NucSpn=           1           1           1           1           1           1           1           1           1           1
 AtZEff=  -0.0000000  -0.0000000  -0.0000000  -0.0000000  -0.0000000  -0.0000000  -0.0000000  -0.0000000  -0.0000000  -0.0000000
 NQMom=    0.0000000   0.0000000   0.0000000   0.0000000   0.0000000   0.0000000   0.0000000   0.0000000   0.0000000   0.0000000
 NMagM=    2.7928460   2.7928460   2.7928460   2.7928460   2.7928460   2.7928460   2.7928460   2.7928460   2.7928460   2.7928460
 AtZNuc=   1.0000000   1.0000000   1.0000000   1.0000000   1.0000000   1.0000000   1.0000000   1.0000000   1.0000000   1.0000000

  Atom       101         102         103         104         105         106         107         108         109         110
 IAtWgt=           1           1           1           1           1           1           1           1           1           1
 AtmWgt=   1.0078250   1.0078250   1.0078250   1.0078250   1.0078250   1.0078250   1.0078250   1.0078250   1.0078250   1.0078250
 NucSpn=           1           1           1           1           1           1           1           1           1           1
 AtZEff=  -0.0000000  -0.0000000  -0.0000000  -0.0000000  -0.0000000  -0.0000000  -0.0000000  -0.0000000  -0.0000000  -0.0000000
 NQMom=    0.0000000   0.0000000   0.0000000   0.0000000   0.0000000   0.0000000   0.0000000   0.0000000   0.0000000   0.0000000
 NMagM=    2.7928460   2.7928460   2.7928460   2.7928460   2.7928460   2.7928460   2.7928460   2.7928460   2.7928460   2.7928460
 AtZNuc=   1.0000000   1.0000000   1.0000000   1.0000000   1.0000000   1.0000000   1.0000000   1.0000000   1.0000000   1.0000000

  Atom       111         112         113         114         115         116         117         118         119         120
 IAtWgt=           1           1           1           1           1           1           1           1           1           1
 AtmWgt=   1.0078250   1.0078250   1.0078250   1.0078250   1.0078250   1.0078250   1.0078250   1.0078250   1.0078250   1.0078250
 NucSpn=           1           1           1           1           1           1           1           1           1           1
 AtZEff=  -0.0000000  -0.0000000  -0.0000000  -0.0000000  -0.0000000  -0.0000000  -0.0000000  -0.0000000  -0.0000000  -0.0000000
 NQMom=    0.0000000   0.0000000   0.0000000   0.0000000   0.0000000   0.0000000   0.0000000   0.0000000   0.0000000   0.0000000
 NMagM=    2.7928460   2.7928460   2.7928460   2.7928460   2.7928460   2.7928460   2.7928460   2.7928460   2.7928460   2.7928460
 AtZNuc=   1.0000000   1.0000000   1.0000000   1.0000000   1.0000000   1.0000000   1.0000000   1.0000000   1.0000000   1.0000000

  Atom       121         122         123         124         125         126         127         128         129         130
 IAtWgt=           1           1           1           1           1           1           1           1           1           1
 AtmWgt=   1.0078250   1.0078250   1.0078250   1.0078250   1.0078250   1.0078250   1.0078250   1.0078250   1.0078250   1.0078250
 NucSpn=           1           1           1           1           1           1           1           1           1           1
 AtZEff=  -0.0000000  -0.0000000  -0.0000000  -0.0000000  -0.0000000  -0.0000000  -0.0000000  -0.0000000  -0.0000000  -0.0000000
 NQMom=    0.0000000   0.0000000   0.0000000   0.0000000   0.0000000   0.0000000   0.0000000   0.0000000   0.0000000   0.0000000
 NMagM=    2.7928460   2.7928460   2.7928460   2.7928460   2.7928460   2.7928460   2.7928460   2.7928460   2.7928460   2.7928460
 AtZNuc=   1.0000000   1.0000000   1.0000000   1.0000000   1.0000000   1.0000000   1.0000000   1.0000000   1.0000000   1.0000000

  Atom       131         132         133         134         135         136         137         138         139         140
 IAtWgt=           1           1           1           1           1           1           1           1           1           1
 AtmWgt=   1.0078250   1.0078250   1.0078250   1.0078250   1.0078250   1.0078250   1.0078250   1.0078250   1.0078250   1.0078250
 NucSpn=           1           1           1           1           1           1           1           1           1           1
 AtZEff=  -0.0000000  -0.0000000  -0.0000000  -0.0000000  -0.0000000  -0.0000000  -0.0000000  -0.0000000  -0.0000000  -0.0000000
 NQMom=    0.0000000   0.0000000   0.0000000   0.0000000   0.0000000   0.0000000   0.0000000   0.0000000   0.0000000   0.0000000
 NMagM=    2.7928460   2.7928460   2.7928460   2.7928460   2.7928460   2.7928460   2.7928460   2.7928460   2.7928460   2.7928460
 AtZNuc=   1.0000000   1.0000000   1.0000000   1.0000000   1.0000000   1.0000000   1.0000000   1.0000000   1.0000000   1.0000000
 Leave Link  101 at Fri Apr 29 23:01:44 2022, MaxMem= 10066329600 cpu:               2.8 elap:               0.1
 (Enter /sw/apps/gaussian-16.0/g16/l202.exe)
 Stoichiometry    C55H74MgN4O6
 Framework group  C1[X(C55H74MgN4O6)]
 Deg. of freedom   414
 Full point group                 C1      NOp   1
 Largest Abelian subgroup         C1      NOp   1
 Largest concise Abelian subgroup C1      NOp   1
                         Standard orientation:                         
 ---------------------------------------------------------------------
 Center     Atomic      Atomic             Coordinates (Angstroms)
 Number     Number       Type             X           Y           Z
 ---------------------------------------------------------------------
      1         12           0        4.957874    0.409203   -0.298916
      2          6           0        3.087096   -2.528751   -0.164113
      3          6           0        2.741553    1.665308   -2.621565
      4          6           0        6.803873    3.120094   -0.190947
      5          6           0        6.523621   -0.580345    2.839837
      6          7           0        3.092452   -0.453499   -1.334567
      7          6           0        2.490843   -1.658944   -1.105232
      8          6           0        1.319007   -1.847768   -2.001829
      9          6           0        1.187983   -0.468564   -2.762995
     10          6           0        2.426699    0.352810   -2.231259
     11          6           0        1.021864   -0.589093   -4.298809
     12          6           0        0.022051   -2.207209   -1.236885
     13          6           0       -0.626222   -3.457981   -1.827790
     14          6           0       -2.128073   -3.366096   -2.233998
     15          8           0       -2.450212   -3.096951   -3.397105
     16          8           0       -2.933462   -3.654400   -1.153199
     17          7           0        4.808437    2.151191   -1.304691
     18          6           0        3.857657    2.494634   -2.264686
     19          6           0        4.258159    3.807213   -2.754759
     20          6           0        5.485681    4.252492   -2.075759
     21          6           0        5.817654    3.114432   -1.161491
     22          6           0        3.432331    4.595331   -3.642857
     23          6           0        6.030647    5.610140   -2.243241
     24          8           0        5.567929    6.443927   -2.993322
     25          6           0        7.157073    6.157661   -1.438102
     26          7           0        6.359632    1.131073    1.107476
     27          6           0        7.186344    2.164570    0.746242
     28          6           0        8.200808    2.426896    1.839250
     29          6           0        7.756993    1.566207    2.962400
     30          6           0        6.789533    0.693482    2.331567
     31          6           0        9.715272    2.282507    1.399512
     32          6           0        6.989073    2.354484    4.078340
     33          6           0        7.091028    1.832947    5.436796
     34          7           0        4.886584   -1.229992    1.087633
     35          6           0        5.605489   -1.527947    2.252665
     36          6           0        5.380874   -2.895681    2.601558
     37          6           0        4.385330   -3.324723    1.731762
     38          6           0        4.075900   -2.244746    0.830065
     39          6           0        6.070287   -3.590414    3.717286
     40          6           0        3.534390   -4.402363    1.416820
     41          8           0        3.442891   -5.497737    1.924575
     42          6           0        2.719646   -3.971511    0.176835
     43          6           0        2.940469   -4.944667   -0.904675
     44          8           0        3.875186   -4.918063   -1.722965
     45          8           0        2.046374   -5.983037   -0.778757
     46          6           0        1.991028   -7.029682   -1.786348
     47          6           0       -4.288932   -4.002714   -1.463354
     48          6           0       -5.230998   -3.503412   -0.332073
     49          6           0       -6.079249   -2.518731   -0.448466
     50          6           0       -5.852291   -1.297486   -1.353699
     51          6           0       -7.117749   -2.264568    0.660801
     52          6           0       -8.613926   -2.508369    0.200817
     53          6           0       -9.715308   -2.172719    1.137670
     54          6           0      -10.791308   -1.273398    0.519953
     55          6           0      -12.160468   -2.000644    0.313901
     56          6           0      -11.056181    0.044373    1.246484
     57          6           0       -9.960956    1.127690    0.861592
     58          6           0       -9.339260    1.698744    2.144453
     59          6           0       -7.843470    1.779083    2.107573
     60          6           0       -7.168006    1.097719    3.343666
     61          6           0       -7.398800    3.308264    2.100973
     62          6           0       -7.305809    3.846084    0.563451
     63          6           0       -7.861716    5.283449    0.534356
     64          6           0       -9.324606    5.311591    0.095470
     65          6           0       -9.633115    5.935001   -1.239950
     66          6           0      -10.262677    5.927426    1.191172
     67          1           0        2.037655    1.972527   -3.397127
     68          1           0        7.455002    3.978179   -0.006332
     69          1           0        7.037331   -0.846603    3.765962
     70          1           0        1.690721   -2.502195   -2.790783
     71          1           0        0.297880    0.097031   -2.489179
     72          1           0        0.699178   -1.624366   -4.415643
     73          1           0        1.879661   -0.302692   -4.907389
     74          1           0        0.209571    0.055121   -4.634480
     75          1           0       -0.770222   -1.464942   -1.332309
     76          1           0        0.311932   -2.340063   -0.194729
     77          1           0       -0.610878   -4.095085   -0.943626
     78          1           0        0.038219   -3.828204   -2.607135
     79          1           0        2.554674    4.002170   -3.900608
     80          1           0        3.868137    4.836480   -4.612868
     81          1           0        3.091568    5.489388   -3.119522
     82          1           0        7.852394    5.322915   -1.526759
     83          1           0        6.819998    6.284206   -0.408945
     84          1           0        7.559122    7.066543   -1.886277
     85          1           0        8.061484    3.486408    2.050840
     86          1           0        8.481849    0.875264    3.392966
     87          1           0        9.791344    2.193199    0.315683
     88          1           0       10.284152    1.531269    1.948456
     89          1           0       10.285300    3.203599    1.517781
     90          1           0        5.939219    2.439379    3.797538
     91          1           0        7.346678    3.382338    4.137410
     92          1           0        7.983980    2.250359    5.903363
     93          1           0        7.090094    0.742763    5.463089
     94          1           0        6.326341    2.292636    6.063759
     95          1           0        7.115178   -3.287698    3.784250
     96          1           0        5.993437   -4.677081    3.677206
     97          1           0        5.603694   -3.167262    4.606907
     98          1           0        1.643778   -4.072218    0.320514
     99          1           0        2.798959   -7.759625   -1.837706
    100          1           0        1.841863   -6.580981   -2.768238
    101          1           0        1.130771   -7.629851   -1.492273
    102          1           0       -4.394173   -5.084676   -1.542789
    103          1           0       -4.591022   -3.644024   -2.447219
    104          1           0       -5.435368   -4.424410    0.214582
    105          1           0       -4.976701   -1.410743   -1.994177
    106          1           0       -5.857288   -0.312094   -0.889089
    107          1           0       -6.672414   -1.266130   -2.069219
    108          1           0       -7.109993   -1.235522    1.018189
    109          1           0       -6.929305   -2.906796    1.520631
    110          1           0       -8.600692   -3.583626    0.024543
    111          1           0       -8.709584   -1.828643   -0.646103
    112          1           0       -9.353428   -1.665986    2.032724
    113          1           0      -10.133616   -3.160578    1.332333
    114          1           0      -10.466570   -1.030177   -0.492362
    115          1           0      -12.891208   -1.388988   -0.214568
    116          1           0      -12.636091   -2.021568    1.294190
    117          1           0      -12.215561   -2.996545   -0.125715
    118          1           0      -11.329966    0.162507    2.294154
    119          1           0      -11.943096    0.426406    0.741182
    120          1           0      -10.434942    1.882342    0.233190
    121          1           0       -9.186554    0.575713    0.330450
    122          1           0       -9.722457    1.229718    3.050820
    123          1           0       -9.728729    2.708946    2.264794
    124          1           0       -7.331655    1.322452    1.260427
    125          1           0       -6.354461    0.404648    3.131541
    126          1           0       -7.919707    0.595671    3.953244
    127          1           0       -6.880565    1.835095    4.093361
    128          1           0       -6.391815    3.305030    2.517141
    129          1           0       -7.981479    4.021689    2.682993
    130          1           0       -7.882392    3.169551   -0.066582
    131          1           0       -6.350743    3.769064    0.042552
    132          1           0       -7.314082    5.936410   -0.146658
    133          1           0       -7.753723    5.802942    1.485621
    134          1           0       -9.670251    4.283004   -0.013734
    135          1           0       -8.833685    5.944988   -1.981024
    136          1           0       -9.767430    6.997406   -1.035745
    137          1           0      -10.570065    5.580840   -1.668511
    138          1           0      -10.726361    5.049481    1.640807
    139          1           0      -10.932173    6.697974    0.809590
    140          1           0       -9.697382    6.451323    1.962544
 ---------------------------------------------------------------------
 Rotational constants (GHZ):           0.0345849           0.0126559           0.0108222
 Leave Link  202 at Fri Apr 29 23:01:44 2022, MaxMem= 10066329600 cpu:               0.3 elap:               0.0
 (Enter /sw/apps/gaussian-16.0/g16/l301.exe)
 Standard basis: def2SVP (5D, 7F)
 Ernie: Thresh=  0.10000D-02 Tol=  0.10000D-05 Strict=F.
 There are  1364 symmetry adapted cartesian basis functions of A   symmetry.
 There are  1298 symmetry adapted basis functions of A   symmetry.
  1298 basis functions,  2180 primitive gaussians,  1364 cartesian basis functions
   246 alpha electrons      246 beta electrons
       nuclear repulsion energy      9691.2862561827 Hartrees.
 IExCor=  402 DFT=T Ex=B Corr=LYP ExCW=0 ScaHFX=  0.000000
 ScaDFX=  1.000000  1.000000  1.000000  1.000000 ScalE2=  1.000000  1.000000
 IRadAn=      5 IRanWt=     -1 IRanGd=            0 ICorTp=0 IEmpDi=  4
 NAtoms=  140 NActive=  140 NUniq=  140 SFac= 1.00D+00 NAtFMM=   60 NAOKFM=T Big=T
 Integral buffers will be    131072 words long.
 Regular integral format.
 Two-electron integral symmetry is turned on.
 Leave Link  301 at Fri Apr 29 23:01:45 2022, MaxMem= 10066329600 cpu:               1.3 elap:               0.1
 (Enter /sw/apps/gaussian-16.0/g16/l302.exe)
 NPDir=0 NMtPBC=     1 NCelOv=     1 NCel=       1 NClECP=     1 NCelD=      1
         NCelK=      1 NCelE2=     1 NClLst=     1 CellRange=     0.0.
 One-electron integrals computed using PRISM.
 One-electron integral symmetry used in STVInt
   1 Symmetry operations used in ECPInt.
 ECPInt:  NShTT=  192510 NPrTT=  683786 LenC2=   96727 LenP2D=  210567.
 LDataN:  DoStor=T MaxTD1= 4 Len=   56
 NBasis=  1298 RedAO= T EigKep=  2.63D-04  NBF=  1298
 NBsUse=  1298 1.00D-06 EigRej= -1.00D+00 NBFU=  1298
 Precomputing XC quadrature grid using
 IXCGrd= 4 IRadAn=           5 IRanWt=          -1 IRanGd=           0 AccXCQ= 0.00D+00.
 Generated NRdTot=       0 NPtTot=           0 NUsed=           0 NTot=          32
 NSgBfM=  1076  1076  1076  1076  1076 MxSgAt=   140 MxSgA2=   140.
 Leave Link  302 at Fri Apr 29 23:01:48 2022, MaxMem= 10066329600 cpu:              78.2 elap:               3.3
 (Enter /sw/apps/gaussian-16.0/g16/l303.exe)
 DipDrv:  MaxL=1.
 Leave Link  303 at Fri Apr 29 23:01:48 2022, MaxMem= 10066329600 cpu:               6.0 elap:               0.3
 (Enter /sw/apps/gaussian-16.0/g16/l308.exe)
 Leave Link  308 at Fri Apr 29 23:01:49 2022, MaxMem= 10066329600 cpu:               8.6 elap:               0.4
 (Enter /sw/apps/gaussian-16.0/g16/l401.exe)
 ExpMin= 3.36D-02 ExpMax= 4.95D+03 ExpMxC= 7.45D+02 IAcc=3 IRadAn=         5 AccDes= 0.00D+00
 Harris functional with IExCor=  402 and IRadAn=       5 diagonalized for initial guess.
 HarFok:  IExCor=  402 AccDes= 0.00D+00 IRadAn=         5 IDoV= 1 UseB2=F ITyADJ=14
 ICtDFT=  3500011 ScaDFX=  1.000000  1.000000  1.000000  1.000000
 FoFCou: FMM=F IPFlag=           0 FMFlag=      100000 FMFlg1=        2001
         NFxFlg=           0 DoJE=T BraDBF=F KetDBF=T FulRan=T
         wScrn=  0.000000 ICntrl=       500 IOpCl=  0 I1Cent=   200000004 NGrid=           0
         NMat0=    1 NMatS0=      1 NMatT0=    0 NMatD0=    1 NMtDS0=    0 NMtDT0=    0
 Petite list used in FoFCou.
 Harris En= -3008.72630595261    
 JPrj=0 DoOrth=F DoCkMO=F.
 Leave Link  401 at Fri Apr 29 23:01:54 2022, MaxMem= 10066329600 cpu:             133.5 elap:               5.6
 (Enter /sw/apps/gaussian-16.0/g16/l502.exe)
 Integral symmetry usage will be decided dynamically.
 Closed shell SCF:
 Using DIIS extrapolation, IDIIS=  1040.
 NGot= 10066329600 LenX= 10062561258 LenY= 10060699398
 Requested convergence on RMS density matrix=1.00D-08 within 128 cycles.
 Requested convergence on MAX density matrix=1.00D-06.
 Requested convergence on             energy=1.00D-06.
 No special actions if energy rises.
 Fock matrices will be formed incrementally for  20 cycles.

 Cycle   1  Pass 1  IDiag  1:
 FoFJK:  IHMeth= 1 ICntrl=     500 DoSepK=F KAlg= 0 I1Cent=           0 FoldK=F
 IRaf= 530000000 NMat=       1 IRICut=       1 DoRegI=T DoRafI=F ISym2E= 0 IDoP0=0 IntGTp=1.
 FoFCou: FMM=T IPFlag=           0 FMFlag=      100000 FMFlg1=        2001
         NFxFlg=           0 DoJE=T BraDBF=F KetDBF=F FulRan=T
         wScrn=  0.000000 ICntrl=       500 IOpCl=  0 I1Cent=           0 NGrid=           0
         NMat0=    1 NMatS0=      1 NMatT0=    0 NMatD0=    1 NMtDS0=    0 NMtDT0=    0
 Symmetry not used in FoFCou.
 FMM levels:  10  Number of levels for PrismC:   9
 E= -3005.58564041391    
 DIIS: error= 1.97D-02 at cycle   1 NSaved=   1.
 NSaved= 1 IEnMin= 1 EnMin= -3005.58564041391     IErMin= 1 ErrMin= 1.97D-02
 ErrMax= 1.97D-02  0.00D+00 EMaxC= 1.00D-01 BMatC= 1.57D+00 BMatP= 1.57D+00
 IDIUse=3 WtCom= 8.03D-01 WtEn= 1.97D-01
 Coeff-Com:  0.100D+01
 Coeff-En:   0.100D+01
 Coeff:      0.100D+01
 Gap=     0.056 Goal=   None    Shift=    0.000
 GapD=    0.056 DampG=0.500 DampE=0.500 DampFc=0.2500 IDamp=-1.
 Damping current iteration by 2.50D-01
 RMSDP=3.89D-03 MaxDP=4.82D-01              OVMax= 9.62D-01

 Cycle   2  Pass 1  IDiag  1:
 RMSU=  9.64D-04    CP:  9.87D-01
 E= -3005.98545225984     Delta-E=       -0.399811845929 Rises=F Damp=T
 DIIS: error= 8.51D-03 at cycle   2 NSaved=   2.
 NSaved= 2 IEnMin= 2 EnMin= -3005.98545225984     IErMin= 2 ErrMin= 8.51D-03
 ErrMax= 8.51D-03  0.00D+00 EMaxC= 1.00D-01 BMatC= 2.87D-01 BMatP= 1.57D+00
 IDIUse=3 WtCom= 9.15D-01 WtEn= 8.51D-02
 Coeff-Com: -0.200D+00 0.120D+01
 Coeff-En:   0.230D+00 0.770D+00
 Coeff:     -0.164D+00 0.116D+01
 Gap=    -0.032 Goal=   None    Shift=    0.000
 RMSDP=1.98D-03 MaxDP=1.96D-01 DE=-4.00D-01 OVMax= 5.54D-01

 Cycle   3  Pass 1  IDiag  1:
 RMSU=  1.96D-03    CP:  9.61D-01  1.21D+00
 E= -3003.78114216184     Delta-E=        2.204310098001 Rises=F Damp=F
 DIIS: error= 4.21D-02 at cycle   3 NSaved=   3.
 NSaved= 3 IEnMin= 2 EnMin= -3005.98545225984     IErMin= 2 ErrMin= 8.51D-03
 ErrMax= 4.21D-02  0.00D+00 EMaxC= 1.00D-01 BMatC= 2.58D+00 BMatP= 2.87D-01
 IDIUse=2 WtCom= 0.00D+00 WtEn= 1.00D+00
 EnCoef did     2 forward-backward iterations
 Coeff-En:   0.244D-01 0.734D+00 0.241D+00
 Coeff:      0.244D-01 0.734D+00 0.241D+00
 Gap=    -0.062 Goal=   None    Shift=    0.000
 RMSDP=2.35D-03 MaxDP=3.52D-01 DE= 2.20D+00 OVMax= 9.06D-01

 Cycle   4  Pass 1  IDiag  1:
 RMSU=  1.27D-03    CP:  9.66D-01  1.70D+00  2.18D-02
 E= -3005.41701005619     Delta-E=       -1.635867894345 Rises=F Damp=F
 DIIS: error= 2.79D-02 at cycle   4 NSaved=   4.
 NSaved= 4 IEnMin= 2 EnMin= -3005.98545225984     IErMin= 2 ErrMin= 8.51D-03
 ErrMax= 2.79D-02  0.00D+00 EMaxC= 1.00D-01 BMatC= 1.12D+00 BMatP= 2.87D-01
 IDIUse=2 WtCom= 0.00D+00 WtEn= 1.00D+00
 EnCoef did   100 forward-backward iterations
 Coeff-En:   0.224D+00 0.141D-01 0.281D+00 0.481D+00
 Coeff:      0.224D+00 0.141D-01 0.281D+00 0.481D+00
 Gap=    -0.303 Goal=   None    Shift=    0.000
 RMSDP=1.96D-03 MaxDP=3.14D-01 DE=-1.64D+00 OVMax= 6.63D-01

 Cycle   5  Pass 1  IDiag  1:
 RMSU=  1.44D-03    CP:  9.67D-01  1.40D+00  2.62D-01  4.33D-02
 E= -3002.15396956212     Delta-E=        3.263040494070 Rises=F Damp=F
 DIIS: error= 5.77D-02 at cycle   5 NSaved=   5.
 NSaved= 5 IEnMin= 2 EnMin= -3005.98545225984     IErMin= 2 ErrMin= 8.51D-03
 ErrMax= 5.77D-02  0.00D+00 EMaxC= 1.00D-01 BMatC= 2.68D+00 BMatP= 2.87D-01
 IDIUse=2 WtCom= 0.00D+00 WtEn= 1.00D+00
 EnCoef did     4 forward-backward iterations
 Coeff-En:   0.150D+00 0.000D+00 0.261D+00 0.461D+00 0.128D+00
 Coeff:      0.150D+00 0.000D+00 0.261D+00 0.461D+00 0.128D+00
 Gap=     0.027 Goal=   None    Shift=    0.000
 RMSDP=1.65D-03 MaxDP=3.22D-01 DE= 3.26D+00 OVMax= 5.88D-01

 Cycle   6  Pass 1  IDiag  1:
 RMSU=  7.11D-04    CP:  9.77D-01  9.33D-01  2.05D-01  2.95D-01  4.57D-02
 E= -3007.13121476086     Delta-E=       -4.977245198739 Rises=F Damp=F
 DIIS: error= 2.07D-02 at cycle   6 NSaved=   6.
 NSaved= 6 IEnMin= 6 EnMin= -3007.13121476086     IErMin= 2 ErrMin= 8.51D-03
 ErrMax= 2.07D-02  0.00D+00 EMaxC= 1.00D-01 BMatC= 1.78D-01 BMatP= 2.87D-01
 IDIUse=3 WtCom= 7.93D-01 WtEn= 2.07D-01
 Coeff-Com: -0.110D+00 0.455D+00 0.102D+00 0.141D+00 0.132D-02 0.411D+00
 Coeff-En:   0.000D+00 0.000D+00 0.000D+00 0.151D+00 0.000D+00 0.849D+00
 Coeff:     -0.877D-01 0.361D+00 0.808D-01 0.143D+00 0.105D-02 0.501D+00
 Gap=     0.039 Goal=   None    Shift=    0.000
 RMSDP=7.75D-04 MaxDP=5.87D-02 DE=-4.98D+00 OVMax= 3.28D-01

 Cycle   7  Pass 1  IDiag  1:
 RMSU=  7.20D-04    CP:  9.74D-01  9.79D-01  2.28D-01  4.11D-01  9.60D-02
                    CP:  6.86D-01
 E= -3007.02418457188     Delta-E=        0.107030188981 Rises=F Damp=F
 DIIS: error= 1.50D-02 at cycle   7 NSaved=   7.
 NSaved= 7 IEnMin= 6 EnMin= -3007.13121476086     IErMin= 2 ErrMin= 8.51D-03
 ErrMax= 1.50D-02  0.00D+00 EMaxC= 1.00D-01 BMatC= 2.31D-01 BMatP= 1.78D-01
 IDIUse=2 WtCom= 0.00D+00 WtEn= 1.00D+00
 EnCoef did     4 forward-backward iterations
 Coeff-En:   0.000D+00 0.000D+00 0.000D+00 0.110D+00 0.000D+00 0.579D+00
 Coeff-En:   0.311D+00
 Coeff:      0.000D+00 0.000D+00 0.000D+00 0.110D+00 0.000D+00 0.579D+00
 Coeff:      0.311D+00
 Gap=     0.064 Goal=   None    Shift=    0.000
 RMSDP=1.21D-03 MaxDP=2.08D-01 DE= 1.07D-01 OVMax= 7.25D-01

 Cycle   8  Pass 1  IDiag  1:
 RMSU=  7.24D-04    CP:  9.73D-01  1.33D+00  9.29D-02  7.36D-01 -2.41D-02
                    CP:  3.59D-01  1.63D-02
 E= -3006.21885537856     Delta-E=        0.805329193312 Rises=F Damp=F
 DIIS: error= 3.95D-02 at cycle   8 NSaved=   8.
 NSaved= 8 IEnMin= 6 EnMin= -3007.13121476086     IErMin= 2 ErrMin= 8.51D-03
 ErrMax= 3.95D-02  0.00D+00 EMaxC= 1.00D-01 BMatC= 8.46D-01 BMatP= 1.78D-01
 IDIUse=2 WtCom= 0.00D+00 WtEn= 1.00D+00
 EnCoef did   100 forward-backward iterations
 Coeff-En:   0.000D+00 0.000D+00 0.000D+00 0.579D-02 0.000D+00 0.534D+00
 Coeff-En:   0.299D+00 0.161D+00
 Coeff:      0.000D+00 0.000D+00 0.000D+00 0.579D-02 0.000D+00 0.534D+00
 Coeff:      0.299D+00 0.161D+00
 Gap=    -0.022 Goal=   None    Shift=    0.000
 RMSDP=1.06D-03 MaxDP=1.86D-01 DE= 8.05D-01 OVMax= 8.33D-01

 Cycle   9  Pass 1  IDiag  1:
 RMSU=  4.83D-04    CP:  9.77D-01  1.13D+00  1.07D-01  4.67D-01  3.11D-02
                    CP:  9.81D-01  4.93D-01  1.05D-01
 E= -3007.25775354568     Delta-E=       -1.038898167120 Rises=F Damp=F
 DIIS: error= 4.12D-03 at cycle   9 NSaved=   9.
 NSaved= 9 IEnMin= 9 EnMin= -3007.25775354568     IErMin= 9 ErrMin= 4.12D-03
 ErrMax= 4.12D-03  0.00D+00 EMaxC= 1.00D-01 BMatC= 5.41D-02 BMatP= 1.78D-01
 IDIUse=3 WtCom= 9.59D-01 WtEn= 4.12D-02
 EnCoef did     2 forward-backward iterations
 Coeff-Com: -0.531D-01 0.140D+00 0.753D-02-0.200D-04-0.227D-01 0.319D+00
 Coeff-Com:  0.235D+00 0.408D-01 0.333D+00
 Coeff-En:   0.000D+00 0.000D+00 0.000D+00 0.000D+00 0.000D+00 0.206D+00
 Coeff-En:   0.136D+00 0.000D+00 0.658D+00
 Coeff:     -0.509D-01 0.134D+00 0.722D-02-0.192D-04-0.218D-01 0.314D+00
 Coeff:      0.231D+00 0.391D-01 0.347D+00
 Gap=     0.074 Goal=   None    Shift=    0.000
 RMSDP=3.44D-04 MaxDP=6.30D-02 DE=-1.04D+00 OVMax= 1.24D-01

 Cycle  10  Pass 1  IDiag  1:
 RMSU=  1.92D-04    CP:  9.77D-01  1.01D+00  1.66D-01  3.60D-01  2.09D-02
                    CP:  9.92D-01  4.65D-01  1.22D-01  6.17D-01
 E= -3007.30492353040     Delta-E=       -0.047169984718 Rises=F Damp=F
 DIIS: error= 1.97D-03 at cycle  10 NSaved=  10.
 NSaved=10 IEnMin=10 EnMin= -3007.30492353040     IErMin=10 ErrMin= 1.97D-03
 ErrMax= 1.97D-03  0.00D+00 EMaxC= 1.00D-01 BMatC= 8.97D-03 BMatP= 5.41D-02
 IDIUse=3 WtCom= 9.80D-01 WtEn= 1.97D-02
 Coeff-Com: -0.618D-02 0.382D-01-0.932D-03 0.104D-01-0.668D-02 0.118D+00
 Coeff-Com:  0.105D+00-0.183D-02 0.273D+00 0.472D+00
 Coeff-En:   0.000D+00 0.000D+00 0.000D+00 0.000D+00 0.000D+00 0.000D+00
 Coeff-En:   0.000D+00 0.000D+00 0.184D+00 0.816D+00
 Coeff:     -0.606D-02 0.375D-01-0.913D-03 0.102D-01-0.655D-02 0.115D+00
 Coeff:      0.103D+00-0.179D-02 0.271D+00 0.479D+00
 Gap=     0.042 Goal=   None    Shift=    0.000
 RMSDP=1.73D-04 MaxDP=1.04D-02 DE=-4.72D-02 OVMax= 1.24D-01

 Cycle  11  Pass 1  IDiag  1:
 RMSU=  1.15D-04    CP:  9.77D-01  1.02D+00  1.50D-01  3.79D-01  3.81D-02
                    CP:  9.62D-01  5.45D-01  7.55D-02  6.28D-01  5.01D-01
 E= -3007.30839434872     Delta-E=       -0.003470818319 Rises=F Damp=F
 DIIS: error= 2.56D-03 at cycle  11 NSaved=  11.
 NSaved=11 IEnMin=11 EnMin= -3007.30839434872     IErMin=10 ErrMin= 1.97D-03
 ErrMax= 2.56D-03  0.00D+00 EMaxC= 1.00D-01 BMatC= 4.78D-03 BMatP= 8.97D-03
 IDIUse=3 WtCom= 9.80D-01 WtEn= 1.97D-02
 EnCoef did     3 forward-backward iterations
 Coeff-Com:  0.124D-01-0.835D-02-0.216D-02 0.434D-02-0.104D-02 0.404D-01
 Coeff-Com:  0.411D-01-0.196D-02 0.204D+00 0.406D+00 0.305D+00
 Coeff-En:   0.000D+00 0.000D+00 0.000D+00 0.000D+00 0.000D+00 0.000D+00
 Coeff-En:   0.000D+00 0.000D+00 0.175D-01 0.418D+00 0.565D+00
 Coeff:      0.122D-01-0.818D-02-0.211D-02 0.425D-02-0.102D-02 0.397D-01
 Coeff:      0.403D-01-0.192D-02 0.200D+00 0.406D+00 0.310D+00
 Gap=     0.043 Goal=   None    Shift=    0.000
 RMSDP=1.35D-04 MaxDP=1.08D-02 DE=-3.47D-03 OVMax= 1.09D-01

 Cycle  12  Pass 1  IDiag  1:
 RMSU=  4.91D-05    CP:  9.77D-01  1.02D+00  1.46D-01  3.92D-01  2.20D-02
                    CP:  9.69D-01  5.01D-01  1.06D-01  7.14D-01  7.17D-01
                    CP:  1.33D-01
 E= -3007.31333281250     Delta-E=       -0.004938463775 Rises=F Damp=F
 DIIS: error= 1.15D-03 at cycle  12 NSaved=  12.
 NSaved=12 IEnMin=12 EnMin= -3007.31333281250     IErMin=12 ErrMin= 1.15D-03
 ErrMax= 1.15D-03  0.00D+00 EMaxC= 1.00D-01 BMatC= 1.23D-03 BMatP= 4.78D-03
 IDIUse=3 WtCom= 9.88D-01 WtEn= 1.15D-02
 Coeff-Com:  0.103D-01-0.113D-01-0.124D-02 0.157D-02 0.722D-03 0.149D-01
 Coeff-Com:  0.175D-01-0.114D-02 0.120D+00 0.268D+00 0.288D+00 0.294D+00
 Coeff-En:   0.000D+00 0.000D+00 0.000D+00 0.000D+00 0.000D+00 0.000D+00
 Coeff-En:   0.000D+00 0.000D+00 0.000D+00 0.000D+00 0.292D+00 0.708D+00
 Coeff:      0.102D-01-0.111D-01-0.123D-02 0.155D-02 0.714D-03 0.147D-01
 Coeff:      0.173D-01-0.113D-02 0.118D+00 0.265D+00 0.288D+00 0.298D+00
 Gap=     0.043 Goal=   None    Shift=    0.000
 RMSDP=5.79D-05 MaxDP=3.51D-03 DE=-4.94D-03 OVMax= 4.02D-02

 Cycle  13  Pass 1  IDiag  1:
 RMSU=  1.74D-05    CP:  9.77D-01  1.02D+00  1.46D-01  3.87D-01  2.91D-02
                    CP:  9.74D-01  5.07D-01  1.00D-01  7.02D-01  6.44D-01
                    CP:  3.98D-01  1.62D-01
 E= -3007.31505014092     Delta-E=       -0.001717328421 Rises=F Damp=F
 DIIS: error= 4.29D-04 at cycle  13 NSaved=  13.
 NSaved=13 IEnMin=13 EnMin= -3007.31505014092     IErMin=13 ErrMin= 4.29D-04
 ErrMax= 4.29D-04  0.00D+00 EMaxC= 1.00D-01 BMatC= 1.60D-04 BMatP= 1.23D-03
 IDIUse=3 WtCom= 9.96D-01 WtEn= 4.29D-03
 Coeff-Com:  0.430D-02-0.451D-02-0.343D-03-0.345D-05 0.498D-03 0.823D-02
 Coeff-Com:  0.904D-02-0.491D-03 0.543D-01 0.135D+00 0.179D+00 0.251D+00
 Coeff-Com:  0.364D+00
 Coeff-En:   0.000D+00 0.000D+00 0.000D+00 0.000D+00 0.000D+00 0.000D+00
 Coeff-En:   0.000D+00 0.000D+00 0.000D+00 0.000D+00 0.000D+00 0.122D+00
 Coeff-En:   0.878D+00
 Coeff:      0.428D-02-0.449D-02-0.342D-03-0.344D-05 0.496D-03 0.819D-02
 Coeff:      0.901D-02-0.488D-03 0.540D-01 0.134D+00 0.179D+00 0.251D+00
 Coeff:      0.366D+00
 Gap=     0.043 Goal=   None    Shift=    0.000
 RMSDP=2.03D-05 MaxDP=1.48D-03 DE=-1.72D-03 OVMax= 1.46D-02

 Cycle  14  Pass 1  IDiag  1:
 RMSU=  8.29D-06    CP:  9.77D-01  1.02D+00  1.47D-01  3.85D-01  2.92D-02
                    CP:  9.72D-01  5.10D-01  9.69D-02  6.87D-01  6.56D-01
                    CP:  3.75D-01  3.84D-01  3.30D-01
 E= -3007.31522964701     Delta-E=       -0.000179506096 Rises=F Damp=F
 DIIS: error= 1.74D-04 at cycle  14 NSaved=  14.
 NSaved=14 IEnMin=14 EnMin= -3007.31522964701     IErMin=14 ErrMin= 1.74D-04
 ErrMax= 1.74D-04  0.00D+00 EMaxC= 1.00D-01 BMatC= 3.35D-05 BMatP= 1.60D-04
 IDIUse=3 WtCom= 9.98D-01 WtEn= 1.74D-03
 Coeff-Com:  0.123D-02-0.126D-02 0.464D-04-0.939D-03 0.146D-03 0.532D-02
 Coeff-Com:  0.496D-02 0.260D-03 0.207D-01 0.516D-01 0.841D-01 0.143D+00
 Coeff-Com:  0.311D+00 0.380D+00
 Coeff-En:   0.000D+00 0.000D+00 0.000D+00 0.000D+00 0.000D+00 0.000D+00
 Coeff-En:   0.000D+00 0.000D+00 0.000D+00 0.000D+00 0.000D+00 0.000D+00
 Coeff-En:   0.190D+00 0.810D+00
 Coeff:      0.122D-02-0.125D-02 0.464D-04-0.937D-03 0.145D-03 0.531D-02
 Coeff:      0.495D-02 0.260D-03 0.207D-01 0.515D-01 0.840D-01 0.143D+00
 Coeff:      0.311D+00 0.381D+00
 Gap=     0.043 Goal=   None    Shift=    0.000
 RMSDP=8.42D-06 MaxDP=8.80D-04 DE=-1.80D-04 OVMax= 5.16D-03

 Cycle  15  Pass 1  IDiag  1:
 RMSU=  3.64D-06    CP:  9.77D-01  1.02D+00  1.48D-01  3.86D-01  2.85D-02
                    CP:  9.73D-01  5.07D-01  9.87D-02  6.87D-01  6.49D-01
                    CP:  3.72D-01  3.32D-01  4.80D-01  3.25D-01
 E= -3007.31526230958     Delta-E=       -0.000032662563 Rises=F Damp=F
 DIIS: error= 5.84D-05 at cycle  15 NSaved=  15.
 NSaved=15 IEnMin=15 EnMin= -3007.31526230958     IErMin=15 ErrMin= 5.84D-05
 ErrMax= 5.84D-05  0.00D+00 EMaxC= 1.00D-01 BMatC= 5.72D-06 BMatP= 3.35D-05
 IDIUse=1 WtCom= 1.00D+00 WtEn= 0.00D+00
 Coeff-Com: -0.636D-04 0.160D-03 0.950D-04-0.473D-03 0.143D-04 0.350D-02
 Coeff-Com:  0.283D-02 0.576D-04 0.472D-02 0.136D-01 0.307D-01 0.626D-01
 Coeff-Com:  0.166D+00 0.295D+00 0.421D+00
 Coeff:     -0.636D-04 0.160D-03 0.950D-04-0.473D-03 0.143D-04 0.350D-02
 Coeff:      0.283D-02 0.576D-04 0.472D-02 0.136D-01 0.307D-01 0.626D-01
 Coeff:      0.166D+00 0.295D+00 0.421D+00
 Gap=     0.043 Goal=   None    Shift=    0.000
 RMSDP=3.73D-06 MaxDP=3.48D-04 DE=-3.27D-05 OVMax= 1.86D-03

 Cycle  16  Pass 1  IDiag  1:
 RMSU=  1.84D-06    CP:  9.77D-01  1.02D+00  1.48D-01  3.85D-01  2.89D-02
                    CP:  9.73D-01  5.08D-01  9.77D-02  6.84D-01  6.47D-01
                    CP:  3.73D-01  3.35D-01  4.61D-01  5.03D-01  4.19D-01
 E= -3007.31526855692     Delta-E=       -0.000006247345 Rises=F Damp=F
 DIIS: error= 2.35D-05 at cycle  16 NSaved=  16.
 NSaved=16 IEnMin=16 EnMin= -3007.31526855692     IErMin=16 ErrMin= 2.35D-05
 ErrMax= 2.35D-05  0.00D+00 EMaxC= 1.00D-01 BMatC= 1.13D-06 BMatP= 5.72D-06
 IDIUse=1 WtCom= 1.00D+00 WtEn= 0.00D+00
 Coeff-Com: -0.116D-03 0.186D-04 0.447D-04-0.694D-04-0.947D-05 0.185D-02
 Coeff-Com:  0.126D-02-0.595D-04 0.720D-04 0.100D-02 0.759D-02 0.199D-01
 Coeff-Com:  0.609D-01 0.149D+00 0.335D+00 0.424D+00
 Coeff:     -0.116D-03 0.186D-04 0.447D-04-0.694D-04-0.947D-05 0.185D-02
 Coeff:      0.126D-02-0.595D-04 0.720D-04 0.100D-02 0.759D-02 0.199D-01
 Coeff:      0.609D-01 0.149D+00 0.335D+00 0.424D+00
 Gap=     0.043 Goal=   None    Shift=    0.000
 RMSDP=1.44D-06 MaxDP=1.21D-04 DE=-6.25D-06 OVMax= 5.34D-04

 Cycle  17  Pass 1  IDiag  1:
 RMSU=  8.30D-07    CP:  9.77D-01  1.02D+00  1.48D-01  3.85D-01  2.89D-02
                    CP:  9.73D-01  5.08D-01  9.76D-02  6.84D-01  6.46D-01
                    CP:  3.72D-01  3.38D-01  4.66D-01  4.58D-01  5.90D-01
                    CP:  5.47D-01
 E= -3007.31526963656     Delta-E=       -0.000001079639 Rises=F Damp=F
 DIIS: error= 9.75D-06 at cycle  17 NSaved=  17.
 NSaved=17 IEnMin=17 EnMin= -3007.31526963656     IErMin=17 ErrMin= 9.75D-06
 ErrMax= 9.75D-06  0.00D+00 EMaxC= 1.00D-01 BMatC= 1.94D-07 BMatP= 1.13D-06
 IDIUse=1 WtCom= 1.00D+00 WtEn= 0.00D+00
 Coeff-Com:  0.731D-05-0.153D-03 0.898D-05 0.422D-04-0.713D-05 0.675D-03
 Coeff-Com:  0.353D-03-0.416D-04-0.551D-03-0.120D-02 0.371D-03 0.299D-02
 Coeff-Com:  0.110D-01 0.530D-01 0.166D+00 0.319D+00 0.448D+00
 Coeff:      0.731D-05-0.153D-03 0.898D-05 0.422D-04-0.713D-05 0.675D-03
 Coeff:      0.353D-03-0.416D-04-0.551D-03-0.120D-02 0.371D-03 0.299D-02
 Coeff:      0.110D-01 0.530D-01 0.166D+00 0.319D+00 0.448D+00
 Gap=     0.043 Goal=   None    Shift=    0.000
 RMSDP=5.41D-07 MaxDP=5.28D-05 DE=-1.08D-06 OVMax= 1.78D-04

 Cycle  18  Pass 1  IDiag  1:
 RMSU=  2.97D-07    CP:  9.77D-01  1.02D+00  1.48D-01  3.85D-01  2.89D-02
                    CP:  9.73D-01  5.08D-01  9.76D-02  6.84D-01  6.46D-01
                    CP:  3.72D-01  3.39D-01  4.62D-01  4.71D-01  5.69D-01
                    CP:  6.13D-01  5.30D-01
 E= -3007.31526981387     Delta-E=       -0.000000177308 Rises=F Damp=F
 DIIS: error= 4.81D-06 at cycle  18 NSaved=  18.
 NSaved=18 IEnMin=18 EnMin= -3007.31526981387     IErMin=18 ErrMin= 4.81D-06
 ErrMax= 4.81D-06  0.00D+00 EMaxC= 1.00D-01 BMatC= 3.32D-08 BMatP= 1.94D-07
 IDIUse=1 WtCom= 1.00D+00 WtEn= 0.00D+00
 Coeff-Com:  0.531D-04-0.159D-03 0.386D-05 0.278D-04-0.249D-05 0.232D-03
 Coeff-Com:  0.801D-04-0.150D-04-0.243D-03-0.427D-03 0.143D-03 0.466D-03
 Coeff-Com:  0.121D-02 0.209D-01 0.762D-01 0.173D+00 0.324D+00 0.404D+00
 Coeff:      0.531D-04-0.159D-03 0.386D-05 0.278D-04-0.249D-05 0.232D-03
 Coeff:      0.801D-04-0.150D-04-0.243D-03-0.427D-03 0.143D-03 0.466D-03
 Coeff:      0.121D-02 0.209D-01 0.762D-01 0.173D+00 0.324D+00 0.404D+00
 Gap=     0.043 Goal=   None    Shift=    0.000
 RMSDP=2.11D-07 MaxDP=2.07D-05 DE=-1.77D-07 OVMax= 6.35D-05

 Cycle  19  Pass 1  IDiag  1:
 RMSU=  1.08D-07    CP:  9.77D-01  1.02D+00  1.48D-01  3.85D-01  2.89D-02
                    CP:  9.73D-01  5.08D-01  9.76D-02  6.84D-01  6.46D-01
                    CP:  3.72D-01  3.39D-01  4.62D-01  4.69D-01  5.74D-01
                    CP:  5.97D-01  5.78D-01  4.92D-01
 E= -3007.31526984154     Delta-E=       -0.000000027672 Rises=F Damp=F
 DIIS: error= 2.68D-06 at cycle  19 NSaved=  19.
 NSaved=19 IEnMin=19 EnMin= -3007.31526984154     IErMin=19 ErrMin= 2.68D-06
 ErrMax= 2.68D-06  0.00D+00 EMaxC= 1.00D-01 BMatC= 6.41D-09 BMatP= 3.32D-08
 IDIUse=1 WtCom= 1.00D+00 WtEn= 0.00D+00
 Coeff-Com:  0.496D-04-0.112D-03 0.485D-05 0.728D-05-0.200D-05 0.646D-04
 Coeff-Com:  0.983D-06-0.833D-06-0.522D-04-0.683D-05 0.242D-03-0.866D-04
 Coeff-Com: -0.813D-03 0.690D-02 0.272D-01 0.741D-01 0.166D+00 0.301D+00
 Coeff-Com:  0.425D+00
 Coeff:      0.496D-04-0.112D-03 0.485D-05 0.728D-05-0.200D-05 0.646D-04
 Coeff:      0.983D-06-0.833D-06-0.522D-04-0.683D-05 0.242D-03-0.866D-04
 Coeff:     -0.813D-03 0.690D-02 0.272D-01 0.741D-01 0.166D+00 0.301D+00
 Coeff:      0.425D+00
 Gap=     0.043 Goal=   None    Shift=    0.000
 RMSDP=7.91D-08 MaxDP=9.03D-06 DE=-2.77D-08 OVMax= 2.18D-05

 Cycle  20  Pass 1  IDiag  1:
 RMSU=  4.67D-08    CP:  9.77D-01  1.02D+00  1.48D-01  3.85D-01  2.88D-02
                    CP:  9.73D-01  5.08D-01  9.76D-02  6.84D-01  6.46D-01
                    CP:  3.72D-01  3.39D-01  4.62D-01  4.70D-01  5.74D-01
                    CP:  5.97D-01  5.66D-01  4.99D-01  4.78D-01
 E= -3007.31526984633     Delta-E=       -0.000000004789 Rises=F Damp=F
 DIIS: error= 1.20D-06 at cycle  20 NSaved=  20.
 NSaved=20 IEnMin=20 EnMin= -3007.31526984633     IErMin=20 ErrMin= 1.20D-06
 ErrMax= 1.20D-06  0.00D+00 EMaxC= 1.00D-01 BMatC= 1.79D-09 BMatP= 6.41D-09
 IDIUse=1 WtCom= 1.00D+00 WtEn= 0.00D+00
 Coeff-Com:  0.265D-04-0.559D-04 0.407D-05 0.369D-05-0.164D-05 0.147D-04
 Coeff-Com: -0.123D-04 0.390D-07-0.293D-04 0.202D-04 0.766D-04-0.431D-03
 Coeff-Com: -0.148D-02 0.238D-03 0.356D-02 0.214D-01 0.597D-01 0.136D+00
 Coeff-Com:  0.275D+00 0.505D+00
 Coeff:      0.265D-04-0.559D-04 0.407D-05 0.369D-05-0.164D-05 0.147D-04
 Coeff:     -0.123D-04 0.390D-07-0.293D-04 0.202D-04 0.766D-04-0.431D-03
 Coeff:     -0.148D-02 0.238D-03 0.356D-02 0.214D-01 0.597D-01 0.136D+00
 Coeff:      0.275D+00 0.505D+00
 Gap=     0.043 Goal=   None    Shift=    0.000
 RMSDP=4.58D-08 MaxDP=7.47D-06 DE=-4.79D-09 OVMax= 1.56D-05

 Cycle  21  Pass 1  IDiag  1:
 Restarting incremental Fock formation.
 E= -3007.31526984805     Delta-E=       -0.000000001721 Rises=F Damp=F
 DIIS: error= 6.98D-07 at cycle  21 NSaved=  20.
 NSaved=20 IEnMin=20 EnMin= -3007.31526984805     IErMin=20 ErrMin= 6.98D-07
 ErrMax= 6.98D-07  0.00D+00 EMaxC= 1.00D-01 BMatC= 5.01D-10 BMatP= 1.79D-09
 IDIUse=1 WtCom= 1.00D+00 WtEn= 0.00D+00
 Coeff-Com:  0.857D-05-0.168D-04 0.200D-05 0.155D-05-0.766D-05-0.111D-04
 Coeff-Com: -0.341D-06-0.113D-04 0.144D-04-0.265D-04-0.436D-03-0.129D-02
 Coeff-Com: -0.264D-02-0.775D-02-0.835D-02-0.728D-02 0.672D-02 0.727D-01
 Coeff-Com:  0.376D+00 0.573D+00
 Coeff:      0.857D-05-0.168D-04 0.200D-05 0.155D-05-0.766D-05-0.111D-04
 Coeff:     -0.341D-06-0.113D-04 0.144D-04-0.265D-04-0.436D-03-0.129D-02
 Coeff:     -0.264D-02-0.775D-02-0.835D-02-0.728D-02 0.672D-02 0.727D-01
 Coeff:      0.376D+00 0.573D+00
 Gap=     0.043 Goal=   None    Shift=    0.000
 RMSDP=2.77D-08 MaxDP=5.40D-06 DE=-1.72D-09 OVMax= 7.29D-06

 Cycle  22  Pass 1  IDiag  1:
 RMSU=  2.76D-08    CP:  1.00D+00
 E= -3007.31526984845     Delta-E=       -0.000000000402 Rises=F Damp=F
 DIIS: error= 2.05D-07 at cycle  22 NSaved=  20.
 NSaved=20 IEnMin=20 EnMin= -3007.31526984845     IErMin=20 ErrMin= 2.05D-07
 ErrMax= 2.05D-07  0.00D+00 EMaxC= 1.00D-01 BMatC= 6.80D-11 BMatP= 5.01D-10
 IDIUse=1 WtCom= 1.00D+00 WtEn= 0.00D+00
 Coeff-Com:  0.538D-06-0.250D-05-0.214D-07-0.587D-06-0.194D-05 0.538D-07
 Coeff-Com: -0.118D-04-0.166D-04-0.621D-04-0.293D-03-0.790D-03-0.171D-02
 Coeff-Com: -0.499D-02-0.674D-02-0.993D-02-0.134D-01 0.583D-02 0.152D+00
 Coeff-Com:  0.395D+00 0.485D+00
 Coeff:      0.538D-06-0.250D-05-0.214D-07-0.587D-06-0.194D-05 0.538D-07
 Coeff:     -0.118D-04-0.166D-04-0.621D-04-0.293D-03-0.790D-03-0.171D-02
 Coeff:     -0.499D-02-0.674D-02-0.993D-02-0.134D-01 0.583D-02 0.152D+00
 Coeff:      0.395D+00 0.485D+00
 Gap=     0.043 Goal=   None    Shift=    0.000
 RMSDP=1.10D-08 MaxDP=1.03D-06 DE=-4.02D-10 OVMax= 4.02D-06

 Cycle  23  Pass 1  IDiag  1:
 RMSU=  1.07D-08    CP:  1.00D+00  1.08D+00
 E= -3007.31526984846     Delta-E=       -0.000000000002 Rises=F Damp=F
 DIIS: error= 1.18D-07 at cycle  23 NSaved=  20.
 NSaved=20 IEnMin=20 EnMin= -3007.31526984846     IErMin=20 ErrMin= 1.18D-07
 ErrMax= 1.18D-07  0.00D+00 EMaxC= 1.00D-01 BMatC= 1.03D-11 BMatP= 6.80D-11
 IDIUse=1 WtCom= 1.00D+00 WtEn= 0.00D+00
 Coeff-Com: -0.493D-06 0.186D-08 0.149D-05-0.725D-08-0.540D-07-0.961D-05
 Coeff-Com: -0.160D-04-0.394D-04-0.167D-03-0.439D-03-0.853D-03-0.244D-02
 Coeff-Com: -0.312D-02-0.429D-02-0.650D-02 0.253D-02 0.692D-01 0.212D+00
 Coeff-Com:  0.349D+00 0.385D+00
 Coeff:     -0.493D-06 0.186D-08 0.149D-05-0.725D-08-0.540D-07-0.961D-05
 Coeff:     -0.160D-04-0.394D-04-0.167D-03-0.439D-03-0.853D-03-0.244D-02
 Coeff:     -0.312D-02-0.429D-02-0.650D-02 0.253D-02 0.692D-01 0.212D+00
 Coeff:      0.349D+00 0.385D+00
 Gap=     0.043 Goal=   None    Shift=    0.000
 RMSDP=4.16D-09 MaxDP=3.87D-07 DE=-1.82D-12 OVMax= 1.65D-06

 SCF Done:  E(RB-LYP) =  -3007.31526985     A.U. after   23 cycles
            NFock= 23  Conv=0.42D-08     -V/T= 2.0097
 KE= 2.978554352291D+03 PE=-2.637794775133D+04 EE= 1.070079187300D+04
 Leave Link  502 at Fri Apr 29 23:06:05 2022, MaxMem= 10066329600 cpu:            5991.2 elap:             250.6
 (Enter /sw/apps/gaussian-16.0/g16/l801.exe)
 DoSCS=F DFT=T ScalE2(SS,OS)=  1.000000  1.000000
 ExpMin= 3.36D-02 ExpMax= 4.95D+03 ExpMxC= 7.45D+02 IAcc=3 IRadAn=         5 AccDes= 0.00D+00
 HarFok:  IExCor=  205 AccDes= 0.00D+00 IRadAn=         5 IDoV=-2 UseB2=F ITyADJ=14
 ICtDFT= 12500011 ScaDFX=  1.000000  1.000000  1.000000  1.000000
 GSVD:  LWork=       -5460 too small for GESVD, short by       25550 words or       25550 for optimal perf.
 Largest valence mixing into a core orbital is  1.56D-04
 Largest core mixing into a valence orbital is  4.70D-05
 Range of M.O.s used for correlation:    71  1298
 NBasis=  1298 NAE=   246 NBE=   246 NFC=    70 NFV=     0
 NROrb=   1228 NOA=   176 NOB=   176 NVA=  1052 NVB=  1052

 **** Warning!!: The smallest alpha delta epsilon is  0.42946851D-01

 Leave Link  801 at Fri Apr 29 23:06:05 2022, MaxMem= 10066329600 cpu:               6.6 elap:               0.3
 (Enter /sw/apps/gaussian-16.0/g16/l914.exe)
 RHF ground state
 Two-electron integrals replicated using symmetry.
 MDV= 10066329600 DFT=T DoStab=F Mixed=F DoRPA=T DoScal=T NonHer=F
 Making orbital integer symmetry assigments:
 Orbital symmetries:
       Occupied  (A) (A) (A) (A) (A) (A) (A) (A) (A) (A) (A) (A)
                 (A) (A) (A) (A) (A) (A) (A) (A) (A) (A) (A) (A)
                 (A) (A) (A) (A) (A) (A) (A) (A) (A) (A) (A) (A)
                 (A) (A) (A) (A) (A) (A) (A) (A) (A) (A) (A) (A)
                 (A) (A) (A) (A) (A) (A) (A) (A) (A) (A) (A) (A)
                 (A) (A) (A) (A) (A) (A) (A) (A) (A) (A) (A) (A)
                 (A) (A) (A) (A) (A) (A) (A) (A) (A) (A) (A) (A)
                 (A) (A) (A) (A) (A) (A) (A) (A) (A) (A) (A) (A)
                 (A) (A) (A) (A) (A) (A) (A) (A) (A) (A) (A) (A)
                 (A) (A) (A) (A) (A) (A) (A) (A) (A) (A) (A) (A)
                 (A) (A) (A) (A) (A) (A) (A) (A) (A) (A) (A) (A)
                 (A) (A) (A) (A) (A) (A) (A) (A) (A) (A) (A) (A)
                 (A) (A) (A) (A) (A) (A) (A) (A) (A) (A) (A) (A)
                 (A) (A) (A) (A) (A) (A) (A) (A) (A) (A) (A) (A)
                 (A) (A) (A) (A) (A) (A) (A) (A) (A) (A) (A) (A)
                 (A) (A) (A) (A) (A) (A) (A) (A) (A) (A) (A) (A)
                 (A) (A) (A) (A) (A) (A) (A) (A) (A) (A) (A) (A)
                 (A) (A) (A) (A) (A) (A) (A) (A) (A) (A) (A) (A)
                 (A) (A) (A) (A) (A) (A) (A) (A) (A) (A) (A) (A)
                 (A) (A) (A) (A) (A) (A) (A) (A) (A) (A) (A) (A)
                 (A) (A) (A) (A) (A) (A)
       Virtual   (A) (A) (A) (A) (A) (A) (A) (A) (A) (A) (A) (A)
                 (A) (A) (A) (A) (A) (A) (A) (A) (A) (A) (A) (A)
                 (A) (A) (A) (A) (A) (A) (A) (A) (A) (A) (A) (A)
                 (A) (A) (A) (A) (A) (A) (A) (A) (A) (A) (A) (A)
                 (A) (A) (A) (A) (A) (A) (A) (A) (A) (A) (A) (A)
                 (A) (A) (A) (A) (A) (A) (A) (A) (A) (A) (A) (A)
                 (A) (A) (A) (A) (A) (A) (A) (A) (A) (A) (A) (A)
                 (A) (A) (A) (A) (A) (A) (A) (A) (A) (A) (A) (A)
                 (A) (A) (A) (A) (A) (A) (A) (A) (A) (A) (A) (A)
                 (A) (A) (A) (A) (A) (A) (A) (A) (A) (A) (A) (A)
                 (A) (A) (A) (A) (A) (A) (A) (A) (A) (A) (A) (A)
                 (A) (A) (A) (A) (A) (A) (A) (A) (A) (A) (A) (A)
                 (A) (A) (A) (A) (A) (A) (A) (A) (A) (A) (A) (A)
                 (A) (A) (A) (A) (A) (A) (A) (A) (A) (A) (A) (A)
                 (A) (A) (A) (A) (A) (A) (A) (A) (A) (A) (A) (A)
                 (A) (A) (A) (A) (A) (A) (A) (A) (A) (A) (A) (A)
                 (A) (A) (A) (A) (A) (A) (A) (A) (A) (A) (A) (A)
                 (A) (A) (A) (A) (A) (A) (A) (A) (A) (A) (A) (A)
                 (A) (A) (A) (A) (A) (A) (A) (A) (A) (A) (A) (A)
                 (A) (A) (A) (A) (A) (A) (A) (A) (A) (A) (A) (A)
                 (A) (A) (A) (A) (A) (A) (A) (A) (A) (A) (A) (A)
                 (A) (A) (A) (A) (A) (A) (A) (A) (A) (A) (A) (A)
                 (A) (A) (A) (A) (A) (A) (A) (A) (A) (A) (A) (A)
                 (A) (A) (A) (A) (A) (A) (A) (A) (A) (A) (A) (A)
                 (A) (A) (A) (A) (A) (A) (A) (A) (A) (A) (A) (A)
                 (A) (A) (A) (A) (A) (A) (A) (A) (A) (A) (A) (A)
                 (A) (A) (A) (A) (A) (A) (A) (A) (A) (A) (A) (A)
                 (A) (A) (A) (A) (A) (A) (A) (A) (A) (A) (A) (A)
                 (A) (A) (A) (A) (A) (A) (A) (A) (A) (A) (A) (A)
                 (A) (A) (A) (A) (A) (A) (A) (A) (A) (A) (A) (A)
                 (A) (A) (A) (A) (A) (A) (A) (A) (A) (A) (A) (A)
                 (A) (A) (A) (A) (A) (A) (A) (A) (A) (A) (A) (A)
                 (A) (A) (A) (A) (A) (A) (A) (A) (A) (A) (A) (A)
                 (A) (A) (A) (A) (A) (A) (A) (A) (A) (A) (A) (A)
                 (A) (A) (A) (A) (A) (A) (A) (A) (A) (A) (A) (A)
                 (A) (A) (A) (A) (A) (A) (A) (A) (A) (A) (A) (A)
                 (A) (A) (A) (A) (A) (A) (A) (A) (A) (A) (A) (A)
                 (A) (A) (A) (A) (A) (A) (A) (A) (A) (A) (A) (A)
                 (A) (A) (A) (A) (A) (A) (A) (A) (A) (A) (A) (A)
                 (A) (A) (A) (A) (A) (A) (A) (A) (A) (A) (A) (A)
                 (A) (A) (A) (A) (A) (A) (A) (A) (A) (A) (A) (A)
                 (A) (A) (A) (A) (A) (A) (A) (A) (A) (A) (A) (A)
                 (A) (A) (A) (A) (A) (A) (A) (A) (A) (A) (A) (A)
                 (A) (A) (A) (A) (A) (A) (A) (A) (A) (A) (A) (A)
                 (A) (A) (A) (A) (A) (A) (A) (A) (A) (A) (A) (A)
                 (A) (A) (A) (A) (A) (A) (A) (A) (A) (A) (A) (A)
                 (A) (A) (A) (A) (A) (A) (A) (A) (A) (A) (A) (A)
                 (A) (A) (A) (A) (A) (A) (A) (A) (A) (A) (A) (A)
                 (A) (A) (A) (A) (A) (A) (A) (A) (A) (A) (A) (A)
                 (A) (A) (A) (A) (A) (A) (A) (A) (A) (A) (A) (A)
                 (A) (A) (A) (A) (A) (A) (A) (A) (A) (A) (A) (A)
                 (A) (A) (A) (A) (A) (A) (A) (A) (A) (A) (A) (A)
                 (A) (A) (A) (A) (A) (A) (A) (A) (A) (A) (A) (A)
                 (A) (A) (A) (A) (A) (A) (A) (A) (A) (A) (A) (A)
                 (A) (A) (A) (A) (A) (A) (A) (A) (A) (A) (A) (A)
                 (A) (A) (A) (A) (A) (A) (A) (A) (A) (A) (A) (A)
                 (A) (A) (A) (A) (A) (A) (A) (A) (A) (A) (A) (A)
                 (A) (A) (A) (A) (A) (A) (A) (A) (A) (A) (A) (A)
                 (A) (A) (A) (A) (A) (A) (A) (A) (A) (A) (A) (A)
                 (A) (A) (A) (A) (A) (A) (A) (A) (A) (A) (A) (A)
                 (A) (A) (A) (A) (A) (A) (A) (A) (A) (A) (A) (A)
                 (A) (A) (A) (A) (A) (A) (A) (A) (A) (A) (A) (A)
                 (A) (A) (A) (A) (A) (A) (A) (A) (A) (A) (A) (A)
                 (A) (A) (A) (A) (A) (A) (A) (A) (A) (A) (A) (A)
                 (A) (A) (A) (A) (A) (A) (A) (A) (A) (A) (A) (A)
                 (A) (A) (A) (A) (A) (A) (A) (A) (A) (A) (A) (A)
                 (A) (A) (A) (A) (A) (A) (A) (A) (A) (A) (A) (A)
                 (A) (A) (A) (A) (A) (A) (A) (A) (A) (A) (A) (A)
                 (A) (A) (A) (A) (A) (A) (A) (A) (A) (A) (A) (A)
                 (A) (A) (A) (A) (A) (A) (A) (A) (A) (A) (A) (A)
                 (A) (A) (A) (A) (A) (A) (A) (A) (A) (A) (A) (A)
                 (A) (A) (A) (A) (A) (A) (A) (A) (A) (A) (A) (A)
                 (A) (A) (A) (A) (A) (A) (A) (A) (A) (A) (A) (A)
                 (A) (A) (A) (A) (A) (A) (A) (A) (A) (A) (A) (A)
                 (A) (A) (A) (A) (A) (A) (A) (A) (A) (A) (A) (A)
                 (A) (A) (A) (A) (A) (A) (A) (A) (A) (A) (A) (A)
                 (A) (A) (A) (A) (A) (A) (A) (A) (A) (A) (A) (A)
                 (A) (A) (A) (A) (A) (A) (A) (A) (A) (A) (A) (A)
                 (A) (A) (A) (A) (A) (A) (A) (A) (A) (A) (A) (A)
                 (A) (A) (A) (A) (A) (A) (A) (A) (A) (A) (A) (A)
                 (A) (A) (A) (A) (A) (A) (A) (A) (A) (A) (A) (A)
                 (A) (A) (A) (A) (A) (A) (A) (A) (A) (A) (A) (A)
                 (A) (A) (A) (A) (A) (A) (A) (A) (A) (A) (A) (A)
                 (A) (A) (A) (A) (A) (A) (A) (A) (A) (A) (A) (A)
                 (A) (A) (A) (A) (A) (A) (A) (A) (A) (A) (A) (A)
                 (A) (A) (A) (A) (A) (A) (A) (A) (A) (A) (A) (A)
                 (A) (A) (A) (A) (A) (A) (A) (A) (A) (A) (A) (A)
                 (A) (A) (A) (A) (A) (A) (A) (A)
    20 initial guesses have been made.
 Convergence on wavefunction:    0.001000000000000
 Davidson Disk Diagonalization:  ConvIn= 1.00D-03 SkipCon=T Conv= 1.00D-03.
 Max sub-space:  2000 roots to seek:    20 dimension of matrix:       370304
 Iteration     1 Dimension    20 NMult     0 NNew     20
 CISAX will form    20 AO SS matrices at one time.
 NMat=    20 NSing=    20 JSym2X= 0.
 FoFJK:  IHMeth= 1 ICntrl=     500 DoSepK=F KAlg= 0 I1Cent=           0 FoldK=F
 IRaf= 530000000 NMat=      20 IRICut=       1 DoRegI=T DoRafI=F ISym2E= 0 IDoP0=0 IntGTp=1.
 FoFCou: FMM=T IPFlag=           0 FMFlag=      100000 FMFlg1=        2001
         NFxFlg=           0 DoJE=F BraDBF=F KetDBF=F FulRan=T
         wScrn=  0.000000 ICntrl=       500 IOpCl=  0 I1Cent=           0 NGrid=           0
         NMat0=   20 NMatS0=     20 NMatT0=    0 NMatD0=   20 NMtDS0=    0 NMtDT0=    0
 Symmetry not used in FoFCou.
 FMM levels:  10  Number of levels for PrismC:   9
 New state      1 was old state      2
 New state      2 was old state      4
 New state      3 was old state      1
 New state      4 was old state      3
 New state      5 was old state      8
 Excitation Energies [eV] at current iteration:
 Root      1 :     1.474013054137538
 Root      2 :     1.861748541279173
 Root      3 :     2.101188002073996
 Root      4 :     2.315491350100135
 Root      5 :     2.520248301435172
 Root      6 :     2.621637846156206
 Root      7 :     2.686887910415330
 Root      8 :     2.712913829017898
 Root      9 :     2.882564893724171
 Root     10 :     2.965899349733132
 Root     11 :     3.027299933991272
 Root     12 :     3.066748098612132
 Root     13 :     3.086344492998939
 Root     14 :     3.126463440250331
 Root     15 :     3.205401750603891
 Root     16 :     3.481259234576429
 Root     17 :     3.592565845683661
 Root     18 :     3.872720357352086
 Root     19 :     4.076075123586308
 Root     20 :     4.318324250034286
 Iteration     2 Dimension    40 NMult    20 NNew     20
 CISAX will form    20 AO SS matrices at one time.
 NMat=    20 NSing=    20 JSym2X= 0.
 Root      1 not converged, maximum delta is    0.003849397104518
 Root      2 not converged, maximum delta is    0.081081759816511
 Root      3 not converged, maximum delta is    0.085927739324124
 Root      4 not converged, maximum delta is    0.117921446933612
 New state      5 was old state      8
 Root      5 not converged, maximum delta is    0.227444544959632
 Excitation Energies [eV] at current iteration:
 Root      1 :     1.470775096585166   Change is   -0.003237957552372
 Root      2 :     1.845152695527592   Change is   -0.016595845751581
 Root      3 :     1.865169865251894   Change is   -0.236018136822102
 Root      4 :     2.082421531477488   Change is   -0.233069818622647
 Root      5 :     2.415015920013617   Change is   -0.297897909004281
 Root      6 :     2.494729617563725   Change is   -0.025518683871447
 Root      7 :     2.589715648463268   Change is   -0.292849245260902
 Root      8 :     2.626048418874113   Change is    0.004410572717907
 Root      9 :     2.683974596081905   Change is   -0.002913314333425
 Root     10 :     2.953329405478542   Change is   -0.133015087520397
 Root     11 :     2.963936787057861   Change is   -0.001962562675271
 Root     12 :     3.009342259703642   Change is   -0.017957674287629
 Root     13 :     3.060160531724876   Change is   -0.006587566887256
 Root     14 :     3.071750872142991   Change is   -0.409508362433439
 Root     15 :     3.126094094335753   Change is   -0.000369345914578
 Root     16 :     3.143693708092715   Change is   -0.061708042511176
 Root     17 :     3.194105373215795   Change is   -0.398460472467866
 Root     18 :     3.497751904284020   Change is   -0.374968453068066
 Root     19 :     3.667327893111568   Change is   -0.408747230474739
 Root     20 :     3.748561811614114   Change is   -0.569762438420172
 Iteration     3 Dimension    45 NMult    40 NNew      5
 CISAX will form     5 AO SS matrices at one time.
 NMat=     5 NSing=     5 JSym2X= 0.
 Root      1 not converged, maximum delta is    0.003028730892908
 New state      2 was old state      3
 Root      2 not converged, maximum delta is    0.142750640232936
 New state      3 was old state      2
 Root      3 not converged, maximum delta is    0.151737107263427
 Root      4 not converged, maximum delta is    0.036330911436620
 Root      5 not converged, maximum delta is    0.040198297545908
 Excitation Energies [eV] at current iteration:
 Root      1 :     1.469887630622348   Change is   -0.000887465962818
 Root      2 :     1.820554736013269   Change is   -0.044615129238625
 Root      3 :     1.839909678126805   Change is   -0.005243017400786
 Root      4 :     2.046370312634955   Change is   -0.036051218842533
 Root      5 :     2.386728428004679   Change is   -0.028287492008938
 Iteration     4 Dimension    50 NMult    45 NNew      5
 CISAX will form     5 AO SS matrices at one time.
 NMat=     5 NSing=     5 JSym2X= 0.
 Root      1 not converged, maximum delta is    0.001521937063436
 Root      2 not converged, maximum delta is    0.026753299406180
 Root      3 not converged, maximum delta is    0.028705802728165
 Root      4 not converged, maximum delta is    0.016925007705553
 Root      5 not converged, maximum delta is    0.011706935570820
 Excitation Energies [eV] at current iteration:
 Root      1 :     1.469610626564805   Change is   -0.000277004057543
 Root      2 :     1.804493235430264   Change is   -0.016061500583004
 Root      3 :     1.837216717380634   Change is   -0.002692960746172
 Root      4 :     2.031898797880998   Change is   -0.014471514753957
 Root      5 :     2.375095519822554   Change is   -0.011632908182124
 Iteration     5 Dimension    55 NMult    50 NNew      5
 CISAX will form     5 AO SS matrices at one time.
 NMat=     5 NSing=     5 JSym2X= 0.
 Root      1 has converged.
 Root      2 not converged, maximum delta is    0.004518844565187
 Root      3 not converged, maximum delta is    0.005707624789090
 Root      4 not converged, maximum delta is    0.006087141025953
 Root      5 not converged, maximum delta is    0.004693116990344
 Excitation Energies [eV] at current iteration:
 Root      1 :     1.469529302781809   Change is   -0.000081323782997
 Root      2 :     1.799056085180293   Change is   -0.005437150249972
 Root      3 :     1.836181721015115   Change is   -0.001034996365518
 Root      4 :     2.026957719448296   Change is   -0.004941078432701
 Root      5 :     2.371347447617520   Change is   -0.003748072205034
 Iteration     6 Dimension    59 NMult    55 NNew      4
 CISAX will form     4 AO SS matrices at one time.
 NMat=     4 NSing=     4 JSym2X= 0.
 Root      1 has converged.
 Root      2 not converged, maximum delta is    0.002527391641594
 Root      3 not converged, maximum delta is    0.002454795096332
 Root      4 not converged, maximum delta is    0.002455302961547
 Root      5 not converged, maximum delta is    0.003104638711696
 Excitation Energies [eV] at current iteration:
 Root      1 :     1.469528736401223   Change is   -0.000000566380586
 Root      2 :     1.796641758525106   Change is   -0.002414326655187
 Root      3 :     1.835667356252239   Change is   -0.000514364762876
[...]
 Alpha virt. eigenvalues --    1.12947   1.13280   1.13530   1.13822   1.14204
 Alpha virt. eigenvalues --    1.14602   1.15418   1.15678   1.16459   1.16936
 Alpha virt. eigenvalues --    1.17259   1.17691   1.18042   1.18763   1.19005
 Alpha virt. eigenvalues --    1.19427   1.20138   1.20404   1.20704   1.21482
 Alpha virt. eigenvalues --    1.22513   1.22817   1.23110   1.23828   1.24676
 Alpha virt. eigenvalues --    1.24760   1.24907   1.25417   1.26134   1.26293
 Alpha virt. eigenvalues --    1.26433   1.26845   1.27383   1.27654   1.27940
 Alpha virt. eigenvalues --    1.28189   1.28309   1.28734   1.29867   1.29941
 Alpha virt. eigenvalues --    1.30534   1.31111   1.31865   1.32241   1.32830
 Alpha virt. eigenvalues --    1.33263   1.33401   1.33811   1.34412   1.34683
 Alpha virt. eigenvalues --    1.34765   1.35526   1.35658   1.36111   1.36207
 Alpha virt. eigenvalues --    1.36428   1.37203   1.37261   1.37414   1.37877
 Alpha virt. eigenvalues --    1.38203   1.38781   1.39050   1.39369   1.39452
 Alpha virt. eigenvalues --    1.40003   1.40195   1.40690   1.41079   1.42292
 Alpha virt. eigenvalues --    1.42606   1.43100   1.44052   1.44126   1.44651
 Alpha virt. eigenvalues --    1.45403   1.45951   1.46241   1.46399   1.46475
 Alpha virt. eigenvalues --    1.46556   1.46624   1.46797   1.47150   1.47288
 Alpha virt. eigenvalues --    1.47331   1.47810   1.47900   1.48183   1.49070
 Alpha virt. eigenvalues --    1.49250   1.49341   1.49354   1.49663   1.49753
 Alpha virt. eigenvalues --    1.50062   1.50304   1.50472   1.50538   1.51067
 Alpha virt. eigenvalues --    1.51226   1.51390   1.51885   1.52306   1.52558
 Alpha virt. eigenvalues --    1.53201   1.53685   1.53940   1.54415   1.55076
 Alpha virt. eigenvalues --    1.55755   1.55862   1.56137   1.56342   1.57579
 Alpha virt. eigenvalues --    1.57881   1.57970   1.58013   1.58682   1.58832
 Alpha virt. eigenvalues --    1.59661   1.59875   1.60330   1.60421   1.60841
 Alpha virt. eigenvalues --    1.61462   1.61563   1.62029   1.62404   1.62861
 Alpha virt. eigenvalues --    1.62954   1.63348   1.63849   1.63914   1.64315
 Alpha virt. eigenvalues --    1.64643   1.64901   1.65276   1.65441   1.65748
 Alpha virt. eigenvalues --    1.65856   1.66015   1.66051   1.66517   1.66738
 Alpha virt. eigenvalues --    1.67412   1.67635   1.68148   1.68235   1.68801
 Alpha virt. eigenvalues --    1.68854   1.69155   1.69471   1.69616   1.69718
 Alpha virt. eigenvalues --    1.69914   1.70105   1.70515   1.70744   1.70810
 Alpha virt. eigenvalues --    1.70952   1.71528   1.71811   1.72107   1.72204
 Alpha virt. eigenvalues --    1.72349   1.72661   1.72718   1.72780   1.73005
 Alpha virt. eigenvalues --    1.73470   1.73671   1.73765   1.74099   1.74163
 Alpha virt. eigenvalues --    1.74285   1.74320   1.74628   1.74772   1.74847
 Alpha virt. eigenvalues --    1.75208   1.75426   1.75484   1.75542   1.75782
 Alpha virt. eigenvalues --    1.75903   1.76146   1.76355   1.76356   1.76852
 Alpha virt. eigenvalues --    1.76926   1.77062   1.77294   1.77719   1.77819
 Alpha virt. eigenvalues --    1.78133   1.78163   1.78616   1.78789   1.78919
 Alpha virt. eigenvalues --    1.78970   1.79063   1.79340   1.80074   1.80101
 Alpha virt. eigenvalues --    1.80253   1.80419   1.80849   1.81029   1.81353
 Alpha virt. eigenvalues --    1.81595   1.81717   1.81781   1.82152   1.82538
 Alpha virt. eigenvalues --    1.82914   1.83119   1.83263   1.83509   1.83651
 Alpha virt. eigenvalues --    1.83794   1.83993   1.84300   1.84467   1.84932
 Alpha virt. eigenvalues --    1.85151   1.85350   1.85552   1.85729   1.86066
 Alpha virt. eigenvalues --    1.86224   1.86523   1.86647   1.86939   1.87181
 Alpha virt. eigenvalues --    1.87426   1.87545   1.87627   1.87712   1.88202
 Alpha virt. eigenvalues --    1.88448   1.89013   1.89255   1.89430   1.89905
 Alpha virt. eigenvalues --    1.90115   1.90657   1.90678   1.90796   1.91187
 Alpha virt. eigenvalues --    1.91490   1.91672   1.91955   1.92074   1.92228
 Alpha virt. eigenvalues --    1.92627   1.92961   1.93115   1.93154   1.94107
 Alpha virt. eigenvalues --    1.94226   1.94276   1.94561   1.95198   1.95265
 Alpha virt. eigenvalues --    1.95951   1.96242   1.96656   1.96827   1.96885
 Alpha virt. eigenvalues --    1.97049   1.97525   1.97633   1.97869   1.98426
 Alpha virt. eigenvalues --    1.98581   1.98746   1.99264   1.99901   2.00060
 Alpha virt. eigenvalues --    2.00240   2.00559   2.00600   2.01261   2.01578
 Alpha virt. eigenvalues --    2.01738   2.01941   2.02200   2.02370   2.02799
 Alpha virt. eigenvalues --    2.03137   2.03293   2.03501   2.03934   2.04258
 Alpha virt. eigenvalues --    2.04413   2.04652   2.05020   2.05269   2.05603
 Alpha virt. eigenvalues --    2.05710   2.05982   2.06333   2.06758   2.07049
 Alpha virt. eigenvalues --    2.07275   2.08356   2.08384   2.08571   2.08939
 Alpha virt. eigenvalues --    2.09259   2.09628   2.10241   2.10712   2.11061
 Alpha virt. eigenvalues --    2.11185   2.11515   2.12053   2.12177   2.13365
 Alpha virt. eigenvalues --    2.13886   2.13940   2.14321   2.14570   2.14720
 Alpha virt. eigenvalues --    2.14938   2.15607   2.16276   2.16789   2.17098
 Alpha virt. eigenvalues --    2.17235   2.17598   2.18557   2.19014   2.19052
 Alpha virt. eigenvalues --    2.20080   2.20212   2.20780   2.20875   2.21627
 Alpha virt. eigenvalues --    2.21887   2.22635   2.23187   2.23419   2.23861
 Alpha virt. eigenvalues --    2.24538   2.24804   2.24885   2.25606   2.26099
 Alpha virt. eigenvalues --    2.26267   2.26744   2.26930   2.27196   2.27424
 Alpha virt. eigenvalues --    2.27623   2.28074   2.28133   2.28915   2.29171
 Alpha virt. eigenvalues --    2.29371   2.29713   2.30313   2.30453   2.30705
 Alpha virt. eigenvalues --    2.30998   2.31515   2.31838   2.32423   2.32707
 Alpha virt. eigenvalues --    2.33151   2.33231   2.33590   2.33688   2.34003
 Alpha virt. eigenvalues --    2.34857   2.34936   2.35032   2.35231   2.35530
 Alpha virt. eigenvalues --    2.35600   2.36123   2.37211   2.37266   2.37392
 Alpha virt. eigenvalues --    2.37918   2.38201   2.38400   2.38662   2.38895
 Alpha virt. eigenvalues --    2.39118   2.39870   2.40535   2.40810   2.41221
 Alpha virt. eigenvalues --    2.41905   2.41931   2.42365   2.42874   2.43152
 Alpha virt. eigenvalues --    2.43398   2.43811   2.44261   2.44727   2.45127
 Alpha virt. eigenvalues --    2.45477   2.45765   2.45888   2.46289   2.46448
 Alpha virt. eigenvalues --    2.47203   2.47663   2.48032   2.48485   2.48841
 Alpha virt. eigenvalues --    2.49555   2.49944   2.50482   2.50504   2.50772
 Alpha virt. eigenvalues --    2.50837   2.51752   2.52267   2.52959   2.53293
 Alpha virt. eigenvalues --    2.53992   2.54362   2.54801   2.55270   2.55842
 Alpha virt. eigenvalues --    2.56086   2.56345   2.56690   2.57129   2.57242
 Alpha virt. eigenvalues --    2.57556   2.58766   2.59280   2.59668   2.59864
 Alpha virt. eigenvalues --    2.60652   2.60977   2.61125   2.61574   2.61894
 Alpha virt. eigenvalues --    2.62204   2.62864   2.63148   2.63529   2.63694
 Alpha virt. eigenvalues --    2.63760   2.64325   2.65247   2.65613   2.65990
 Alpha virt. eigenvalues --    2.66435   2.66735   2.66794   2.67158   2.67249
 Alpha virt. eigenvalues --    2.67535   2.67696   2.68015   2.68195   2.68518
 Alpha virt. eigenvalues --    2.68616   2.69264   2.70212   2.70319   2.70628
 Alpha virt. eigenvalues --    2.70770   2.71617   2.72779   2.73499   2.73588
 Alpha virt. eigenvalues --    2.74140   2.74542   2.75588   2.76861   2.77411
 Alpha virt. eigenvalues --    2.77882   2.78016   2.78179   2.78792   2.78890
 Alpha virt. eigenvalues --    2.79939   2.79997   2.80514   2.80576   2.80804
 Alpha virt. eigenvalues --    2.81040   2.82356   2.82771   2.83133   2.83425
 Alpha virt. eigenvalues --    2.83610   2.84218   2.84385   2.84631   2.84984
 Alpha virt. eigenvalues --    2.85087   2.85243   2.85820   2.85950   2.86515
 Alpha virt. eigenvalues --    2.86617   2.86962   2.87352   2.87448   2.87872
 Alpha virt. eigenvalues --    2.88277   2.88330   2.88379   2.89175   2.89326
 Alpha virt. eigenvalues --    2.89490   2.89780   2.90074   2.90353   2.90621
 Alpha virt. eigenvalues --    2.90836   2.91102   2.91228   2.91404   2.92265
 Alpha virt. eigenvalues --    2.92421   2.93107   2.93379   2.93644   2.94453
 Alpha virt. eigenvalues --    2.94707   2.94966   2.95059   2.95420   2.95484
 Alpha virt. eigenvalues --    2.95614   2.96135   2.96385   2.96537   2.96922
 Alpha virt. eigenvalues --    2.98249   2.98941   2.99219   3.00098   3.00903
 Alpha virt. eigenvalues --    3.01357   3.01676   3.02384   3.02886   3.03770
 Alpha virt. eigenvalues --    3.04076   3.05077   3.05278   3.05414   3.05844
 Alpha virt. eigenvalues --    3.07173   3.07275   3.08488   3.09012   3.10004
 Alpha virt. eigenvalues --    3.10967   3.11080   3.11741   3.13644   3.13784
 Alpha virt. eigenvalues --    3.16024   3.16822   3.26749   3.28124   3.30362
 Alpha virt. eigenvalues --    3.32409   3.34787   3.36668   3.37957   3.41134
 Alpha virt. eigenvalues --    3.47395   3.47519   3.51346   3.54771   3.55622
 Alpha virt. eigenvalues --    3.56992   3.60281
          Condensed to atoms (all electrons):
 Mulliken charges:
               1
     1  Mg   0.683785
     2  C    0.086505
     3  C   -0.025190
     4  C   -0.091634
     5  C   -0.087774
     6  N   -0.202971
     7  C   -0.120725
     8  C    0.096898
     9  C   -0.067787
    10  C   -0.003720
    11  C    0.122222
    12  C    0.126515
    13  C    0.128849
    14  C    0.078090
    15  O   -0.200182
    16  O   -0.254479
    17  N   -0.366629
    18  C    0.178641
    19  C   -0.157603
    20  C    0.053843
    21  C    0.217224
    22  C    0.210651
    23  C   -0.138280
    24  O   -0.168093
    25  C    0.150509
    26  N   -0.232708
    27  C    0.016779
    28  C    0.039432
    29  C    0.049093
    30  C    0.007991
    31  C    0.131996
    32  C    0.099030
    33  C    0.098610
    34  N   -0.235027
    35  C    0.099624
    36  C   -0.188065
    37  C    0.126244
    38  C    0.038747
    39  C    0.190225
    40  C   -0.068766
    41  O   -0.109940
    42  C    0.010481
    43  C    0.094398
    44  O   -0.203856
    45  O   -0.266175
    46  C    0.225959
    47  C    0.242625
    48  C   -0.050883
    49  C   -0.075571
    50  C    0.125669
    51  C    0.085527
    52  C    0.014109
    53  C    0.201747
    54  C   -0.071688
    55  C    0.086450
    56  C    0.093225
    57  C    0.045325
    58  C    0.169305
    59  C   -0.121506
    60  C    0.103215
    61  C    0.090356
    62  C    0.053522
    63  C    0.128102
    64  C   -0.106397
    65  C    0.108505
    66  C    0.087677
    67  H   -0.058390
    68  H   -0.061795
    69  H   -0.060286
    70  H   -0.008801
    71  H   -0.016070
    72  H    0.000567
    73  H    0.001922
    74  H   -0.012658
    75  H   -0.006434
    76  H   -0.000622
    77  H   -0.007274
    78  H    0.002737
    79  H   -0.049351
    80  H    0.003629
    81  H    0.013002
    82  H   -0.002904
    83  H    0.013012
    84  H   -0.004750
    85  H   -0.029453
    86  H   -0.037417
    87  H   -0.013434
    88  H   -0.000940
    89  H   -0.019399
    90  H   -0.014563
    91  H   -0.032926
    92  H   -0.019886
    93  H   -0.010064
    94  H   -0.015412
    95  H   -0.010332
    96  H    0.014955
    97  H    0.001348
    98  H   -0.015775
    99  H    0.017715
   100  H    0.009793
   101  H    0.008010
   102  H   -0.012910
   103  H   -0.005282
   104  H   -0.034010
   105  H   -0.003177
   106  H    0.007761
   107  H   -0.008889
   108  H   -0.024323
   109  H   -0.030180
   110  H   -0.023336
   111  H   -0.022739
   112  H   -0.030088
   113  H   -0.038722
   114  H   -0.032548
   115  H   -0.026489
   116  H   -0.026278
   117  H   -0.013944
   118  H   -0.025638
   119  H   -0.059017
   120  H   -0.009046
   121  H   -0.026347
   122  H   -0.038003
   123  H   -0.047797
   124  H   -0.019519
   125  H    0.001204
   126  H   -0.038233
   127  H   -0.029306
   128  H   -0.034814
   129  H   -0.015567
   130  H   -0.027822
   131  H   -0.035526
   132  H   -0.054272
   133  H   -0.033254
   134  H   -0.028340
   135  H   -0.022265
   136  H   -0.030841
   137  H   -0.013027
   138  H   -0.005478
   139  H   -0.017440
   140  H   -0.024308
 Sum of Mulliken charges =  -0.00000
 Mulliken charges with hydrogens summed into heavy atoms:
               1
     1  Mg   0.683785
     2  C    0.086505
     3  C   -0.083580
     4  C   -0.153429
     5  C   -0.148060
     6  N   -0.202971
     7  C   -0.120725
     8  C    0.088097
     9  C   -0.083856
    10  C   -0.003720
    11  C    0.112053
    12  C    0.119458
    13  C    0.124312
    14  C    0.078090
    15  O   -0.200182
    16  O   -0.254479
    17  N   -0.366629
    18  C    0.178641
    19  C   -0.157603
    20  C    0.053843
    21  C    0.217224
    22  C    0.177931
    23  C   -0.138280
    24  O   -0.168093
    25  C    0.155867
    26  N   -0.232708
    27  C    0.016779
    28  C    0.009979
    29  C    0.011676
    30  C    0.007991
    31  C    0.098223
    32  C    0.051541
    33  C    0.053248
    34  N   -0.235027
    35  C    0.099624
    36  C   -0.188065
    37  C    0.126244
    38  C    0.038747
    39  C    0.196196
    40  C   -0.068766
    41  O   -0.109940
    42  C   -0.005294
    43  C    0.094398
    44  O   -0.203856
    45  O   -0.266175
    46  C    0.261477
    47  C    0.224433
    48  C   -0.084893
    49  C   -0.075571
    50  C    0.121363
    51  C    0.031025
    52  C   -0.031965
    53  C    0.132937
    54  C   -0.104236
    55  C    0.019739
    56  C    0.008569
    57  C    0.009933
    58  C    0.083505
    59  C   -0.141025
    60  C    0.036880
    61  C    0.039975
    62  C   -0.009827
    63  C    0.040576
    64  C   -0.134737
    65  C    0.042373
    66  C    0.040451
 Electronic spatial extent (au):  <R**2>=         101560.8100
 Charge=             -0.0000 electrons
 Dipole moment (field-independent basis, Debye):
    X=             -1.2710    Y=              0.7443    Z=              3.0676  Tot=              3.4029
 Quadrupole moment (field-independent basis, Debye-Ang):
   XX=           -362.2001   YY=           -436.4896   ZZ=           -409.6206
   XY=             13.6390   XZ=             24.8714   YZ=             26.0671
 Traceless Quadrupole moment (field-independent basis, Debye-Ang):
   XX=             40.5700   YY=            -33.7195   ZZ=             -6.8505
   XY=             13.6390   XZ=             24.8714   YZ=             26.0671
 Octapole moment (field-independent basis, Debye-Ang**2):
  XXX=            268.5153  YYY=           -272.0566  ZZZ=             53.0273  XYY=           -191.0164
  XXY=             53.7168  XXZ=            233.0447  XZZ=             70.5479  YZZ=            -24.6474
  YYZ=             36.1530  XYZ=            112.6056
 Hexadecapole moment (field-independent basis, Debye-Ang**3):
 XXXX=         -97073.0963 YYYY=         -29407.4690 ZZZZ=         -11336.4233 XXXY=            993.5291
 XXXZ=           1536.6627 YYYX=           -107.4500 YYYZ=           1641.1754 ZZZX=            291.9169
 ZZZY=            121.4733 XXYY=         -22252.7746 XXZZ=         -18544.9670 YYZZ=          -7093.4268
 XXYZ=            604.0076 YYXZ=            585.5747 ZZXY=           -243.9274
 N-N= 9.691286256183D+03 E-N=-2.637794773904D+04  KE= 2.978554352291D+03
 Leave Link  601 at Fri Apr 29 23:14:45 2022, MaxMem= 10066329600 cpu:              10.0 elap:               0.5
 (Enter /sw/apps/gaussian-16.0/g16/l9999.exe)
 1\1\GINC-BP1-COMPUTE102\SP\RBLYP TD-FC\def2SVP\C55H74Mg1N4O6\OF15641\2
 9-Apr-2022\0\\#p blyp/Def2SVP td=(nstates=5)\\step_501_chromophore_23 
 TDDFT with blyp functional\\0,1\Mg,0,-10.089,40.792,42.947\C,0,-8.616,
 37.873,41.739\C,0,-7.782,42.641,41.174\C,0,-11.691,43.406,44.117\C,0,-
 13.011,38.808,43.846\N,0,-8.298,40.231,41.615\C,0,-7.899,38.981,41.233
 \C,0,-6.678,39.048,40.386\C,0,-6.44,40.596,40.172\C,0,-7.577,41.257,41
 .045\C,0,-4.986,41.069,40.423\C,0,-6.832,38.299,39.04\C,0,-5.676,37.32
 3,38.828\C,0,-4.885,37.425,37.489\O,0,-3.848,38.095,37.42\O,0,-5.495,3
 6.664,36.515\N,0,-9.754,42.766,42.703\C,0,-8.729,43.366,41.973\C,0,-8.
 872,44.797,42.208\C,0,-10.006,45.055,43.11\C,0,-10.525,43.687,43.427\C
 ,0,-8.103,45.788,41.488\C,0,-10.495,46.415,43.392\O,0,-9.976,47.428,42
 .972\C,0,-11.745,46.708,44.146\N,0,-12.017,41.036,43.776\C,0,-12.309,4
 2.201,44.439\C,0,-13.681,42.11,45.073\C,0,-14.242,40.842,44.547\C,0,-1
 3.083,40.198,43.966\C,0,-13.708,42.291,46.646\C,0,-15.267,41.057,43.38
 1\C,0,-16.322,40.059,43.244\N,0,-10.729,38.743,42.866\C,0,-11.88,38.08
 3,43.316\C,0,-11.647,36.673,43.294\C,0,-10.421,36.526,42.656\C,0,-9.9,
 37.838,42.369\C,0,-12.608,35.666,43.809\C,0,-9.507,35.582,42.148\O,0,-
 9.55,34.372,42.157\C,0,-8.306,36.384,41.599\C,0,-7.079,35.935,42.276\O
 ,0,-6.651,36.366,43.36\O,0,-6.556,34.851,41.609\C,0,-5.284,34.28,42.02
 1\C,0,-4.682,36.339,35.38\C,0,-5.567,36.267,34.104\C,0,-5.543,37.135,3
 3.13\C,0,-5.233,38.628,33.323\C,0,-6.294,36.838,31.818\C,0,-5.341,36.6
 54,30.566\C,0,-5.948,36.493,29.221\C,0,-5.38,37.457,28.174\C,0,-4.524,
 36.743,27.077\C,0,-6.398,38.356,27.474\C,0,-6.769,39.601,28.387\C,0,-8
 .295,39.682,28.539\C,0,-8.751,39.91,29.948\C,0,-9.819,38.867,30.417\C,
 0,-9.411,41.355,30.06\C,0,-8.263,42.456,30.423\C,0,-8.563,43.732,29.61
 2\C,0,-7.733,43.792,28.331\C,0,-6.67,44.855,28.246\C,0,-8.628,43.841,2
 7.044\H,0,-6.984,43.159,40.639\H,0,-12.352,44.181,44.513\H,0,-13.898,3
 8.251,44.155\H,0,-5.867,38.791,41.068\H,0,-6.604,40.924,39.146\H,0,-4.
 425,40.136,40.357\H,0,-4.81,41.649,41.329\H,0,-4.661,41.714,39.607\H,0
 ,-6.76,38.942,38.163\H,0,-7.799,37.798,39.081\H,0,-6.244,36.396,38.751
 \H,0,-5.062,37.35,39.727\H,0,-7.399,45.263,40.842\H,0,-7.461,46.428,42
 .094\H,0,-8.771,46.371,40.853\H,0,-11.592,46.043,44.996\H,0,-12.597,46
 .391,43.544\H,0,-11.786,47.753,44.454\H,0,-14.192,42.985,44.673\H,0,-1
 4.608,40.109,45.266\H,0,-12.74,42.639,47.007\H,0,-14.11,41.442,47.2\H,
 0,-14.307,43.142,46.969\H,0,-14.724,41.146,42.44\H,0,-15.785,42.009,43
 .496\H,0,-17.155,40.343,43.888\H,0,-15.968,39.05,43.458\H,0,-16.801,40
 .164,42.27\H,0,-13.094,36.015,44.72\H,0,-12.173,34.679,43.967\H,0,-13.
 399,35.663,43.059\H,0,-8.067,36.135,40.565\H,0,-5.235,33.707,42.947\H,
 0,-4.523,35.06,42.034\H,0,-5.072,33.535,41.255\H,0,-4.205,35.369,35.52
 \H,0,-3.841,37.023,35.267\H,0,-5.67,35.191,33.961\H,0,-4.896,38.856,34
 .335\H,0,-5.984,39.349,33.002\H,0,-4.357,38.859,32.719\H,0,-6.969,37.6
 42,31.527\H,0,-6.892,35.932,31.912\H,0,-4.817,35.739,30.841\H,0,-4.796
 ,37.598,30.549\H,0,-7.028,36.642,29.237\H,0,-5.65,35.473,28.977\H,0,-4
 .667,38.105,28.685\H,0,-4.042,37.441,26.393\H,0,-5.239,36.297,26.386\H
 ,0,-3.773,35.997,27.337\H,0,-7.283,38.03,26.929\H,0,-5.809,38.82,26.68
 3\H,0,-6.327,40.493,27.942\H,0,-6.346,39.375,29.365\H,0,-8.818,38.863,
 28.045\H,0,-8.631,40.524,27.935\H,0,-8.,39.87,30.737\H,0,-9.642,38.391
 ,31.381\H,0,-9.954,38.099,29.655\H,0,-10.827,39.277,30.352\H,0,-10.089
 ,41.284,30.91\H,0,-9.994,41.727,29.218\H,0,-7.293,42.028,30.172\H,0,-8
 .069,42.678,31.473\H,0,-8.354,44.647,30.168\H,0,-9.619,43.847,29.371\H
 ,0,-7.174,42.86,28.24\H,0,-6.263,45.228,29.186\H,0,-7.177,45.736,27.85
 2\H,0,-5.879,44.61,27.538\H,0,-8.58,42.818,26.671\H,0,-8.35,44.633,26.
 349\H,0,-9.667,44.073,27.28\\Version=ES64L-G16RevA.03\State=1-A\HF=-30
 07.3152698\RMSD=4.159e-09\PG=C01 [X(C55H74Mg1N4O6)]\\@


 A SUCCESSFUL PURSUIT OF SCIENCE MAKES A MAN THE
 BENEFACTOR OF ALL MANKIND OF EVERY AGE.
   --  JOSEPH PRIESTLEY, "EXPERIMENTS AND
 OBSERVATIONS ON DIFFERENT KINDS OF AIR", 1774
 Job cpu time:       0 days  5 hours 11 minutes  0.1 seconds.
 Elapsed time:       0 days  0 hours 13 minutes  0.5 seconds.
 File lengths (MBytes):  RWF=   8019 Int=      0 D2E=      0 Chk=    390 Scr=      1
 Normal termination of Gaussian 16 at Fri Apr 29 23:14:45 2022.
