 Entering Gaussian System, Link 0=g16
 Initial command:
 /sw/apps/gaussian-16.0/g16/l1.exe "/tmp/Gau-35094.inp" -scrdir="/tmp/"
 Entering Link 1 = /sw/apps/gaussian-16.0/g16/l1.exe PID=     35095.
  
 Copyright (c) 1988,1990,1992,1993,1995,1998,2003,2009,2016,
            Gaussian, Inc.  All Rights Reserved.
  
 This is part of the Gaussian(R) 16 program.  It is based on
 the Gaussian(R) 09 system (copyright 2009, Gaussian, Inc.),
 the Gaussian(R) 03 system (copyright 2003, Gaussian, Inc.),
 the Gaussian(R) 98 system (copyright 1998, Gaussian, Inc.),
 the Gaussian(R) 94 system (copyright 1995, Gaussian, Inc.),
 the Gaussian 92(TM) system (copyright 1992, Gaussian, Inc.),
 the Gaussian 90(TM) system (copyright 1990, Gaussian, Inc.),
 the Gaussian 88(TM) system (copyright 1988, Gaussian, Inc.),
 the Gaussian 86(TM) system (copyright 1986, Carnegie Mellon
 University), and the Gaussian 82(TM) system (copyright 1983,
 Carnegie Mellon University). Gaussian is a federally registered
 trademark of Gaussian, Inc.
  
 This software contains proprietary and confidential information,
 including trade secrets, belonging to Gaussian, Inc.
  
 This software is provided under written license and may be
 used, copied, transmitted, or stored only in accord with that
 written license.
  
 The following legend is applicable only to US Government
 contracts under FAR:
  
                    RESTRICTED RIGHTS LEGEND
  
 Use, reproduction and disclosure by the US Government is
 subject to restrictions as set forth in subparagraphs (a)
 and (c) of the Commercial Computer Software - Restricted
 Rights clause in FAR 52.227-19.
  
 Gaussian, Inc.
 340 Quinnipiac St., Bldg. 40, Wallingford CT 06492
  
  
 ---------------------------------------------------------------
 Warning -- This program may not be used in any manner that
 competes with the business of Gaussian, Inc. or will provide
 assistance to any competitor of Gaussian, Inc.  The licensee
 of this program is prohibited from giving any competitor of
 Gaussian, Inc. access to this program.  By using this program,
 the user acknowledges that Gaussian, Inc. is engaged in the
 business of creating and licensing software in the field of
 computational chemistry and represents and warrants to the
 licensee that it is not a competitor of Gaussian, Inc. and that
 it will not use this program in any manner prohibited above.
 ---------------------------------------------------------------
  

 Cite this work as:
 Gaussian 16, Revision A.03,
 M. J. Frisch, G. W. Trucks, H. B. Schlegel, G. E. Scuseria, 
 M. A. Robb, J. R. Cheeseman, G. Scalmani, V. Barone, 
 G. A. Petersson, H. Nakatsuji, X. Li, M. Caricato, A. V. Marenich, 
 J. Bloino, B. G. Janesko, R. Gomperts, B. Mennucci, H. P. Hratchian, 
 J. V. Ortiz, A. F. Izmaylov, J. L. Sonnenberg, D. Williams-Young, 
 F. Ding, F. Lipparini, F. Egidi, J. Goings, B. Peng, A. Petrone, 
 T. Henderson, D. Ranasinghe, V. G. Zakrzewski, J. Gao, N. Rega, 
 G. Zheng, W. Liang, M. Hada, M. Ehara, K. Toyota, R. Fukuda, 
 J. Hasegawa, M. Ishida, T. Nakajima, Y. Honda, O. Kitao, H. Nakai, 
 T. Vreven, K. Throssell, J. A. Montgomery, Jr., J. E. Peralta, 
 F. Ogliaro, M. J. Bearpark, J. J. Heyd, E. N. Brothers, K. N. Kudin, 
 V. N. Staroverov, T. A. Keith, R. Kobayashi, J. Normand, 
 K. Raghavachari, A. P. Rendell, J. C. Burant, S. S. Iyengar, 
 J. Tomasi, M. Cossi, J. M. Millam, M. Klene, C. Adamo, R. Cammi, 
 J. W. Ochterski, R. L. Martin, K. Morokuma, O. Farkas, 
 J. B. Foresman, and D. J. Fox, Gaussian, Inc., Wallingford CT, 2016.
 
 ******************************************
 Gaussian 16:  ES64L-G16RevA.03 25-Dec-2016
                27-Apr-2022 
 ******************************************
 %nproc=24
 Will use up to   24 processors via shared memory.
 %mem=75GB
 ------------------------------
 #p blyp/Def2SVP td=(nstates=5)
 ------------------------------
 1/38=1,172=1/1;
 2/12=2,17=6,18=5,40=1/2;
 3/5=43,7=101,11=9,25=1,30=1,74=402/1,2,3,8;
 4//1;
 5/5=2,38=5/2;
 8/6=1,10=1,108=5/1;
 9/41=5,42=1,70=2/14;
 6/7=2,8=2,9=2,10=2/1;
 99/5=1,9=1/99;
 Leave Link    1 at Wed Apr 27 15:53:39 2022, MaxMem= 10066329600 cpu:               1.2 elap:               0.1
 (Enter /sw/apps/gaussian-16.0/g16/l101.exe)
 --------------------------------------------------
 step_1251_chromophore_1 TDDFT with blyp functional
 --------------------------------------------------
 Symbolic Z-matrix:
 Charge =  0 Multiplicity = 1
 Mg                   -1.018     17.271    26.855 
 C                    -1.464     15.185    29.792 
 C                    -2.078     19.951    28.666 
 C                    -0.819     19.038    24.044 
 C                    -0.489     14.329    24.963 
 N                    -1.593     17.506    28.937 
 C                    -1.656     16.603    29.999 
 C                    -1.767     17.339    31.377 
 C                    -2.279     18.741    30.935 
 C                    -2.015     18.732    29.449 
 C                    -3.783     19.018    31.156 
 C                    -0.662     17.4      32.394 
 C                    -1.017     18.09     33.747 
 C                    -1.062     17.215    34.965 
 O                    -1.93      16.416    35.315 
 O                     0.092     17.396    35.673 
 N                    -1.284     19.281    26.46 
 C                    -1.723     20.234    27.317 
 C                    -1.703     21.454    26.705 
 C                    -1.267     21.297    25.362 
 C                    -1.115     19.806    25.231 
 C                    -2.179     22.723    27.451 
 C                    -1.052     22.336    24.257 
 O                    -0.938     21.965    23.071 
 C                    -0.953     23.846    24.486 
 N                    -0.775     16.753    24.772 
 C                    -0.899     17.661    23.773 
 C                    -0.786     17.079    22.412 
 C                    -0.206     15.761    22.658 
 C                    -0.5       15.556    24.241 
 C                    -2.1       17.189    21.584 
 C                     1.272     15.402    22.431 
 C                     2.485     16.304    22.739 
 N                    -0.921     15.203    27.223 
 C                    -0.813     14.174    26.382 
 C                    -0.823     12.873    27.076 
 C                    -1.043     13.201    28.375 
 C                    -1.16      14.644    28.453 
 C                    -0.983     11.473    26.472 
 C                    -1.307     12.689    29.75 
 O                    -1.536     11.571    30.144 
 C                    -1.628     13.961    30.671 
 C                    -0.737     13.792    31.807 
 O                     0.424     14.295    31.846 
 O                    -1.36      12.975    32.776 
 C                    -0.487     12.969    33.988 
 C                     0.235     16.652    36.927 
 C                     0.119     17.607    38.081 
 C                     0.102     17.417    39.382 
 C                     0.107     16.004    39.918 
 C                     0.074     18.548    40.478 
 C                     1.272     19.524    40.771 
 C                     1.008     21.043    40.959 
 C                     2.105     21.949    40.264 
 C                     2.054     22.049    38.804 
 C                     3.463     21.63     40.974 
 C                     3.971     22.791    41.891 
 C                     4.776     22.291    43.068 
 C                     4.109     22.514    44.453 
 C                     5.017     21.962    45.535 
 C                     2.763     21.58     44.6 
 C                     1.666     22.595    44.771 
 C                     0.286     21.899    44.846 
 C                    -0.565     22.458    45.937 
 C                     0.056     22.079    47.271 
 C                    -2.089     22.111    45.852 
 H                    -2.295     20.859    29.232 
 H                    -0.741     19.59     23.105 
 H                    -0.207     13.449    24.381 
 H                    -2.646     16.801    31.732 
 H                    -1.669     19.494    31.433 
 H                    -4.33      19.11     30.218 
 H                    -3.947     20.02     31.551 
 H                    -4.312     18.238    31.703 
 H                     0.244     17.843    31.98 
 H                    -0.243     16.429    32.656 
 H                    -2.055     18.417    33.694 
 H                    -0.344     18.902    34.024 
 H                    -1.435     23.203    28.087 
 H                    -2.982     22.355    28.091 
 H                    -2.638     23.358    26.693 
 H                    -0.629     24.317    23.558 
 H                    -0.135     24.025    25.184 
 H                    -1.939     24.074    24.892 
 H                    -0.02      17.626    21.862 
 H                    -0.833     15.08     22.082 
 H                    -2.872     17.798    22.055 
 H                    -2.472     16.195    21.335 
 H                    -1.819     17.671    20.648 
 H                     1.353     15.175    21.368 
 H                     1.441     14.494    23.01 
 H                     2.875     16.865    21.89 
 H                     3.183     15.664    23.278 
 H                     2.066     17.07     23.391 
 H                     0.        11.091    26.197 
 H                    -1.606     11.565    25.582 
 H                    -1.354     10.782    27.229 
 H                    -2.657     13.925    31.029 
 H                     0.409     12.347    33.959 
 H                    -1.184     12.57     34.724 
 H                    -0.279     13.999    34.277 
 H                     1.238     16.235    37.013 
 H                    -0.493     15.886    37.192 
 H                    -0.018     18.646    37.782 
 H                    -0.92      15.707    40.13 
 H                     0.565     15.811    40.888 
 H                     0.55      15.24     39.28 
 H                    -0.272     18.136    41.426 
 H                    -0.779     19.157    40.178 
 H                     1.868     19.253    39.898 
 H                     1.903     19.112    41.558 
 H                     1.18      21.206    42.023 
 H                    -0.021     21.288    40.694 
 H                     1.732     22.889    40.669 
 H                     1.4       21.405    38.217 
 H                     3.027     21.681    38.48 
 H                     1.98      23.128    38.666 
 H                     4.239     21.457    40.228 
 H                     3.325     20.718    41.556 
 H                     3.114     23.357    42.257 
 H                     4.614     23.476    41.339 
 H                     5.755     22.765    43.125 
 H                     5.121     21.261    42.97 
 H                     4.122     23.604    44.469 
 H                     5.068     20.875    45.479 
 H                     4.728     22.391    46.495 
 H                     6.018     22.351    45.347 
 H                     2.838     21.112    45.582 
 H                     2.447     20.943    43.774 
 H                     1.738     23.258    43.909 
 H                     1.846     23.238    45.632 
 H                     0.487     20.832    44.946 
 H                    -0.228     22.022    43.893 
 H                    -0.473     23.544    45.956 
 H                     0.485     21.08     47.197 
 H                    -0.688     22.091    48.068 
 H                     0.733     22.87     47.596 
 H                    -2.434     21.706    46.804 
 H                    -2.282     21.357    45.089 
 H                    -2.45      23.073    45.488 
 
 ITRead=  0  0  0  0  0  0  0  0  0  0  0  0  0  0  0  0  0  0  0  0
 ITRead=  0  0  0  0  0  0  0  0  0  0  0  0  0  0  0  0  0  0  0  0
 ITRead=  0  0  0  0  0  0  0  0  0  0  0  0  0  0  0  0  0  0  0  0
 ITRead=  0  0  0  0  0  0  0  0  0  0  0  0  0  0  0  0  0  0  0  0
 ITRead=  0  0  0  0  0  0  0  0  0  0  0  0  0  0  0  0  0  0  0  0
 ITRead=  0  0  0  0  0  0  0  0  0  0  0  0  0  0  0  0  0  0  0  0
 ITRead=  0  0  0  0  0  0  0  0  0  0  0  0  0  0  0  0  0  0  0  0
 MicOpt= -1 -1 -1 -1 -1 -1 -1 -1 -1 -1 -1 -1 -1 -1 -1 -1 -1 -1 -1 -1
 MicOpt= -1 -1 -1 -1 -1 -1 -1 -1 -1 -1 -1 -1 -1 -1 -1 -1 -1 -1 -1 -1
 MicOpt= -1 -1 -1 -1 -1 -1 -1 -1 -1 -1 -1 -1 -1 -1 -1 -1 -1 -1 -1 -1
 MicOpt= -1 -1 -1 -1 -1 -1 -1 -1 -1 -1 -1 -1 -1 -1 -1 -1 -1 -1 -1 -1
 MicOpt= -1 -1 -1 -1 -1 -1 -1 -1 -1 -1 -1 -1 -1 -1 -1 -1 -1 -1 -1 -1
 MicOpt= -1 -1 -1 -1 -1 -1 -1 -1 -1 -1 -1 -1 -1 -1 -1 -1 -1 -1 -1 -1
 MicOpt= -1 -1 -1 -1 -1 -1 -1 -1 -1 -1 -1 -1 -1 -1 -1 -1 -1 -1 -1 -1
 NAtoms=    140 NQM=      140 NQMF=       0 NMMI=      0 NMMIF=      0
                NMic=       0 NMicF=      0.
                    Isotopes and Nuclear Properties:
 (Nuclear quadrupole moments (NQMom) in fm**2, nuclear magnetic moments (NMagM)
  in nuclear magnetons)

  Atom         1           2           3           4           5           6           7           8           9          10
 IAtWgt=          24          12          12          12          12          14          12          12          12          12
 AtmWgt=  23.9850450  12.0000000  12.0000000  12.0000000  12.0000000  14.0030740  12.0000000  12.0000000  12.0000000  12.0000000
 NucSpn=           0           0           0           0           0           2           0           0           0           0
 AtZEff=  -0.0000000  -0.0000000  -0.0000000  -0.0000000  -0.0000000  -0.0000000  -0.0000000  -0.0000000  -0.0000000  -0.0000000
 NQMom=    0.0000000   0.0000000   0.0000000   0.0000000   0.0000000   2.0440000   0.0000000   0.0000000   0.0000000   0.0000000
 NMagM=    0.0000000   0.0000000   0.0000000   0.0000000   0.0000000   0.4037610   0.0000000   0.0000000   0.0000000   0.0000000
 AtZNuc=  12.0000000   6.0000000   6.0000000   6.0000000   6.0000000   7.0000000   6.0000000   6.0000000   6.0000000   6.0000000

  Atom        11          12          13          14          15          16          17          18          19          20
 IAtWgt=          12          12          12          12          16          16          14          12          12          12
 AtmWgt=  12.0000000  12.0000000  12.0000000  12.0000000  15.9949146  15.9949146  14.0030740  12.0000000  12.0000000  12.0000000
 NucSpn=           0           0           0           0           0           0           2           0           0           0
 AtZEff=  -0.0000000  -0.0000000  -0.0000000  -0.0000000  -0.0000000  -0.0000000  -0.0000000  -0.0000000  -0.0000000  -0.0000000
 NQMom=    0.0000000   0.0000000   0.0000000   0.0000000   0.0000000   0.0000000   2.0440000   0.0000000   0.0000000   0.0000000
 NMagM=    0.0000000   0.0000000   0.0000000   0.0000000   0.0000000   0.0000000   0.4037610   0.0000000   0.0000000   0.0000000
 AtZNuc=   6.0000000   6.0000000   6.0000000   6.0000000   8.0000000   8.0000000   7.0000000   6.0000000   6.0000000   6.0000000

  Atom        21          22          23          24          25          26          27          28          29          30
 IAtWgt=          12          12          12          16          12          14          12          12          12          12
 AtmWgt=  12.0000000  12.0000000  12.0000000  15.9949146  12.0000000  14.0030740  12.0000000  12.0000000  12.0000000  12.0000000
 NucSpn=           0           0           0           0           0           2           0           0           0           0
 AtZEff=  -0.0000000  -0.0000000  -0.0000000  -0.0000000  -0.0000000  -0.0000000  -0.0000000  -0.0000000  -0.0000000  -0.0000000
 NQMom=    0.0000000   0.0000000   0.0000000   0.0000000   0.0000000   2.0440000   0.0000000   0.0000000   0.0000000   0.0000000
 NMagM=    0.0000000   0.0000000   0.0000000   0.0000000   0.0000000   0.4037610   0.0000000   0.0000000   0.0000000   0.0000000
 AtZNuc=   6.0000000   6.0000000   6.0000000   8.0000000   6.0000000   7.0000000   6.0000000   6.0000000   6.0000000   6.0000000

  Atom        31          32          33          34          35          36          37          38          39          40
 IAtWgt=          12          12          12          14          12          12          12          12          12          12
 AtmWgt=  12.0000000  12.0000000  12.0000000  14.0030740  12.0000000  12.0000000  12.0000000  12.0000000  12.0000000  12.0000000
 NucSpn=           0           0           0           2           0           0           0           0           0           0
 AtZEff=  -0.0000000  -0.0000000  -0.0000000  -0.0000000  -0.0000000  -0.0000000  -0.0000000  -0.0000000  -0.0000000  -0.0000000
 NQMom=    0.0000000   0.0000000   0.0000000   2.0440000   0.0000000   0.0000000   0.0000000   0.0000000   0.0000000   0.0000000
 NMagM=    0.0000000   0.0000000   0.0000000   0.4037610   0.0000000   0.0000000   0.0000000   0.0000000   0.0000000   0.0000000
 AtZNuc=   6.0000000   6.0000000   6.0000000   7.0000000   6.0000000   6.0000000   6.0000000   6.0000000   6.0000000   6.0000000

  Atom        41          42          43          44          45          46          47          48          49          50
 IAtWgt=          16          12          12          16          16          12          12          12          12          12
 AtmWgt=  15.9949146  12.0000000  12.0000000  15.9949146  15.9949146  12.0000000  12.0000000  12.0000000  12.0000000  12.0000000
 NucSpn=           0           0           0           0           0           0           0           0           0           0
 AtZEff=  -0.0000000  -0.0000000  -0.0000000  -0.0000000  -0.0000000  -0.0000000  -0.0000000  -0.0000000  -0.0000000  -0.0000000
 NQMom=    0.0000000   0.0000000   0.0000000   0.0000000   0.0000000   0.0000000   0.0000000   0.0000000   0.0000000   0.0000000
 NMagM=    0.0000000   0.0000000   0.0000000   0.0000000   0.0000000   0.0000000   0.0000000   0.0000000   0.0000000   0.0000000
 AtZNuc=   8.0000000   6.0000000   6.0000000   8.0000000   8.0000000   6.0000000   6.0000000   6.0000000   6.0000000   6.0000000

  Atom        51          52          53          54          55          56          57          58          59          60
 IAtWgt=          12          12          12          12          12          12          12          12          12          12
 AtmWgt=  12.0000000  12.0000000  12.0000000  12.0000000  12.0000000  12.0000000  12.0000000  12.0000000  12.0000000  12.0000000
 NucSpn=           0           0           0           0           0           0           0           0           0           0
 AtZEff=  -0.0000000  -0.0000000  -0.0000000  -0.0000000  -0.0000000  -0.0000000  -0.0000000  -0.0000000  -0.0000000  -0.0000000
 NQMom=    0.0000000   0.0000000   0.0000000   0.0000000   0.0000000   0.0000000   0.0000000   0.0000000   0.0000000   0.0000000
 NMagM=    0.0000000   0.0000000   0.0000000   0.0000000   0.0000000   0.0000000   0.0000000   0.0000000   0.0000000   0.0000000
 AtZNuc=   6.0000000   6.0000000   6.0000000   6.0000000   6.0000000   6.0000000   6.0000000   6.0000000   6.0000000   6.0000000

  Atom        61          62          63          64          65          66          67          68          69          70
 IAtWgt=          12          12          12          12          12          12           1           1           1           1
 AtmWgt=  12.0000000  12.0000000  12.0000000  12.0000000  12.0000000  12.0000000   1.0078250   1.0078250   1.0078250   1.0078250
 NucSpn=           0           0           0           0           0           0           1           1           1           1
 AtZEff=  -0.0000000  -0.0000000  -0.0000000  -0.0000000  -0.0000000  -0.0000000  -0.0000000  -0.0000000  -0.0000000  -0.0000000
 NQMom=    0.0000000   0.0000000   0.0000000   0.0000000   0.0000000   0.0000000   0.0000000   0.0000000   0.0000000   0.0000000
 NMagM=    0.0000000   0.0000000   0.0000000   0.0000000   0.0000000   0.0000000   2.7928460   2.7928460   2.7928460   2.7928460
 AtZNuc=   6.0000000   6.0000000   6.0000000   6.0000000   6.0000000   6.0000000   1.0000000   1.0000000   1.0000000   1.0000000

  Atom        71          72          73          74          75          76          77          78          79          80
 IAtWgt=           1           1           1           1           1           1           1           1           1           1
 AtmWgt=   1.0078250   1.0078250   1.0078250   1.0078250   1.0078250   1.0078250   1.0078250   1.0078250   1.0078250   1.0078250
 NucSpn=           1           1           1           1           1           1           1           1           1           1
 AtZEff=  -0.0000000  -0.0000000  -0.0000000  -0.0000000  -0.0000000  -0.0000000  -0.0000000  -0.0000000  -0.0000000  -0.0000000
 NQMom=    0.0000000   0.0000000   0.0000000   0.0000000   0.0000000   0.0000000   0.0000000   0.0000000   0.0000000   0.0000000
 NMagM=    2.7928460   2.7928460   2.7928460   2.7928460   2.7928460   2.7928460   2.7928460   2.7928460   2.7928460   2.7928460
 AtZNuc=   1.0000000   1.0000000   1.0000000   1.0000000   1.0000000   1.0000000   1.0000000   1.0000000   1.0000000   1.0000000

  Atom        81          82          83          84          85          86          87          88          89          90
 IAtWgt=           1           1           1           1           1           1           1           1           1           1
 AtmWgt=   1.0078250   1.0078250   1.0078250   1.0078250   1.0078250   1.0078250   1.0078250   1.0078250   1.0078250   1.0078250
 NucSpn=           1           1           1           1           1           1           1           1           1           1
 AtZEff=  -0.0000000  -0.0000000  -0.0000000  -0.0000000  -0.0000000  -0.0000000  -0.0000000  -0.0000000  -0.0000000  -0.0000000
 NQMom=    0.0000000   0.0000000   0.0000000   0.0000000   0.0000000   0.0000000   0.0000000   0.0000000   0.0000000   0.0000000
 NMagM=    2.7928460   2.7928460   2.7928460   2.7928460   2.7928460   2.7928460   2.7928460   2.7928460   2.7928460   2.7928460
 AtZNuc=   1.0000000   1.0000000   1.0000000   1.0000000   1.0000000   1.0000000   1.0000000   1.0000000   1.0000000   1.0000000

  Atom        91          92          93          94          95          96          97          98          99         100
 IAtWgt=           1           1           1           1           1           1           1           1           1           1
 AtmWgt=   1.0078250   1.0078250   1.0078250   1.0078250   1.0078250   1.0078250   1.0078250   1.0078250   1.0078250   1.0078250
 NucSpn=           1           1           1           1           1           1           1           1           1           1
 AtZEff=  -0.0000000  -0.0000000  -0.0000000  -0.0000000  -0.0000000  -0.0000000  -0.0000000  -0.0000000  -0.0000000  -0.0000000
 NQMom=    0.0000000   0.0000000   0.0000000   0.0000000   0.0000000   0.0000000   0.0000000   0.0000000   0.0000000   0.0000000
 NMagM=    2.7928460   2.7928460   2.7928460   2.7928460   2.7928460   2.7928460   2.7928460   2.7928460   2.7928460   2.7928460
 AtZNuc=   1.0000000   1.0000000   1.0000000   1.0000000   1.0000000   1.0000000   1.0000000   1.0000000   1.0000000   1.0000000

  Atom       101         102         103         104         105         106         107         108         109         110
 IAtWgt=           1           1           1           1           1           1           1           1           1           1
 AtmWgt=   1.0078250   1.0078250   1.0078250   1.0078250   1.0078250   1.0078250   1.0078250   1.0078250   1.0078250   1.0078250
 NucSpn=           1           1           1           1           1           1           1           1           1           1
 AtZEff=  -0.0000000  -0.0000000  -0.0000000  -0.0000000  -0.0000000  -0.0000000  -0.0000000  -0.0000000  -0.0000000  -0.0000000
 NQMom=    0.0000000   0.0000000   0.0000000   0.0000000   0.0000000   0.0000000   0.0000000   0.0000000   0.0000000   0.0000000
 NMagM=    2.7928460   2.7928460   2.7928460   2.7928460   2.7928460   2.7928460   2.7928460   2.7928460   2.7928460   2.7928460
 AtZNuc=   1.0000000   1.0000000   1.0000000   1.0000000   1.0000000   1.0000000   1.0000000   1.0000000   1.0000000   1.0000000

  Atom       111         112         113         114         115         116         117         118         119         120
 IAtWgt=           1           1           1           1           1           1           1           1           1           1
 AtmWgt=   1.0078250   1.0078250   1.0078250   1.0078250   1.0078250   1.0078250   1.0078250   1.0078250   1.0078250   1.0078250
 NucSpn=           1           1           1           1           1           1           1           1           1           1
 AtZEff=  -0.0000000  -0.0000000  -0.0000000  -0.0000000  -0.0000000  -0.0000000  -0.0000000  -0.0000000  -0.0000000  -0.0000000
 NQMom=    0.0000000   0.0000000   0.0000000   0.0000000   0.0000000   0.0000000   0.0000000   0.0000000   0.0000000   0.0000000
 NMagM=    2.7928460   2.7928460   2.7928460   2.7928460   2.7928460   2.7928460   2.7928460   2.7928460   2.7928460   2.7928460
 AtZNuc=   1.0000000   1.0000000   1.0000000   1.0000000   1.0000000   1.0000000   1.0000000   1.0000000   1.0000000   1.0000000

  Atom       121         122         123         124         125         126         127         128         129         130
 IAtWgt=           1           1           1           1           1           1           1           1           1           1
 AtmWgt=   1.0078250   1.0078250   1.0078250   1.0078250   1.0078250   1.0078250   1.0078250   1.0078250   1.0078250   1.0078250
 NucSpn=           1           1           1           1           1           1           1           1           1           1
 AtZEff=  -0.0000000  -0.0000000  -0.0000000  -0.0000000  -0.0000000  -0.0000000  -0.0000000  -0.0000000  -0.0000000  -0.0000000
 NQMom=    0.0000000   0.0000000   0.0000000   0.0000000   0.0000000   0.0000000   0.0000000   0.0000000   0.0000000   0.0000000
 NMagM=    2.7928460   2.7928460   2.7928460   2.7928460   2.7928460   2.7928460   2.7928460   2.7928460   2.7928460   2.7928460
 AtZNuc=   1.0000000   1.0000000   1.0000000   1.0000000   1.0000000   1.0000000   1.0000000   1.0000000   1.0000000   1.0000000

  Atom       131         132         133         134         135         136         137         138         139         140
 IAtWgt=           1           1           1           1           1           1           1           1           1           1
 AtmWgt=   1.0078250   1.0078250   1.0078250   1.0078250   1.0078250   1.0078250   1.0078250   1.0078250   1.0078250   1.0078250
 NucSpn=           1           1           1           1           1           1           1           1           1           1
 AtZEff=  -0.0000000  -0.0000000  -0.0000000  -0.0000000  -0.0000000  -0.0000000  -0.0000000  -0.0000000  -0.0000000  -0.0000000
 NQMom=    0.0000000   0.0000000   0.0000000   0.0000000   0.0000000   0.0000000   0.0000000   0.0000000   0.0000000   0.0000000
 NMagM=    2.7928460   2.7928460   2.7928460   2.7928460   2.7928460   2.7928460   2.7928460   2.7928460   2.7928460   2.7928460
 AtZNuc=   1.0000000   1.0000000   1.0000000   1.0000000   1.0000000   1.0000000   1.0000000   1.0000000   1.0000000   1.0000000
 Leave Link  101 at Wed Apr 27 15:53:40 2022, MaxMem= 10066329600 cpu:               3.7 elap:               0.2
 (Enter /sw/apps/gaussian-16.0/g16/l202.exe)
 Stoichiometry    C55H74MgN4O6
 Framework group  C1[X(C55H74MgN4O6)]
 Deg. of freedom   414
 Full point group                 C1      NOp   1
 Largest Abelian subgroup         C1      NOp   1
 Largest concise Abelian subgroup C1      NOp   1
                         Standard orientation:                         
 ---------------------------------------------------------------------
 Center     Atomic      Atomic             Coordinates (Angstroms)
 Number     Number       Type             X           Y           Z
 ---------------------------------------------------------------------
      1         12           0        5.900531    0.411647   -0.033814
      2          6           0        3.589124   -2.328385   -0.604695
      3          6           0        3.695742    2.514323   -1.551503
      4          6           0        8.194377    2.795714    0.309850
      5          6           0        8.312859   -1.963086    0.993896
      6          7           0        3.914455    0.113393   -0.862742
      7          6           0        3.098703   -1.014795   -0.957408
      8          6           0        1.618771   -0.630512   -1.296566
      9          6           0        1.801344    0.796913   -1.890062
     10          6           0        3.203036    1.153567   -1.458750
     11          6           0        1.727001    0.909518   -3.429341
     12          6           0        0.475569   -0.732141   -0.326103
     13          6           0       -0.937385   -0.403575   -0.899113
     14          6           0       -1.912423   -1.539791   -0.996522
     15          8           0       -1.956341   -2.456723   -1.816052
     16          8           0       -2.790542   -1.449468    0.045827
     17          7           0        5.869306    2.434853   -0.449199
     18          6           0        4.887883    3.128499   -1.074533
     19          6           0        5.204159    4.456052   -1.104827
     20          6           0        6.477798    4.647712   -0.505240
     21          6           0        6.916449    3.242795   -0.193566
     22          6           0        4.264404    5.479530   -1.785125
     23          6           0        7.284453    5.928398   -0.268762
     24          8           0        8.497198    5.853482    0.015614
     25          6           0        6.713418    7.346283   -0.345335
     26          7           0        7.995005    0.412610    0.494809
     27          6           0        8.773776    1.517950    0.396931
     28          6           0       10.202688    1.279194    0.720999
     29          6           0       10.181571   -0.016265    1.395818
     30          6           0        8.737933   -0.605207    0.944810
     31          6           0       11.153164    1.488017   -0.494430
     32          6           0       10.283463   -0.208804    2.918132
     33          6           0        9.622959    0.678306    3.993589
     34          7           0        5.993327   -1.673240    0.223271
     35          6           0        7.020443   -2.467316    0.527017
     36          6           0        6.641710   -3.891884    0.565804
     37          6           0        5.343590   -3.892424    0.167976
     38          6           0        4.962147   -2.519252   -0.098338
     39          6           0        7.558477   -5.119740    0.614025
     40          6           0        4.165251   -4.728452   -0.199499
     41          8           0        4.064648   -5.920678   -0.360988
     42          6           0        3.035143   -3.732173   -0.746812
     43          6           0        1.856889   -4.099522    0.021114
     44          8           0        1.552050   -3.540174    1.115030
     45          8           0        1.186541   -5.161466   -0.625018
     46          6           0       -0.099043   -5.389727    0.100434
     47          6           0       -3.854656   -2.453985    0.117302
     48          6           0       -5.166448   -1.805334   -0.222771
     49          6           0       -6.378107   -2.294634   -0.369254
     50          6           0       -6.581300   -3.789884   -0.286620
     51          6           0       -7.684886   -1.455631   -0.633006
     52          6           0       -8.345402   -0.494289    0.422063
     53          6           0       -8.830382    0.916694   -0.009585
     54          6           0       -8.507755    2.033877    1.065163
     55          6           0       -7.113412    2.468302    1.171391
     56          6           0       -9.303560    1.652967    2.358077
     57          6           0      -10.515749    2.600088    2.641683
     58          6           0      -11.648308    1.896168    3.352428
     59          6           0      -12.946375    1.742670    2.513200
     60          6           0      -13.989357    1.017655    3.341713
     61          6           0      -12.700342    0.709025    1.257522
     62          6           0      -12.945301    1.577328    0.053811
     63          6           0      -12.678269    0.788965   -1.250650
     64          6           0      -13.742788    1.017228   -2.271267
     65          6           0      -15.029362    0.381217   -1.772213
     66          6           0      -13.379842    0.594716   -3.734129
     67          1           0        2.975710    3.247703   -1.919764
     68          1           0        8.967615    3.555796    0.439802
     69          1           0        9.033418   -2.661060    1.425491
     70          1           0        1.513298   -1.296242   -2.153180
     71          1           0        1.071109    1.453269   -1.417764
     72          1           0        2.685294    1.179832   -3.872196
     73          1           0        1.144056    1.777682   -3.734943
     74          1           0        1.443350   -0.011457   -3.938061
     75          1           0        0.655591   -0.142894    0.573263
     76          1           0        0.383128   -1.705974    0.153637
     77          1           0       -0.820516   -0.146127   -1.951369
     78          1           0       -1.475782    0.365992   -0.345129
     79          1           0        3.443889    5.848189   -1.169269
     80          1           0        3.835672    4.917393   -2.615801
     81          1           0        4.916060    6.240551   -2.214848
     82          1           0        7.461247    8.042318    0.034517
     83          1           0        5.890266    7.413671    0.366177
     84          1           0        6.402190    7.404128   -1.388795
     85          1           0       10.509542    1.991348    1.487251
     86          1           0       10.973342   -0.585755    0.908534
     87          1           0       10.665643    1.915058   -1.371166
     88          1           0       11.664912    0.556296   -0.736156
     89          1           0       11.912007    2.193603   -0.157257
     90          1           0       11.349734   -0.175078    3.141713
     91          1           0        9.904250   -1.212929    3.108386
     92          1           0       10.265623    1.447761    4.420840
     93          1           0        9.151980   -0.019822    4.685052
     94          1           0        8.878517    1.239854    3.429772
     95          1           0        7.777945   -5.357746    1.654710
     96          1           0        8.480569   -4.865914    0.090562
     97          1           0        7.031101   -5.992471    0.228817
     98          1           0        2.834872   -3.922148   -1.801374
     99          1           0       -0.051993   -5.923994    1.050637
    100          1           0       -0.627718   -5.996990   -0.633351
    101          1           0       -0.635545   -4.443821    0.171930
    102          1           0       -3.978650   -2.808858    1.140036
    103          1           0       -3.842547   -3.309340   -0.557373
    104          1           0       -5.091095   -0.737328   -0.426185
    105          1           0       -6.582660   -4.198757   -1.296918
    106          1           0       -7.536090   -4.171807    0.074523
    107          1           0       -5.854027   -4.351096    0.299131
    108          1           0       -8.462246   -2.100642   -1.042684
    109          1           0       -7.417085   -0.854149   -1.501909
    110          1           0       -7.521558   -0.511851    1.137436
    111          1           0       -9.097750   -1.033861    0.996614
    112          1           0       -9.917131    0.838231    0.023125
    113          1           0       -8.491717    1.144751   -1.020717
    114          1           0       -9.058624    2.825062    0.557892
    115          1           0       -6.315664    1.935391    0.655034
    116          1           0       -6.848415    2.254623    2.206401
    117          1           0       -7.210858    3.541875    1.007973
    118          1           0       -8.648238    1.713289    3.227292
    119          1           0       -9.643785    0.622945    2.244879
    120          1           0      -10.880940    3.004045    1.697111
    121          1           0      -10.221310    3.438010    3.273007
    122          1           0      -11.939760    2.410549    4.267214
    123          1           0      -11.370083    0.944052    3.805855
    124          1           0      -13.206598    2.796986    2.417151
    125          1           0      -13.699723   -0.019966    3.505299
    126          1           0      -14.973434    1.189454    2.904402
    127          1           0      -14.028214    1.508345    4.314534
    128          1           0      -13.554262    0.030993    1.265673
    129          1           0      -11.718499    0.262191    1.101879
    130          1           0      -12.270365    2.426664    0.158147
    131          1           0      -13.944119    2.012364    0.070424
    132          1           0      -12.563763   -0.255277   -0.958525
    133          1           0      -11.716809    1.095139   -1.662216
    134          1           0      -14.015565    2.072450   -2.289165
    135          1           0      -14.792441   -0.540605   -1.241525
    136          1           0      -15.702306    0.155058   -2.599793
    137          1           0      -15.609961    1.119484   -1.217685
    138          1           0      -14.162759   -0.044371   -4.143962
    139          1           0      -12.449171    0.028235   -3.763863
    140          1           0      -13.194644    1.587669   -4.144016
 ---------------------------------------------------------------------
 Rotational constants (GHZ):           0.0508004           0.0089815           0.0081327
 Leave Link  202 at Wed Apr 27 15:53:40 2022, MaxMem= 10066329600 cpu:               0.2 elap:               0.0
 (Enter /sw/apps/gaussian-16.0/g16/l301.exe)
 Standard basis: def2SVP (5D, 7F)
 Ernie: Thresh=  0.10000D-02 Tol=  0.10000D-05 Strict=F.
 There are  1364 symmetry adapted cartesian basis functions of A   symmetry.
 There are  1298 symmetry adapted basis functions of A   symmetry.
  1298 basis functions,  2180 primitive gaussians,  1364 cartesian basis functions
   246 alpha electrons      246 beta electrons
       nuclear repulsion energy      9474.6472982113 Hartrees.
 IExCor=  402 DFT=T Ex=B Corr=LYP ExCW=0 ScaHFX=  0.000000
 ScaDFX=  1.000000  1.000000  1.000000  1.000000 ScalE2=  1.000000  1.000000
 IRadAn=      5 IRanWt=     -1 IRanGd=            0 ICorTp=0 IEmpDi=  4
 NAtoms=  140 NActive=  140 NUniq=  140 SFac= 1.00D+00 NAtFMM=   60 NAOKFM=T Big=T
 Integral buffers will be    131072 words long.
 Regular integral format.
 Two-electron integral symmetry is turned on.
 Leave Link  301 at Wed Apr 27 15:53:40 2022, MaxMem= 10066329600 cpu:               1.5 elap:               0.1
 (Enter /sw/apps/gaussian-16.0/g16/l302.exe)
 NPDir=0 NMtPBC=     1 NCelOv=     1 NCel=       1 NClECP=     1 NCelD=      1
         NCelK=      1 NCelE2=     1 NClLst=     1 CellRange=     0.0.
 One-electron integrals computed using PRISM.
 One-electron integral symmetry used in STVInt
   1 Symmetry operations used in ECPInt.
 ECPInt:  NShTT=  192510 NPrTT=  683786 LenC2=   92225 LenP2D=  204238.
 LDataN:  DoStor=T MaxTD1= 4 Len=   56
 NBasis=  1298 RedAO= T EigKep=  3.31D-04  NBF=  1298
 NBsUse=  1298 1.00D-06 EigRej= -1.00D+00 NBFU=  1298
 Precomputing XC quadrature grid using
 IXCGrd= 4 IRadAn=           5 IRanWt=          -1 IRanGd=           0 AccXCQ= 0.00D+00.
 Generated NRdTot=       0 NPtTot=           0 NUsed=           0 NTot=          32
 NSgBfM=  1133  1130  1133  1133  1133 MxSgAt=   140 MxSgA2=   140.
 Leave Link  302 at Wed Apr 27 15:53:43 2022, MaxMem= 10066329600 cpu:              88.9 elap:               3.7
 (Enter /sw/apps/gaussian-16.0/g16/l303.exe)
 DipDrv:  MaxL=1.
 Leave Link  303 at Wed Apr 27 15:53:44 2022, MaxMem= 10066329600 cpu:               7.1 elap:               0.3
 (Enter /sw/apps/gaussian-16.0/g16/l308.exe)
 Leave Link  308 at Wed Apr 27 15:53:44 2022, MaxMem= 10066329600 cpu:               8.4 elap:               0.4
 (Enter /sw/apps/gaussian-16.0/g16/l401.exe)
 ExpMin= 3.36D-02 ExpMax= 4.95D+03 ExpMxC= 7.45D+02 IAcc=3 IRadAn=         5 AccDes= 0.00D+00
 Harris functional with IExCor=  402 and IRadAn=       5 diagonalized for initial guess.
 HarFok:  IExCor=  402 AccDes= 0.00D+00 IRadAn=         5 IDoV= 1 UseB2=F ITyADJ=14
 ICtDFT=  3500011 ScaDFX=  1.000000  1.000000  1.000000  1.000000
 FoFCou: FMM=F IPFlag=           0 FMFlag=      100000 FMFlg1=        2001
         NFxFlg=           0 DoJE=T BraDBF=F KetDBF=T FulRan=T
         wScrn=  0.000000 ICntrl=       500 IOpCl=  0 I1Cent=   200000004 NGrid=           0
         NMat0=    1 NMatS0=      1 NMatT0=    0 NMatD0=    1 NMtDS0=    0 NMtDT0=    0
 Petite list used in FoFCou.
 Harris En= -3008.71261339144    
 JPrj=0 DoOrth=F DoCkMO=F.
 Leave Link  401 at Wed Apr 27 15:53:50 2022, MaxMem= 10066329600 cpu:             134.7 elap:               5.6
 (Enter /sw/apps/gaussian-16.0/g16/l502.exe)
 Integral symmetry usage will be decided dynamically.
 Closed shell SCF:
 Using DIIS extrapolation, IDIIS=  1040.
 NGot= 10066329600 LenX= 10062561258 LenY= 10060699398
 Requested convergence on RMS density matrix=1.00D-08 within 128 cycles.
 Requested convergence on MAX density matrix=1.00D-06.
 Requested convergence on             energy=1.00D-06.
 No special actions if energy rises.
 Fock matrices will be formed incrementally for  20 cycles.

 Cycle   1  Pass 1  IDiag  1:
 FoFJK:  IHMeth= 1 ICntrl=     500 DoSepK=F KAlg= 0 I1Cent=           0 FoldK=F
 IRaf= 510000000 NMat=       1 IRICut=       1 DoRegI=T DoRafI=F ISym2E= 0 IDoP0=0 IntGTp=1.
 FoFCou: FMM=T IPFlag=           0 FMFlag=      100000 FMFlg1=        2001
         NFxFlg=           0 DoJE=T BraDBF=F KetDBF=F FulRan=T
         wScrn=  0.000000 ICntrl=       500 IOpCl=  0 I1Cent=           0 NGrid=           0
         NMat0=    1 NMatS0=      1 NMatT0=    0 NMatD0=    1 NMtDS0=    0 NMtDT0=    0
 Symmetry not used in FoFCou.
 FMM levels:  10  Number of levels for PrismC:   9
 E= -3005.60053891969    
 DIIS: error= 2.17D-02 at cycle   1 NSaved=   1.
 NSaved= 1 IEnMin= 1 EnMin= -3005.60053891969     IErMin= 1 ErrMin= 2.17D-02
 ErrMax= 2.17D-02  0.00D+00 EMaxC= 1.00D-01 BMatC= 1.57D+00 BMatP= 1.57D+00
 IDIUse=3 WtCom= 7.83D-01 WtEn= 2.17D-01
 Coeff-Com:  0.100D+01
 Coeff-En:   0.100D+01
 Coeff:      0.100D+01
 Gap=     0.051 Goal=   None    Shift=    0.000
 GapD=    0.051 DampG=0.500 DampE=0.500 DampFc=0.2500 IDamp=-1.
 Damping current iteration by 2.50D-01
 RMSDP=3.95D-03 MaxDP=1.10D+00              OVMax= 8.64D-01

 Cycle   2  Pass 1  IDiag  1:
 RMSU=  9.82D-04    CP:  9.90D-01
 E= -3006.09180953637     Delta-E=       -0.491270616676 Rises=F Damp=T
 DIIS: error= 9.87D-03 at cycle   2 NSaved=   2.
 NSaved= 2 IEnMin= 2 EnMin= -3006.09180953637     IErMin= 2 ErrMin= 9.87D-03
 ErrMax= 9.87D-03  0.00D+00 EMaxC= 1.00D-01 BMatC= 2.61D-01 BMatP= 1.57D+00
 IDIUse=3 WtCom= 9.01D-01 WtEn= 9.87D-02
 Coeff-Com: -0.262D+00 0.126D+01
 Coeff-En:   0.118D+00 0.882D+00
 Coeff:     -0.225D+00 0.122D+01
 Gap=     0.078 Goal=   None    Shift=    0.000
 RMSDP=1.65D-03 MaxDP=2.80D-01 DE=-4.91D-01 OVMax= 5.46D-01

 Cycle   3  Pass 1  IDiag  1:
 RMSU=  1.62D-03    CP:  9.66D-01  1.19D+00
 E= -3004.65637098350     Delta-E=        1.435438552862 Rises=F Damp=F
 DIIS: error= 7.07D-02 at cycle   3 NSaved=   3.
 NSaved= 3 IEnMin= 2 EnMin= -3006.09180953637     IErMin= 2 ErrMin= 9.87D-03
 ErrMax= 7.07D-02  0.00D+00 EMaxC= 1.00D-01 BMatC= 1.83D+00 BMatP= 2.61D-01
 IDIUse=2 WtCom= 0.00D+00 WtEn= 1.00D+00
 Coeff-En:   0.000D+00 0.722D+00 0.278D+00
 Coeff:      0.000D+00 0.722D+00 0.278D+00
 Gap=     0.024 Goal=   None    Shift=    0.000
 RMSDP=2.21D-03 MaxDP=4.83D-01 DE= 1.44D+00 OVMax= 9.09D-01

 Cycle   4  Pass 1  IDiag  1:
 RMSU=  1.37D-03    CP:  9.68D-01  1.82D+00  1.53D-03
 E= -3003.84576585959     Delta-E=        0.810605123910 Rises=F Damp=F
 DIIS: error= 7.56D-02 at cycle   4 NSaved=   4.
 NSaved= 4 IEnMin= 2 EnMin= -3006.09180953637     IErMin= 2 ErrMin= 9.87D-03
 ErrMax= 7.56D-02  0.00D+00 EMaxC= 1.00D-01 BMatC= 1.92D+00 BMatP= 2.61D-01
 IDIUse=2 WtCom= 0.00D+00 WtEn= 1.00D+00
 EnCoef did     1 forward-backward iterations
 Coeff-En:   0.156D+00 0.000D+00 0.448D+00 0.396D+00
 Coeff:      0.156D+00 0.000D+00 0.448D+00 0.396D+00
 Gap=    -0.096 Goal=   None    Shift=    0.000
 RMSDP=1.97D-03 MaxDP=3.52D-01 DE= 8.11D-01 OVMax= 9.19D-01

 Cycle   5  Pass 1  IDiag  1:
 RMSU=  1.31D-03    CP:  9.74D-01  1.07D+00  1.48D-01  9.24D-02
 E= -3005.24263649804     Delta-E=       -1.396870638449 Rises=F Damp=F
 DIIS: error= 2.77D-02 at cycle   5 NSaved=   5.
 NSaved= 5 IEnMin= 2 EnMin= -3006.09180953637     IErMin= 2 ErrMin= 9.87D-03
 ErrMax= 2.77D-02  0.00D+00 EMaxC= 1.00D-01 BMatC= 1.26D+00 BMatP= 2.61D-01
 IDIUse=2 WtCom= 0.00D+00 WtEn= 1.00D+00
 EnCoef did     3 forward-backward iterations
 Coeff-En:   0.904D-01 0.000D+00 0.381D+00 0.345D+00 0.183D+00
 Coeff:      0.904D-01 0.000D+00 0.381D+00 0.345D+00 0.183D+00
 Gap=    -0.194 Goal=   None    Shift=    0.000
 RMSDP=1.30D-03 MaxDP=3.76D-01 DE=-1.40D+00 OVMax= 4.62D-01

 Cycle   6  Pass 1  IDiag  1:
 RMSU=  7.28D-04    CP:  9.78D-01  9.02D-01  2.12D-01  1.40D-01  1.93D-01
 E= -3007.06039867562     Delta-E=       -1.817762177578 Rises=F Damp=F
 DIIS: error= 2.33D-02 at cycle   6 NSaved=   6.
 NSaved= 6 IEnMin= 6 EnMin= -3007.06039867562     IErMin= 2 ErrMin= 9.87D-03
 ErrMax= 2.33D-02  0.00D+00 EMaxC= 1.00D-01 BMatC= 2.35D-01 BMatP= 2.61D-01
 IDIUse=3 WtCom= 7.67D-01 WtEn= 2.33D-01
 EnCoef did     1 forward-backward iterations
 Coeff-Com: -0.146D+00 0.539D+00 0.169D+00 0.736D-01 0.826D-01 0.282D+00
 Coeff-En:   0.000D+00 0.000D+00 0.000D+00 0.660D-02 0.174D+00 0.819D+00
 Coeff:     -0.112D+00 0.413D+00 0.130D+00 0.580D-01 0.104D+00 0.407D+00
 Gap=     0.057 Goal=   None    Shift=    0.000
 RMSDP=8.07D-04 MaxDP=1.43D-01 DE=-1.82D+00 OVMax= 3.63D-01

 Cycle   7  Pass 1  IDiag  1:
 RMSU=  6.64D-04    CP:  9.76D-01  1.14D+00  2.14D-01  1.74D-01  1.12D-01
                    CP:  4.86D-01
 E= -3007.16054167007     Delta-E=       -0.100142994452 Rises=F Damp=F
 DIIS: error= 1.51D-02 at cycle   7 NSaved=   7.
 NSaved= 7 IEnMin= 7 EnMin= -3007.16054167007     IErMin= 2 ErrMin= 9.87D-03
 ErrMax= 1.51D-02  0.00D+00 EMaxC= 1.00D-01 BMatC= 1.70D-01 BMatP= 2.35D-01
 IDIUse=3 WtCom= 8.49D-01 WtEn= 1.51D-01
 EnCoef did     5 forward-backward iterations
 Coeff-Com: -0.168D+00 0.394D+00 0.414D-01-0.182D-01 0.607D-01 0.322D+00
 Coeff-Com:  0.368D+00
 Coeff-En:   0.000D+00 0.000D+00 0.000D+00 0.000D+00 0.433D-01 0.413D+00
 Coeff-En:   0.544D+00
 Coeff:     -0.143D+00 0.335D+00 0.352D-01-0.155D-01 0.581D-01 0.336D+00
 Coeff:      0.394D+00
 Gap=     0.040 Goal=   None    Shift=    0.000
 RMSDP=5.27D-04 MaxDP=5.99D-02 DE=-1.00D-01 OVMax= 2.46D-01

 Cycle   8  Pass 1  IDiag  1:
 RMSU=  3.51D-04    CP:  9.78D-01  1.12D+00  2.05D-01  6.28D-02  2.18D-01
                    CP:  6.39D-01  5.26D-01
 E= -3007.28124518686     Delta-E=       -0.120703516784 Rises=F Damp=F
 DIIS: error= 6.90D-03 at cycle   8 NSaved=   8.
 NSaved= 8 IEnMin= 8 EnMin= -3007.28124518686     IErMin= 8 ErrMin= 6.90D-03
 ErrMax= 6.90D-03  0.00D+00 EMaxC= 1.00D-01 BMatC= 3.28D-02 BMatP= 1.70D-01
 IDIUse=3 WtCom= 9.31D-01 WtEn= 6.90D-02
 Coeff-Com: -0.787D-01 0.180D+00 0.945D-03-0.396D-02 0.183D-01 0.170D+00
 Coeff-Com:  0.303D+00 0.411D+00
 Coeff-En:   0.000D+00 0.000D+00 0.000D+00 0.000D+00 0.000D+00 0.000D+00
 Coeff-En:   0.252D+00 0.748D+00
 Coeff:     -0.733D-01 0.167D+00 0.879D-03-0.368D-02 0.170D-01 0.158D+00
 Coeff:      0.299D+00 0.434D+00
 Gap=     0.040 Goal=   None    Shift=    0.000
 RMSDP=2.99D-04 MaxDP=2.89D-02 DE=-1.21D-01 OVMax= 2.26D-01

 Cycle   9  Pass 1  IDiag  1:
 RMSU=  1.58D-04    CP:  9.78D-01  1.14D+00  1.73D-01  1.19D-01  1.67D-01
                    CP:  6.75D-01  6.24D-01  3.87D-01
 E= -3007.30783928485     Delta-E=       -0.026594097995 Rises=F Damp=F
 DIIS: error= 3.89D-03 at cycle   9 NSaved=   9.
 NSaved= 9 IEnMin= 9 EnMin= -3007.30783928485     IErMin= 9 ErrMin= 3.89D-03
 ErrMax= 3.89D-03  0.00D+00 EMaxC= 1.00D-01 BMatC= 1.20D-02 BMatP= 3.28D-02
 IDIUse=3 WtCom= 9.61D-01 WtEn= 3.89D-02
 Coeff-Com: -0.385D-01 0.942D-01-0.683D-02-0.102D-02 0.279D-03 0.705D-01
 Coeff-Com:  0.191D+00 0.385D+00 0.305D+00
 Coeff-En:   0.000D+00 0.000D+00 0.000D+00 0.000D+00 0.000D+00 0.000D+00
 Coeff-En:   0.000D+00 0.311D+00 0.689D+00
 Coeff:     -0.370D-01 0.905D-01-0.657D-02-0.980D-03 0.268D-03 0.677D-01
 Coeff:      0.184D+00 0.382D+00 0.320D+00
 Gap=     0.041 Goal=   None    Shift=    0.000
 RMSDP=1.59D-04 MaxDP=1.46D-02 DE=-2.66D-02 OVMax= 1.19D-01

 Cycle  10  Pass 1  IDiag  1:
 RMSU=  6.87D-05    CP:  9.78D-01  1.12D+00  1.83D-01  1.04D-01  1.81D-01
                    CP:  6.59D-01  6.45D-01  6.28D-01  3.09D-01
 E= -3007.32103783993     Delta-E=       -0.013198555076 Rises=F Damp=F
 DIIS: error= 1.02D-03 at cycle  10 NSaved=  10.
 NSaved=10 IEnMin=10 EnMin= -3007.32103783993     IErMin=10 ErrMin= 1.02D-03
 ErrMax= 1.02D-03  0.00D+00 EMaxC= 1.00D-01 BMatC= 1.46D-03 BMatP= 1.20D-02
 IDIUse=3 WtCom= 9.90D-01 WtEn= 1.02D-02
 Coeff-Com: -0.214D-01 0.517D-01-0.611D-02 0.167D-02-0.380D-02 0.312D-01
 Coeff-Com:  0.900D-01 0.220D+00 0.237D+00 0.400D+00
 Coeff-En:   0.000D+00 0.000D+00 0.000D+00 0.000D+00 0.000D+00 0.000D+00
 Coeff-En:   0.000D+00 0.000D+00 0.145D+00 0.855D+00
 Coeff:     -0.211D-01 0.512D-01-0.605D-02 0.165D-02-0.377D-02 0.309D-01
 Coeff:      0.891D-01 0.218D+00 0.236D+00 0.404D+00
 Gap=     0.041 Goal=   None    Shift=    0.000
 RMSDP=6.40D-05 MaxDP=6.32D-03 DE=-1.32D-02 OVMax= 4.30D-02

 Cycle  11  Pass 1  IDiag  1:
 RMSU=  3.73D-05    CP:  9.78D-01  1.13D+00  1.79D-01  1.05D-01  1.83D-01
                    CP:  6.58D-01  6.53D-01  5.94D-01  5.09D-01  4.43D-01
 E= -3007.32195853645     Delta-E=       -0.000920696524 Rises=F Damp=F
 DIIS: error= 7.78D-04 at cycle  11 NSaved=  11.
 NSaved=11 IEnMin=11 EnMin= -3007.32195853645     IErMin=11 ErrMin= 7.78D-04
 ErrMax= 7.78D-04  0.00D+00 EMaxC= 1.00D-01 BMatC= 5.94D-04 BMatP= 1.46D-03
 IDIUse=3 WtCom= 9.92D-01 WtEn= 7.78D-03
 Coeff-Com: -0.139D-01 0.309D-01-0.352D-02 0.180D-02-0.348D-02 0.162D-01
 Coeff-Com:  0.312D-01 0.860D-01 0.107D+00 0.364D+00 0.383D+00
 Coeff-En:   0.000D+00 0.000D+00 0.000D+00 0.000D+00 0.000D+00 0.000D+00
 Coeff-En:   0.000D+00 0.000D+00 0.000D+00 0.353D+00 0.647D+00
 Coeff:     -0.138D-01 0.307D-01-0.350D-02 0.178D-02-0.345D-02 0.161D-01
 Coeff:      0.310D-01 0.853D-01 0.107D+00 0.364D+00 0.385D+00
 Gap=     0.041 Goal=   None    Shift=    0.000
 RMSDP=5.71D-05 MaxDP=4.42D-03 DE=-9.21D-04 OVMax= 5.12D-02

 Cycle  12  Pass 1  IDiag  1:
 RMSU=  3.42D-05    CP:  9.78D-01  1.13D+00  1.77D-01  1.12D-01  1.79D-01
                    CP:  6.74D-01  6.40D-01  5.81D-01  4.36D-01  8.03D-01
                    CP:  1.48D-01
 E= -3007.32225984370     Delta-E=       -0.000301307244 Rises=F Damp=F
 DIIS: error= 6.81D-04 at cycle  12 NSaved=  12.
 NSaved=12 IEnMin=12 EnMin= -3007.32225984370     IErMin=12 ErrMin= 6.81D-04
 ErrMax= 6.81D-04  0.00D+00 EMaxC= 1.00D-01 BMatC= 4.60D-04 BMatP= 5.94D-04
 IDIUse=3 WtCom= 9.93D-01 WtEn= 6.81D-03
 EnCoef did     3 forward-backward iterations
 Coeff-Com: -0.833D-02 0.154D-01-0.115D-02 0.521D-03-0.141D-02 0.672D-02
 Coeff-Com: -0.892D-02-0.147D-01-0.407D-02 0.234D+00 0.454D+00 0.328D+00
 Coeff-En:   0.000D+00 0.000D+00 0.000D+00 0.000D+00 0.000D+00 0.000D+00
 Coeff-En:   0.000D+00 0.000D+00 0.000D+00 0.581D-01 0.420D+00 0.522D+00
 Coeff:     -0.828D-02 0.153D-01-0.114D-02 0.518D-03-0.140D-02 0.667D-02
 Coeff:     -0.886D-02-0.146D-01-0.404D-02 0.233D+00 0.454D+00 0.329D+00
 Gap=     0.041 Goal=   None    Shift=    0.000
 RMSDP=3.25D-05 MaxDP=2.98D-03 DE=-3.01D-04 OVMax= 2.69D-02

 Cycle  13  Pass 1  IDiag  1:
 RMSU=  1.10D-05    CP:  9.78D-01  1.13D+00  1.77D-01  1.08D-01  1.84D-01
                    CP:  6.74D-01  6.45D-01  5.97D-01  4.60D-01  7.45D-01
                    CP:  6.01D-01  3.41D-01
 E= -3007.32287599092     Delta-E=       -0.000616147221 Rises=F Damp=F
 DIIS: error= 2.59D-04 at cycle  13 NSaved=  13.
 NSaved=13 IEnMin=13 EnMin= -3007.32287599092     IErMin=13 ErrMin= 2.59D-04
 ErrMax= 2.59D-04  0.00D+00 EMaxC= 1.00D-01 BMatC= 4.89D-05 BMatP= 4.60D-04
 IDIUse=3 WtCom= 9.97D-01 WtEn= 2.59D-03
 Coeff-Com: -0.500D-02 0.782D-02-0.286D-03 0.241D-03-0.215D-04 0.373D-02
 Coeff-Com: -0.130D-01-0.292D-01-0.301D-01 0.113D+00 0.292D+00 0.260D+00
 Coeff-Com:  0.400D+00
 Coeff-En:   0.000D+00 0.000D+00 0.000D+00 0.000D+00 0.000D+00 0.000D+00
 Coeff-En:   0.000D+00 0.000D+00 0.000D+00 0.000D+00 0.000D+00 0.761D-01
 Coeff-En:   0.924D+00
 Coeff:     -0.499D-02 0.780D-02-0.286D-03 0.240D-03-0.214D-04 0.372D-02
 Coeff:     -0.129D-01-0.291D-01-0.300D-01 0.113D+00 0.291D+00 0.260D+00
 Coeff:      0.402D+00
 Gap=     0.041 Goal=   None    Shift=    0.000
 RMSDP=9.08D-06 MaxDP=9.59D-04 DE=-6.16D-04 OVMax= 6.43D-03

 Cycle  14  Pass 1  IDiag  1:
 RMSU=  4.33D-06    CP:  9.78D-01  1.13D+00  1.77D-01  1.09D-01  1.83D-01
                    CP:  6.76D-01  6.42D-01  5.92D-01  4.54D-01  7.79D-01
                    CP:  5.98D-01  4.70D-01  5.35D-01
 E= -3007.32292152358     Delta-E=       -0.000045532664 Rises=F Damp=F
 DIIS: error= 1.15D-04 at cycle  14 NSaved=  14.
 NSaved=14 IEnMin=14 EnMin= -3007.32292152358     IErMin=14 ErrMin= 1.15D-04
 ErrMax= 1.15D-04  0.00D+00 EMaxC= 1.00D-01 BMatC= 8.64D-06 BMatP= 4.89D-05
 IDIUse=3 WtCom= 9.99D-01 WtEn= 1.15D-03
 Coeff-Com: -0.251D-02 0.386D-02-0.131D-03 0.101D-03 0.280D-03 0.775D-03
 Coeff-Com: -0.770D-02-0.172D-01-0.216D-01 0.401D-01 0.124D+00 0.110D+00
 Coeff-Com:  0.291D+00 0.479D+00
 Coeff-En:   0.000D+00 0.000D+00 0.000D+00 0.000D+00 0.000D+00 0.000D+00
 Coeff-En:   0.000D+00 0.000D+00 0.000D+00 0.000D+00 0.000D+00 0.000D+00
 Coeff-En:   0.136D+00 0.864D+00
 Coeff:     -0.250D-02 0.385D-02-0.131D-03 0.101D-03 0.280D-03 0.774D-03
 Coeff:     -0.769D-02-0.172D-01-0.216D-01 0.400D-01 0.124D+00 0.110D+00
 Coeff:      0.291D+00 0.480D+00
 Gap=     0.041 Goal=   None    Shift=    0.000
 RMSDP=3.32D-06 MaxDP=4.06D-04 DE=-4.55D-05 OVMax= 1.30D-03

 Cycle  15  Pass 1  IDiag  1:
 RMSU=  2.21D-06    CP:  9.78D-01  1.13D+00  1.77D-01  1.09D-01  1.84D-01
                    CP:  6.76D-01  6.43D-01  5.94D-01  4.53D-01  7.85D-01
                    CP:  6.15D-01  4.46D-01  6.20D-01  6.46D-01
 E= -3007.32292812871     Delta-E=       -0.000006605129 Rises=F Damp=F
 DIIS: error= 6.45D-05 at cycle  15 NSaved=  15.
 NSaved=15 IEnMin=15 EnMin= -3007.32292812871     IErMin=15 ErrMin= 6.45D-05
 ErrMax= 6.45D-05  0.00D+00 EMaxC= 1.00D-01 BMatC= 3.20D-06 BMatP= 8.64D-06
 IDIUse=1 WtCom= 1.00D+00 WtEn= 0.00D+00
 Coeff-Com: -0.100D-02 0.180D-02-0.109D-03 0.329D-04 0.202D-03-0.828D-03
 Coeff-Com: -0.281D-02-0.582D-02-0.103D-01 0.173D-02 0.221D-01 0.146D-01
 Coeff-Com:  0.141D+00 0.412D+00 0.428D+00
 Coeff:     -0.100D-02 0.180D-02-0.109D-03 0.329D-04 0.202D-03-0.828D-03
 Coeff:     -0.281D-02-0.582D-02-0.103D-01 0.173D-02 0.221D-01 0.146D-01
 Coeff:      0.141D+00 0.412D+00 0.428D+00
 Gap=     0.041 Goal=   None    Shift=    0.000
 RMSDP=1.65D-06 MaxDP=4.10D-04 DE=-6.61D-06 OVMax= 3.20D-04

 Cycle  16  Pass 1  IDiag  1:
 RMSU=  8.04D-07    CP:  9.78D-01  1.13D+00  1.77D-01  1.09D-01  1.84D-01
                    CP:  6.76D-01  6.44D-01  5.96D-01  4.54D-01  7.88D-01
                    CP:  6.20D-01  4.49D-01  6.20D-01  6.82D-01  5.14D-01
 E= -3007.32293051980     Delta-E=       -0.000002391092 Rises=F Damp=F
 DIIS: error= 2.90D-05 at cycle  16 NSaved=  16.
 NSaved=16 IEnMin=16 EnMin= -3007.32293051980     IErMin=16 ErrMin= 2.90D-05
 ErrMax= 2.90D-05  0.00D+00 EMaxC= 1.00D-01 BMatC= 4.24D-07 BMatP= 3.20D-06
 IDIUse=1 WtCom= 1.00D+00 WtEn= 0.00D+00
 Coeff-Com: -0.408D-03 0.844D-03-0.737D-04 0.179D-04 0.130D-03-0.716D-03
 Coeff-Com: -0.852D-03-0.218D-02-0.525D-02-0.758D-02-0.391D-02-0.701D-02
 Coeff-Com:  0.553D-01 0.198D+00 0.263D+00 0.511D+00
 Coeff:     -0.408D-03 0.844D-03-0.737D-04 0.179D-04 0.130D-03-0.716D-03
 Coeff:     -0.852D-03-0.218D-02-0.525D-02-0.758D-02-0.391D-02-0.701D-02
 Coeff:      0.553D-01 0.198D+00 0.263D+00 0.511D+00
 Gap=     0.041 Goal=   None    Shift=    0.000
 RMSDP=6.34D-07 MaxDP=1.04D-04 DE=-2.39D-06 OVMax= 1.83D-04

 Cycle  17  Pass 1  IDiag  1:
 RMSU=  4.48D-07    CP:  9.78D-01  1.13D+00  1.76D-01  1.09D-01  1.84D-01
                    CP:  6.76D-01  6.44D-01  5.96D-01  4.54D-01  7.90D-01
                    CP:  6.25D-01  4.52D-01  6.29D-01  7.01D-01  5.45D-01
                    CP:  6.87D-01
 E= -3007.32293083535     Delta-E=       -0.000000315542 Rises=F Damp=F
 DIIS: error= 1.61D-05 at cycle  17 NSaved=  17.
 NSaved=17 IEnMin=17 EnMin= -3007.32293083535     IErMin=17 ErrMin= 1.61D-05
 ErrMax= 1.61D-05  0.00D+00 EMaxC= 1.00D-01 BMatC= 1.36D-07 BMatP= 4.24D-07
 IDIUse=1 WtCom= 1.00D+00 WtEn= 0.00D+00
 Coeff-Com:  0.197D-06 0.743D-04-0.356D-04 0.158D-04 0.436D-04-0.310D-03
 Coeff-Com:  0.193D-03-0.301D-03-0.153D-02-0.824D-02-0.109D-01-0.104D-01
 Coeff-Com: -0.396D-02 0.404D-02 0.357D-01 0.413D+00 0.582D+00
 Coeff:      0.197D-06 0.743D-04-0.356D-04 0.158D-04 0.436D-04-0.310D-03
 Coeff:      0.193D-03-0.301D-03-0.153D-02-0.824D-02-0.109D-01-0.104D-01
 Coeff:     -0.396D-02 0.404D-02 0.357D-01 0.413D+00 0.582D+00
 Gap=     0.041 Goal=   None    Shift=    0.000
 RMSDP=4.66D-07 MaxDP=5.46D-05 DE=-3.16D-07 OVMax= 1.45D-04

 Cycle  18  Pass 1  IDiag  1:
 RMSU=  2.32D-07    CP:  9.78D-01  1.13D+00  1.76D-01  1.09D-01  1.84D-01
                    CP:  6.76D-01  6.44D-01  5.96D-01  4.54D-01  7.92D-01
                    CP:  6.29D-01  4.55D-01  6.43D-01  6.99D-01  5.46D-01
                    CP:  8.05D-01  6.40D-01
 E= -3007.32293096927     Delta-E=       -0.000000133929 Rises=F Damp=F
 DIIS: error= 3.88D-06 at cycle  18 NSaved=  18.
 NSaved=18 IEnMin=18 EnMin= -3007.32293096927     IErMin=18 ErrMin= 3.88D-06
 ErrMax= 3.88D-06  0.00D+00 EMaxC= 1.00D-01 BMatC= 1.92D-08 BMatP= 1.36D-07
 IDIUse=1 WtCom= 1.00D+00 WtEn= 0.00D+00
 Coeff-Com:  0.385D-04-0.330D-04-0.143D-04 0.506D-05 0.149D-04-0.111D-03
 Coeff-Com:  0.242D-03-0.523D-04-0.518D-03-0.486D-02-0.683D-02-0.584D-02
 Coeff-Com: -0.102D-01-0.275D-01-0.198D-01 0.216D+00 0.420D+00 0.440D+00
 Coeff:      0.385D-04-0.330D-04-0.143D-04 0.506D-05 0.149D-04-0.111D-03
 Coeff:      0.242D-03-0.523D-04-0.518D-03-0.486D-02-0.683D-02-0.584D-02
 Coeff:     -0.102D-01-0.275D-01-0.198D-01 0.216D+00 0.420D+00 0.440D+00
 Gap=     0.041 Goal=   None    Shift=    0.000
 RMSDP=1.75D-07 MaxDP=1.90D-05 DE=-1.34D-07 OVMax= 5.72D-05

 Cycle  19  Pass 1  IDiag  1:
 RMSU=  9.99D-08    CP:  9.78D-01  1.13D+00  1.76D-01  1.09D-01  1.84D-01
                    CP:  6.76D-01  6.44D-01  5.96D-01  4.54D-01  7.93D-01
                    CP:  6.30D-01  4.56D-01  6.42D-01  7.07D-01  5.47D-01
                    CP:  8.54D-01  7.30D-01  5.83D-01
 E= -3007.32293098644     Delta-E=       -0.000000017169 Rises=F Damp=F
 DIIS: error= 9.19D-07 at cycle  19 NSaved=  19.
 NSaved=19 IEnMin=19 EnMin= -3007.32293098644     IErMin=19 ErrMin= 9.19D-07
 ErrMax= 9.19D-07  0.00D+00 EMaxC= 1.00D-01 BMatC= 2.91D-09 BMatP= 1.92D-08
 IDIUse=1 WtCom= 1.00D+00 WtEn= 0.00D+00
 Coeff-Com:  0.141D-04-0.115D-04-0.459D-05 0.255D-05 0.566D-05-0.269D-04
 Coeff-Com:  0.123D-03-0.513D-04-0.189D-03-0.188D-02-0.255D-02-0.200D-02
 Coeff-Com: -0.571D-02-0.189D-01-0.197D-01 0.847D-01 0.199D+00 0.312D+00
 Coeff-Com:  0.455D+00
 Coeff:      0.141D-04-0.115D-04-0.459D-05 0.255D-05 0.566D-05-0.269D-04
 Coeff:      0.123D-03-0.513D-04-0.189D-03-0.188D-02-0.255D-02-0.200D-02
 Coeff:     -0.571D-02-0.189D-01-0.197D-01 0.847D-01 0.199D+00 0.312D+00
 Coeff:      0.455D+00
 Gap=     0.041 Goal=   None    Shift=    0.000
 RMSDP=7.41D-08 MaxDP=9.98D-06 DE=-1.72D-08 OVMax= 2.58D-05

 Cycle  20  Pass 1  IDiag  1:
 RMSU=  4.17D-08    CP:  9.78D-01  1.13D+00  1.76D-01  1.09D-01  1.84D-01
                    CP:  6.76D-01  6.44D-01  5.96D-01  4.54D-01  7.93D-01
                    CP:  6.30D-01  4.56D-01  6.42D-01  7.04D-01  5.49D-01
                    CP:  8.56D-01  7.28D-01  6.30D-01  4.74D-01
 E= -3007.32293098875     Delta-E=       -0.000000002306 Rises=F Damp=F
 DIIS: error= 6.98D-07 at cycle  20 NSaved=  20.
 NSaved=20 IEnMin=20 EnMin= -3007.32293098875     IErMin=20 ErrMin= 6.98D-07
 ErrMax= 6.98D-07  0.00D+00 EMaxC= 1.00D-01 BMatC= 7.46D-10 BMatP= 2.91D-09
 IDIUse=1 WtCom= 1.00D+00 WtEn= 0.00D+00
 Coeff-Com:  0.380D-05 0.867D-06-0.108D-05-0.176D-06 0.886D-06-0.111D-04
 Coeff-Com:  0.553D-04-0.223D-04-0.398D-04-0.582D-03-0.819D-03-0.578D-03
 Coeff-Com: -0.272D-02-0.100D-01-0.119D-01 0.277D-01 0.799D-01 0.163D+00
 Coeff-Com:  0.353D+00 0.404D+00
 Coeff:      0.380D-05 0.867D-06-0.108D-05-0.176D-06 0.886D-06-0.111D-04
 Coeff:      0.553D-04-0.223D-04-0.398D-04-0.582D-03-0.819D-03-0.578D-03
 Coeff:     -0.272D-02-0.100D-01-0.119D-01 0.277D-01 0.799D-01 0.163D+00
 Coeff:      0.353D+00 0.404D+00
 Gap=     0.041 Goal=   None    Shift=    0.000
 RMSDP=2.97D-08 MaxDP=3.11D-06 DE=-2.31D-09 OVMax= 8.78D-06

 Cycle  21  Pass 1  IDiag  1:
 Restarting incremental Fock formation.
 E= -3007.32293098952     Delta-E=       -0.000000000769 Rises=F Damp=F
 DIIS: error= 1.13D-07 at cycle  21 NSaved=  20.
 NSaved=20 IEnMin=20 EnMin= -3007.32293098952     IErMin=20 ErrMin= 1.13D-07
 ErrMax= 1.13D-07  0.00D+00 EMaxC= 1.00D-01 BMatC= 5.78D-11 BMatP= 7.46D-10
 IDIUse=1 WtCom= 1.00D+00 WtEn= 0.00D+00
 Coeff-Com:  0.108D-05 0.116D-05-0.239D-06 0.308D-06-0.438D-05 0.219D-04
 Coeff-Com: -0.104D-04-0.270D-05-0.131D-03-0.190D-03-0.122D-03-0.114D-02
 Coeff-Com: -0.472D-02-0.587D-02 0.822D-02 0.299D-01 0.727D-01 0.186D+00
 Coeff-Com:  0.264D+00 0.451D+00
 Coeff:      0.108D-05 0.116D-05-0.239D-06 0.308D-06-0.438D-05 0.219D-04
 Coeff:     -0.104D-04-0.270D-05-0.131D-03-0.190D-03-0.122D-03-0.114D-02
 Coeff:     -0.472D-02-0.587D-02 0.822D-02 0.299D-01 0.727D-01 0.186D+00
 Coeff:      0.264D+00 0.451D+00
 Gap=     0.041 Goal=   None    Shift=    0.000
 RMSDP=1.06D-08 MaxDP=1.23D-06 DE=-7.69D-10 OVMax= 3.97D-06

 Cycle  22  Pass 1  IDiag  1:
 RMSU=  1.06D-08    CP:  1.00D+00
 E= -3007.32293098959     Delta-E=       -0.000000000075 Rises=F Damp=F
 DIIS: error= 6.98D-08 at cycle  22 NSaved=  20.
 NSaved=20 IEnMin=20 EnMin= -3007.32293098959     IErMin=20 ErrMin= 6.98D-08
 ErrMax= 6.98D-08  0.00D+00 EMaxC= 1.00D-01 BMatC= 1.26D-11 BMatP= 5.78D-11
 IDIUse=1 WtCom= 1.00D+00 WtEn= 0.00D+00
 Coeff-Com:  0.232D-07 0.860D-06 0.116D-06-0.133D-05 0.648D-05-0.308D-05
 Coeff-Com:  0.803D-05 0.237D-04 0.273D-04 0.314D-04-0.356D-03-0.180D-02
 Coeff-Com: -0.234D-02 0.698D-03 0.731D-02 0.249D-01 0.758D-01 0.121D+00
 Coeff-Com:  0.337D+00 0.438D+00
 Coeff:      0.232D-07 0.860D-06 0.116D-06-0.133D-05 0.648D-05-0.308D-05
 Coeff:      0.803D-05 0.237D-04 0.273D-04 0.314D-04-0.356D-03-0.180D-02
 Coeff:     -0.234D-02 0.698D-03 0.731D-02 0.249D-01 0.758D-01 0.121D+00
 Coeff:      0.337D+00 0.438D+00
 Gap=     0.041 Goal=   None    Shift=    0.000
 RMSDP=4.24D-09 MaxDP=5.94D-07 DE=-7.46D-11 OVMax= 1.53D-06

 SCF Done:  E(RB-LYP) =  -3007.32293099     A.U. after   22 cycles
            NFock= 22  Conv=0.42D-08     -V/T= 2.0099
 KE= 2.977766786987D+03 PE=-2.594467297164D+04 EE= 1.048493595545D+04
 Leave Link  502 at Wed Apr 27 15:57:33 2022, MaxMem= 10066329600 cpu:            5323.1 elap:             222.7
 (Enter /sw/apps/gaussian-16.0/g16/l801.exe)
 DoSCS=F DFT=T ScalE2(SS,OS)=  1.000000  1.000000
 ExpMin= 3.36D-02 ExpMax= 4.95D+03 ExpMxC= 7.45D+02 IAcc=3 IRadAn=         5 AccDes= 0.00D+00
 HarFok:  IExCor=  205 AccDes= 0.00D+00 IRadAn=         5 IDoV=-2 UseB2=F ITyADJ=14
 ICtDFT= 12500011 ScaDFX=  1.000000  1.000000  1.000000  1.000000
 GSVD:  LWork=       -5460 too small for GESVD, short by       25550 words or       25550 for optimal perf.
 Largest valence mixing into a core orbital is  1.50D-04
 Largest core mixing into a valence orbital is  4.74D-05
 Range of M.O.s used for correlation:    71  1298
 NBasis=  1298 NAE=   246 NBE=   246 NFC=    70 NFV=     0
 NROrb=   1228 NOA=   176 NOB=   176 NVA=  1052 NVB=  1052

 **** Warning!!: The smallest alpha delta epsilon is  0.41410615D-01

 Leave Link  801 at Wed Apr 27 15:57:33 2022, MaxMem= 10066329600 cpu:               6.4 elap:               0.3
 (Enter /sw/apps/gaussian-16.0/g16/l914.exe)
 RHF ground state
 Two-electron integrals replicated using symmetry.
 MDV= 10066329600 DFT=T DoStab=F Mixed=F DoRPA=T DoScal=T NonHer=F
 Making orbital integer symmetry assigments:
 Orbital symmetries:
       Occupied  (A) (A) (A) (A) (A) (A) (A) (A) (A) (A) (A) (A)
                 (A) (A) (A) (A) (A) (A) (A) (A) (A) (A) (A) (A)
                 (A) (A) (A) (A) (A) (A) (A) (A) (A) (A) (A) (A)
                 (A) (A) (A) (A) (A) (A) (A) (A) (A) (A) (A) (A)
                 (A) (A) (A) (A) (A) (A) (A) (A) (A) (A) (A) (A)
                 (A) (A) (A) (A) (A) (A) (A) (A) (A) (A) (A) (A)
                 (A) (A) (A) (A) (A) (A) (A) (A) (A) (A) (A) (A)
                 (A) (A) (A) (A) (A) (A) (A) (A) (A) (A) (A) (A)
                 (A) (A) (A) (A) (A) (A) (A) (A) (A) (A) (A) (A)
                 (A) (A) (A) (A) (A) (A) (A) (A) (A) (A) (A) (A)
                 (A) (A) (A) (A) (A) (A) (A) (A) (A) (A) (A) (A)
                 (A) (A) (A) (A) (A) (A) (A) (A) (A) (A) (A) (A)
                 (A) (A) (A) (A) (A) (A) (A) (A) (A) (A) (A) (A)
                 (A) (A) (A) (A) (A) (A) (A) (A) (A) (A) (A) (A)
                 (A) (A) (A) (A) (A) (A) (A) (A) (A) (A) (A) (A)
                 (A) (A) (A) (A) (A) (A) (A) (A) (A) (A) (A) (A)
                 (A) (A) (A) (A) (A) (A) (A) (A) (A) (A) (A) (A)
                 (A) (A) (A) (A) (A) (A) (A) (A) (A) (A) (A) (A)
                 (A) (A) (A) (A) (A) (A) (A) (A) (A) (A) (A) (A)
                 (A) (A) (A) (A) (A) (A) (A) (A) (A) (A) (A) (A)
                 (A) (A) (A) (A) (A) (A)
       Virtual   (A) (A) (A) (A) (A) (A) (A) (A) (A) (A) (A) (A)
                 (A) (A) (A) (A) (A) (A) (A) (A) (A) (A) (A) (A)
                 (A) (A) (A) (A) (A) (A) (A) (A) (A) (A) (A) (A)
                 (A) (A) (A) (A) (A) (A) (A) (A) (A) (A) (A) (A)
                 (A) (A) (A) (A) (A) (A) (A) (A) (A) (A) (A) (A)
                 (A) (A) (A) (A) (A) (A) (A) (A) (A) (A) (A) (A)
                 (A) (A) (A) (A) (A) (A) (A) (A) (A) (A) (A) (A)
                 (A) (A) (A) (A) (A) (A) (A) (A) (A) (A) (A) (A)
                 (A) (A) (A) (A) (A) (A) (A) (A) (A) (A) (A) (A)
                 (A) (A) (A) (A) (A) (A) (A) (A) (A) (A) (A) (A)
                 (A) (A) (A) (A) (A) (A) (A) (A) (A) (A) (A) (A)
                 (A) (A) (A) (A) (A) (A) (A) (A) (A) (A) (A) (A)
                 (A) (A) (A) (A) (A) (A) (A) (A) (A) (A) (A) (A)
                 (A) (A) (A) (A) (A) (A) (A) (A) (A) (A) (A) (A)
                 (A) (A) (A) (A) (A) (A) (A) (A) (A) (A) (A) (A)
                 (A) (A) (A) (A) (A) (A) (A) (A) (A) (A) (A) (A)
                 (A) (A) (A) (A) (A) (A) (A) (A) (A) (A) (A) (A)
                 (A) (A) (A) (A) (A) (A) (A) (A) (A) (A) (A) (A)
                 (A) (A) (A) (A) (A) (A) (A) (A) (A) (A) (A) (A)
                 (A) (A) (A) (A) (A) (A) (A) (A) (A) (A) (A) (A)
                 (A) (A) (A) (A) (A) (A) (A) (A) (A) (A) (A) (A)
                 (A) (A) (A) (A) (A) (A) (A) (A) (A) (A) (A) (A)
                 (A) (A) (A) (A) (A) (A) (A) (A) (A) (A) (A) (A)
                 (A) (A) (A) (A) (A) (A) (A) (A) (A) (A) (A) (A)
                 (A) (A) (A) (A) (A) (A) (A) (A) (A) (A) (A) (A)
                 (A) (A) (A) (A) (A) (A) (A) (A) (A) (A) (A) (A)
                 (A) (A) (A) (A) (A) (A) (A) (A) (A) (A) (A) (A)
                 (A) (A) (A) (A) (A) (A) (A) (A) (A) (A) (A) (A)
                 (A) (A) (A) (A) (A) (A) (A) (A) (A) (A) (A) (A)
                 (A) (A) (A) (A) (A) (A) (A) (A) (A) (A) (A) (A)
                 (A) (A) (A) (A) (A) (A) (A) (A) (A) (A) (A) (A)
                 (A) (A) (A) (A) (A) (A) (A) (A) (A) (A) (A) (A)
                 (A) (A) (A) (A) (A) (A) (A) (A) (A) (A) (A) (A)
                 (A) (A) (A) (A) (A) (A) (A) (A) (A) (A) (A) (A)
                 (A) (A) (A) (A) (A) (A) (A) (A) (A) (A) (A) (A)
                 (A) (A) (A) (A) (A) (A) (A) (A) (A) (A) (A) (A)
                 (A) (A) (A) (A) (A) (A) (A) (A) (A) (A) (A) (A)
                 (A) (A) (A) (A) (A) (A) (A) (A) (A) (A) (A) (A)
                 (A) (A) (A) (A) (A) (A) (A) (A) (A) (A) (A) (A)
                 (A) (A) (A) (A) (A) (A) (A) (A) (A) (A) (A) (A)
                 (A) (A) (A) (A) (A) (A) (A) (A) (A) (A) (A) (A)
                 (A) (A) (A) (A) (A) (A) (A) (A) (A) (A) (A) (A)
                 (A) (A) (A) (A) (A) (A) (A) (A) (A) (A) (A) (A)
                 (A) (A) (A) (A) (A) (A) (A) (A) (A) (A) (A) (A)
                 (A) (A) (A) (A) (A) (A) (A) (A) (A) (A) (A) (A)
                 (A) (A) (A) (A) (A) (A) (A) (A) (A) (A) (A) (A)
                 (A) (A) (A) (A) (A) (A) (A) (A) (A) (A) (A) (A)
                 (A) (A) (A) (A) (A) (A) (A) (A) (A) (A) (A) (A)
                 (A) (A) (A) (A) (A) (A) (A) (A) (A) (A) (A) (A)
                 (A) (A) (A) (A) (A) (A) (A) (A) (A) (A) (A) (A)
                 (A) (A) (A) (A) (A) (A) (A) (A) (A) (A) (A) (A)
                 (A) (A) (A) (A) (A) (A) (A) (A) (A) (A) (A) (A)
                 (A) (A) (A) (A) (A) (A) (A) (A) (A) (A) (A) (A)
                 (A) (A) (A) (A) (A) (A) (A) (A) (A) (A) (A) (A)
                 (A) (A) (A) (A) (A) (A) (A) (A) (A) (A) (A) (A)
                 (A) (A) (A) (A) (A) (A) (A) (A) (A) (A) (A) (A)
                 (A) (A) (A) (A) (A) (A) (A) (A) (A) (A) (A) (A)
                 (A) (A) (A) (A) (A) (A) (A) (A) (A) (A) (A) (A)
                 (A) (A) (A) (A) (A) (A) (A) (A) (A) (A) (A) (A)
                 (A) (A) (A) (A) (A) (A) (A) (A) (A) (A) (A) (A)
                 (A) (A) (A) (A) (A) (A) (A) (A) (A) (A) (A) (A)
                 (A) (A) (A) (A) (A) (A) (A) (A) (A) (A) (A) (A)
                 (A) (A) (A) (A) (A) (A) (A) (A) (A) (A) (A) (A)
                 (A) (A) (A) (A) (A) (A) (A) (A) (A) (A) (A) (A)
                 (A) (A) (A) (A) (A) (A) (A) (A) (A) (A) (A) (A)
                 (A) (A) (A) (A) (A) (A) (A) (A) (A) (A) (A) (A)
                 (A) (A) (A) (A) (A) (A) (A) (A) (A) (A) (A) (A)
                 (A) (A) (A) (A) (A) (A) (A) (A) (A) (A) (A) (A)
                 (A) (A) (A) (A) (A) (A) (A) (A) (A) (A) (A) (A)
                 (A) (A) (A) (A) (A) (A) (A) (A) (A) (A) (A) (A)
                 (A) (A) (A) (A) (A) (A) (A) (A) (A) (A) (A) (A)
                 (A) (A) (A) (A) (A) (A) (A) (A) (A) (A) (A) (A)
                 (A) (A) (A) (A) (A) (A) (A) (A) (A) (A) (A) (A)
                 (A) (A) (A) (A) (A) (A) (A) (A) (A) (A) (A) (A)
                 (A) (A) (A) (A) (A) (A) (A) (A) (A) (A) (A) (A)
                 (A) (A) (A) (A) (A) (A) (A) (A) (A) (A) (A) (A)
                 (A) (A) (A) (A) (A) (A) (A) (A) (A) (A) (A) (A)
                 (A) (A) (A) (A) (A) (A) (A) (A) (A) (A) (A) (A)
                 (A) (A) (A) (A) (A) (A) (A) (A) (A) (A) (A) (A)
                 (A) (A) (A) (A) (A) (A) (A) (A) (A) (A) (A) (A)
                 (A) (A) (A) (A) (A) (A) (A) (A) (A) (A) (A) (A)
                 (A) (A) (A) (A) (A) (A) (A) (A) (A) (A) (A) (A)
                 (A) (A) (A) (A) (A) (A) (A) (A) (A) (A) (A) (A)
                 (A) (A) (A) (A) (A) (A) (A) (A) (A) (A) (A) (A)
                 (A) (A) (A) (A) (A) (A) (A) (A) (A) (A) (A) (A)
                 (A) (A) (A) (A) (A) (A) (A) (A) (A) (A) (A) (A)
                 (A) (A) (A) (A) (A) (A) (A) (A) (A) (A) (A) (A)
                 (A) (A) (A) (A) (A) (A) (A) (A)
    20 initial guesses have been made.
 Convergence on wavefunction:    0.001000000000000
 Davidson Disk Diagonalization:  ConvIn= 1.00D-03 SkipCon=T Conv= 1.00D-03.
 Max sub-space:  2000 roots to seek:    20 dimension of matrix:       370304
 Iteration     1 Dimension    20 NMult     0 NNew     20
 CISAX will form    20 AO SS matrices at one time.
 NMat=    20 NSing=    20 JSym2X= 0.
 FoFJK:  IHMeth= 1 ICntrl=     500 DoSepK=F KAlg= 0 I1Cent=           0 FoldK=F
 IRaf= 510000000 NMat=      20 IRICut=       1 DoRegI=T DoRafI=F ISym2E= 0 IDoP0=0 IntGTp=1.
 FoFCou: FMM=T IPFlag=           0 FMFlag=      100000 FMFlg1=        2001
         NFxFlg=           0 DoJE=F BraDBF=F KetDBF=F FulRan=T
         wScrn=  0.000000 ICntrl=       500 IOpCl=  0 I1Cent=           0 NGrid=           0
         NMat0=   20 NMatS0=     20 NMatT0=    0 NMatD0=   20 NMtDS0=    0 NMtDT0=    0
 Symmetry not used in FoFCou.
 FMM levels:  10  Number of levels for PrismC:   9
 New state      1 was old state      3
 New state      2 was old state      1
 New state      3 was old state      4
 New state      4 was old state      2
 Excitation Energies [eV] at current iteration:
 Root      1 :     1.798618756861569
 Root      2 :     2.067531053636536
 Root      3 :     2.212478098037048
 Root      4 :     2.278852886569578
 Root      5 :     2.385568227413206
 Root      6 :     2.771015533877445
 Root      7 :     2.862279727546751
 Root      8 :     2.891574630391641
 Root      9 :     2.943630871554419
 Root     10 :     2.992821836277537
 Root     11 :     3.062985080491571
 Root     12 :     3.119675042126380
 Root     13 :     3.137064567050452
 Root     14 :     3.210615026228231
 Root     15 :     3.252093482314056
 Root     16 :     3.417180871079550
 Root     17 :     3.920510365861043
 Root     18 :     4.180540846466981
 Root     19 :     4.271852300757351
 Root     20 :     4.363077689252239
 Iteration     2 Dimension    40 NMult    20 NNew     20
 CISAX will form    20 AO SS matrices at one time.
 NMat=    20 NSing=    20 JSym2X= 0.
 Root      1 not converged, maximum delta is    0.222854416151590
 Root      2 not converged, maximum delta is    0.234951682222893
 New state      3 was old state      4
 Root      3 not converged, maximum delta is    0.373361707730688
 New state      4 was old state      3
 Root      4 not converged, maximum delta is    0.322902854369590
 Root      5 not converged, maximum delta is    0.001865137721994
 Excitation Energies [eV] at current iteration:
 Root      1 :     1.783530472804722   Change is   -0.015088284056847
 Root      2 :     1.833828740288108   Change is   -0.233702313348428
 Root      3 :     2.033091431358512   Change is   -0.245761455211066
 Root      4 :     2.213744975960754   Change is    0.001266877923706
 Root      5 :     2.385558817642130   Change is   -0.000009409771076
 Root      6 :     2.641505370239273   Change is   -0.250069260152369
 Root      7 :     2.762235539050633   Change is   -0.008779994826812
 Root      8 :     2.768342022611243   Change is   -0.351333019515137
 Root      9 :     2.859044552215303   Change is   -0.003235175331448
 Root     10 :     2.881035502048228   Change is   -0.256029065002224
 Root     11 :     2.889948776882848   Change is   -0.053682094671572
 Root     12 :     2.984406055764203   Change is   -0.267687426549853
 Root     13 :     2.992822075492950   Change is    0.000000239215414
 Root     14 :     3.054130529237442   Change is   -0.008854551254130
 Root     15 :     3.183644655149183   Change is   -0.026970371079048
 Root     16 :     3.215186085001195   Change is   -0.201994786078356
 Root     17 :     3.415958630294627   Change is   -0.504551735566415
 Root     18 :     3.821094545193301   Change is   -0.359446301273679
 Root     19 :     3.910790768581885   Change is   -0.361061532175465
 Root     20 :     4.010964435915137   Change is   -0.352113253337101
 Iteration     3 Dimension    45 NMult    40 NNew      5
 CISAX will form     5 AO SS matrices at one time.
 NMat=     5 NSing=     5 JSym2X= 0.
 Root      1 not converged, maximum delta is    0.241471955454127
 Root      2 not converged, maximum delta is    0.242329649578668
 Root      3 not converged, maximum delta is    0.015033181878083
 Root      4 not converged, maximum delta is    0.010172148827509
 Root      5 has converged.
 Excitation Energies [eV] at current iteration:
 Root      1 :     1.767371158054681   Change is   -0.016159314750042
 Root      2 :     1.804890765601938   Change is   -0.028937974686170
 Root      3 :     2.003420545354496   Change is   -0.029670886004016
 Root      4 :     2.210878144983991   Change is   -0.002866830976763
 Root      5 :     2.385557903297370   Change is   -0.000000914344760
 Iteration     4 Dimension    49 NMult    45 NNew      4
 CISAX will form     4 AO SS matrices at one time.
 NMat=     4 NSing=     4 JSym2X= 0.
 Root      1 not converged, maximum delta is    0.101601297764087
 Root      2 not converged, maximum delta is    0.096320508199017
 Root      3 not converged, maximum delta is    0.009868199966860
 Root      4 not converged, maximum delta is    0.005357275890354
 Root      5 has converged.
 Excitation Energies [eV] at current iteration:
 Root      1 :     1.756242598284480   Change is   -0.011128559770200
 Root      2 :     1.799238777594145   Change is   -0.005651988007793
 Root      3 :     1.991312519510782   Change is   -0.012108025843715
 Root      4 :     2.209433166797822   Change is   -0.001444978186168
 Root      5 :     2.385557812804959   Change is   -0.000000090492411
 Iteration     5 Dimension    53 NMult    49 NNew      4
 CISAX will form     4 AO SS matrices at one time.
 NMat=     4 NSing=     4 JSym2X= 0.
 Root      1 not converged, maximum delta is    0.026035434283895
 Root      2 not converged, maximum delta is    0.024989118236044
 Root      3 not converged, maximum delta is    0.002974777355225
 Root      4 not converged, maximum delta is    0.004291216390648
 Root      5 has converged.
 Excitation Energies [eV] at current iteration:
 Root      1 :     1.752386136852309   Change is   -0.003856461432171
 Root      2 :     1.797986447313723   Change is   -0.001252330280422
 Root      3 :     1.987493117453821   Change is   -0.003819402056961
 Root      4 :     2.208798292715782   Change is   -0.000634874082040
 Root      5 :     2.385557786444227   Change is   -0.000000026360732
 Iteration     6 Dimension    57 NMult    53 NNew      4
 CISAX will form     4 AO SS matrices at one time.
 NMat=     4 NSing=     4 JSym2X= 0.
 Root      1 not converged, maximum delta is    0.010613840378719
 Root      2 not converged, maximum delta is    0.010459534997520
 Root      3 not converged, maximum delta is    0.001824645740742
 Root      4 not converged, maximum delta is    0.003468256960816
 Root      5 has converged.
 Excitation Energies [eV] at current iteration:
 Root      1 :     1.750581363302841   Change is   -0.001804773549468
 Root      2 :     1.797482958676364   Change is   -0.000503488637359
 Root      3 :     1.985887270766749   Change is   -0.001605846687072
 Root      4 :     2.208453417979889   Change is   -0.000344874735892
 Root      5 :     2.385557780406403   Change is   -0.000000006037824
 Iteration     7 Dimension    61 NMult    57 NNew      4
 CISAX will form     4 AO SS matrices at one time.
 NMat=     4 NSing=     4 JSym2X= 0.
 Root      1 not converged, maximum delta is    0.004178462132910
 Root      2 not converged, maximum delta is    0.004167534691423
 Root      3 not converged, maximum delta is    0.001125761217730
 Root      4 not converged, maximum delta is    0.001937050506090
 Root      5 has converged.
 Excitation Energies [eV] at current iteration:
 Root      1 :     1.749840503012798   Change is   -0.000740860290043
 Root      2 :     1.797274004039977   Change is   -0.000208954636386
 Root      3 :     1.985290316270448   Change is   -0.000596954496301
 Root      4 :     2.208312276352975   Change is   -0.000141141626915
 Root      5 :     2.385557777291897   Change is   -0.000000003114506
 Iteration     8 Dimension    65 NMult    61 NNew      4
[...]
 Alpha virt. eigenvalues --    1.08614   1.09054   1.09643   1.09860   1.10215
 Alpha virt. eigenvalues --    1.10473   1.11498   1.11635   1.11890   1.12355
 Alpha virt. eigenvalues --    1.13361   1.14219   1.14482   1.14812   1.15340
 Alpha virt. eigenvalues --    1.15705   1.16118   1.16914   1.17326   1.17706
 Alpha virt. eigenvalues --    1.18169   1.18487   1.18986   1.19227   1.19495
 Alpha virt. eigenvalues --    1.20104   1.20779   1.21152   1.21340   1.21431
 Alpha virt. eigenvalues --    1.21862   1.22400   1.23850   1.24068   1.24580
 Alpha virt. eigenvalues --    1.24939   1.25325   1.25995   1.26066   1.26990
 Alpha virt. eigenvalues --    1.27176   1.27421   1.27725   1.28219   1.28574
 Alpha virt. eigenvalues --    1.28661   1.29225   1.30439   1.30465   1.30823
 Alpha virt. eigenvalues --    1.31227   1.31403   1.31630   1.31733   1.32252
 Alpha virt. eigenvalues --    1.32801   1.33014   1.33194   1.33326   1.34150
 Alpha virt. eigenvalues --    1.34337   1.34925   1.35121   1.35774   1.36185
 Alpha virt. eigenvalues --    1.36337   1.36978   1.37318   1.37612   1.38126
 Alpha virt. eigenvalues --    1.38243   1.38396   1.39319   1.39747   1.40116
 Alpha virt. eigenvalues --    1.40183   1.41102   1.41250   1.41703   1.42099
 Alpha virt. eigenvalues --    1.42816   1.42988   1.43505   1.43811   1.44074
 Alpha virt. eigenvalues --    1.44636   1.44857   1.45337   1.45704   1.45971
 Alpha virt. eigenvalues --    1.46249   1.46585   1.46713   1.47092   1.47219
 Alpha virt. eigenvalues --    1.47427   1.47641   1.47757   1.47851   1.48243
 Alpha virt. eigenvalues --    1.48404   1.48572   1.48991   1.49159   1.49537
 Alpha virt. eigenvalues --    1.49911   1.50339   1.50599   1.51010   1.51065
 Alpha virt. eigenvalues --    1.51429   1.51536   1.51667   1.51747   1.52065
 Alpha virt. eigenvalues --    1.53139   1.53348   1.53664   1.54822   1.55418
 Alpha virt. eigenvalues --    1.55552   1.55890   1.56010   1.56204   1.56470
 Alpha virt. eigenvalues --    1.57371   1.57865   1.58353   1.58803   1.59021
 Alpha virt. eigenvalues --    1.59696   1.59922   1.59952   1.60434   1.60884
 Alpha virt. eigenvalues --    1.61581   1.61857   1.62272   1.62455   1.63095
 Alpha virt. eigenvalues --    1.63487   1.63605   1.63938   1.64497   1.64588
 Alpha virt. eigenvalues --    1.65051   1.65324   1.65489   1.65947   1.66296
 Alpha virt. eigenvalues --    1.66516   1.66653   1.67100   1.67307   1.67394
 Alpha virt. eigenvalues --    1.67521   1.67625   1.67863   1.68171   1.68358
 Alpha virt. eigenvalues --    1.68504   1.68823   1.68893   1.69403   1.69578
 Alpha virt. eigenvalues --    1.69772   1.69876   1.69913   1.70190   1.70337
 Alpha virt. eigenvalues --    1.70552   1.70951   1.71012   1.71306   1.71487
 Alpha virt. eigenvalues --    1.72058   1.72118   1.72387   1.72442   1.72508
 Alpha virt. eigenvalues --    1.73022   1.73065   1.73095   1.73365   1.73671
 Alpha virt. eigenvalues --    1.73846   1.74078   1.74276   1.74481   1.74596
 Alpha virt. eigenvalues --    1.74716   1.74830   1.75052   1.75315   1.75387
 Alpha virt. eigenvalues --    1.75501   1.75754   1.76100   1.76340   1.76462
 Alpha virt. eigenvalues --    1.76551   1.76859   1.76921   1.77095   1.77344
 Alpha virt. eigenvalues --    1.77520   1.77767   1.77921   1.78170   1.78502
 Alpha virt. eigenvalues --    1.78670   1.78756   1.79156   1.79636   1.79759
 Alpha virt. eigenvalues --    1.79826   1.80214   1.80353   1.80537   1.80658
 Alpha virt. eigenvalues --    1.80808   1.80991   1.81563   1.81976   1.82032
 Alpha virt. eigenvalues --    1.82215   1.82314   1.82983   1.83056   1.83327
 Alpha virt. eigenvalues --    1.83734   1.84258   1.84392   1.84859   1.85042
 Alpha virt. eigenvalues --    1.85377   1.85543   1.85589   1.85826   1.86101
 Alpha virt. eigenvalues --    1.86307   1.86804   1.86832   1.86900   1.87200
 Alpha virt. eigenvalues --    1.87313   1.87690   1.88001   1.88282   1.88323
 Alpha virt. eigenvalues --    1.88432   1.88483   1.89148   1.89460   1.89668
 Alpha virt. eigenvalues --    1.89830   1.90302   1.90776   1.90942   1.91089
 Alpha virt. eigenvalues --    1.91332   1.91451   1.91838   1.91975   1.92406
 Alpha virt. eigenvalues --    1.92931   1.92964   1.93305   1.93573   1.93939
 Alpha virt. eigenvalues --    1.94250   1.94818   1.95029   1.95199   1.95306
 Alpha virt. eigenvalues --    1.95628   1.95771   1.96599   1.96678   1.96828
 Alpha virt. eigenvalues --    1.97215   1.97405   1.98127   1.98279   1.98473
 Alpha virt. eigenvalues --    1.98592   1.98935   1.99486   1.99911   2.00214
 Alpha virt. eigenvalues --    2.00389   2.00708   2.00817   2.01439   2.01649
 Alpha virt. eigenvalues --    2.01810   2.02148   2.02431   2.02721   2.02904
 Alpha virt. eigenvalues --    2.03260   2.03540   2.03725   2.04165   2.04401
 Alpha virt. eigenvalues --    2.04708   2.04849   2.05306   2.05418   2.05600
 Alpha virt. eigenvalues --    2.06038   2.06194   2.06227   2.06860   2.07533
 Alpha virt. eigenvalues --    2.07653   2.07687   2.08308   2.08822   2.09147
 Alpha virt. eigenvalues --    2.09644   2.10000   2.10165   2.10497   2.10614
 Alpha virt. eigenvalues --    2.10657   2.11791   2.11799   2.12339   2.12475
 Alpha virt. eigenvalues --    2.13334   2.14142   2.14442   2.14550   2.14979
 Alpha virt. eigenvalues --    2.15138   2.16329   2.16894   2.17028   2.17745
 Alpha virt. eigenvalues --    2.17924   2.18247   2.18353   2.18951   2.19442
 Alpha virt. eigenvalues --    2.19685   2.20091   2.20249   2.20501   2.21265
 Alpha virt. eigenvalues --    2.21722   2.21835   2.22175   2.22273   2.23764
 Alpha virt. eigenvalues --    2.23881   2.24028   2.24294   2.24523   2.25014
 Alpha virt. eigenvalues --    2.25394   2.25674   2.26141   2.26760   2.27423
 Alpha virt. eigenvalues --    2.27570   2.28152   2.28276   2.28364   2.28576
 Alpha virt. eigenvalues --    2.28722   2.29037   2.29568   2.29673   2.30410
 Alpha virt. eigenvalues --    2.30512   2.30552   2.30594   2.30729   2.30948
 Alpha virt. eigenvalues --    2.31360   2.31668   2.32563   2.32883   2.33230
 Alpha virt. eigenvalues --    2.33759   2.34079   2.34152   2.34439   2.34497
 Alpha virt. eigenvalues --    2.34781   2.34985   2.35282   2.35468   2.35630
 Alpha virt. eigenvalues --    2.37232   2.37965   2.38218   2.38925   2.39011
 Alpha virt. eigenvalues --    2.39079   2.39615   2.40146   2.40690   2.40862
 Alpha virt. eigenvalues --    2.41204   2.41818   2.42474   2.43107   2.43210
 Alpha virt. eigenvalues --    2.43635   2.44209   2.45134   2.45619   2.45715
 Alpha virt. eigenvalues --    2.45821   2.46822   2.47425   2.47733   2.48086
 Alpha virt. eigenvalues --    2.48105   2.48436   2.48737   2.49055   2.49771
 Alpha virt. eigenvalues --    2.50317   2.50621   2.51033   2.51518   2.51825
 Alpha virt. eigenvalues --    2.52629   2.52669   2.52903   2.53296   2.53826
 Alpha virt. eigenvalues --    2.54132   2.54335   2.54857   2.55113   2.55388
 Alpha virt. eigenvalues --    2.55849   2.56034   2.56216   2.57363   2.57706
 Alpha virt. eigenvalues --    2.57891   2.57981   2.58530   2.58904   2.59236
 Alpha virt. eigenvalues --    2.59254   2.60194   2.60867   2.61062   2.61341
 Alpha virt. eigenvalues --    2.61698   2.62388   2.63126   2.63513   2.63756
 Alpha virt. eigenvalues --    2.63937   2.64419   2.64521   2.64933   2.65452
 Alpha virt. eigenvalues --    2.65646   2.66031   2.66080   2.66343   2.66735
 Alpha virt. eigenvalues --    2.66956   2.67744   2.67963   2.68091   2.68699
 Alpha virt. eigenvalues --    2.69593   2.70466   2.71543   2.71653   2.71906
 Alpha virt. eigenvalues --    2.72296   2.73800   2.74164   2.74929   2.75696
 Alpha virt. eigenvalues --    2.75748   2.75951   2.77132   2.77156   2.77577
 Alpha virt. eigenvalues --    2.78149   2.78216   2.78451   2.78747   2.79081
 Alpha virt. eigenvalues --    2.79455   2.79790   2.80154   2.80415   2.81169
 Alpha virt. eigenvalues --    2.81367   2.81523   2.81993   2.82121   2.82282
 Alpha virt. eigenvalues --    2.83000   2.83106   2.83215   2.83630   2.84184
 Alpha virt. eigenvalues --    2.85199   2.85300   2.85638   2.85720   2.86214
 Alpha virt. eigenvalues --    2.86755   2.86846   2.86898   2.87452   2.87735
 Alpha virt. eigenvalues --    2.87904   2.88565   2.88613   2.88842   2.89158
 Alpha virt. eigenvalues --    2.89476   2.89626   2.89998   2.90055   2.90240
 Alpha virt. eigenvalues --    2.90368   2.90483   2.90626   2.91260   2.91784
 Alpha virt. eigenvalues --    2.92064   2.92860   2.93556   2.93687   2.94195
 Alpha virt. eigenvalues --    2.94564   2.95307   2.95359   2.95754   2.96020
 Alpha virt. eigenvalues --    2.96362   2.96709   2.96975   2.97911   2.97951
 Alpha virt. eigenvalues --    2.98311   2.98923   2.99021   2.99326   2.99575
 Alpha virt. eigenvalues --    2.99646   3.01342   3.02450   3.02534   3.02703
 Alpha virt. eigenvalues --    3.02857   3.03488   3.04533   3.04690   3.05316
 Alpha virt. eigenvalues --    3.05506   3.06407   3.06822   3.07463   3.07740
 Alpha virt. eigenvalues --    3.08882   3.09459   3.10979   3.11375   3.12011
 Alpha virt. eigenvalues --    3.16520   3.19065   3.19201   3.26922   3.28158
 Alpha virt. eigenvalues --    3.31490   3.32859   3.33888   3.36958   3.39298
 Alpha virt. eigenvalues --    3.42014   3.49731   3.50080   3.51625   3.53900
 Alpha virt. eigenvalues --    3.55318   3.57084
          Condensed to atoms (all electrons):
 Mulliken charges:
               1
     1  Mg   0.711150
     2  C    0.071885
     3  C   -0.077238
     4  C   -0.036128
     5  C   -0.062951
     6  N   -0.240941
     7  C   -0.100670
     8  C    0.113116
     9  C   -0.059822
    10  C    0.056365
    11  C    0.134075
    12  C    0.164019
    13  C    0.156924
    14  C    0.035606
    15  O   -0.199655
    16  O   -0.265218
    17  N   -0.273875
    18  C    0.129742
    19  C   -0.154191
    20  C    0.040891
    21  C    0.077675
    22  C    0.170337
    23  C   -0.094037
    24  O   -0.192689
    25  C    0.142536
    26  N   -0.196314
    27  C    0.004317
    28  C    0.027212
    29  C    0.040406
    30  C   -0.019663
    31  C    0.154137
    32  C    0.079241
    33  C    0.080966
    34  N   -0.223746
    35  C    0.090400
    36  C   -0.231676
    37  C    0.127645
    38  C   -0.006198
    39  C    0.175094
    40  C   -0.032052
    41  O   -0.101566
    42  C    0.038200
    43  C    0.149791
    44  O   -0.238095
    45  O   -0.279152
    46  C    0.226579
    47  C    0.351363
    48  C   -0.159843
    49  C   -0.108179
    50  C    0.101731
    51  C    0.134124
    52  C    0.049748
    53  C    0.086189
    54  C   -0.106013
    55  C    0.171728
    56  C    0.087982
    57  C    0.124924
    58  C    0.063369
    59  C   -0.083891
    60  C    0.130068
    61  C    0.113410
    62  C    0.021965
    63  C    0.139526
    64  C   -0.130706
    65  C    0.103547
    66  C    0.133674
    67  H   -0.069199
    68  H   -0.041417
    69  H   -0.053798
    70  H   -0.042075
    71  H   -0.012565
    72  H   -0.013737
    73  H   -0.009214
    74  H    0.002679
    75  H   -0.026219
    76  H   -0.003407
    77  H   -0.001698
    78  H   -0.006116
    79  H    0.013484
    80  H   -0.006190
    81  H   -0.015550
    82  H   -0.000759
    83  H    0.003808
    84  H    0.019326
    85  H   -0.031176
    86  H   -0.052598
    87  H    0.005628
    88  H   -0.012641
    89  H   -0.005495
    90  H   -0.025762
    91  H   -0.026602
    92  H    0.001044
    93  H    0.003390
    94  H   -0.009622
    95  H   -0.007040
    96  H    0.006626
    97  H    0.009765
    98  H    0.014645
    99  H    0.023983
   100  H    0.005424
   101  H    0.015728
   102  H    0.010591
   103  H    0.018150
   104  H   -0.041065
   105  H   -0.000154
   106  H   -0.021766
   107  H   -0.015553
   108  H   -0.044422
   109  H   -0.030937
   110  H   -0.039629
   111  H   -0.023267
   112  H   -0.018859
   113  H   -0.028060
   114  H   -0.038563
   115  H   -0.011294
   116  H   -0.036977
   117  H   -0.007659
   118  H   -0.034929
   119  H   -0.017149
   120  H   -0.035007
   121  H   -0.032747
   122  H   -0.059075
   123  H   -0.050975
   124  H   -0.030436
   125  H   -0.007826
   126  H   -0.017742
   127  H   -0.041642
   128  H   -0.026813
   129  H   -0.013441
   130  H   -0.040069
   131  H   -0.032194
   132  H   -0.037874
   133  H   -0.036845
   134  H   -0.040403
   135  H   -0.011731
   136  H   -0.033264
   137  H   -0.017073
   138  H   -0.013777
   139  H   -0.024256
   140  H   -0.005069
 Sum of Mulliken charges =  -0.00000
 Mulliken charges with hydrogens summed into heavy atoms:
               1
     1  Mg   0.711150
     2  C    0.071885
     3  C   -0.146438
     4  C   -0.077545
     5  C   -0.116750
     6  N   -0.240941
     7  C   -0.100670
     8  C    0.071041
     9  C   -0.072386
    10  C    0.056365
    11  C    0.113805
    12  C    0.134393
    13  C    0.149109
    14  C    0.035606
    15  O   -0.199655
    16  O   -0.265218
    17  N   -0.273875
    18  C    0.129742
    19  C   -0.154191
    20  C    0.040891
    21  C    0.077675
    22  C    0.162081
    23  C   -0.094037
    24  O   -0.192689
    25  C    0.164912
    26  N   -0.196314
    27  C    0.004317
    28  C   -0.003964
    29  C   -0.012192
    30  C   -0.019663
    31  C    0.141628
    32  C    0.026876
    33  C    0.075778
    34  N   -0.223746
    35  C    0.090400
    36  C   -0.231676
    37  C    0.127645
    38  C   -0.006198
    39  C    0.184445
    40  C   -0.032052
    41  O   -0.101566
    42  C    0.052845
    43  C    0.149791
    44  O   -0.238095
    45  O   -0.279152
    46  C    0.271715
    47  C    0.380104
    48  C   -0.200909
    49  C   -0.108179
    50  C    0.064259
    51  C    0.058765
    52  C   -0.013149
    53  C    0.039270
    54  C   -0.144575
    55  C    0.115798
    56  C    0.035904
    57  C    0.057169
    58  C   -0.046680
    59  C   -0.114327
    60  C    0.062857
    61  C    0.073156
    62  C   -0.050299
    63  C    0.064807
    64  C   -0.171109
    65  C    0.041479
    66  C    0.090572
 Electronic spatial extent (au):  <R**2>=         128742.9773
 Charge=             -0.0000 electrons
 Dipole moment (field-independent basis, Debye):
    X=             -1.8749    Y=              2.8202    Z=              0.1886  Tot=              3.3918
 Quadrupole moment (field-independent basis, Debye-Ang):
   XX=           -379.0294   YY=           -424.3516   ZZ=           -407.1142
   XY=            -10.5880   XZ=              2.7256   YZ=             -9.2426
 Traceless Quadrupole moment (field-independent basis, Debye-Ang):
   XX=             24.4690   YY=            -20.8532   ZZ=             -3.6158
   XY=            -10.5880   XZ=              2.7256   YZ=             -9.2426
 Octapole moment (field-independent basis, Debye-Ang**2):
  XXX=            199.3476  YYY=             59.8103  ZZZ=             -0.8227  XYY=           -228.0028
  XXY=           -211.3703  XXZ=             87.8357  XZZ=             87.2054  YZZ=              9.0831
  YYZ=             16.3147  XYZ=            -19.7917
 Hexadecapole moment (field-independent basis, Debye-Ang**3):
 XXXX=        -148379.4401 YYYY=         -21728.2924 ZZZZ=          -6466.7312 XXXY=          -3376.2166
 XXXZ=           1305.6795 YYYX=            291.0576 YYYZ=           -302.8450 ZZZX=            -27.7542
 ZZZY=              1.7069 XXYY=         -29944.0914 XXZZ=         -26667.2867 YYZZ=          -4555.3823
 XXYZ=            -69.7486 YYXZ=            -32.1083 ZZXY=             46.3712
 N-N= 9.474647298211D+03 E-N=-2.594467297976D+04  KE= 2.977766786987D+03
 Leave Link  601 at Wed Apr 27 16:05:32 2022, MaxMem= 10066329600 cpu:              13.5 elap:               0.7
 (Enter /sw/apps/gaussian-16.0/g16/l9999.exe)
 1\1\GINC-BP1-COMPUTE216\SP\RBLYP TD-FC\def2SVP\C55H74Mg1N4O6\OF15641\2
 7-Apr-2022\0\\#p blyp/Def2SVP td=(nstates=5)\\step_1251_chromophore_1 
 TDDFT with blyp functional\\0,1\Mg,0,-1.018,17.271,26.855\C,0,-1.464,1
 5.185,29.792\C,0,-2.078,19.951,28.666\C,0,-0.819,19.038,24.044\C,0,-0.
 489,14.329,24.963\N,0,-1.593,17.506,28.937\C,0,-1.656,16.603,29.999\C,
 0,-1.767,17.339,31.377\C,0,-2.279,18.741,30.935\C,0,-2.015,18.732,29.4
 49\C,0,-3.783,19.018,31.156\C,0,-0.662,17.4,32.394\C,0,-1.017,18.09,33
 .747\C,0,-1.062,17.215,34.965\O,0,-1.93,16.416,35.315\O,0,0.092,17.396
 ,35.673\N,0,-1.284,19.281,26.46\C,0,-1.723,20.234,27.317\C,0,-1.703,21
 .454,26.705\C,0,-1.267,21.297,25.362\C,0,-1.115,19.806,25.231\C,0,-2.1
 79,22.723,27.451\C,0,-1.052,22.336,24.257\O,0,-0.938,21.965,23.071\C,0
 ,-0.953,23.846,24.486\N,0,-0.775,16.753,24.772\C,0,-0.899,17.661,23.77
 3\C,0,-0.786,17.079,22.412\C,0,-0.206,15.761,22.658\C,0,-0.5,15.556,24
 .241\C,0,-2.1,17.189,21.584\C,0,1.272,15.402,22.431\C,0,2.485,16.304,2
 2.739\N,0,-0.921,15.203,27.223\C,0,-0.813,14.174,26.382\C,0,-0.823,12.
 873,27.076\C,0,-1.043,13.201,28.375\C,0,-1.16,14.644,28.453\C,0,-0.983
 ,11.473,26.472\C,0,-1.307,12.689,29.75\O,0,-1.536,11.571,30.144\C,0,-1
 .628,13.961,30.671\C,0,-0.737,13.792,31.807\O,0,0.424,14.295,31.846\O,
 0,-1.36,12.975,32.776\C,0,-0.487,12.969,33.988\C,0,0.235,16.652,36.927
 \C,0,0.119,17.607,38.081\C,0,0.102,17.417,39.382\C,0,0.107,16.004,39.9
 18\C,0,0.074,18.548,40.478\C,0,1.272,19.524,40.771\C,0,1.008,21.043,40
 .959\C,0,2.105,21.949,40.264\C,0,2.054,22.049,38.804\C,0,3.463,21.63,4
 0.974\C,0,3.971,22.791,41.891\C,0,4.776,22.291,43.068\C,0,4.109,22.514
 ,44.453\C,0,5.017,21.962,45.535\C,0,2.763,21.58,44.6\C,0,1.666,22.595,
 44.771\C,0,0.286,21.899,44.846\C,0,-0.565,22.458,45.937\C,0,0.056,22.0
 79,47.271\C,0,-2.089,22.111,45.852\H,0,-2.295,20.859,29.232\H,0,-0.741
 ,19.59,23.105\H,0,-0.207,13.449,24.381\H,0,-2.646,16.801,31.732\H,0,-1
 .669,19.494,31.433\H,0,-4.33,19.11,30.218\H,0,-3.947,20.02,31.551\H,0,
 -4.312,18.238,31.703\H,0,0.244,17.843,31.98\H,0,-0.243,16.429,32.656\H
 ,0,-2.055,18.417,33.694\H,0,-0.344,18.902,34.024\H,0,-1.435,23.203,28.
 087\H,0,-2.982,22.355,28.091\H,0,-2.638,23.358,26.693\H,0,-0.629,24.31
 7,23.558\H,0,-0.135,24.025,25.184\H,0,-1.939,24.074,24.892\H,0,-0.02,1
 7.626,21.862\H,0,-0.833,15.08,22.082\H,0,-2.872,17.798,22.055\H,0,-2.4
 72,16.195,21.335\H,0,-1.819,17.671,20.648\H,0,1.353,15.175,21.368\H,0,
 1.441,14.494,23.01\H,0,2.875,16.865,21.89\H,0,3.183,15.664,23.278\H,0,
 2.066,17.07,23.391\H,0,0.,11.091,26.197\H,0,-1.606,11.565,25.582\H,0,-
 1.354,10.782,27.229\H,0,-2.657,13.925,31.029\H,0,0.409,12.347,33.959\H
 ,0,-1.184,12.57,34.724\H,0,-0.279,13.999,34.277\H,0,1.238,16.235,37.01
 3\H,0,-0.493,15.886,37.192\H,0,-0.018,18.646,37.782\H,0,-0.92,15.707,4
 0.13\H,0,0.565,15.811,40.888\H,0,0.55,15.24,39.28\H,0,-0.272,18.136,41
 .426\H,0,-0.779,19.157,40.178\H,0,1.868,19.253,39.898\H,0,1.903,19.112
 ,41.558\H,0,1.18,21.206,42.023\H,0,-0.021,21.288,40.694\H,0,1.732,22.8
 89,40.669\H,0,1.4,21.405,38.217\H,0,3.027,21.681,38.48\H,0,1.98,23.128
 ,38.666\H,0,4.239,21.457,40.228\H,0,3.325,20.718,41.556\H,0,3.114,23.3
 57,42.257\H,0,4.614,23.476,41.339\H,0,5.755,22.765,43.125\H,0,5.121,21
 .261,42.97\H,0,4.122,23.604,44.469\H,0,5.068,20.875,45.479\H,0,4.728,2
 2.391,46.495\H,0,6.018,22.351,45.347\H,0,2.838,21.112,45.582\H,0,2.447
 ,20.943,43.774\H,0,1.738,23.258,43.909\H,0,1.846,23.238,45.632\H,0,0.4
 87,20.832,44.946\H,0,-0.228,22.022,43.893\H,0,-0.473,23.544,45.956\H,0
 ,0.485,21.08,47.197\H,0,-0.688,22.091,48.068\H,0,0.733,22.87,47.596\H,
 0,-2.434,21.706,46.804\H,0,-2.282,21.357,45.089\H,0,-2.45,23.073,45.48
 8\\Version=ES64L-G16RevA.03\State=1-A\HF=-3007.322931\RMSD=4.243e-09\P
 G=C01 [X(C55H74Mg1N4O6)]\\@


 ONLY THE DAY DAWNS TO WHICH YOU ARE AWAKE.

                                 -- THOREAU
 Job cpu time:       0 days  4 hours 43 minutes 56.0 seconds.
 Elapsed time:       0 days  0 hours 11 minutes 52.6 seconds.
 File lengths (MBytes):  RWF=   8014 Int=      0 D2E=      0 Chk=    390 Scr=      1
 Normal termination of Gaussian 16 at Wed Apr 27 16:05:32 2022.
