 Entering Gaussian System, Link 0=g16
 Initial command:
 /sw/apps/gaussian-16.0/g16/l1.exe "/tmp/Gau-94127.inp" -scrdir="/tmp/"
 Entering Link 1 = /sw/apps/gaussian-16.0/g16/l1.exe PID=     94128.
  
 Copyright (c) 1988,1990,1992,1993,1995,1998,2003,2009,2016,
            Gaussian, Inc.  All Rights Reserved.
  
 This is part of the Gaussian(R) 16 program.  It is based on
 the Gaussian(R) 09 system (copyright 2009, Gaussian, Inc.),
 the Gaussian(R) 03 system (copyright 2003, Gaussian, Inc.),
 the Gaussian(R) 98 system (copyright 1998, Gaussian, Inc.),
 the Gaussian(R) 94 system (copyright 1995, Gaussian, Inc.),
 the Gaussian 92(TM) system (copyright 1992, Gaussian, Inc.),
 the Gaussian 90(TM) system (copyright 1990, Gaussian, Inc.),
 the Gaussian 88(TM) system (copyright 1988, Gaussian, Inc.),
 the Gaussian 86(TM) system (copyright 1986, Carnegie Mellon
 University), and the Gaussian 82(TM) system (copyright 1983,
 Carnegie Mellon University). Gaussian is a federally registered
 trademark of Gaussian, Inc.
  
 This software contains proprietary and confidential information,
 including trade secrets, belonging to Gaussian, Inc.
  
 This software is provided under written license and may be
 used, copied, transmitted, or stored only in accord with that
 written license.
  
 The following legend is applicable only to US Government
 contracts under FAR:
  
                    RESTRICTED RIGHTS LEGEND
  
 Use, reproduction and disclosure by the US Government is
 subject to restrictions as set forth in subparagraphs (a)
 and (c) of the Commercial Computer Software - Restricted
 Rights clause in FAR 52.227-19.
  
 Gaussian, Inc.
 340 Quinnipiac St., Bldg. 40, Wallingford CT 06492
  
  
 ---------------------------------------------------------------
 Warning -- This program may not be used in any manner that
 competes with the business of Gaussian, Inc. or will provide
 assistance to any competitor of Gaussian, Inc.  The licensee
 of this program is prohibited from giving any competitor of
 Gaussian, Inc. access to this program.  By using this program,
 the user acknowledges that Gaussian, Inc. is engaged in the
 business of creating and licensing software in the field of
 computational chemistry and represents and warrants to the
 licensee that it is not a competitor of Gaussian, Inc. and that
 it will not use this program in any manner prohibited above.
 ---------------------------------------------------------------
  

 Cite this work as:
 Gaussian 16, Revision A.03,
 M. J. Frisch, G. W. Trucks, H. B. Schlegel, G. E. Scuseria, 
 M. A. Robb, J. R. Cheeseman, G. Scalmani, V. Barone, 
 G. A. Petersson, H. Nakatsuji, X. Li, M. Caricato, A. V. Marenich, 
 J. Bloino, B. G. Janesko, R. Gomperts, B. Mennucci, H. P. Hratchian, 
 J. V. Ortiz, A. F. Izmaylov, J. L. Sonnenberg, D. Williams-Young, 
 F. Ding, F. Lipparini, F. Egidi, J. Goings, B. Peng, A. Petrone, 
 T. Henderson, D. Ranasinghe, V. G. Zakrzewski, J. Gao, N. Rega, 
 G. Zheng, W. Liang, M. Hada, M. Ehara, K. Toyota, R. Fukuda, 
 J. Hasegawa, M. Ishida, T. Nakajima, Y. Honda, O. Kitao, H. Nakai, 
 T. Vreven, K. Throssell, J. A. Montgomery, Jr., J. E. Peralta, 
 F. Ogliaro, M. J. Bearpark, J. J. Heyd, E. N. Brothers, K. N. Kudin, 
 V. N. Staroverov, T. A. Keith, R. Kobayashi, J. Normand, 
 K. Raghavachari, A. P. Rendell, J. C. Burant, S. S. Iyengar, 
 J. Tomasi, M. Cossi, J. M. Millam, M. Klene, C. Adamo, R. Cammi, 
 J. W. Ochterski, R. L. Martin, K. Morokuma, O. Farkas, 
 J. B. Foresman, and D. J. Fox, Gaussian, Inc., Wallingford CT, 2016.
 
 ******************************************
 Gaussian 16:  ES64L-G16RevA.03 25-Dec-2016
                30-Apr-2022 
 ******************************************
 %nproc=24
 Will use up to   24 processors via shared memory.
 %mem=75GB
 ---------------------------------
 #p PBE1PBE/Def2SVP td=(nstates=5)
 ---------------------------------
 1/38=1,172=1/1;
 2/12=2,17=6,18=5,40=1/2;
 3/5=43,7=101,11=9,25=1,30=1,74=-13/1,2,3,8;
 4//1;
 5/5=2,38=5/2;
 8/6=1,10=1,108=5/1;
 9/41=5,42=1,70=2/14;
 6/7=2,8=2,9=2,10=2/1;
 99/5=1,9=1/99;
 Leave Link    1 at Sat Apr 30 18:01:35 2022, MaxMem= 10066329600 cpu:               1.0 elap:               0.0
 (Enter /sw/apps/gaussian-16.0/g16/l101.exe)
 -----------------------------------------------------
 step_851_chromophore_18 TDDFT with PBE1PBE functional
 -----------------------------------------------------
 Symbolic Z-matrix:
 Charge =  0 Multiplicity = 1
 Mg                    34.871    49.709    25.871 
 C                     35.048    47.793    28.763 
 C                     33.151    52.162    27.781 
 C                     34.256    51.483    23.045 
 C                     36.157    47.112    24.012 
 N                     34.171    49.941    27.966 
 C                     34.533    49.067    29.002 
 C                     34.138    49.631    30.352 
 C                     33.342    50.901    29.977 
 C                     33.569    51.037    28.475 
 C                     31.906    51.066    30.43 
 C                     35.351    49.8      31.348 
 C                     35.074    49.635    32.869 
 C                     33.607    49.301    33.363 
 O                     33.177    48.183    33.365 
 O                     33.057    50.484    33.755 
 N                     33.773    51.478    25.42 
 C                     33.181    52.359    26.331 
 C                     32.844    53.621    25.681 
 C                     33.122    53.384    24.305 
 C                     33.773    52.044    24.214 
 C                     32.253    54.774    26.423 
 C                     32.981    54.442    23.11 
 O                     33.342    54.199    22.001 
 C                     32.402    55.837    23.411 
 N                     35.379    49.448    23.784 
 C                     34.876    50.259    22.807 
 C                     35.136    49.66     21.386 
 C                     36.049    48.44     21.723 
 C                     35.948    48.32     23.267 
 C                     33.912    49.188    20.554 
 C                     37.567    48.463    21.509 
 C                     38.343    49.769    21.765 
 N                     35.407    47.799    26.244 
 C                     35.845    46.821    25.371 
 C                     36.073    45.645    26.238 
 C                     35.826    45.938    27.571 
 C                     35.405    47.301    27.498 
 C                     36.481    44.28     25.686 
 C                     35.786    45.453    28.852 
 O                     36.015    44.336    29.282 
 C                     35.402    46.686    29.776 
 C                     34.272    46.219    30.548 
 O                     33.131    46.166    30.194 
 O                     34.785    45.707    31.701 
 C                     33.814    44.914    32.484 
 C                     31.691    50.287    34.262 
 C                     30.968    51.659    34.021 
 C                     30.013    52.24     34.822 
 C                     29.344    51.492    35.981 
 C                     29.487    53.674    34.488 
 C                     30.137    54.717    35.402 
 C                     30.849    55.87     34.733 
 C                     30.958    57.013    35.737 
 C                     32.395    57.557    35.842 
 C                     30.023    58.222    35.475 
 C                     28.994    58.547    36.556 
 C                     29.536    59.302    37.805 
 C                     28.853    60.709    37.99 
 C                     29.797    61.64     38.749 
 C                     27.51     60.752    38.727 
 C                     26.431    61.555    37.834 
 C                     25.588    62.552    38.736 
 C                     25.874    63.902    38.136 
 C                     25.686    65.089    39.186 
 C                     24.905    64.198    36.907 
 H                     32.749    53.002    28.352 
 H                     33.957    51.998    22.13 
 H                     36.417    46.219    23.44 
 H                     33.426    48.927    30.782 
 H                     33.773    51.753    30.502 
 H                     31.203    51.055    29.596 
 H                     31.659    51.99     30.952 
 H                     31.536    50.254    31.056 
 H                     35.609    50.857    31.402 
 H                     36.228    49.209    31.083 
 H                     35.561    50.406    33.465 
 H                     35.548    48.656    32.935 
 H                     31.735    54.448    27.325 
 H                     31.408    55.143    25.841 
 H                     32.99     55.567    26.553 
 H                     32.45     56.418    22.489 
 H                     32.893    56.334    24.248 
 H                     31.385    55.607    23.726 
 H                     35.642    50.472    20.865 
 H                     35.496    47.567    21.375 
 H                     33.709    49.75     19.642 
 H                     32.987    49.271    21.125 
 H                     34.08     48.213    20.096 
 H                     37.814    48.139    20.498 
 H                     38.022    47.732    22.177 
 H                     39.251    49.591    22.34 
 H                     37.799    50.576    22.256 
 H                     38.652    50.135    20.786 
 H                     36.562    43.602    26.536 
 H                     37.459    44.361    25.211 
 H                     35.809    43.762    25. 
 H                     36.291    46.954    30.347 
 H                     33.647    44.041    31.852 
 H                     32.838    45.365    32.663 
 H                     34.144    44.537    33.452 
 H                     31.711    49.982    35.308 
 H                     31.237    49.467    33.707 
 H                     31.5      52.276    33.297 
 H                     29.597    52.028    36.896 
 H                     29.65     50.446    35.987 
 H                     28.266    51.511    35.821 
 H                     28.435    53.615    34.768 
 H                     29.663    53.869    33.43 
 H                     30.833    54.167    36.035 
 H                     29.317    55.152    35.973 
 H                     30.36     56.19     33.813 
 H                     31.76     55.44     34.319 
 H                     30.702    56.657    36.734 
 H                     32.462    58.523    36.342 
 H                     32.793    57.649    34.832 
 H                     33.018    56.846    36.385 
 H                     29.433    58.026    34.579 
 H                     30.627    59.082    35.184 
 H                     28.585    57.606    36.923 
 H                     28.139    59.094    36.159 
 H                     30.624    59.297    37.871 
 H                     29.298    58.777    38.731 
 H                     28.831    61.11     36.977 
 H                     29.361    62.533    39.197 
 H                     30.424    61.98     37.924 
 H                     30.46     61.147    39.46 
 H                     27.606    61.236    39.699 
 H                     27.105    59.766    38.958 
 H                     25.658    60.892    37.445 
 H                     26.904    62.043    36.982 
 H                     25.967    62.404    39.747 
 H                     24.574    62.157    38.684 
 H                     26.886    63.997    37.742 
 H                     26.45     65.86     39.084 
 H                     25.741    64.742    40.218 
 H                     24.722    65.598    39.178 
 H                     24.438    63.252    36.633 
 H                     25.314    64.793    36.09 
 H                     24.094    64.851    37.231 
 
 ITRead=  0  0  0  0  0  0  0  0  0  0  0  0  0  0  0  0  0  0  0  0
 ITRead=  0  0  0  0  0  0  0  0  0  0  0  0  0  0  0  0  0  0  0  0
 ITRead=  0  0  0  0  0  0  0  0  0  0  0  0  0  0  0  0  0  0  0  0
 ITRead=  0  0  0  0  0  0  0  0  0  0  0  0  0  0  0  0  0  0  0  0
 ITRead=  0  0  0  0  0  0  0  0  0  0  0  0  0  0  0  0  0  0  0  0
 ITRead=  0  0  0  0  0  0  0  0  0  0  0  0  0  0  0  0  0  0  0  0
 ITRead=  0  0  0  0  0  0  0  0  0  0  0  0  0  0  0  0  0  0  0  0
 MicOpt= -1 -1 -1 -1 -1 -1 -1 -1 -1 -1 -1 -1 -1 -1 -1 -1 -1 -1 -1 -1
 MicOpt= -1 -1 -1 -1 -1 -1 -1 -1 -1 -1 -1 -1 -1 -1 -1 -1 -1 -1 -1 -1
 MicOpt= -1 -1 -1 -1 -1 -1 -1 -1 -1 -1 -1 -1 -1 -1 -1 -1 -1 -1 -1 -1
 MicOpt= -1 -1 -1 -1 -1 -1 -1 -1 -1 -1 -1 -1 -1 -1 -1 -1 -1 -1 -1 -1
 MicOpt= -1 -1 -1 -1 -1 -1 -1 -1 -1 -1 -1 -1 -1 -1 -1 -1 -1 -1 -1 -1
 MicOpt= -1 -1 -1 -1 -1 -1 -1 -1 -1 -1 -1 -1 -1 -1 -1 -1 -1 -1 -1 -1
 MicOpt= -1 -1 -1 -1 -1 -1 -1 -1 -1 -1 -1 -1 -1 -1 -1 -1 -1 -1 -1 -1
 NAtoms=    140 NQM=      140 NQMF=       0 NMMI=      0 NMMIF=      0
                NMic=       0 NMicF=      0.
                    Isotopes and Nuclear Properties:
 (Nuclear quadrupole moments (NQMom) in fm**2, nuclear magnetic moments (NMagM)
  in nuclear magnetons)

  Atom         1           2           3           4           5           6           7           8           9          10
 IAtWgt=          24          12          12          12          12          14          12          12          12          12
 AtmWgt=  23.9850450  12.0000000  12.0000000  12.0000000  12.0000000  14.0030740  12.0000000  12.0000000  12.0000000  12.0000000
 NucSpn=           0           0           0           0           0           2           0           0           0           0
 AtZEff=  -0.0000000  -0.0000000  -0.0000000  -0.0000000  -0.0000000  -0.0000000  -0.0000000  -0.0000000  -0.0000000  -0.0000000
 NQMom=    0.0000000   0.0000000   0.0000000   0.0000000   0.0000000   2.0440000   0.0000000   0.0000000   0.0000000   0.0000000
 NMagM=    0.0000000   0.0000000   0.0000000   0.0000000   0.0000000   0.4037610   0.0000000   0.0000000   0.0000000   0.0000000
 AtZNuc=  12.0000000   6.0000000   6.0000000   6.0000000   6.0000000   7.0000000   6.0000000   6.0000000   6.0000000   6.0000000

  Atom        11          12          13          14          15          16          17          18          19          20
 IAtWgt=          12          12          12          12          16          16          14          12          12          12
 AtmWgt=  12.0000000  12.0000000  12.0000000  12.0000000  15.9949146  15.9949146  14.0030740  12.0000000  12.0000000  12.0000000
 NucSpn=           0           0           0           0           0           0           2           0           0           0
 AtZEff=  -0.0000000  -0.0000000  -0.0000000  -0.0000000  -0.0000000  -0.0000000  -0.0000000  -0.0000000  -0.0000000  -0.0000000
 NQMom=    0.0000000   0.0000000   0.0000000   0.0000000   0.0000000   0.0000000   2.0440000   0.0000000   0.0000000   0.0000000
 NMagM=    0.0000000   0.0000000   0.0000000   0.0000000   0.0000000   0.0000000   0.4037610   0.0000000   0.0000000   0.0000000
 AtZNuc=   6.0000000   6.0000000   6.0000000   6.0000000   8.0000000   8.0000000   7.0000000   6.0000000   6.0000000   6.0000000

  Atom        21          22          23          24          25          26          27          28          29          30
 IAtWgt=          12          12          12          16          12          14          12          12          12          12
 AtmWgt=  12.0000000  12.0000000  12.0000000  15.9949146  12.0000000  14.0030740  12.0000000  12.0000000  12.0000000  12.0000000
 NucSpn=           0           0           0           0           0           2           0           0           0           0
 AtZEff=  -0.0000000  -0.0000000  -0.0000000  -0.0000000  -0.0000000  -0.0000000  -0.0000000  -0.0000000  -0.0000000  -0.0000000
 NQMom=    0.0000000   0.0000000   0.0000000   0.0000000   0.0000000   2.0440000   0.0000000   0.0000000   0.0000000   0.0000000
 NMagM=    0.0000000   0.0000000   0.0000000   0.0000000   0.0000000   0.4037610   0.0000000   0.0000000   0.0000000   0.0000000
 AtZNuc=   6.0000000   6.0000000   6.0000000   8.0000000   6.0000000   7.0000000   6.0000000   6.0000000   6.0000000   6.0000000

  Atom        31          32          33          34          35          36          37          38          39          40
 IAtWgt=          12          12          12          14          12          12          12          12          12          12
 AtmWgt=  12.0000000  12.0000000  12.0000000  14.0030740  12.0000000  12.0000000  12.0000000  12.0000000  12.0000000  12.0000000
 NucSpn=           0           0           0           2           0           0           0           0           0           0
 AtZEff=  -0.0000000  -0.0000000  -0.0000000  -0.0000000  -0.0000000  -0.0000000  -0.0000000  -0.0000000  -0.0000000  -0.0000000
 NQMom=    0.0000000   0.0000000   0.0000000   2.0440000   0.0000000   0.0000000   0.0000000   0.0000000   0.0000000   0.0000000
 NMagM=    0.0000000   0.0000000   0.0000000   0.4037610   0.0000000   0.0000000   0.0000000   0.0000000   0.0000000   0.0000000
 AtZNuc=   6.0000000   6.0000000   6.0000000   7.0000000   6.0000000   6.0000000   6.0000000   6.0000000   6.0000000   6.0000000

  Atom        41          42          43          44          45          46          47          48          49          50
 IAtWgt=          16          12          12          16          16          12          12          12          12          12
 AtmWgt=  15.9949146  12.0000000  12.0000000  15.9949146  15.9949146  12.0000000  12.0000000  12.0000000  12.0000000  12.0000000
 NucSpn=           0           0           0           0           0           0           0           0           0           0
 AtZEff=  -0.0000000  -0.0000000  -0.0000000  -0.0000000  -0.0000000  -0.0000000  -0.0000000  -0.0000000  -0.0000000  -0.0000000
 NQMom=    0.0000000   0.0000000   0.0000000   0.0000000   0.0000000   0.0000000   0.0000000   0.0000000   0.0000000   0.0000000
 NMagM=    0.0000000   0.0000000   0.0000000   0.0000000   0.0000000   0.0000000   0.0000000   0.0000000   0.0000000   0.0000000
 AtZNuc=   8.0000000   6.0000000   6.0000000   8.0000000   8.0000000   6.0000000   6.0000000   6.0000000   6.0000000   6.0000000

  Atom        51          52          53          54          55          56          57          58          59          60
 IAtWgt=          12          12          12          12          12          12          12          12          12          12
 AtmWgt=  12.0000000  12.0000000  12.0000000  12.0000000  12.0000000  12.0000000  12.0000000  12.0000000  12.0000000  12.0000000
 NucSpn=           0           0           0           0           0           0           0           0           0           0
 AtZEff=  -0.0000000  -0.0000000  -0.0000000  -0.0000000  -0.0000000  -0.0000000  -0.0000000  -0.0000000  -0.0000000  -0.0000000
 NQMom=    0.0000000   0.0000000   0.0000000   0.0000000   0.0000000   0.0000000   0.0000000   0.0000000   0.0000000   0.0000000
 NMagM=    0.0000000   0.0000000   0.0000000   0.0000000   0.0000000   0.0000000   0.0000000   0.0000000   0.0000000   0.0000000
 AtZNuc=   6.0000000   6.0000000   6.0000000   6.0000000   6.0000000   6.0000000   6.0000000   6.0000000   6.0000000   6.0000000

  Atom        61          62          63          64          65          66          67          68          69          70
 IAtWgt=          12          12          12          12          12          12           1           1           1           1
 AtmWgt=  12.0000000  12.0000000  12.0000000  12.0000000  12.0000000  12.0000000   1.0078250   1.0078250   1.0078250   1.0078250
 NucSpn=           0           0           0           0           0           0           1           1           1           1
 AtZEff=  -0.0000000  -0.0000000  -0.0000000  -0.0000000  -0.0000000  -0.0000000  -0.0000000  -0.0000000  -0.0000000  -0.0000000
 NQMom=    0.0000000   0.0000000   0.0000000   0.0000000   0.0000000   0.0000000   0.0000000   0.0000000   0.0000000   0.0000000
 NMagM=    0.0000000   0.0000000   0.0000000   0.0000000   0.0000000   0.0000000   2.7928460   2.7928460   2.7928460   2.7928460
 AtZNuc=   6.0000000   6.0000000   6.0000000   6.0000000   6.0000000   6.0000000   1.0000000   1.0000000   1.0000000   1.0000000

  Atom        71          72          73          74          75          76          77          78          79          80
 IAtWgt=           1           1           1           1           1           1           1           1           1           1
 AtmWgt=   1.0078250   1.0078250   1.0078250   1.0078250   1.0078250   1.0078250   1.0078250   1.0078250   1.0078250   1.0078250
 NucSpn=           1           1           1           1           1           1           1           1           1           1
 AtZEff=  -0.0000000  -0.0000000  -0.0000000  -0.0000000  -0.0000000  -0.0000000  -0.0000000  -0.0000000  -0.0000000  -0.0000000
 NQMom=    0.0000000   0.0000000   0.0000000   0.0000000   0.0000000   0.0000000   0.0000000   0.0000000   0.0000000   0.0000000
 NMagM=    2.7928460   2.7928460   2.7928460   2.7928460   2.7928460   2.7928460   2.7928460   2.7928460   2.7928460   2.7928460
 AtZNuc=   1.0000000   1.0000000   1.0000000   1.0000000   1.0000000   1.0000000   1.0000000   1.0000000   1.0000000   1.0000000

  Atom        81          82          83          84          85          86          87          88          89          90
 IAtWgt=           1           1           1           1           1           1           1           1           1           1
 AtmWgt=   1.0078250   1.0078250   1.0078250   1.0078250   1.0078250   1.0078250   1.0078250   1.0078250   1.0078250   1.0078250
 NucSpn=           1           1           1           1           1           1           1           1           1           1
 AtZEff=  -0.0000000  -0.0000000  -0.0000000  -0.0000000  -0.0000000  -0.0000000  -0.0000000  -0.0000000  -0.0000000  -0.0000000
 NQMom=    0.0000000   0.0000000   0.0000000   0.0000000   0.0000000   0.0000000   0.0000000   0.0000000   0.0000000   0.0000000
 NMagM=    2.7928460   2.7928460   2.7928460   2.7928460   2.7928460   2.7928460   2.7928460   2.7928460   2.7928460   2.7928460
 AtZNuc=   1.0000000   1.0000000   1.0000000   1.0000000   1.0000000   1.0000000   1.0000000   1.0000000   1.0000000   1.0000000

  Atom        91          92          93          94          95          96          97          98          99         100
 IAtWgt=           1           1           1           1           1           1           1           1           1           1
 AtmWgt=   1.0078250   1.0078250   1.0078250   1.0078250   1.0078250   1.0078250   1.0078250   1.0078250   1.0078250   1.0078250
 NucSpn=           1           1           1           1           1           1           1           1           1           1
 AtZEff=  -0.0000000  -0.0000000  -0.0000000  -0.0000000  -0.0000000  -0.0000000  -0.0000000  -0.0000000  -0.0000000  -0.0000000
 NQMom=    0.0000000   0.0000000   0.0000000   0.0000000   0.0000000   0.0000000   0.0000000   0.0000000   0.0000000   0.0000000
 NMagM=    2.7928460   2.7928460   2.7928460   2.7928460   2.7928460   2.7928460   2.7928460   2.7928460   2.7928460   2.7928460
 AtZNuc=   1.0000000   1.0000000   1.0000000   1.0000000   1.0000000   1.0000000   1.0000000   1.0000000   1.0000000   1.0000000

  Atom       101         102         103         104         105         106         107         108         109         110
 IAtWgt=           1           1           1           1           1           1           1           1           1           1
 AtmWgt=   1.0078250   1.0078250   1.0078250   1.0078250   1.0078250   1.0078250   1.0078250   1.0078250   1.0078250   1.0078250
 NucSpn=           1           1           1           1           1           1           1           1           1           1
 AtZEff=  -0.0000000  -0.0000000  -0.0000000  -0.0000000  -0.0000000  -0.0000000  -0.0000000  -0.0000000  -0.0000000  -0.0000000
 NQMom=    0.0000000   0.0000000   0.0000000   0.0000000   0.0000000   0.0000000   0.0000000   0.0000000   0.0000000   0.0000000
 NMagM=    2.7928460   2.7928460   2.7928460   2.7928460   2.7928460   2.7928460   2.7928460   2.7928460   2.7928460   2.7928460
 AtZNuc=   1.0000000   1.0000000   1.0000000   1.0000000   1.0000000   1.0000000   1.0000000   1.0000000   1.0000000   1.0000000

  Atom       111         112         113         114         115         116         117         118         119         120
 IAtWgt=           1           1           1           1           1           1           1           1           1           1
 AtmWgt=   1.0078250   1.0078250   1.0078250   1.0078250   1.0078250   1.0078250   1.0078250   1.0078250   1.0078250   1.0078250
 NucSpn=           1           1           1           1           1           1           1           1           1           1
 AtZEff=  -0.0000000  -0.0000000  -0.0000000  -0.0000000  -0.0000000  -0.0000000  -0.0000000  -0.0000000  -0.0000000  -0.0000000
 NQMom=    0.0000000   0.0000000   0.0000000   0.0000000   0.0000000   0.0000000   0.0000000   0.0000000   0.0000000   0.0000000
 NMagM=    2.7928460   2.7928460   2.7928460   2.7928460   2.7928460   2.7928460   2.7928460   2.7928460   2.7928460   2.7928460
 AtZNuc=   1.0000000   1.0000000   1.0000000   1.0000000   1.0000000   1.0000000   1.0000000   1.0000000   1.0000000   1.0000000

  Atom       121         122         123         124         125         126         127         128         129         130
 IAtWgt=           1           1           1           1           1           1           1           1           1           1
 AtmWgt=   1.0078250   1.0078250   1.0078250   1.0078250   1.0078250   1.0078250   1.0078250   1.0078250   1.0078250   1.0078250
 NucSpn=           1           1           1           1           1           1           1           1           1           1
 AtZEff=  -0.0000000  -0.0000000  -0.0000000  -0.0000000  -0.0000000  -0.0000000  -0.0000000  -0.0000000  -0.0000000  -0.0000000
 NQMom=    0.0000000   0.0000000   0.0000000   0.0000000   0.0000000   0.0000000   0.0000000   0.0000000   0.0000000   0.0000000
 NMagM=    2.7928460   2.7928460   2.7928460   2.7928460   2.7928460   2.7928460   2.7928460   2.7928460   2.7928460   2.7928460
 AtZNuc=   1.0000000   1.0000000   1.0000000   1.0000000   1.0000000   1.0000000   1.0000000   1.0000000   1.0000000   1.0000000

  Atom       131         132         133         134         135         136         137         138         139         140
 IAtWgt=           1           1           1           1           1           1           1           1           1           1
 AtmWgt=   1.0078250   1.0078250   1.0078250   1.0078250   1.0078250   1.0078250   1.0078250   1.0078250   1.0078250   1.0078250
 NucSpn=           1           1           1           1           1           1           1           1           1           1
 AtZEff=  -0.0000000  -0.0000000  -0.0000000  -0.0000000  -0.0000000  -0.0000000  -0.0000000  -0.0000000  -0.0000000  -0.0000000
 NQMom=    0.0000000   0.0000000   0.0000000   0.0000000   0.0000000   0.0000000   0.0000000   0.0000000   0.0000000   0.0000000
 NMagM=    2.7928460   2.7928460   2.7928460   2.7928460   2.7928460   2.7928460   2.7928460   2.7928460   2.7928460   2.7928460
 AtZNuc=   1.0000000   1.0000000   1.0000000   1.0000000   1.0000000   1.0000000   1.0000000   1.0000000   1.0000000   1.0000000
 Leave Link  101 at Sat Apr 30 18:01:35 2022, MaxMem= 10066329600 cpu:               3.5 elap:               0.2
 (Enter /sw/apps/gaussian-16.0/g16/l202.exe)
 Stoichiometry    C55H74MgN4O6
 Framework group  C1[X(C55H74MgN4O6)]
 Deg. of freedom   414
 Full point group                 C1      NOp   1
 Largest Abelian subgroup         C1      NOp   1
 Largest concise Abelian subgroup C1      NOp   1
                         Standard orientation:                         
 ---------------------------------------------------------------------
 Center     Atomic      Atomic             Coordinates (Angstroms)
 Number     Number       Type             X           Y           Z
 ---------------------------------------------------------------------
      1         12           0        5.227409    1.140009    0.229721
      2          6           0        4.629862   -2.280778    0.314585
      3          6           0        1.717898    1.593333   -0.088935
      4          6           0        5.700115    4.459108   -0.291536
      5          6           0        8.624791    0.594128    0.111852
      6          7           0        3.426480   -0.153550    0.102414
      7          6           0        3.450823   -1.536029    0.339849
      8          6           0        2.045993   -2.092770    0.454363
      9          6           0        1.161852   -0.877685    0.095190
     10          6           0        2.150249    0.282573    0.041323
     11          6           0        0.191855   -0.953302   -1.065808
     12          6           0        1.761851   -2.819232    1.826756
     13          6           0        0.759895   -4.008129    1.828682
     14          6           0        0.071510   -4.450323    0.472853
     15          8           0        0.619236   -5.171100   -0.311562
     16          8           0       -1.163305   -3.875143    0.465706
     17          7           0        3.953276    2.779696   -0.246071
     18          6           0        2.555226    2.776709   -0.290713
     19          6           0        2.037870    4.140914   -0.289883
     20          6           0        3.203419    4.950701   -0.402004
     21          6           0        4.381350    4.040283   -0.295706
     22          6           0        0.576342    4.445713   -0.273015
     23          6           0        3.252384    6.552218   -0.405717
     24          8           0        4.279209    7.156047   -0.389187
     25          6           0        1.929606    7.340662   -0.383754
     26          7           0        6.965986    2.426825    0.173082
     27          6           0        6.887777    3.737400   -0.203130
     28          6           0        8.308472    4.335049   -0.467864
     29          6           0        9.231579    3.170128    0.007921
     30          6           0        8.255022    1.977945    0.191159
     31          6           0        8.675359    4.737218   -1.922799
     32          6           0        9.956138    3.192334    1.358909
     33          6           0        9.254641    3.820044    2.578430
     34          7           0        6.421698   -0.484046    0.126557
     35          6           0        7.796399   -0.559608    0.004304
     36          6           0        8.072983   -2.012017   -0.021330
     37          6           0        6.911902   -2.755499    0.129902
     38          6           0        5.917605   -1.732953    0.208077
     39          6           0        9.473837   -2.581144   -0.240640
     40          6           0        6.366732   -4.011420    0.186815
     41          8           0        6.892736   -5.106650    0.092891
     42          6           0        4.815927   -3.804478    0.458294
     43          6           0        4.163431   -4.571998   -0.579075
     44          8           0        3.979847   -4.239428   -1.712962
     45          8           0        3.937816   -5.807615   -0.052701
     46          6           0        3.550377   -6.820732   -1.056824
     47          6           0       -1.908449   -4.243358   -0.747139
     48          6           0       -2.917349   -3.063187   -0.976292
     49          6           0       -4.193522   -3.155115   -1.480395
     50          6           0       -4.737650   -4.440005   -2.115475
     51          6           0       -5.103496   -1.884538   -1.526949
     52          6           0       -6.117706   -1.901062   -0.379408
     53          6           0       -6.138707   -0.700095    0.537734
     54          6           0       -7.489710   -0.660806    1.244553
     55          6           0       -7.341478   -0.507286    2.769803
     56          6           0       -8.463672    0.444358    0.760239
     57          6           0       -9.788335   -0.017850    0.156369
     58          6           0      -10.879993   -0.463027    1.173174
     59          6           0      -12.175341    0.427951    1.080462
     60          6           0      -12.899799    0.418807    2.425473
     61          6           0      -13.216713    0.054053    0.020080
     62          6           0      -13.572159    1.354667   -0.867930
     63          6           0      -15.137881    1.461811   -1.103085
     64          6           0      -15.498874    2.788627   -0.491907
     65          6           0      -17.025527    2.853607   -0.031559
     66          6           0      -15.264389    3.976956   -1.526271
     67          1           0        0.644413    1.790513   -0.044289
     68          1           0        5.851941    5.503104   -0.572380
     69          1           0        9.676987    0.375490   -0.081320
     70          1           0        1.935308   -2.814506   -0.354528
     71          1           0        0.439461   -0.720575    0.895664
     72          1           0        0.469243   -0.286749   -1.883517
     73          1           0       -0.842307   -0.678544   -0.860175
     74          1           0        0.156805   -1.924327   -1.559773
     75          1           0        1.148714   -2.163783    2.444154
     76          1           0        2.661723   -3.115401    2.366338
     77          1           0        0.065041   -3.963193    2.666527
     78          1           0        1.532855   -4.769251    1.932115
     79          1           0       -0.010731    3.619930   -0.675050
     80          1           0        0.387971    5.202140   -1.035410
     81          1           0        0.271960    4.819273    0.705107
     82          1           0        2.180488    8.400688   -0.325858
     83          1           0        1.254211    7.023714    0.411258
     84          1           0        1.469424    7.055093   -1.328792
     85          1           0        8.328224    5.216559    0.171958
     86          1           0        9.803117    2.882235   -0.874974
     87          1           0        8.832873    5.801642   -2.098837
     88          1           0        7.882169    4.470059   -2.621391
     89          1           0        9.669115    4.389026   -2.205328
     90          1           0       10.925709    3.681054    1.263042
     91          1           0       10.166888    2.165164    1.655753
     92          1           0        9.349684    3.192612    3.463907
     93          1           0        8.198883    4.066710    2.465310
     94          1           0        9.784116    4.749422    2.787693
     95          1           0        9.383474   -3.667631   -0.229490
     96          1           0       10.119476   -2.277137    0.583617
     97          1           0        9.992177   -2.370331   -1.177329
     98          1           0        4.619406   -4.123379    1.481948
     99          1           0        4.460670   -6.940372   -1.645461
    100          1           0        2.757915   -6.547813   -1.753630
    101          1           0        3.287269   -7.812232   -0.688374
    102          1           0       -2.391346   -5.212042   -0.620639
    103          1           0       -1.196002   -4.354651   -1.563579
    104          1           0       -2.628694   -2.169737   -0.422834
    105          1           0       -5.583219   -4.763668   -1.508198
    106          1           0       -3.948496   -5.186762   -2.201368
    107          1           0       -5.070053   -4.205339   -3.126655
    108          1           0       -5.664423   -2.024814   -2.451215
    109          1           0       -4.464691   -1.001271   -1.515403
    110          1           0       -5.905252   -2.803172    0.193885
    111          1           0       -7.095745   -1.938766   -0.858660
    112          1           0       -5.933200    0.233333    0.013902
    113          1           0       -5.231076   -0.781823    1.134176
    114          1           0       -8.016525   -1.601627    1.090922
    115          1           0       -8.264325   -0.218725    3.272527
    116          1           0       -6.580407    0.249247    2.957947
    117          1           0       -6.995231   -1.446594    3.201444
    118          1           0       -7.982076    1.018826   -0.031837
    119          1           0       -8.587143    1.182066    1.553736
    120          1           0       -9.585777   -0.884981   -0.471728
    121          1           0      -10.216550    0.726551   -0.514706
    122          1           0      -10.490921   -0.620930    2.179064
    123          1           0      -11.244450   -1.469198    0.962136
    124          1           0      -11.776612    1.438271    0.992579
    125          1           0      -13.939999    0.744667    2.432335
    126          1           0      -12.329288    1.187573    2.947843
    127          1           0      -12.788221   -0.497845    3.004643
    128          1           0      -14.128218   -0.331002    0.477406
    129          1           0      -12.894348   -0.745434   -0.648113
    130          1           0      -13.195475    1.261110   -1.886642
    131          1           0      -13.139806    2.258915   -0.439932
    132          1           0      -15.557098    0.590277   -0.600738
    133          1           0      -15.249829    1.329868   -2.178717
    134          1           0      -14.902010    3.040062    0.384985
    135          1           0      -17.152775    3.377879    0.915799
    136          1           0      -17.458426    1.863046    0.109314
    137          1           0      -17.727746    3.300543   -0.735531
    138          1           0      -14.660591    3.577222   -2.340962
    139          1           0      -14.949046    4.934955   -1.112036
    140          1           0      -16.216822    4.266074   -1.971679
 ---------------------------------------------------------------------
 Rotational constants (GHZ):           0.0428015           0.0098820           0.0082799
 Leave Link  202 at Sat Apr 30 18:01:35 2022, MaxMem= 10066329600 cpu:               0.2 elap:               0.0
 (Enter /sw/apps/gaussian-16.0/g16/l301.exe)
 Standard basis: def2SVP (5D, 7F)
 Ernie: Thresh=  0.10000D-02 Tol=  0.10000D-05 Strict=F.
 There are  1364 symmetry adapted cartesian basis functions of A   symmetry.
 There are  1298 symmetry adapted basis functions of A   symmetry.
  1298 basis functions,  2180 primitive gaussians,  1364 cartesian basis functions
   246 alpha electrons      246 beta electrons
       nuclear repulsion energy      9569.2310141222 Hartrees.
 IExCor= 1009 DFT=T Ex+Corr=PBE1PBE ExCW=0 ScaHFX=  0.250000
 ScaDFX=  0.750000  0.750000  1.000000  1.000000 ScalE2=  1.000000  1.000000
 IRadAn=      5 IRanWt=     -1 IRanGd=            0 ICorTp=0 IEmpDi=  4
 NAtoms=  140 NActive=  140 NUniq=  140 SFac= 1.00D+00 NAtFMM=   60 NAOKFM=T Big=T
 Integral buffers will be    131072 words long.
 Regular integral format.
 Two-electron integral symmetry is turned on.
 Leave Link  301 at Sat Apr 30 18:01:35 2022, MaxMem= 10066329600 cpu:               1.4 elap:               0.1
 (Enter /sw/apps/gaussian-16.0/g16/l302.exe)
 NPDir=0 NMtPBC=     1 NCelOv=     1 NCel=       1 NClECP=     1 NCelD=      1
         NCelK=      1 NCelE2=     1 NClLst=     1 CellRange=     0.0.
 One-electron integrals computed using PRISM.
 One-electron integral symmetry used in STVInt
   1 Symmetry operations used in ECPInt.
 ECPInt:  NShTT=  192510 NPrTT=  683786 LenC2=   94197 LenP2D=  207291.
 LDataN:  DoStor=T MaxTD1= 4 Len=   56
 NBasis=  1298 RedAO= T EigKep=  2.43D-04  NBF=  1298
 NBsUse=  1298 1.00D-06 EigRej= -1.00D+00 NBFU=  1298
 Precomputing XC quadrature grid using
 IXCGrd= 4 IRadAn=           5 IRanWt=          -1 IRanGd=           0 AccXCQ= 0.00D+00.
 Generated NRdTot=       0 NPtTot=           0 NUsed=           0 NTot=          32
 NSgBfM=  1104  1104  1104  1104  1104 MxSgAt=   140 MxSgA2=   139.
 Leave Link  302 at Sat Apr 30 18:01:38 2022, MaxMem= 10066329600 cpu:              75.3 elap:               3.2
 (Enter /sw/apps/gaussian-16.0/g16/l303.exe)
 DipDrv:  MaxL=1.
 Leave Link  303 at Sat Apr 30 18:01:39 2022, MaxMem= 10066329600 cpu:               6.3 elap:               0.3
 (Enter /sw/apps/gaussian-16.0/g16/l308.exe)
 Leave Link  308 at Sat Apr 30 18:01:39 2022, MaxMem= 10066329600 cpu:              11.2 elap:               0.5
 (Enter /sw/apps/gaussian-16.0/g16/l401.exe)
 ExpMin= 3.36D-02 ExpMax= 4.95D+03 ExpMxC= 7.45D+02 IAcc=3 IRadAn=         5 AccDes= 0.00D+00
 Harris functional with IExCor= 1009 and IRadAn=       5 diagonalized for initial guess.
 HarFok:  IExCor= 1009 AccDes= 0.00D+00 IRadAn=         5 IDoV= 1 UseB2=F ITyADJ=14
 ICtDFT=  3500011 ScaDFX=  1.000000  1.000000  1.000000  1.000000
 FoFCou: FMM=F IPFlag=           0 FMFlag=      100000 FMFlg1=        2001
         NFxFlg=           0 DoJE=T BraDBF=F KetDBF=T FulRan=T
         wScrn=  0.000000 ICntrl=       500 IOpCl=  0 I1Cent=   200000004 NGrid=           0
         NMat0=    1 NMatS0=      1 NMatT0=    0 NMatD0=    1 NMtDS0=    0 NMtDT0=    0
 Petite list used in FoFCou.
 Harris En= -3006.14446593091    
 JPrj=0 DoOrth=F DoCkMO=F.
 Leave Link  401 at Sat Apr 30 18:01:45 2022, MaxMem= 10066329600 cpu:             132.4 elap:               5.5
 (Enter /sw/apps/gaussian-16.0/g16/l502.exe)
 Integral symmetry usage will be decided dynamically.
 Closed shell SCF:
 Using DIIS extrapolation, IDIIS=  1040.
 NGot= 10066329600 LenX= 10062561258 LenY= 10060699398
 Requested convergence on RMS density matrix=1.00D-08 within 128 cycles.
 Requested convergence on MAX density matrix=1.00D-06.
 Requested convergence on             energy=1.00D-06.
 No special actions if energy rises.
 Fock matrices will be formed incrementally for  20 cycles.

 Cycle   1  Pass 1  IDiag  1:
 FoFJK:  IHMeth= 1 ICntrl=       0 DoSepK=F KAlg= 0 I1Cent=           0 FoldK=F
 IRaf= 520000000 NMat=       1 IRICut=       1 DoRegI=T DoRafI=F ISym2E= 0 IDoP0=0 IntGTp=1.
 FoFCou: FMM=T IPFlag=           0 FMFlag=      100000 FMFlg1=        2001
         NFxFlg=           0 DoJE=F BraDBF=F KetDBF=F FulRan=T
         wScrn=  0.000000 ICntrl=         0 IOpCl=  0 I1Cent=           0 NGrid=           0
         NMat0=    1 NMatS0=      1 NMatT0=    0 NMatD0=    1 NMtDS0=    0 NMtDT0=    0
 Symmetry not used in FoFCou.
 FMM levels:  10  Number of levels for PrismC:   9
 E= -3003.85368995228    
 DIIS: error= 1.94D-02 at cycle   1 NSaved=   1.
 NSaved= 1 IEnMin= 1 EnMin= -3003.85368995228     IErMin= 1 ErrMin= 1.94D-02
 ErrMax= 1.94D-02  0.00D+00 EMaxC= 1.00D-01 BMatC= 1.43D+00 BMatP= 1.43D+00
 IDIUse=3 WtCom= 8.06D-01 WtEn= 1.94D-01
 Coeff-Com:  0.100D+01
 Coeff-En:   0.100D+01
 Coeff:      0.100D+01
 Gap=     0.087 Goal=   None    Shift=    0.000
 GapD=    0.087 DampG=0.500 DampE=0.500 DampFc=0.2500 IDamp=-1.
 Damping current iteration by 2.50D-01
 RMSDP=2.68D-03 MaxDP=6.93D-01              OVMax= 2.15D-01

 Cycle   2  Pass 1  IDiag  1:
 RMSU=  6.63D-04    CP:  9.90D-01
 E= -3004.39410556758     Delta-E=       -0.540415615309 Rises=F Damp=T
 DIIS: error= 9.20D-03 at cycle   2 NSaved=   2.
 NSaved= 2 IEnMin= 2 EnMin= -3004.39410556758     IErMin= 2 ErrMin= 9.20D-03
 ErrMax= 9.20D-03  0.00D+00 EMaxC= 1.00D-01 BMatC= 3.64D-01 BMatP= 1.43D+00
 IDIUse=3 WtCom= 9.08D-01 WtEn= 9.20D-02
 Coeff-Com: -0.820D+00 0.182D+01
 Coeff-En:   0.000D+00 0.100D+01
 Coeff:     -0.745D+00 0.174D+01
 Gap=     0.186 Goal=   None    Shift=    0.000
 RMSDP=9.51D-04 MaxDP=6.87D-02 DE=-5.40D-01 OVMax= 1.53D-01

 Cycle   3  Pass 1  IDiag  1:
 RMSU=  7.60D-04    CP:  9.65D-01  1.79D+00
 E= -3005.25820216156     Delta-E=       -0.864096593978 Rises=F Damp=F
 DIIS: error= 1.02D-02 at cycle   3 NSaved=   3.
 NSaved= 3 IEnMin= 3 EnMin= -3005.25820216156     IErMin= 2 ErrMin= 9.20D-03
 ErrMax= 1.02D-02  0.00D+00 EMaxC= 1.00D-01 BMatC= 1.15D-01 BMatP= 3.64D-01
 IDIUse=3 WtCom= 8.98D-01 WtEn= 1.02D-01
 Coeff-Com: -0.481D+00 0.101D+01 0.475D+00
 Coeff-En:   0.000D+00 0.000D+00 0.100D+01
 Coeff:     -0.432D+00 0.903D+00 0.529D+00
 Gap=     0.076 Goal=   None    Shift=    0.000
 RMSDP=4.58D-04 MaxDP=1.03D-01 DE=-8.64D-01 OVMax= 8.21D-02

 Cycle   4  Pass 1  IDiag  1:
 RMSU=  3.28D-04    CP:  9.70D-01  1.99D+00  6.22D-01
 E= -3005.33425937519     Delta-E=       -0.076057213631 Rises=F Damp=F
 DIIS: error= 4.96D-03 at cycle   4 NSaved=   4.
 NSaved= 4 IEnMin= 4 EnMin= -3005.33425937519     IErMin= 4 ErrMin= 4.96D-03
 ErrMax= 4.96D-03  0.00D+00 EMaxC= 1.00D-01 BMatC= 2.81D-02 BMatP= 1.15D-01
 IDIUse=3 WtCom= 9.50D-01 WtEn= 4.96D-02
 Coeff-Com: -0.837D-01 0.177D+00 0.332D+00 0.574D+00
 Coeff-En:   0.000D+00 0.000D+00 0.228D+00 0.772D+00
 Coeff:     -0.795D-01 0.169D+00 0.327D+00 0.584D+00
 Gap=     0.076 Goal=   None    Shift=    0.000
 RMSDP=1.98D-04 MaxDP=5.13D-02 DE=-7.61D-02 OVMax= 5.48D-02

 Cycle   5  Pass 1  IDiag  1:
 RMSU=  9.33D-05    CP:  9.69D-01  1.89D+00  7.38D-01  5.91D-01
 E= -3005.35577847476     Delta-E=       -0.021519099562 Rises=F Damp=F
 DIIS: error= 1.53D-03 at cycle   5 NSaved=   5.
 NSaved= 5 IEnMin= 5 EnMin= -3005.35577847476     IErMin= 5 ErrMin= 1.53D-03
 ErrMax= 1.53D-03  0.00D+00 EMaxC= 1.00D-01 BMatC= 2.09D-03 BMatP= 2.81D-02
 IDIUse=3 WtCom= 9.85D-01 WtEn= 1.53D-02
 Coeff-Com: -0.199D-01 0.437D-01 0.166D+00 0.352D+00 0.458D+00
 Coeff-En:   0.000D+00 0.000D+00 0.000D+00 0.301D-01 0.970D+00
 Coeff:     -0.196D-01 0.431D-01 0.164D+00 0.347D+00 0.466D+00
 Gap=     0.076 Goal=   None    Shift=    0.000
 RMSDP=8.02D-05 MaxDP=7.45D-03 DE=-2.15D-02 OVMax= 4.35D-02

 Cycle   6  Pass 1  IDiag  1:
 RMSU=  4.83D-05    CP:  9.69D-01  1.90D+00  7.33D-01  6.54D-01  3.56D-01
 E= -3005.35742373867     Delta-E=       -0.001645263910 Rises=F Damp=F
 DIIS: error= 1.08D-03 at cycle   6 NSaved=   6.
 NSaved= 6 IEnMin= 6 EnMin= -3005.35742373867     IErMin= 6 ErrMin= 1.08D-03
 ErrMax= 1.08D-03  0.00D+00 EMaxC= 1.00D-01 BMatC= 6.55D-04 BMatP= 2.09D-03
 IDIUse=3 WtCom= 9.89D-01 WtEn= 1.08D-02
 Coeff-Com: -0.715D-03 0.278D-02 0.692D-01 0.166D+00 0.358D+00 0.405D+00
 Coeff-En:   0.000D+00 0.000D+00 0.000D+00 0.000D+00 0.307D+00 0.693D+00
 Coeff:     -0.707D-03 0.275D-02 0.684D-01 0.164D+00 0.357D+00 0.408D+00
 Gap=     0.076 Goal=   None    Shift=    0.000
 RMSDP=3.91D-05 MaxDP=3.19D-03 DE=-1.65D-03 OVMax= 2.32D-02

 Cycle   7  Pass 1  IDiag  1:
 RMSU=  1.56D-05    CP:  9.69D-01  1.90D+00  7.38D-01  6.40D-01  5.63D-01
                    CP:  3.88D-01
 E= -3005.35827248802     Delta-E=       -0.000848749356 Rises=F Damp=F
 DIIS: error= 2.02D-04 at cycle   7 NSaved=   7.
 NSaved= 7 IEnMin= 7 EnMin= -3005.35827248802     IErMin= 7 ErrMin= 2.02D-04
 ErrMax= 2.02D-04  0.00D+00 EMaxC= 1.00D-01 BMatC= 5.56D-05 BMatP= 6.55D-04
 IDIUse=3 WtCom= 9.98D-01 WtEn= 2.02D-03
 Coeff-Com:  0.206D-02-0.381D-02 0.233D-01 0.613D-01 0.178D+00 0.274D+00
 Coeff-Com:  0.466D+00
 Coeff-En:   0.000D+00 0.000D+00 0.000D+00 0.000D+00 0.000D+00 0.672D-01
 Coeff-En:   0.933D+00
 Coeff:      0.206D-02-0.380D-02 0.233D-01 0.612D-01 0.177D+00 0.273D+00
 Coeff:      0.466D+00
 Gap=     0.076 Goal=   None    Shift=    0.000
 RMSDP=1.20D-05 MaxDP=1.17D-03 DE=-8.49D-04 OVMax= 8.59D-03

 Cycle   8  Pass 1  IDiag  1:
 RMSU=  6.96D-06    CP:  9.69D-01  1.90D+00  7.38D-01  6.43D-01  5.40D-01
                    CP:  5.03D-01  5.07D-01
 E= -3005.35832881930     Delta-E=       -0.000056331279 Rises=F Damp=F
 DIIS: error= 1.10D-04 at cycle   8 NSaved=   8.
 NSaved= 8 IEnMin= 8 EnMin= -3005.35832881930     IErMin= 8 ErrMin= 1.10D-04
 ErrMax= 1.10D-04  0.00D+00 EMaxC= 1.00D-01 BMatC= 9.95D-06 BMatP= 5.56D-05
 IDIUse=3 WtCom= 9.99D-01 WtEn= 1.10D-03
 Coeff-Com:  0.151D-02-0.296D-02 0.881D-02 0.245D-01 0.867D-01 0.149D+00
 Coeff-Com:  0.337D+00 0.396D+00
 Coeff-En:   0.000D+00 0.000D+00 0.000D+00 0.000D+00 0.000D+00 0.000D+00
 Coeff-En:   0.177D+00 0.823D+00
 Coeff:      0.151D-02-0.296D-02 0.880D-02 0.244D-01 0.866D-01 0.149D+00
 Coeff:      0.337D+00 0.396D+00
 Gap=     0.076 Goal=   None    Shift=    0.000
 RMSDP=5.25D-06 MaxDP=4.37D-04 DE=-5.63D-05 OVMax= 3.51D-03

 Cycle   9  Pass 1  IDiag  1:
 RMSU=  2.36D-06    CP:  9.69D-01  1.90D+00  7.38D-01  6.44D-01  5.43D-01
                    CP:  4.88D-01  6.05D-01  3.76D-01
 E= -3005.35834047735     Delta-E=       -0.000011658054 Rises=F Damp=F
 DIIS: error= 3.78D-05 at cycle   9 NSaved=   9.
 NSaved= 9 IEnMin= 9 EnMin= -3005.35834047735     IErMin= 9 ErrMin= 3.78D-05
 ErrMax= 3.78D-05  0.00D+00 EMaxC= 1.00D-01 BMatC= 1.22D-06 BMatP= 9.95D-06
 IDIUse=1 WtCom= 1.00D+00 WtEn= 0.00D+00
 Coeff-Com:  0.672D-03-0.133D-02 0.220D-02 0.628D-02 0.305D-01 0.563D-01
 Coeff-Com:  0.159D+00 0.275D+00 0.472D+00
 Coeff:      0.672D-03-0.133D-02 0.220D-02 0.628D-02 0.305D-01 0.563D-01
 Coeff:      0.159D+00 0.275D+00 0.472D+00
 Gap=     0.076 Goal=   None    Shift=    0.000
 RMSDP=1.85D-06 MaxDP=2.60D-04 DE=-1.17D-05 OVMax= 1.20D-03

 Cycle  10  Pass 1  IDiag  1:
 RMSU=  9.78D-07    CP:  9.69D-01  1.90D+00  7.39D-01  6.44D-01  5.47D-01
                    CP:  4.93D-01  5.86D-01  5.33D-01  6.04D-01
 E= -3005.35834187213     Delta-E=       -0.000001394776 Rises=F Damp=F
 DIIS: error= 1.20D-05 at cycle  10 NSaved=  10.
 NSaved=10 IEnMin=10 EnMin= -3005.35834187213     IErMin=10 ErrMin= 1.20D-05
 ErrMax= 1.20D-05  0.00D+00 EMaxC= 1.00D-01 BMatC= 1.77D-07 BMatP= 1.22D-06
 IDIUse=1 WtCom= 1.00D+00 WtEn= 0.00D+00
 Coeff-Com:  0.142D-03-0.282D-03-0.208D-03-0.732D-03 0.338D-02 0.705D-02
 Coeff-Com:  0.394D-01 0.957D-01 0.309D+00 0.547D+00
 Coeff:      0.142D-03-0.282D-03-0.208D-03-0.732D-03 0.338D-02 0.705D-02
 Coeff:      0.394D-01 0.957D-01 0.309D+00 0.547D+00
 Gap=     0.076 Goal=   None    Shift=    0.000
 RMSDP=5.72D-07 MaxDP=4.80D-05 DE=-1.39D-06 OVMax= 2.67D-04

 Cycle  11  Pass 1  IDiag  1:
 RMSU=  3.52D-07    CP:  9.69D-01  1.90D+00  7.39D-01  6.44D-01  5.47D-01
                    CP:  4.94D-01  5.97D-01  5.18D-01  7.16D-01  6.89D-01
 E= -3005.35834205985     Delta-E=       -0.000000187720 Rises=F Damp=F
 DIIS: error= 3.27D-06 at cycle  11 NSaved=  11.
 NSaved=11 IEnMin=11 EnMin= -3005.35834205985     IErMin=11 ErrMin= 3.27D-06
 ErrMax= 3.27D-06  0.00D+00 EMaxC= 1.00D-01 BMatC= 2.74D-08 BMatP= 1.77D-07
 IDIUse=1 WtCom= 1.00D+00 WtEn= 0.00D+00
 Coeff-Com:  0.245D-05-0.972D-06-0.459D-03-0.146D-02-0.227D-02-0.425D-02
 Coeff-Com:  0.278D-02 0.189D-01 0.132D+00 0.345D+00 0.510D+00
 Coeff:      0.245D-05-0.972D-06-0.459D-03-0.146D-02-0.227D-02-0.425D-02
 Coeff:      0.278D-02 0.189D-01 0.132D+00 0.345D+00 0.510D+00
 Gap=     0.076 Goal=   None    Shift=    0.000
 RMSDP=2.12D-07 MaxDP=1.90D-05 DE=-1.88D-07 OVMax= 9.56D-05

 Cycle  12  Pass 1  IDiag  1:
 RMSU=  1.29D-07    CP:  9.69D-01  1.90D+00  7.39D-01  6.44D-01  5.47D-01
                    CP:  4.94D-01  5.99D-01  5.27D-01  7.22D-01  7.93D-01
                    CP:  7.32D-01
 E= -3005.35834208696     Delta-E=       -0.000000027107 Rises=F Damp=F
 DIIS: error= 1.14D-06 at cycle  12 NSaved=  12.
 NSaved=12 IEnMin=12 EnMin= -3005.35834208696     IErMin=12 ErrMin= 1.14D-06
 ErrMax= 1.14D-06  0.00D+00 EMaxC= 1.00D-01 BMatC= 2.82D-09 BMatP= 2.74D-08
 IDIUse=1 WtCom= 1.00D+00 WtEn= 0.00D+00
 Coeff-Com: -0.887D-05 0.232D-04-0.191D-03-0.636D-03-0.139D-02-0.311D-02
 Coeff-Com: -0.220D-02-0.306D-02 0.329D-01 0.105D+00 0.270D+00 0.602D+00
 Coeff:     -0.887D-05 0.232D-04-0.191D-03-0.636D-03-0.139D-02-0.311D-02
 Coeff:     -0.220D-02-0.306D-02 0.329D-01 0.105D+00 0.270D+00 0.602D+00
 Gap=     0.076 Goal=   None    Shift=    0.000
 RMSDP=7.98D-08 MaxDP=1.42D-05 DE=-2.71D-08 OVMax= 3.29D-05

 Cycle  13  Pass 1  IDiag  1:
 RMSU=  5.85D-08    CP:  9.69D-01  1.90D+00  7.39D-01  6.44D-01  5.47D-01
                    CP:  4.94D-01  5.99D-01  5.28D-01  7.35D-01  8.02D-01
                    CP:  8.22D-01  8.50D-01
 E= -3005.35834208982     Delta-E=       -0.000000002865 Rises=F Damp=F
 DIIS: error= 4.80D-07 at cycle  13 NSaved=  13.
 NSaved=13 IEnMin=13 EnMin= -3005.35834208982     IErMin=13 ErrMin= 4.80D-07
 ErrMax= 4.80D-07  0.00D+00 EMaxC= 1.00D-01 BMatC= 6.50D-10 BMatP= 2.82D-09
 IDIUse=1 WtCom= 1.00D+00 WtEn= 0.00D+00
 Coeff-Com: -0.457D-05 0.127D-04-0.396D-04-0.147D-03-0.459D-03-0.136D-02
 Coeff-Com: -0.165D-02-0.623D-02-0.264D-02-0.475D-03 0.747D-01 0.354D+00
 Coeff-Com:  0.584D+00
 Coeff:     -0.457D-05 0.127D-04-0.396D-04-0.147D-03-0.459D-03-0.136D-02
 Coeff:     -0.165D-02-0.623D-02-0.264D-02-0.475D-03 0.747D-01 0.354D+00
 Coeff:      0.584D+00
 Gap=     0.076 Goal=   None    Shift=    0.000
 RMSDP=3.81D-08 MaxDP=2.77D-06 DE=-2.86D-09 OVMax= 1.51D-05

 Cycle  14  Pass 1  IDiag  1:
 RMSU=  2.45D-08    CP:  9.69D-01  1.90D+00  7.39D-01  6.44D-01  5.47D-01
                    CP:  4.94D-01  6.00D-01  5.28D-01  7.38D-01  8.17D-01
                    CP:  8.47D-01  9.86D-01  8.07D-01
 E= -3005.35834209045     Delta-E=       -0.000000000631 Rises=F Damp=F
 DIIS: error= 3.16D-07 at cycle  14 NSaved=  14.
 NSaved=14 IEnMin=14 EnMin= -3005.35834209045     IErMin=14 ErrMin= 3.16D-07
 ErrMax= 3.16D-07  0.00D+00 EMaxC= 1.00D-01 BMatC= 1.60D-10 BMatP= 6.50D-10
 IDIUse=1 WtCom= 1.00D+00 WtEn= 0.00D+00
 Coeff-Com:  0.121D-06 0.147D-05 0.151D-04 0.378D-04 0.936D-05-0.301D-03
 Coeff-Com: -0.441D-03-0.386D-02-0.793D-02-0.235D-01-0.643D-02 0.985D-01
 Coeff-Com:  0.375D+00 0.569D+00
 Coeff:      0.121D-06 0.147D-05 0.151D-04 0.378D-04 0.936D-05-0.301D-03
 Coeff:     -0.441D-03-0.386D-02-0.793D-02-0.235D-01-0.643D-02 0.985D-01
 Coeff:      0.375D+00 0.569D+00
 Gap=     0.076 Goal=   None    Shift=    0.000
 RMSDP=1.92D-08 MaxDP=2.59D-06 DE=-6.31D-10 OVMax= 8.76D-06

 Cycle  15  Pass 1  IDiag  1:
 RMSU=  1.05D-08    CP:  9.69D-01  1.90D+00  7.39D-01  6.44D-01  5.47D-01
                    CP:  4.94D-01  6.00D-01  5.29D-01  7.40D-01  8.19D-01
                    CP:  8.71D-01  1.02D+00  9.59D-01  8.14D-01
 E= -3005.35834209050     Delta-E=       -0.000000000044 Rises=F Damp=F
 DIIS: error= 1.21D-07 at cycle  15 NSaved=  15.
 NSaved=15 IEnMin=15 EnMin= -3005.35834209050     IErMin=15 ErrMin= 1.21D-07
 ErrMax= 1.21D-07  0.00D+00 EMaxC= 1.00D-01 BMatC= 2.55D-11 BMatP= 1.60D-10
 IDIUse=1 WtCom= 1.00D+00 WtEn= 0.00D+00
 Coeff-Com:  0.125D-05-0.205D-05 0.167D-04 0.494D-04 0.107D-03 0.706D-04
 Coeff-Com:  0.208D-03-0.106D-02-0.313D-02-0.128D-01-0.163D-01-0.165D-01
 Coeff-Com:  0.976D-01 0.334D+00 0.618D+00
 Coeff:      0.125D-05-0.205D-05 0.167D-04 0.494D-04 0.107D-03 0.706D-04
 Coeff:      0.208D-03-0.106D-02-0.313D-02-0.128D-01-0.163D-01-0.165D-01
 Coeff:      0.976D-01 0.334D+00 0.618D+00
 Gap=     0.076 Goal=   None    Shift=    0.000
 RMSDP=7.26D-09 MaxDP=4.54D-07 DE=-4.37D-11 OVMax= 3.63D-06

 SCF Done:  E(RPBE1PBE) =  -3005.35834209     A.U. after   15 cycles
            NFock= 15  Conv=0.73D-08     -V/T= 2.0102
 KE= 2.974974727538D+03 PE=-2.612983632844D+04 EE= 1.058027224469D+04
 Leave Link  502 at Sat Apr 30 18:06:06 2022, MaxMem= 10066329600 cpu:            6235.7 elap:             261.5
 (Enter /sw/apps/gaussian-16.0/g16/l801.exe)
 DoSCS=F DFT=T ScalE2(SS,OS)=  1.000000  1.000000
 ExpMin= 3.36D-02 ExpMax= 4.95D+03 ExpMxC= 7.45D+02 IAcc=3 IRadAn=         5 AccDes= 0.00D+00
 HarFok:  IExCor=  205 AccDes= 0.00D+00 IRadAn=         5 IDoV=-2 UseB2=F ITyADJ=14
 ICtDFT= 12500011 ScaDFX=  1.000000  1.000000  1.000000  1.000000
 GSVD:  LWork=       -5460 too small for GESVD, short by       25550 words or       25550 for optimal perf.
 Largest valence mixing into a core orbital is  1.49D-04
 Largest core mixing into a valence orbital is  5.55D-05
 Range of M.O.s used for correlation:    71  1298
 NBasis=  1298 NAE=   246 NBE=   246 NFC=    70 NFV=     0
 NROrb=   1228 NOA=   176 NOB=   176 NVA=  1052 NVB=  1052

 **** Warning!!: The smallest alpha delta epsilon is  0.75930658D-01

 Leave Link  801 at Sat Apr 30 18:06:06 2022, MaxMem= 10066329600 cpu:               6.8 elap:               0.3
 (Enter /sw/apps/gaussian-16.0/g16/l914.exe)
 RHF ground state
 Two-electron integrals replicated using symmetry.
 MDV= 10066329600 DFT=T DoStab=F Mixed=T DoRPA=T DoScal=F NonHer=T
 Making orbital integer symmetry assigments:
 Orbital symmetries:
       Occupied  (A) (A) (A) (A) (A) (A) (A) (A) (A) (A) (A) (A)
                 (A) (A) (A) (A) (A) (A) (A) (A) (A) (A) (A) (A)
                 (A) (A) (A) (A) (A) (A) (A) (A) (A) (A) (A) (A)
                 (A) (A) (A) (A) (A) (A) (A) (A) (A) (A) (A) (A)
                 (A) (A) (A) (A) (A) (A) (A) (A) (A) (A) (A) (A)
                 (A) (A) (A) (A) (A) (A) (A) (A) (A) (A) (A) (A)
                 (A) (A) (A) (A) (A) (A) (A) (A) (A) (A) (A) (A)
                 (A) (A) (A) (A) (A) (A) (A) (A) (A) (A) (A) (A)
                 (A) (A) (A) (A) (A) (A) (A) (A) (A) (A) (A) (A)
                 (A) (A) (A) (A) (A) (A) (A) (A) (A) (A) (A) (A)
                 (A) (A) (A) (A) (A) (A) (A) (A) (A) (A) (A) (A)
                 (A) (A) (A) (A) (A) (A) (A) (A) (A) (A) (A) (A)
                 (A) (A) (A) (A) (A) (A) (A) (A) (A) (A) (A) (A)
                 (A) (A) (A) (A) (A) (A) (A) (A) (A) (A) (A) (A)
                 (A) (A) (A) (A) (A) (A) (A) (A) (A) (A) (A) (A)
                 (A) (A) (A) (A) (A) (A) (A) (A) (A) (A) (A) (A)
                 (A) (A) (A) (A) (A) (A) (A) (A) (A) (A) (A) (A)
                 (A) (A) (A) (A) (A) (A) (A) (A) (A) (A) (A) (A)
                 (A) (A) (A) (A) (A) (A) (A) (A) (A) (A) (A) (A)
                 (A) (A) (A) (A) (A) (A) (A) (A) (A) (A) (A) (A)
                 (A) (A) (A) (A) (A) (A)
       Virtual   (A) (A) (A) (A) (A) (A) (A) (A) (A) (A) (A) (A)
                 (A) (A) (A) (A) (A) (A) (A) (A) (A) (A) (A) (A)
                 (A) (A) (A) (A) (A) (A) (A) (A) (A) (A) (A) (A)
                 (A) (A) (A) (A) (A) (A) (A) (A) (A) (A) (A) (A)
                 (A) (A) (A) (A) (A) (A) (A) (A) (A) (A) (A) (A)
                 (A) (A) (A) (A) (A) (A) (A) (A) (A) (A) (A) (A)
                 (A) (A) (A) (A) (A) (A) (A) (A) (A) (A) (A) (A)
                 (A) (A) (A) (A) (A) (A) (A) (A) (A) (A) (A) (A)
                 (A) (A) (A) (A) (A) (A) (A) (A) (A) (A) (A) (A)
                 (A) (A) (A) (A) (A) (A) (A) (A) (A) (A) (A) (A)
                 (A) (A) (A) (A) (A) (A) (A) (A) (A) (A) (A) (A)
                 (A) (A) (A) (A) (A) (A) (A) (A) (A) (A) (A) (A)
                 (A) (A) (A) (A) (A) (A) (A) (A) (A) (A) (A) (A)
                 (A) (A) (A) (A) (A) (A) (A) (A) (A) (A) (A) (A)
                 (A) (A) (A) (A) (A) (A) (A) (A) (A) (A) (A) (A)
                 (A) (A) (A) (A) (A) (A) (A) (A) (A) (A) (A) (A)
                 (A) (A) (A) (A) (A) (A) (A) (A) (A) (A) (A) (A)
                 (A) (A) (A) (A) (A) (A) (A) (A) (A) (A) (A) (A)
                 (A) (A) (A) (A) (A) (A) (A) (A) (A) (A) (A) (A)
                 (A) (A) (A) (A) (A) (A) (A) (A) (A) (A) (A) (A)
                 (A) (A) (A) (A) (A) (A) (A) (A) (A) (A) (A) (A)
                 (A) (A) (A) (A) (A) (A) (A) (A) (A) (A) (A) (A)
                 (A) (A) (A) (A) (A) (A) (A) (A) (A) (A) (A) (A)
                 (A) (A) (A) (A) (A) (A) (A) (A) (A) (A) (A) (A)
                 (A) (A) (A) (A) (A) (A) (A) (A) (A) (A) (A) (A)
                 (A) (A) (A) (A) (A) (A) (A) (A) (A) (A) (A) (A)
                 (A) (A) (A) (A) (A) (A) (A) (A) (A) (A) (A) (A)
                 (A) (A) (A) (A) (A) (A) (A) (A) (A) (A) (A) (A)
                 (A) (A) (A) (A) (A) (A) (A) (A) (A) (A) (A) (A)
                 (A) (A) (A) (A) (A) (A) (A) (A) (A) (A) (A) (A)
                 (A) (A) (A) (A) (A) (A) (A) (A) (A) (A) (A) (A)
                 (A) (A) (A) (A) (A) (A) (A) (A) (A) (A) (A) (A)
                 (A) (A) (A) (A) (A) (A) (A) (A) (A) (A) (A) (A)
                 (A) (A) (A) (A) (A) (A) (A) (A) (A) (A) (A) (A)
                 (A) (A) (A) (A) (A) (A) (A) (A) (A) (A) (A) (A)
                 (A) (A) (A) (A) (A) (A) (A) (A) (A) (A) (A) (A)
                 (A) (A) (A) (A) (A) (A) (A) (A) (A) (A) (A) (A)
                 (A) (A) (A) (A) (A) (A) (A) (A) (A) (A) (A) (A)
                 (A) (A) (A) (A) (A) (A) (A) (A) (A) (A) (A) (A)
                 (A) (A) (A) (A) (A) (A) (A) (A) (A) (A) (A) (A)
                 (A) (A) (A) (A) (A) (A) (A) (A) (A) (A) (A) (A)
                 (A) (A) (A) (A) (A) (A) (A) (A) (A) (A) (A) (A)
                 (A) (A) (A) (A) (A) (A) (A) (A) (A) (A) (A) (A)
                 (A) (A) (A) (A) (A) (A) (A) (A) (A) (A) (A) (A)
                 (A) (A) (A) (A) (A) (A) (A) (A) (A) (A) (A) (A)
                 (A) (A) (A) (A) (A) (A) (A) (A) (A) (A) (A) (A)
                 (A) (A) (A) (A) (A) (A) (A) (A) (A) (A) (A) (A)
                 (A) (A) (A) (A) (A) (A) (A) (A) (A) (A) (A) (A)
                 (A) (A) (A) (A) (A) (A) (A) (A) (A) (A) (A) (A)
                 (A) (A) (A) (A) (A) (A) (A) (A) (A) (A) (A) (A)
                 (A) (A) (A) (A) (A) (A) (A) (A) (A) (A) (A) (A)
                 (A) (A) (A) (A) (A) (A) (A) (A) (A) (A) (A) (A)
                 (A) (A) (A) (A) (A) (A) (A) (A) (A) (A) (A) (A)
                 (A) (A) (A) (A) (A) (A) (A) (A) (A) (A) (A) (A)
                 (A) (A) (A) (A) (A) (A) (A) (A) (A) (A) (A) (A)
                 (A) (A) (A) (A) (A) (A) (A) (A) (A) (A) (A) (A)
                 (A) (A) (A) (A) (A) (A) (A) (A) (A) (A) (A) (A)
                 (A) (A) (A) (A) (A) (A) (A) (A) (A) (A) (A) (A)
                 (A) (A) (A) (A) (A) (A) (A) (A) (A) (A) (A) (A)
                 (A) (A) (A) (A) (A) (A) (A) (A) (A) (A) (A) (A)
                 (A) (A) (A) (A) (A) (A) (A) (A) (A) (A) (A) (A)
                 (A) (A) (A) (A) (A) (A) (A) (A) (A) (A) (A) (A)
                 (A) (A) (A) (A) (A) (A) (A) (A) (A) (A) (A) (A)
                 (A) (A) (A) (A) (A) (A) (A) (A) (A) (A) (A) (A)
                 (A) (A) (A) (A) (A) (A) (A) (A) (A) (A) (A) (A)
                 (A) (A) (A) (A) (A) (A) (A) (A) (A) (A) (A) (A)
                 (A) (A) (A) (A) (A) (A) (A) (A) (A) (A) (A) (A)
                 (A) (A) (A) (A) (A) (A) (A) (A) (A) (A) (A) (A)
                 (A) (A) (A) (A) (A) (A) (A) (A) (A) (A) (A) (A)
                 (A) (A) (A) (A) (A) (A) (A) (A) (A) (A) (A) (A)
                 (A) (A) (A) (A) (A) (A) (A) (A) (A) (A) (A) (A)
                 (A) (A) (A) (A) (A) (A) (A) (A) (A) (A) (A) (A)
                 (A) (A) (A) (A) (A) (A) (A) (A) (A) (A) (A) (A)
                 (A) (A) (A) (A) (A) (A) (A) (A) (A) (A) (A) (A)
                 (A) (A) (A) (A) (A) (A) (A) (A) (A) (A) (A) (A)
                 (A) (A) (A) (A) (A) (A) (A) (A) (A) (A) (A) (A)
                 (A) (A) (A) (A) (A) (A) (A) (A) (A) (A) (A) (A)
                 (A) (A) (A) (A) (A) (A) (A) (A) (A) (A) (A) (A)
                 (A) (A) (A) (A) (A) (A) (A) (A) (A) (A) (A) (A)
                 (A) (A) (A) (A) (A) (A) (A) (A) (A) (A) (A) (A)
                 (A) (A) (A) (A) (A) (A) (A) (A) (A) (A) (A) (A)
                 (A) (A) (A) (A) (A) (A) (A) (A) (A) (A) (A) (A)
                 (A) (A) (A) (A) (A) (A) (A) (A) (A) (A) (A) (A)
                 (A) (A) (A) (A) (A) (A) (A) (A) (A) (A) (A) (A)
                 (A) (A) (A) (A) (A) (A) (A) (A) (A) (A) (A) (A)
                 (A) (A) (A) (A) (A) (A) (A) (A) (A) (A) (A) (A)
                 (A) (A) (A) (A) (A) (A) (A) (A) (A) (A) (A) (A)
                 (A) (A) (A) (A) (A) (A) (A) (A)
    20 initial guesses have been made.
 Convergence on wavefunction:    0.001000000000000
 Davidson Disk Diagonalization:  ConvIn= 1.00D-03 SkipCon=T Conv= 1.00D-03.
 Max sub-space:  2000 roots to seek:    20 dimension of matrix:       370304
 Iteration     1 Dimension    20 NMult     0 NNew     20
 CISAX will form    20 AO SS matrices at one time.
 NMat=    20 NSing=    20 JSym2X= 0.
 FoFJK:  IHMeth= 1 ICntrl=       0 DoSepK=F KAlg= 0 I1Cent=           0 FoldK=F
 IRaf= 520000000 NMat=      40 IRICut=       1 DoRegI=T DoRafI=F ISym2E= 0 IDoP0=3 IntGTp=3.
 FoFCou: FMM=T IPFlag=           0 FMFlag=      100000 FMFlg1=        2001
         NFxFlg=           0 DoJE=F BraDBF=F KetDBF=F FulRan=T
         wScrn=  0.000000 ICntrl=         0 IOpCl=  0 I1Cent=           0 NGrid=           0
         NMat0=   40 NMatS0=     20 NMatT0=    0 NMatD0=   40 NMtDS0=    0 NMtDT0=    0
 Symmetry not used in FoFCou.
 FMM levels:  10  Number of levels for PrismC:   9
 New state      3 was old state      7
 New state      4 was old state      9
 Excitation Energies [eV] at current iteration:
 Root      1 :     2.225596556825422
 Root      2 :     2.555838221649489
 Root      3 :     3.279779238691234
 Root      4 :     3.344901090486808
 Root      5 :     3.501255033959284
 Root      6 :     3.633538333087234
 Root      7 :     3.709869279787417
 Root      8 :     3.750557943122833
 Root      9 :     3.821472817076166
 Root     10 :     4.037255495884700
 Root     11 :     4.105382013415364
 Root     12 :     4.168972396931840
 Root     13 :     4.180090883273506
 Root     14 :     4.302799990220735
 Root     15 :     4.513322974017384
 Root     16 :     4.615135755105505
 Root     17 :     4.722864517620648
 Root     18 :     4.737954052687924
 Root     19 :     4.810622319570277
 Root     20 :     4.885220150594963
 Iteration     2 Dimension    30 NMult    20 NNew     10
 CISAX will form    10 AO SS matrices at one time.
 NMat=    10 NSing=    10 JSym2X= 0.
 Root      1 not converged, maximum delta is    0.056182287222564
 Root      2 not converged, maximum delta is    0.051274820746009
 Root      3 not converged, maximum delta is    0.148897762093091
 Root      4 not converged, maximum delta is    0.347528726389940
 Root      5 not converged, maximum delta is    0.329596123611338
 Excitation Energies [eV] at current iteration:
 Root      1 :     1.885234164638417   Change is   -0.340362392187005
 Root      2 :     2.279118421111858   Change is   -0.276719800537631
 Root      3 :     3.129284539299858   Change is   -0.150494699391375
 Root      4 :     3.214250028039867   Change is   -0.130651062446940
 Root      5 :     3.292879165995812   Change is   -0.208375867963472
 Iteration     3 Dimension    40 NMult    30 NNew     10
 CISAX will form    10 AO SS matrices at one time.
 NMat=    10 NSing=    10 JSym2X= 0.
 Root      1 not converged, maximum delta is    0.024217598547035
 Root      2 not converged, maximum delta is    0.024307571015000
 Root      3 not converged, maximum delta is    0.012851592046731
 Root      4 not converged, maximum delta is    0.018206179193118
 Root      5 not converged, maximum delta is    0.027301139330692
 Excitation Energies [eV] at current iteration:
 Root      1 :     1.854703812648405   Change is   -0.030530351990012
 Root      2 :     2.260183468421600   Change is   -0.018934952690257
 Root      3 :     3.116393907771293   Change is   -0.012890631528565
 Root      4 :     3.203117742605195   Change is   -0.011132285434672
 Root      5 :     3.280766421240732   Change is   -0.012112744755080
 Iteration     4 Dimension    50 NMult    40 NNew     10
 CISAX will form    10 AO SS matrices at one time.
 NMat=    10 NSing=    10 JSym2X= 0.
 Root      1 not converged, maximum delta is    0.003759984448367
 Root      2 not converged, maximum delta is    0.006719890763772
 Root      3 not converged, maximum delta is    0.008152236618472
 Root      4 not converged, maximum delta is    0.008973255842741
 Root      5 not converged, maximum delta is    0.021500180069614
 Excitation Energies [eV] at current iteration:
 Root      1 :     1.851288951148834   Change is   -0.003414861499571
 Root      2 :     2.257617243852353   Change is   -0.002566224569248
 Root      3 :     3.114865663326441   Change is   -0.001528244444852
 Root      4 :     3.201302014744071   Change is   -0.001815727861124
 Root      5 :     3.278630792096880   Change is   -0.002135629143852
 Iteration     5 Dimension    60 NMult    50 NNew     10
 CISAX will form    10 AO SS matrices at one time.
 NMat=    10 NSing=    10 JSym2X= 0.
 Root      1 has converged.
 Root      2 has converged.
 Root      3 has converged.
 Root      4 not converged, maximum delta is    0.003604017992326
 Root      5 not converged, maximum delta is    0.018582375472177
 Excitation Energies [eV] at current iteration:
 Root      1 :     1.850896498116300   Change is   -0.000392453032534
 Root      2 :     2.257420114648839   Change is   -0.000197129203514
 Root      3 :     3.114698539181836   Change is   -0.000167124144605
 Root      4 :     3.201045840857274   Change is   -0.000256173886797
 Root      5 :     3.278085675969816   Change is   -0.000545116127065
 Iteration     6 Dimension    64 NMult    60 NNew      4
 CISAX will form     4 AO SS matrices at one time.
 NMat=     4 NSing=     4 JSym2X= 0.
 Root      1 has converged.
 Root      2 has converged.
 Root      3 has converged.
 Root      4 not converged, maximum delta is    0.001735539316968
 Root      5 not converged, maximum delta is    0.017387232427571
 Excitation Energies [eV] at current iteration:
 Root      1 :     1.850895555490762   Change is   -0.000000942625539
 Root      2 :     2.257419174881738   Change is   -0.000000939767101
 Root      3 :     3.114697647322727   Change is   -0.000000891859109
 Root      4 :     3.201005641131078   Change is   -0.000040199726196
 Root      5 :     3.277826551309258   Change is   -0.000259124660558
 Iteration     7 Dimension    68 NMult    64 NNew      4
 CISAX will form     4 AO SS matrices at one time.
 NMat=     4 NSing=     4 JSym2X= 0.
 Root      1 has converged.
 Root      2 has converged.
 Root      3 has converged.
 Root      4 has converged.
 Root      5 not converged, maximum delta is    0.009011918053177
 Excitation Energies [eV] at current iteration:
 Root      1 :     1.850895463283721   Change is   -0.000000092207041
 Root      2 :     2.257417714995288   Change is   -0.000001459886451
 Root      3 :     3.114697218108691   Change is   -0.000000429214037
 Root      4 :     3.200998631629146   Change is   -0.000007009501932
 Root      5 :     3.277733624010505   Change is   -0.000092927298753
 Iteration     8 Dimension    70 NMult    68 NNew      2
 CISAX will form     2 AO SS matrices at one time.
 NMat=     2 NSing=     2 JSym2X= 0.
 Root      1 has converged.
 Root      2 has converged.
 Root      3 has converged.
 Root      4 has converged.
 Root      5 not converged, maximum delta is    0.002305747144683
 Excitation Energies [eV] at current iteration:
 Root      1 :     1.850895106531951   Change is   -0.000000356751770
 Root      2 :     2.257417029311586   Change is   -0.000000685683702
 Root      3 :     3.114697086201838   Change is   -0.000000131906853
 Root      4 :     3.200998286510913   Change is   -0.000000345118232
 Root      5 :     3.277716058481692   Change is   -0.000017565528813
 Iteration     9 Dimension    72 NMult    70 NNew      2
 CISAX will form     2 AO SS matrices at one time.
 NMat=     2 NSing=     2 JSym2X= 0.
 Root      1 has converged.
 Root      2 has converged.
 Root      3 has converged.
 Root      4 has converged.
 Root      5 has converged.
 Excitation Energies [eV] at current iteration:
 Root      1 :     1.850894412119514   Change is   -0.000000694412437
 Root      2 :     2.257416289067320   Change is   -0.000000740244266
 Root      3 :     3.114696477665398   Change is   -0.000000608536440
 Root      4 :     3.200998179530190   Change is   -0.000000106980723
 Root      5 :     3.277712427172265   Change is   -0.000003631309427
 Convergence achieved on expansion vectors.
 ***********************************************************************
 Excited states from <AA,BB:AA,BB> singles matrix:
 ***********************************************************************
 
 1PDM for each excited state written to RWF  633
 Ground to excited state transition densities written to RWF  633
 Ground to excited state transition electric dipole moments (Au):
       state          X           Y           Z        Dip. S.      Osc.
         1         1.6926     -2.2731      0.1863      8.0667      0.3658
         2         0.9404      0.9161     -0.0233      1.7242      0.0954
         3         0.1042      0.1403      0.0291      0.0314      0.0024
         4         0.0953     -0.0012      0.0083      0.0091      0.0007
         5         0.3488      0.3566      0.0028      0.2489      0.0200
 Ground to excited state transition velocity dipole moments (Au):
       state          X           Y           Z        Dip. S.      Osc.
         1        -0.1122      0.1501     -0.0136      0.0353      0.3460
         2        -0.0736     -0.0728      0.0020      0.0107      0.0861
         3        -0.0099     -0.0155     -0.0007      0.0003      0.0020
         4        -0.0112     -0.0007      0.0004      0.0001      0.0007
         5        -0.0400     -0.0414      0.0008      0.0033      0.0183
 Ground to excited state transition magnetic dipole moments (Au):
       state          X           Y           Z
         1        -0.0958      0.1218      1.9028
         2         0.0061      0.0510     -0.2827
         3         0.2051     -0.4705      0.0002
         4        -0.0945     -0.2834     -0.6742
         5        -0.1866     -0.0275      0.0139
 Ground to excited state transition velocity quadrupole moments (Au):
       state          XX          YY          ZZ          XY          XZ          YZ
         1        -2.1581      0.5892     -0.0032      1.2016     -0.1115     -0.1043
         2        -1.3235     -0.2329      0.0001     -0.7524      0.0102      0.0292
         3        -0.1784     -0.0009     -0.0002     -0.1651     -0.0106      0.0151
         4        -0.3050      0.3327     -0.0105     -0.0816      0.0416     -0.0005
         5        -0.6275     -0.1309     -0.0067     -0.6805     -0.0478     -0.0009
 <0|del|b> * <b|rxdel|0> + <0|del|b> * <b|delr+rdel|0>
 Rotatory Strengths (R) in cgs (10**-40 erg-esu-cm/Gauss)
       state          XX          YY          ZZ    R(velocity)    E-M Angle
         1       -37.2459     67.1791      3.0524     10.9952       89.49
         2       -21.5437     -7.0487    -11.7090    -13.4338       99.14
         3        22.3628     -7.0806     17.2138     10.8320       56.08
         4        -0.1910      2.4797      3.6750      1.9879       83.09
         5        -3.9944     23.6032     30.9469     16.8519       37.71
 1/2[<0|r|b>*<b|rxdel|0> + (<0|rxdel|b>*<b|r|0>)*]
 Rotatory Strengths (R) in cgs (10**-40 erg-esu-cm/Gauss)
       state          XX          YY          ZZ     R(length)
         1       114.6449    195.7711   -250.6304     19.9286
         2        -4.0496    -33.0197     -4.6540    -13.9077
         3       -15.1073     46.6699     -0.0044     10.5194
         4         6.3631     -0.2355      3.9369      3.3549
         5        46.0216      6.9373     -0.0272     17.6439
  1/2[<0|del|b>*<b|r|0> + (<0|r|b>*<b|del|0>)*] (Au)
       state          X           Y           Z        Dip. S.   Osc.(frdel)
         1        -0.1899     -0.3412     -0.0025      0.5336      0.3557
         2        -0.0692     -0.0667     -0.0000      0.1359      0.0906
         3        -0.0010     -0.0022     -0.0000      0.0032      0.0021
         4        -0.0011      0.0000      0.0000      0.0011      0.0007
         5        -0.0140     -0.0148      0.0000      0.0287      0.0191

 Excitation energies and oscillator strengths:
 
 Excited State   1:      Singlet-A      1.8509 eV  669.86 nm  f=0.3658  <S**2>=0.000
     245 -> 248       -0.17630
     246 -> 247        0.69251
     246 <- 247       -0.10800
 This state for optimization and/or second-order correction.
 Total Energy, E(TD-HF/TD-DFT) =  -3005.29032297    
 Copying the excited state density for this state as the 1-particle RhoCI density.
 
 Excited State   2:      Singlet-A      2.2574 eV  549.23 nm  f=0.0954  <S**2>=0.000
     245 -> 247        0.64344
     246 -> 248        0.28309
 
 Excited State   3:      Singlet-A      3.1147 eV  398.06 nm  f=0.0024  <S**2>=0.000
     241 -> 247       -0.21197
     242 -> 247        0.49111
     242 -> 249       -0.17447
     244 -> 247       -0.39825
 
 Excited State   4:      Singlet-A      3.2010 eV  387.33 nm  f=0.0007  <S**2>=0.000
     242 -> 247        0.40749
     244 -> 247        0.55243
 
 Excited State   5:      Singlet-A      3.2777 eV  378.26 nm  f=0.0200  <S**2>=0.000
     240 -> 247        0.27510
     241 -> 247        0.58390
     242 -> 247        0.12585
     244 -> 247       -0.13997
     246 -> 248       -0.13538
 SavETr:  write IOETrn=   770 NScale= 10 NData=  16 NLR=1 NState=    5 LETran=     100.
 Leave Link  914 at Sat Apr 30 18:21:54 2022, MaxMem= 10066329600 cpu:           22706.9 elap:             947.9
 (Enter /sw/apps/gaussian-16.0/g16/l601.exe)
 Copying SCF densities to generalized density rwf, IOpCl= 0 IROHF=0.
 Hyperfine terms turned off by default for NAtoms > 100.

 **********************************************************************

            Population analysis using the SCF density.

 **********************************************************************

 Orbital symmetries:
       Occupied  (A) (A) (A) (A) (A) (A) (A) (A) (A) (A) (A) (A)
                 (A) (A) (A) (A) (A) (A) (A) (A) (A) (A) (A) (A)
                 (A) (A) (A) (A) (A) (A) (A) (A) (A) (A) (A) (A)
                 (A) (A) (A) (A) (A) (A) (A) (A) (A) (A) (A) (A)
                 (A) (A) (A) (A) (A) (A) (A) (A) (A) (A) (A) (A)
                 (A) (A) (A) (A) (A) (A) (A) (A) (A) (A) (A) (A)
                 (A) (A) (A) (A) (A) (A) (A) (A) (A) (A) (A) (A)
                 (A) (A) (A) (A) (A) (A) (A) (A) (A) (A) (A) (A)
                 (A) (A) (A) (A) (A) (A) (A) (A) (A) (A) (A) (A)
                 (A) (A) (A) (A) (A) (A) (A) (A) (A) (A) (A) (A)
                 (A) (A) (A) (A) (A) (A) (A) (A) (A) (A) (A) (A)
                 (A) (A) (A) (A) (A) (A) (A) (A) (A) (A) (A) (A)
                 (A) (A) (A) (A) (A) (A) (A) (A) (A) (A) (A) (A)
                 (A) (A) (A) (A) (A) (A) (A) (A) (A) (A) (A) (A)
                 (A) (A) (A) (A) (A) (A) (A) (A) (A) (A) (A) (A)
                 (A) (A) (A) (A) (A) (A) (A) (A) (A) (A) (A) (A)
                 (A) (A) (A) (A) (A) (A) (A) (A) (A) (A) (A) (A)
                 (A) (A) (A) (A) (A) (A) (A) (A) (A) (A) (A) (A)
                 (A) (A) (A) (A) (A) (A) (A) (A) (A) (A) (A) (A)
                 (A) (A) (A) (A) (A) (A) (A) (A) (A) (A) (A) (A)
                 (A) (A) (A) (A) (A) (A)
       Virtual   (A) (A) (A) (A) (A) (A) (A) (A) (A) (A) (A) (A)
                 (A) (A) (A) (A) (A) (A) (A) (A) (A) (A) (A) (A)
                 (A) (A) (A) (A) (A) (A) (A) (A) (A) (A) (A) (A)
                 (A) (A) (A) (A) (A) (A) (A) (A) (A) (A) (A) (A)
                 (A) (A) (A) (A) (A) (A) (A) (A) (A) (A) (A) (A)
                 (A) (A) (A) (A) (A) (A) (A) (A) (A) (A) (A) (A)
                 (A) (A) (A) (A) (A) (A) (A) (A) (A) (A) (A) (A)
                 (A) (A) (A) (A) (A) (A) (A) (A) (A) (A) (A) (A)
                 (A) (A) (A) (A) (A) (A) (A) (A) (A) (A) (A) (A)
                 (A) (A) (A) (A) (A) (A) (A) (A) (A) (A) (A) (A)
                 (A) (A) (A) (A) (A) (A) (A) (A) (A) (A) (A) (A)
                 (A) (A) (A) (A) (A) (A) (A) (A) (A) (A) (A) (A)
                 (A) (A) (A) (A) (A) (A) (A) (A) (A) (A) (A) (A)
                 (A) (A) (A) (A) (A) (A) (A) (A) (A) (A) (A) (A)
                 (A) (A) (A) (A) (A) (A) (A) (A) (A) (A) (A) (A)
                 (A) (A) (A) (A) (A) (A) (A) (A) (A) (A) (A) (A)
                 (A) (A) (A) (A) (A) (A) (A) (A) (A) (A) (A) (A)
                 (A) (A) (A) (A) (A) (A) (A) (A) (A) (A) (A) (A)
                 (A) (A) (A) (A) (A) (A) (A) (A) (A) (A) (A) (A)
                 (A) (A) (A) (A) (A) (A) (A) (A) (A) (A) (A) (A)
                 (A) (A) (A) (A) (A) (A) (A) (A) (A) (A) (A) (A)
                 (A) (A) (A) (A) (A) (A) (A) (A) (A) (A) (A) (A)
                 (A) (A) (A) (A) (A) (A) (A) (A) (A) (A) (A) (A)
                 (A) (A) (A) (A) (A) (A) (A) (A) (A) (A) (A) (A)
                 (A) (A) (A) (A) (A) (A) (A) (A) (A) (A) (A) (A)
                 (A) (A) (A) (A) (A) (A) (A) (A) (A) (A) (A) (A)
                 (A) (A) (A) (A) (A) (A) (A) (A) (A) (A) (A) (A)
                 (A) (A) (A) (A) (A) (A) (A) (A) (A) (A) (A) (A)
[...]
 Alpha virt. eigenvalues --    1.14422   1.15488   1.15882   1.16404   1.16920
 Alpha virt. eigenvalues --    1.17340   1.17918   1.18090   1.19293   1.19623
 Alpha virt. eigenvalues --    1.19689   1.19979   1.20907   1.21558   1.22108
 Alpha virt. eigenvalues --    1.22269   1.22658   1.22963   1.23327   1.23958
 Alpha virt. eigenvalues --    1.24534   1.25196   1.25466   1.25836   1.25887
 Alpha virt. eigenvalues --    1.26416   1.26647   1.27210   1.27651   1.28150
 Alpha virt. eigenvalues --    1.28213   1.29016   1.29295   1.29965   1.30457
 Alpha virt. eigenvalues --    1.30687   1.30882   1.31623   1.32183   1.33001
 Alpha virt. eigenvalues --    1.33432   1.33706   1.34576   1.34713   1.34738
 Alpha virt. eigenvalues --    1.35110   1.35468   1.35987   1.36190   1.36958
 Alpha virt. eigenvalues --    1.37175   1.37492   1.38064   1.38516   1.38750
 Alpha virt. eigenvalues --    1.39478   1.39659   1.40031   1.40283   1.40471
 Alpha virt. eigenvalues --    1.40643   1.41349   1.41750   1.41857   1.42456
 Alpha virt. eigenvalues --    1.43193   1.43441   1.43926   1.44431   1.44600
 Alpha virt. eigenvalues --    1.44729   1.45415   1.46224   1.46961   1.47005
 Alpha virt. eigenvalues --    1.47304   1.47707   1.47920   1.47953   1.48083
 Alpha virt. eigenvalues --    1.49337   1.49512   1.49557   1.49771   1.50287
 Alpha virt. eigenvalues --    1.50685   1.51737   1.51840   1.52410   1.52676
 Alpha virt. eigenvalues --    1.52770   1.53381   1.53620   1.53771   1.54274
 Alpha virt. eigenvalues --    1.54646   1.55019   1.55226   1.55243   1.55415
 Alpha virt. eigenvalues --    1.55795   1.55864   1.55976   1.56046   1.56193
 Alpha virt. eigenvalues --    1.56426   1.56496   1.56661   1.57072   1.57220
 Alpha virt. eigenvalues --    1.57883   1.58262   1.58555   1.58794   1.58901
 Alpha virt. eigenvalues --    1.59513   1.59741   1.59917   1.60405   1.60605
 Alpha virt. eigenvalues --    1.61323   1.61619   1.61732   1.62387   1.62536
 Alpha virt. eigenvalues --    1.63349   1.63843   1.64777   1.64884   1.65268
 Alpha virt. eigenvalues --    1.65695   1.65965   1.67073   1.67375   1.67499
 Alpha virt. eigenvalues --    1.67551   1.68024   1.68392   1.69513   1.69939
 Alpha virt. eigenvalues --    1.70501   1.70791   1.70925   1.71192   1.71695
 Alpha virt. eigenvalues --    1.71911   1.72137   1.72386   1.72585   1.72642
 Alpha virt. eigenvalues --    1.72844   1.73297   1.73512   1.73603   1.73872
 Alpha virt. eigenvalues --    1.74496   1.74522   1.74702   1.75176   1.75556
 Alpha virt. eigenvalues --    1.75950   1.76250   1.76412   1.76699   1.76807
 Alpha virt. eigenvalues --    1.77089   1.77287   1.77448   1.77579   1.77962
 Alpha virt. eigenvalues --    1.78052   1.78368   1.78466   1.78731   1.78801
 Alpha virt. eigenvalues --    1.78907   1.79128   1.79195   1.79430   1.79842
 Alpha virt. eigenvalues --    1.80002   1.80071   1.80363   1.80485   1.80587
 Alpha virt. eigenvalues --    1.81008   1.81161   1.81287   1.81377   1.81582
 Alpha virt. eigenvalues --    1.81668   1.82104   1.82349   1.82720   1.82896
 Alpha virt. eigenvalues --    1.83072   1.83387   1.83427   1.83479   1.83614
 Alpha virt. eigenvalues --    1.83882   1.84336   1.84507   1.84541   1.84699
 Alpha virt. eigenvalues --    1.84839   1.85188   1.85458   1.85758   1.85863
 Alpha virt. eigenvalues --    1.85886   1.86268   1.86468   1.86641   1.87298
 Alpha virt. eigenvalues --    1.87563   1.87753   1.87867   1.88012   1.88239
 Alpha virt. eigenvalues --    1.88789   1.88997   1.89068   1.89151   1.89362
 Alpha virt. eigenvalues --    1.89492   1.89713   1.90183   1.90449   1.90930
 Alpha virt. eigenvalues --    1.91239   1.91442   1.91521   1.91681   1.91953
 Alpha virt. eigenvalues --    1.92017   1.92259   1.92466   1.93016   1.93152
 Alpha virt. eigenvalues --    1.93760   1.93958   1.94111   1.94326   1.94960
 Alpha virt. eigenvalues --    1.95039   1.95332   1.95416   1.95805   1.95951
 Alpha virt. eigenvalues --    1.96052   1.96304   1.96788   1.96967   1.97122
 Alpha virt. eigenvalues --    1.97297   1.97433   1.97790   1.97952   1.98240
 Alpha virt. eigenvalues --    1.98730   1.98996   1.99211   1.99622   1.99635
 Alpha virt. eigenvalues --    1.99815   2.00651   2.00797   2.01270   2.01540
 Alpha virt. eigenvalues --    2.02146   2.02342   2.02660   2.02733   2.03178
 Alpha virt. eigenvalues --    2.03379   2.03475   2.03802   2.04632   2.04927
 Alpha virt. eigenvalues --    2.05154   2.05570   2.05707   2.05722   2.05923
 Alpha virt. eigenvalues --    2.06142   2.06525   2.06872   2.07238   2.07630
 Alpha virt. eigenvalues --    2.07735   2.07969   2.08148   2.08634   2.09059
 Alpha virt. eigenvalues --    2.09565   2.09775   2.09976   2.10277   2.10542
 Alpha virt. eigenvalues --    2.10735   2.11056   2.11195   2.11843   2.11919
 Alpha virt. eigenvalues --    2.12416   2.12524   2.13025   2.13296   2.13378
 Alpha virt. eigenvalues --    2.13513   2.14029   2.14407   2.14549   2.14782
 Alpha virt. eigenvalues --    2.15098   2.15622   2.15748   2.15822   2.16846
 Alpha virt. eigenvalues --    2.17330   2.17351   2.17985   2.18101   2.18303
 Alpha virt. eigenvalues --    2.18761   2.19238   2.19318   2.19827   2.20481
 Alpha virt. eigenvalues --    2.21202   2.21706   2.21913   2.22080   2.22490
 Alpha virt. eigenvalues --    2.23529   2.23892   2.24558   2.24836   2.25101
 Alpha virt. eigenvalues --    2.25459   2.25590   2.26095   2.26470   2.27401
 Alpha virt. eigenvalues --    2.27650   2.28065   2.28335   2.28509   2.29041
 Alpha virt. eigenvalues --    2.29474   2.29926   2.30073   2.30343   2.31114
 Alpha virt. eigenvalues --    2.31526   2.31994   2.32272   2.32494   2.32789
 Alpha virt. eigenvalues --    2.33258   2.33695   2.34152   2.34562   2.35260
 Alpha virt. eigenvalues --    2.35375   2.35819   2.35838   2.36362   2.36779
 Alpha virt. eigenvalues --    2.36947   2.37447   2.37548   2.37876   2.38101
 Alpha virt. eigenvalues --    2.38440   2.38589   2.39182   2.39547   2.39653
 Alpha virt. eigenvalues --    2.39716   2.40669   2.40920   2.41754   2.42481
 Alpha virt. eigenvalues --    2.42617   2.42977   2.43168   2.43555   2.43866
 Alpha virt. eigenvalues --    2.44011   2.44680   2.44884   2.45168   2.45822
 Alpha virt. eigenvalues --    2.45891   2.46108   2.46534   2.46858   2.47141
 Alpha virt. eigenvalues --    2.47678   2.47975   2.47995   2.48148   2.48762
 Alpha virt. eigenvalues --    2.49368   2.49933   2.50428   2.51261   2.51944
 Alpha virt. eigenvalues --    2.52197   2.52743   2.52930   2.54092   2.54145
 Alpha virt. eigenvalues --    2.54421   2.55136   2.55614   2.56040   2.56358
 Alpha virt. eigenvalues --    2.56670   2.57148   2.57495   2.57666   2.58332
 Alpha virt. eigenvalues --    2.58659   2.58929   2.58963   2.59609   2.60113
 Alpha virt. eigenvalues --    2.60455   2.60518   2.61017   2.61398   2.61813
 Alpha virt. eigenvalues --    2.61908   2.62136   2.62937   2.63109   2.63370
 Alpha virt. eigenvalues --    2.63510   2.64052   2.64293   2.64770   2.65543
 Alpha virt. eigenvalues --    2.65823   2.66090   2.67228   2.67927   2.68120
 Alpha virt. eigenvalues --    2.68508   2.68626   2.68890   2.69333   2.69906
 Alpha virt. eigenvalues --    2.70073   2.70624   2.70823   2.71177   2.71327
 Alpha virt. eigenvalues --    2.71836   2.72572   2.72673   2.73465   2.73675
 Alpha virt. eigenvalues --    2.74606   2.74993   2.75798   2.75869   2.75985
 Alpha virt. eigenvalues --    2.76435   2.76853   2.77164   2.77734   2.78070
 Alpha virt. eigenvalues --    2.78477   2.78882   2.79304   2.79521   2.80112
 Alpha virt. eigenvalues --    2.80949   2.81368   2.81808   2.83023   2.83772
 Alpha virt. eigenvalues --    2.84071   2.84606   2.85829   2.86043   2.86115
 Alpha virt. eigenvalues --    2.87013   2.87120   2.87360   2.88100   2.88617
 Alpha virt. eigenvalues --    2.88845   2.88952   2.89810   2.90831   2.91063
 Alpha virt. eigenvalues --    2.91205   2.91551   2.91604   2.91971   2.92833
 Alpha virt. eigenvalues --    2.93035   2.93129   2.93615   2.93756   2.93985
 Alpha virt. eigenvalues --    2.94033   2.94389   2.94780   2.95876   2.96121
 Alpha virt. eigenvalues --    2.96344   2.96678   2.96729   2.96810   2.96863
 Alpha virt. eigenvalues --    2.97185   2.97395   2.98174   2.98350   2.98537
 Alpha virt. eigenvalues --    2.98921   2.99062   2.99393   2.99995   3.00611
 Alpha virt. eigenvalues --    3.00933   3.01220   3.01358   3.01579   3.01750
 Alpha virt. eigenvalues --    3.01836   3.02007   3.02478   3.02939   3.03249
 Alpha virt. eigenvalues --    3.03771   3.04292   3.04340   3.04636   3.06006
 Alpha virt. eigenvalues --    3.06570   3.06866   3.06984   3.07100   3.07835
 Alpha virt. eigenvalues --    3.08059   3.08270   3.08878   3.09175   3.09631
 Alpha virt. eigenvalues --    3.09816   3.09971   3.10418   3.10563   3.11291
 Alpha virt. eigenvalues --    3.12123   3.12784   3.13942   3.14938   3.15841
 Alpha virt. eigenvalues --    3.16737   3.17124   3.17416   3.18939   3.19005
 Alpha virt. eigenvalues --    3.19513   3.20075   3.21124   3.24961   3.25472
 Alpha virt. eigenvalues --    3.28500   3.29106   3.35075   3.37507   3.40870
 Alpha virt. eigenvalues --    3.41771   3.43077   3.45481   3.49809   3.52399
 Alpha virt. eigenvalues --    3.57663   3.63255   3.67366   3.68853   3.70743
 Alpha virt. eigenvalues --    3.72643   3.74060
          Condensed to atoms (all electrons):
 Mulliken charges:
               1
     1  Mg   0.977064
     2  C   -0.036400
     3  C   -0.080595
     4  C   -0.043127
     5  C   -0.046280
     6  N   -0.391898
     7  C    0.038604
     8  C   -0.091867
     9  C   -0.106563
    10  C    0.115354
    11  C   -0.002289
    12  C    0.013049
    13  C   -0.031361
    14  C    0.196018
    15  O   -0.230231
    16  O   -0.353715
    17  N   -0.457594
    18  C    0.137997
    19  C   -0.192774
    20  C   -0.107562
    21  C    0.147273
    22  C    0.052285
    23  C    0.063532
    24  O   -0.204323
    25  C   -0.033641
    26  N   -0.385645
    27  C    0.039024
    28  C   -0.080498
    29  C   -0.075110
    30  C    0.024784
    31  C    0.009024
    32  C   -0.015576
    33  C   -0.071631
    34  N   -0.519512
    35  C    0.150533
    36  C   -0.195960
    37  C    0.055166
    38  C    0.171414
    39  C    0.036447
    40  C    0.058579
    41  O   -0.208223
    42  C   -0.125397
    43  C    0.289049
    44  O   -0.235855
    45  O   -0.360509
    46  C    0.131770
    47  C    0.190461
    48  C   -0.110158
    49  C   -0.268616
    50  C    0.024059
    51  C    0.047001
    52  C   -0.086305
    53  C    0.030801
    54  C   -0.209881
    55  C   -0.026446
    56  C    0.020564
    57  C   -0.045858
    58  C   -0.004463
    59  C   -0.238156
    60  C   -0.022339
    61  C    0.034350
    62  C   -0.094896
    63  C   -0.001756
    64  C   -0.241388
    65  C   -0.027194
    66  C   -0.020209
    67  H   -0.001350
    68  H    0.026936
    69  H    0.015293
    70  H    0.084636
    71  H    0.038409
    72  H    0.037086
    73  H    0.034603
    74  H    0.043974
    75  H    0.037615
    76  H    0.053580
    77  H    0.061598
    78  H    0.057324
    79  H    0.049658
    80  H    0.039364
    81  H    0.072212
    82  H    0.061848
    83  H    0.060125
    84  H    0.063864
    85  H    0.050367
    86  H    0.039868
    87  H    0.035795
    88  H    0.056283
    89  H    0.041028
    90  H    0.035434
    91  H    0.041958
    92  H    0.043316
    93  H    0.055186
    94  H    0.040697
    95  H    0.052889
    96  H    0.046966
    97  H    0.055617
    98  H    0.086211
    99  H    0.048460
   100  H    0.063501
   101  H    0.052208
   102  H    0.059606
   103  H    0.070553
   104  H    0.036214
   105  H    0.056257
   106  H    0.043620
   107  H    0.052440
   108  H    0.027601
   109  H    0.038962
   110  H    0.051767
   111  H    0.037005
   112  H    0.017756
   113  H    0.021135
   114  H    0.038806
   115  H    0.038350
   116  H    0.033806
   117  H    0.032306
   118  H    0.012936
   119  H    0.020267
   120  H    0.024315
   121  H    0.034477
   122  H    0.020835
   123  H    0.013127
   124  H    0.039814
   125  H    0.037703
   126  H    0.021223
   127  H    0.037037
   128  H    0.031090
   129  H    0.022779
   130  H    0.028273
   131  H    0.046462
   132  H    0.030705
   133  H    0.034484
   134  H    0.048744
   135  H    0.033596
   136  H    0.021734
   137  H    0.029048
   138  H    0.034730
   139  H    0.039331
   140  H    0.026147
 Sum of Mulliken charges =  -0.00000
 Mulliken charges with hydrogens summed into heavy atoms:
               1
     1  Mg   0.977064
     2  C   -0.036400
     3  C   -0.081945
     4  C   -0.016190
     5  C   -0.030987
     6  N   -0.391898
     7  C    0.038604
     8  C   -0.007231
     9  C   -0.068154
    10  C    0.115354
    11  C    0.113374
    12  C    0.104244
    13  C    0.087561
    14  C    0.196018
    15  O   -0.230231
    16  O   -0.353715
    17  N   -0.457594
    18  C    0.137997
    19  C   -0.192774
    20  C   -0.107562
    21  C    0.147273
    22  C    0.213518
    23  C    0.063532
    24  O   -0.204323
    25  C    0.152196
    26  N   -0.385645
    27  C    0.039024
    28  C   -0.030130
    29  C   -0.035242
    30  C    0.024784
    31  C    0.142130
    32  C    0.061816
    33  C    0.067568
    34  N   -0.519512
    35  C    0.150533
    36  C   -0.195960
    37  C    0.055166
    38  C    0.171414
    39  C    0.191919
    40  C    0.058579
    41  O   -0.208223
    42  C   -0.039186
    43  C    0.289049
    44  O   -0.235855
    45  O   -0.360509
    46  C    0.295940
    47  C    0.320620
    48  C   -0.073944
    49  C   -0.268616
    50  C    0.176376
    51  C    0.113564
    52  C    0.002468
    53  C    0.069693
    54  C   -0.171075
    55  C    0.078017
    56  C    0.053766
    57  C    0.012934
    58  C    0.029498
    59  C   -0.198343
    60  C    0.073625
    61  C    0.088219
    62  C   -0.020161
    63  C    0.063433
    64  C   -0.192644
    65  C    0.057184
    66  C    0.079999
 Electronic spatial extent (au):  <R**2>=         124601.9480
 Charge=             -0.0000 electrons
 Dipole moment (field-independent basis, Debye):
    X=             -5.1017    Y=              2.7139    Z=              1.4740  Tot=              5.9637
 Quadrupole moment (field-independent basis, Debye-Ang):
   XX=           -383.9866   YY=           -422.0815   ZZ=           -401.9181
   XY=             32.8000   XZ=             13.2489   YZ=             -1.6523
 Traceless Quadrupole moment (field-independent basis, Debye-Ang):
   XX=             18.6754   YY=            -19.4194   ZZ=              0.7440
   XY=             32.8000   XZ=             13.2489   YZ=             -1.6523
 Octapole moment (field-independent basis, Debye-Ang**2):
  XXX=            391.4056  YYY=           -137.6561  ZZZ=             -0.8409  XYY=           -247.0336
  XXY=            182.9071  XXZ=            -51.4906  XZZ=             24.2210  YZZ=            -27.5086
  YYZ=            -25.2284  XYZ=            -33.5978
 Hexadecapole moment (field-independent basis, Debye-Ang**3):
 XXXX=        -136949.9113 YYYY=         -29125.0327 ZZZZ=          -3259.6359 XXXY=           3006.0568
 XXXZ=            366.3985 YYYX=           -143.2788 YYYZ=            295.9716 ZZZX=            134.1191
 ZZZY=            -15.0453 XXYY=         -29069.7311 XXZZ=         -23903.3490 YYZZ=          -5190.7745
 XXYZ=             89.2526 YYXZ=            -87.2158 ZZXY=             68.2852
 N-N= 9.569231014122D+03 E-N=-2.612983631330D+04  KE= 2.974974727538D+03
 Leave Link  601 at Sat Apr 30 18:21:55 2022, MaxMem= 10066329600 cpu:              11.6 elap:               0.6
 (Enter /sw/apps/gaussian-16.0/g16/l9999.exe)
 1\1\GINC-BP1-COMPUTE103\SP\RPBE1PBE TD-FC\def2SVP\C55H74Mg1N4O6\OF1564
 1\30-Apr-2022\0\\#p PBE1PBE/Def2SVP td=(nstates=5)\\step_851_chromopho
 re_18 TDDFT with PBE1PBE functional\\0,1\Mg,0,34.871,49.709,25.871\C,0
 ,35.048,47.793,28.763\C,0,33.151,52.162,27.781\C,0,34.256,51.483,23.04
 5\C,0,36.157,47.112,24.012\N,0,34.171,49.941,27.966\C,0,34.533,49.067,
 29.002\C,0,34.138,49.631,30.352\C,0,33.342,50.901,29.977\C,0,33.569,51
 .037,28.475\C,0,31.906,51.066,30.43\C,0,35.351,49.8,31.348\C,0,35.074,
 49.635,32.869\C,0,33.607,49.301,33.363\O,0,33.177,48.183,33.365\O,0,33
 .057,50.484,33.755\N,0,33.773,51.478,25.42\C,0,33.181,52.359,26.331\C,
 0,32.844,53.621,25.681\C,0,33.122,53.384,24.305\C,0,33.773,52.044,24.2
 14\C,0,32.253,54.774,26.423\C,0,32.981,54.442,23.11\O,0,33.342,54.199,
 22.001\C,0,32.402,55.837,23.411\N,0,35.379,49.448,23.784\C,0,34.876,50
 .259,22.807\C,0,35.136,49.66,21.386\C,0,36.049,48.44,21.723\C,0,35.948
 ,48.32,23.267\C,0,33.912,49.188,20.554\C,0,37.567,48.463,21.509\C,0,38
 .343,49.769,21.765\N,0,35.407,47.799,26.244\C,0,35.845,46.821,25.371\C
 ,0,36.073,45.645,26.238\C,0,35.826,45.938,27.571\C,0,35.405,47.301,27.
 498\C,0,36.481,44.28,25.686\C,0,35.786,45.453,28.852\O,0,36.015,44.336
 ,29.282\C,0,35.402,46.686,29.776\C,0,34.272,46.219,30.548\O,0,33.131,4
 6.166,30.194\O,0,34.785,45.707,31.701\C,0,33.814,44.914,32.484\C,0,31.
 691,50.287,34.262\C,0,30.968,51.659,34.021\C,0,30.013,52.24,34.822\C,0
 ,29.344,51.492,35.981\C,0,29.487,53.674,34.488\C,0,30.137,54.717,35.40
 2\C,0,30.849,55.87,34.733\C,0,30.958,57.013,35.737\C,0,32.395,57.557,3
 5.842\C,0,30.023,58.222,35.475\C,0,28.994,58.547,36.556\C,0,29.536,59.
 302,37.805\C,0,28.853,60.709,37.99\C,0,29.797,61.64,38.749\C,0,27.51,6
 0.752,38.727\C,0,26.431,61.555,37.834\C,0,25.588,62.552,38.736\C,0,25.
 874,63.902,38.136\C,0,25.686,65.089,39.186\C,0,24.905,64.198,36.907\H,
 0,32.749,53.002,28.352\H,0,33.957,51.998,22.13\H,0,36.417,46.219,23.44
 \H,0,33.426,48.927,30.782\H,0,33.773,51.753,30.502\H,0,31.203,51.055,2
 9.596\H,0,31.659,51.99,30.952\H,0,31.536,50.254,31.056\H,0,35.609,50.8
 57,31.402\H,0,36.228,49.209,31.083\H,0,35.561,50.406,33.465\H,0,35.548
 ,48.656,32.935\H,0,31.735,54.448,27.325\H,0,31.408,55.143,25.841\H,0,3
 2.99,55.567,26.553\H,0,32.45,56.418,22.489\H,0,32.893,56.334,24.248\H,
 0,31.385,55.607,23.726\H,0,35.642,50.472,20.865\H,0,35.496,47.567,21.3
 75\H,0,33.709,49.75,19.642\H,0,32.987,49.271,21.125\H,0,34.08,48.213,2
 0.096\H,0,37.814,48.139,20.498\H,0,38.022,47.732,22.177\H,0,39.251,49.
 591,22.34\H,0,37.799,50.576,22.256\H,0,38.652,50.135,20.786\H,0,36.562
 ,43.602,26.536\H,0,37.459,44.361,25.211\H,0,35.809,43.762,25.\H,0,36.2
 91,46.954,30.347\H,0,33.647,44.041,31.852\H,0,32.838,45.365,32.663\H,0
 ,34.144,44.537,33.452\H,0,31.711,49.982,35.308\H,0,31.237,49.467,33.70
 7\H,0,31.5,52.276,33.297\H,0,29.597,52.028,36.896\H,0,29.65,50.446,35.
 987\H,0,28.266,51.511,35.821\H,0,28.435,53.615,34.768\H,0,29.663,53.86
 9,33.43\H,0,30.833,54.167,36.035\H,0,29.317,55.152,35.973\H,0,30.36,56
 .19,33.813\H,0,31.76,55.44,34.319\H,0,30.702,56.657,36.734\H,0,32.462,
 58.523,36.342\H,0,32.793,57.649,34.832\H,0,33.018,56.846,36.385\H,0,29
 .433,58.026,34.579\H,0,30.627,59.082,35.184\H,0,28.585,57.606,36.923\H
 ,0,28.139,59.094,36.159\H,0,30.624,59.297,37.871\H,0,29.298,58.777,38.
 731\H,0,28.831,61.11,36.977\H,0,29.361,62.533,39.197\H,0,30.424,61.98,
 37.924\H,0,30.46,61.147,39.46\H,0,27.606,61.236,39.699\H,0,27.105,59.7
 66,38.958\H,0,25.658,60.892,37.445\H,0,26.904,62.043,36.982\H,0,25.967
 ,62.404,39.747\H,0,24.574,62.157,38.684\H,0,26.886,63.997,37.742\H,0,2
 6.45,65.86,39.084\H,0,25.741,64.742,40.218\H,0,24.722,65.598,39.178\H,
 0,24.438,63.252,36.633\H,0,25.314,64.793,36.09\H,0,24.094,64.851,37.23
 1\\Version=ES64L-G16RevA.03\State=1-A\HF=-3005.3583421\RMSD=7.263e-09\
 PG=C01 [X(C55H74Mg1N4O6)]\\@


 WOE UNTO THEM THAT CALL EVIL GOOD, AND GOOD EVIL      
 Job cpu time:       0 days  8 hours  6 minutes 39.6 seconds.
 Elapsed time:       0 days  0 hours 20 minutes 20.4 seconds.
 File lengths (MBytes):  RWF=   8929 Int=      0 D2E=      0 Chk=    390 Scr=      1
 Normal termination of Gaussian 16 at Sat Apr 30 18:21:56 2022.
