 Entering Gaussian System, Link 0=g16
 Initial command:
 /sw/apps/gaussian-16.0/g16/l1.exe "/tmp/Gau-176383.inp" -scrdir="/tmp/"
 Entering Link 1 = /sw/apps/gaussian-16.0/g16/l1.exe PID=    176384.
  
 Copyright (c) 1988,1990,1992,1993,1995,1998,2003,2009,2016,
            Gaussian, Inc.  All Rights Reserved.
  
 This is part of the Gaussian(R) 16 program.  It is based on
 the Gaussian(R) 09 system (copyright 2009, Gaussian, Inc.),
 the Gaussian(R) 03 system (copyright 2003, Gaussian, Inc.),
 the Gaussian(R) 98 system (copyright 1998, Gaussian, Inc.),
 the Gaussian(R) 94 system (copyright 1995, Gaussian, Inc.),
 the Gaussian 92(TM) system (copyright 1992, Gaussian, Inc.),
 the Gaussian 90(TM) system (copyright 1990, Gaussian, Inc.),
 the Gaussian 88(TM) system (copyright 1988, Gaussian, Inc.),
 the Gaussian 86(TM) system (copyright 1986, Carnegie Mellon
 University), and the Gaussian 82(TM) system (copyright 1983,
 Carnegie Mellon University). Gaussian is a federally registered
 trademark of Gaussian, Inc.
  
 This software contains proprietary and confidential information,
 including trade secrets, belonging to Gaussian, Inc.
  
 This software is provided under written license and may be
 used, copied, transmitted, or stored only in accord with that
 written license.
  
 The following legend is applicable only to US Government
 contracts under FAR:
  
                    RESTRICTED RIGHTS LEGEND
  
 Use, reproduction and disclosure by the US Government is
 subject to restrictions as set forth in subparagraphs (a)
 and (c) of the Commercial Computer Software - Restricted
 Rights clause in FAR 52.227-19.
  
 Gaussian, Inc.
 340 Quinnipiac St., Bldg. 40, Wallingford CT 06492
  
  
 ---------------------------------------------------------------
 Warning -- This program may not be used in any manner that
 competes with the business of Gaussian, Inc. or will provide
 assistance to any competitor of Gaussian, Inc.  The licensee
 of this program is prohibited from giving any competitor of
 Gaussian, Inc. access to this program.  By using this program,
 the user acknowledges that Gaussian, Inc. is engaged in the
 business of creating and licensing software in the field of
 computational chemistry and represents and warrants to the
 licensee that it is not a competitor of Gaussian, Inc. and that
 it will not use this program in any manner prohibited above.
 ---------------------------------------------------------------
  

 Cite this work as:
 Gaussian 16, Revision A.03,
 M. J. Frisch, G. W. Trucks, H. B. Schlegel, G. E. Scuseria, 
 M. A. Robb, J. R. Cheeseman, G. Scalmani, V. Barone, 
 G. A. Petersson, H. Nakatsuji, X. Li, M. Caricato, A. V. Marenich, 
 J. Bloino, B. G. Janesko, R. Gomperts, B. Mennucci, H. P. Hratchian, 
 J. V. Ortiz, A. F. Izmaylov, J. L. Sonnenberg, D. Williams-Young, 
 F. Ding, F. Lipparini, F. Egidi, J. Goings, B. Peng, A. Petrone, 
 T. Henderson, D. Ranasinghe, V. G. Zakrzewski, J. Gao, N. Rega, 
 G. Zheng, W. Liang, M. Hada, M. Ehara, K. Toyota, R. Fukuda, 
 J. Hasegawa, M. Ishida, T. Nakajima, Y. Honda, O. Kitao, H. Nakai, 
 T. Vreven, K. Throssell, J. A. Montgomery, Jr., J. E. Peralta, 
 F. Ogliaro, M. J. Bearpark, J. J. Heyd, E. N. Brothers, K. N. Kudin, 
 V. N. Staroverov, T. A. Keith, R. Kobayashi, J. Normand, 
 K. Raghavachari, A. P. Rendell, J. C. Burant, S. S. Iyengar, 
 J. Tomasi, M. Cossi, J. M. Millam, M. Klene, C. Adamo, R. Cammi, 
 J. W. Ochterski, R. L. Martin, K. Morokuma, O. Farkas, 
 J. B. Foresman, and D. J. Fox, Gaussian, Inc., Wallingford CT, 2016.
 
 ******************************************
 Gaussian 16:  ES64L-G16RevA.03 25-Dec-2016
                27-Apr-2022 
 ******************************************
 %nproc=24
 Will use up to   24 processors via shared memory.
 %mem=75GB
 --------------------------------
 #p wB97XD/Def2SVP td=(nstates=5)
 --------------------------------
 1/38=1,172=1/1;
 2/12=2,17=6,18=5,40=1/2;
 3/5=43,7=101,11=9,25=1,30=1,74=-58/1,2,3,8;
 4//1;
 5/5=2,38=5/2;
 8/6=1,10=1,108=5/1;
 9/41=5,42=1,70=2/14;
 6/7=2,8=2,9=2,10=2/1;
 99/5=1,9=1/99;
 Leave Link    1 at Wed Apr 27 15:42:57 2022, MaxMem= 10066329600 cpu:               1.5 elap:               0.1
 (Enter /sw/apps/gaussian-16.0/g16/l101.exe)
 -----------------------------------------------------
 step_1251_chromophore_12 TDDFT with wB97XD functional
 -----------------------------------------------------
 Symbolic Z-matrix:
 Charge =  0 Multiplicity = 1
 Mg                    46.164    16.433    28.432 
 C                     44.409    15.447    31.363 
 C                     47.72     18.752    30.475 
 C                     47.657    17.531    25.787 
 C                     44.16     14.271    26.684 
 N                     46.149    16.878    30.71 
 C                     45.379    16.38     31.685 
 C                     45.81     16.812    33.07 
 C                     46.593    18.117    32.722 
 C                     46.902    17.888    31.222 
 C                     45.87     19.509    32.991 
 C                     46.667    15.729    33.817 
 C                     46.485    15.677    35.358 
 C                     47.797    15.437    36.143 
 O                     48.509    14.45     36.108 
 O                     48.134    16.54     36.867 
 N                     47.662    17.836    28.181 
 C                     48.082    18.729    29.171 
 C                     48.858    19.8      28.49 
 C                     48.957    19.419    27.131 
 C                     48.117    18.211    26.958 
 C                     49.627    20.874    29.154 
 C                     49.701    20.038    26.041 
 O                     49.795    19.583    24.93 
 C                     50.569    21.321    26.22 
 N                     46.13     15.669    26.521 
 C                     46.738    16.433    25.539 
 C                     46.424    15.839    24.133 
 C                     45.378    14.719    24.443 
 C                     45.253    14.79     26.024 
 C                     46.035    16.857    23.119 
 C                     45.953    13.353    23.902 
 C                     47.297    12.811    24.475 
 N                     44.608    15.099    28.876 
 C                     43.872    14.327    28.08 
 C                     42.811    13.72     28.774 
 C                     43.007    14.082    30.104 
 C                     44.169    14.927    30.122 
 C                     41.719    12.963    28.122 
 C                     42.513    13.989    31.415 
 O                     41.524    13.419    31.808 
 C                     43.477    14.865    32.312 
 C                     42.634    15.868    32.99 
 O                     42.053    16.764    32.4 
 O                     42.704    15.766    34.312 
 C                     42.037    16.811    35.11 
 C                     49.314    16.521    37.675 
 C                     49.38     17.784    38.513 
 C                     50.269    18.056    39.43 
 C                     51.422    17.14     39.881 
 C                     50.252    19.348    40.246 
 C                     50.74     20.527    39.419 
 C                     51.806    21.316    40.145 
 C                     52.911    21.819    39.15 
 C                     53.956    22.554    39.968 
 C                     52.394    22.786    38.073 
 C                     53.217    22.891    36.746 
 C                     53.318    24.342    36.12 
 C                     53.244    24.23     34.54 
 C                     54.744    24.077    34.101 
 C                     52.623    25.509    33.925 
 C                     51.5      25.227    32.934 
 C                     52.035    24.6      31.67 
 C                     51.709    25.435    30.461 
 C                     50.192    25.281    30.222 
 C                     52.709    25.212    29.356 
 H                     48.179    19.532    31.086 
 H                     48.176    17.889    24.895 
 H                     43.502    13.655    26.068 
 H                     44.882    17.065    33.582 
 H                     47.451    18.125    33.394 
 H                     45.429    19.854    32.056 
 H                     46.547    20.25     33.417 
 H                     45.109    19.326    33.749 
 H                     47.724    15.776    33.556 
 H                     46.387    14.725    33.499 
 H                     45.813    14.835    35.525 
 H                     45.913    16.48     35.824 
 H                     49.653    21.823    28.619 
 H                     50.642    20.537    29.363 
 H                     49.111    21.106    30.086 
 H                     50.156    22.211    26.696 
 H                     51.104    21.732    25.364 
 H                     51.356    21.014    26.908 
 H                     47.327    15.316    23.816 
 H                     44.412    14.92     23.979 
 H                     46.277    17.865    23.457 
 H                     44.979    16.764    22.867 
 H                     46.593    16.662    22.203 
 H                     45.986    13.469    22.819 
 H                     45.158    12.631    24.091 
 H                     47.856    13.502    25.105 
 H                     48.049    12.661    23.7 
 H                     47.139    11.873    25.007 
 H                     41.178    13.534    27.368 
 H                     40.988    12.813    28.917 
 H                     42.029    11.965    27.811 
 H                     43.945    14.139    32.977 
 H                     42.555    17.769    35.083 
 H                     42.03     16.538    36.165 
 H                     41.003    17.03     34.842 
 H                     50.275    16.529    37.16 
 H                     49.343    15.669    38.354 
 H                     48.753    18.649    38.295 
 H                     52.336    17.672    39.617 
 H                     51.355    16.163    39.403 
 H                     51.443    16.878    40.939 
 H                     50.747    19.193    41.205 
 H                     49.219    19.511    40.553 
 H                     49.884    21.132    39.119 
 H                     51.215    20.104    38.534 
 H                     52.327    20.686    40.866 
 H                     51.377    22.175    40.662 
 H                     53.299    20.967    38.592 
 H                     53.682    22.665    41.017 
 H                     54.315    23.485    39.529 
 H                     54.894    22.001    40.007 
 H                     52.166    23.782    38.453 
 H                     51.405    22.488    37.724 
 H                     52.821    22.161    36.04 
 H                     54.246    22.556    36.871 
 H                     54.249    24.719    36.543 
 H                     52.56     24.992    36.557 
 H                     52.773    23.369    34.065 
 H                     55.286    24.917    34.536 
 H                     54.814    24.251    33.027 
 H                     55.119    23.073    34.297 
 H                     53.458    25.992    33.418 
 H                     52.262    26.205    34.682 
 H                     50.968    26.147    32.694 
 H                     50.744    24.594    33.398 
 H                     51.605    23.617    31.479 
 H                     53.117    24.483    31.723 
 H                     51.866    26.466    30.778 
 H                     49.827    26.306    30.147 
 H                     49.662    24.794    31.041 
 H                     50.066    24.794    29.255 
 H                     52.178    25.082    28.414 
 H                     53.199    24.25     29.505 
 H                     53.364    26.083    29.397 
 
 ITRead=  0  0  0  0  0  0  0  0  0  0  0  0  0  0  0  0  0  0  0  0
 ITRead=  0  0  0  0  0  0  0  0  0  0  0  0  0  0  0  0  0  0  0  0
 ITRead=  0  0  0  0  0  0  0  0  0  0  0  0  0  0  0  0  0  0  0  0
 ITRead=  0  0  0  0  0  0  0  0  0  0  0  0  0  0  0  0  0  0  0  0
 ITRead=  0  0  0  0  0  0  0  0  0  0  0  0  0  0  0  0  0  0  0  0
 ITRead=  0  0  0  0  0  0  0  0  0  0  0  0  0  0  0  0  0  0  0  0
 ITRead=  0  0  0  0  0  0  0  0  0  0  0  0  0  0  0  0  0  0  0  0
 MicOpt= -1 -1 -1 -1 -1 -1 -1 -1 -1 -1 -1 -1 -1 -1 -1 -1 -1 -1 -1 -1
 MicOpt= -1 -1 -1 -1 -1 -1 -1 -1 -1 -1 -1 -1 -1 -1 -1 -1 -1 -1 -1 -1
 MicOpt= -1 -1 -1 -1 -1 -1 -1 -1 -1 -1 -1 -1 -1 -1 -1 -1 -1 -1 -1 -1
 MicOpt= -1 -1 -1 -1 -1 -1 -1 -1 -1 -1 -1 -1 -1 -1 -1 -1 -1 -1 -1 -1
 MicOpt= -1 -1 -1 -1 -1 -1 -1 -1 -1 -1 -1 -1 -1 -1 -1 -1 -1 -1 -1 -1
 MicOpt= -1 -1 -1 -1 -1 -1 -1 -1 -1 -1 -1 -1 -1 -1 -1 -1 -1 -1 -1 -1
 MicOpt= -1 -1 -1 -1 -1 -1 -1 -1 -1 -1 -1 -1 -1 -1 -1 -1 -1 -1 -1 -1
 NAtoms=    140 NQM=      140 NQMF=       0 NMMI=      0 NMMIF=      0
                NMic=       0 NMicF=      0.
                    Isotopes and Nuclear Properties:
 (Nuclear quadrupole moments (NQMom) in fm**2, nuclear magnetic moments (NMagM)
  in nuclear magnetons)

  Atom         1           2           3           4           5           6           7           8           9          10
 IAtWgt=          24          12          12          12          12          14          12          12          12          12
 AtmWgt=  23.9850450  12.0000000  12.0000000  12.0000000  12.0000000  14.0030740  12.0000000  12.0000000  12.0000000  12.0000000
 NucSpn=           0           0           0           0           0           2           0           0           0           0
 AtZEff=  -0.0000000  -0.0000000  -0.0000000  -0.0000000  -0.0000000  -0.0000000  -0.0000000  -0.0000000  -0.0000000  -0.0000000
 NQMom=    0.0000000   0.0000000   0.0000000   0.0000000   0.0000000   2.0440000   0.0000000   0.0000000   0.0000000   0.0000000
 NMagM=    0.0000000   0.0000000   0.0000000   0.0000000   0.0000000   0.4037610   0.0000000   0.0000000   0.0000000   0.0000000
 AtZNuc=  12.0000000   6.0000000   6.0000000   6.0000000   6.0000000   7.0000000   6.0000000   6.0000000   6.0000000   6.0000000

  Atom        11          12          13          14          15          16          17          18          19          20
 IAtWgt=          12          12          12          12          16          16          14          12          12          12
 AtmWgt=  12.0000000  12.0000000  12.0000000  12.0000000  15.9949146  15.9949146  14.0030740  12.0000000  12.0000000  12.0000000
 NucSpn=           0           0           0           0           0           0           2           0           0           0
 AtZEff=  -0.0000000  -0.0000000  -0.0000000  -0.0000000  -0.0000000  -0.0000000  -0.0000000  -0.0000000  -0.0000000  -0.0000000
 NQMom=    0.0000000   0.0000000   0.0000000   0.0000000   0.0000000   0.0000000   2.0440000   0.0000000   0.0000000   0.0000000
 NMagM=    0.0000000   0.0000000   0.0000000   0.0000000   0.0000000   0.0000000   0.4037610   0.0000000   0.0000000   0.0000000
 AtZNuc=   6.0000000   6.0000000   6.0000000   6.0000000   8.0000000   8.0000000   7.0000000   6.0000000   6.0000000   6.0000000

  Atom        21          22          23          24          25          26          27          28          29          30
 IAtWgt=          12          12          12          16          12          14          12          12          12          12
 AtmWgt=  12.0000000  12.0000000  12.0000000  15.9949146  12.0000000  14.0030740  12.0000000  12.0000000  12.0000000  12.0000000
 NucSpn=           0           0           0           0           0           2           0           0           0           0
 AtZEff=  -0.0000000  -0.0000000  -0.0000000  -0.0000000  -0.0000000  -0.0000000  -0.0000000  -0.0000000  -0.0000000  -0.0000000
 NQMom=    0.0000000   0.0000000   0.0000000   0.0000000   0.0000000   2.0440000   0.0000000   0.0000000   0.0000000   0.0000000
 NMagM=    0.0000000   0.0000000   0.0000000   0.0000000   0.0000000   0.4037610   0.0000000   0.0000000   0.0000000   0.0000000
 AtZNuc=   6.0000000   6.0000000   6.0000000   8.0000000   6.0000000   7.0000000   6.0000000   6.0000000   6.0000000   6.0000000

  Atom        31          32          33          34          35          36          37          38          39          40
 IAtWgt=          12          12          12          14          12          12          12          12          12          12
 AtmWgt=  12.0000000  12.0000000  12.0000000  14.0030740  12.0000000  12.0000000  12.0000000  12.0000000  12.0000000  12.0000000
 NucSpn=           0           0           0           2           0           0           0           0           0           0
 AtZEff=  -0.0000000  -0.0000000  -0.0000000  -0.0000000  -0.0000000  -0.0000000  -0.0000000  -0.0000000  -0.0000000  -0.0000000
 NQMom=    0.0000000   0.0000000   0.0000000   2.0440000   0.0000000   0.0000000   0.0000000   0.0000000   0.0000000   0.0000000
 NMagM=    0.0000000   0.0000000   0.0000000   0.4037610   0.0000000   0.0000000   0.0000000   0.0000000   0.0000000   0.0000000
 AtZNuc=   6.0000000   6.0000000   6.0000000   7.0000000   6.0000000   6.0000000   6.0000000   6.0000000   6.0000000   6.0000000

  Atom        41          42          43          44          45          46          47          48          49          50
 IAtWgt=          16          12          12          16          16          12          12          12          12          12
 AtmWgt=  15.9949146  12.0000000  12.0000000  15.9949146  15.9949146  12.0000000  12.0000000  12.0000000  12.0000000  12.0000000
 NucSpn=           0           0           0           0           0           0           0           0           0           0
 AtZEff=  -0.0000000  -0.0000000  -0.0000000  -0.0000000  -0.0000000  -0.0000000  -0.0000000  -0.0000000  -0.0000000  -0.0000000
 NQMom=    0.0000000   0.0000000   0.0000000   0.0000000   0.0000000   0.0000000   0.0000000   0.0000000   0.0000000   0.0000000
 NMagM=    0.0000000   0.0000000   0.0000000   0.0000000   0.0000000   0.0000000   0.0000000   0.0000000   0.0000000   0.0000000
 AtZNuc=   8.0000000   6.0000000   6.0000000   8.0000000   8.0000000   6.0000000   6.0000000   6.0000000   6.0000000   6.0000000

  Atom        51          52          53          54          55          56          57          58          59          60
 IAtWgt=          12          12          12          12          12          12          12          12          12          12
 AtmWgt=  12.0000000  12.0000000  12.0000000  12.0000000  12.0000000  12.0000000  12.0000000  12.0000000  12.0000000  12.0000000
 NucSpn=           0           0           0           0           0           0           0           0           0           0
 AtZEff=  -0.0000000  -0.0000000  -0.0000000  -0.0000000  -0.0000000  -0.0000000  -0.0000000  -0.0000000  -0.0000000  -0.0000000
 NQMom=    0.0000000   0.0000000   0.0000000   0.0000000   0.0000000   0.0000000   0.0000000   0.0000000   0.0000000   0.0000000
 NMagM=    0.0000000   0.0000000   0.0000000   0.0000000   0.0000000   0.0000000   0.0000000   0.0000000   0.0000000   0.0000000
 AtZNuc=   6.0000000   6.0000000   6.0000000   6.0000000   6.0000000   6.0000000   6.0000000   6.0000000   6.0000000   6.0000000

  Atom        61          62          63          64          65          66          67          68          69          70
 IAtWgt=          12          12          12          12          12          12           1           1           1           1
 AtmWgt=  12.0000000  12.0000000  12.0000000  12.0000000  12.0000000  12.0000000   1.0078250   1.0078250   1.0078250   1.0078250
 NucSpn=           0           0           0           0           0           0           1           1           1           1
 AtZEff=  -0.0000000  -0.0000000  -0.0000000  -0.0000000  -0.0000000  -0.0000000  -0.0000000  -0.0000000  -0.0000000  -0.0000000
 NQMom=    0.0000000   0.0000000   0.0000000   0.0000000   0.0000000   0.0000000   0.0000000   0.0000000   0.0000000   0.0000000
 NMagM=    0.0000000   0.0000000   0.0000000   0.0000000   0.0000000   0.0000000   2.7928460   2.7928460   2.7928460   2.7928460
 AtZNuc=   6.0000000   6.0000000   6.0000000   6.0000000   6.0000000   6.0000000   1.0000000   1.0000000   1.0000000   1.0000000

  Atom        71          72          73          74          75          76          77          78          79          80
 IAtWgt=           1           1           1           1           1           1           1           1           1           1
 AtmWgt=   1.0078250   1.0078250   1.0078250   1.0078250   1.0078250   1.0078250   1.0078250   1.0078250   1.0078250   1.0078250
 NucSpn=           1           1           1           1           1           1           1           1           1           1
 AtZEff=  -0.0000000  -0.0000000  -0.0000000  -0.0000000  -0.0000000  -0.0000000  -0.0000000  -0.0000000  -0.0000000  -0.0000000
 NQMom=    0.0000000   0.0000000   0.0000000   0.0000000   0.0000000   0.0000000   0.0000000   0.0000000   0.0000000   0.0000000
 NMagM=    2.7928460   2.7928460   2.7928460   2.7928460   2.7928460   2.7928460   2.7928460   2.7928460   2.7928460   2.7928460
 AtZNuc=   1.0000000   1.0000000   1.0000000   1.0000000   1.0000000   1.0000000   1.0000000   1.0000000   1.0000000   1.0000000

  Atom        81          82          83          84          85          86          87          88          89          90
 IAtWgt=           1           1           1           1           1           1           1           1           1           1
 AtmWgt=   1.0078250   1.0078250   1.0078250   1.0078250   1.0078250   1.0078250   1.0078250   1.0078250   1.0078250   1.0078250
 NucSpn=           1           1           1           1           1           1           1           1           1           1
 AtZEff=  -0.0000000  -0.0000000  -0.0000000  -0.0000000  -0.0000000  -0.0000000  -0.0000000  -0.0000000  -0.0000000  -0.0000000
 NQMom=    0.0000000   0.0000000   0.0000000   0.0000000   0.0000000   0.0000000   0.0000000   0.0000000   0.0000000   0.0000000
 NMagM=    2.7928460   2.7928460   2.7928460   2.7928460   2.7928460   2.7928460   2.7928460   2.7928460   2.7928460   2.7928460
 AtZNuc=   1.0000000   1.0000000   1.0000000   1.0000000   1.0000000   1.0000000   1.0000000   1.0000000   1.0000000   1.0000000

  Atom        91          92          93          94          95          96          97          98          99         100
 IAtWgt=           1           1           1           1           1           1           1           1           1           1
 AtmWgt=   1.0078250   1.0078250   1.0078250   1.0078250   1.0078250   1.0078250   1.0078250   1.0078250   1.0078250   1.0078250
 NucSpn=           1           1           1           1           1           1           1           1           1           1
 AtZEff=  -0.0000000  -0.0000000  -0.0000000  -0.0000000  -0.0000000  -0.0000000  -0.0000000  -0.0000000  -0.0000000  -0.0000000
 NQMom=    0.0000000   0.0000000   0.0000000   0.0000000   0.0000000   0.0000000   0.0000000   0.0000000   0.0000000   0.0000000
 NMagM=    2.7928460   2.7928460   2.7928460   2.7928460   2.7928460   2.7928460   2.7928460   2.7928460   2.7928460   2.7928460
 AtZNuc=   1.0000000   1.0000000   1.0000000   1.0000000   1.0000000   1.0000000   1.0000000   1.0000000   1.0000000   1.0000000

  Atom       101         102         103         104         105         106         107         108         109         110
 IAtWgt=           1           1           1           1           1           1           1           1           1           1
 AtmWgt=   1.0078250   1.0078250   1.0078250   1.0078250   1.0078250   1.0078250   1.0078250   1.0078250   1.0078250   1.0078250
 NucSpn=           1           1           1           1           1           1           1           1           1           1
 AtZEff=  -0.0000000  -0.0000000  -0.0000000  -0.0000000  -0.0000000  -0.0000000  -0.0000000  -0.0000000  -0.0000000  -0.0000000
 NQMom=    0.0000000   0.0000000   0.0000000   0.0000000   0.0000000   0.0000000   0.0000000   0.0000000   0.0000000   0.0000000
 NMagM=    2.7928460   2.7928460   2.7928460   2.7928460   2.7928460   2.7928460   2.7928460   2.7928460   2.7928460   2.7928460
 AtZNuc=   1.0000000   1.0000000   1.0000000   1.0000000   1.0000000   1.0000000   1.0000000   1.0000000   1.0000000   1.0000000

  Atom       111         112         113         114         115         116         117         118         119         120
 IAtWgt=           1           1           1           1           1           1           1           1           1           1
 AtmWgt=   1.0078250   1.0078250   1.0078250   1.0078250   1.0078250   1.0078250   1.0078250   1.0078250   1.0078250   1.0078250
 NucSpn=           1           1           1           1           1           1           1           1           1           1
 AtZEff=  -0.0000000  -0.0000000  -0.0000000  -0.0000000  -0.0000000  -0.0000000  -0.0000000  -0.0000000  -0.0000000  -0.0000000
 NQMom=    0.0000000   0.0000000   0.0000000   0.0000000   0.0000000   0.0000000   0.0000000   0.0000000   0.0000000   0.0000000
 NMagM=    2.7928460   2.7928460   2.7928460   2.7928460   2.7928460   2.7928460   2.7928460   2.7928460   2.7928460   2.7928460
 AtZNuc=   1.0000000   1.0000000   1.0000000   1.0000000   1.0000000   1.0000000   1.0000000   1.0000000   1.0000000   1.0000000

  Atom       121         122         123         124         125         126         127         128         129         130
 IAtWgt=           1           1           1           1           1           1           1           1           1           1
 AtmWgt=   1.0078250   1.0078250   1.0078250   1.0078250   1.0078250   1.0078250   1.0078250   1.0078250   1.0078250   1.0078250
 NucSpn=           1           1           1           1           1           1           1           1           1           1
 AtZEff=  -0.0000000  -0.0000000  -0.0000000  -0.0000000  -0.0000000  -0.0000000  -0.0000000  -0.0000000  -0.0000000  -0.0000000
 NQMom=    0.0000000   0.0000000   0.0000000   0.0000000   0.0000000   0.0000000   0.0000000   0.0000000   0.0000000   0.0000000
 NMagM=    2.7928460   2.7928460   2.7928460   2.7928460   2.7928460   2.7928460   2.7928460   2.7928460   2.7928460   2.7928460
 AtZNuc=   1.0000000   1.0000000   1.0000000   1.0000000   1.0000000   1.0000000   1.0000000   1.0000000   1.0000000   1.0000000

  Atom       131         132         133         134         135         136         137         138         139         140
 IAtWgt=           1           1           1           1           1           1           1           1           1           1
 AtmWgt=   1.0078250   1.0078250   1.0078250   1.0078250   1.0078250   1.0078250   1.0078250   1.0078250   1.0078250   1.0078250
 NucSpn=           1           1           1           1           1           1           1           1           1           1
 AtZEff=  -0.0000000  -0.0000000  -0.0000000  -0.0000000  -0.0000000  -0.0000000  -0.0000000  -0.0000000  -0.0000000  -0.0000000
 NQMom=    0.0000000   0.0000000   0.0000000   0.0000000   0.0000000   0.0000000   0.0000000   0.0000000   0.0000000   0.0000000
 NMagM=    2.7928460   2.7928460   2.7928460   2.7928460   2.7928460   2.7928460   2.7928460   2.7928460   2.7928460   2.7928460
 AtZNuc=   1.0000000   1.0000000   1.0000000   1.0000000   1.0000000   1.0000000   1.0000000   1.0000000   1.0000000   1.0000000
 Leave Link  101 at Wed Apr 27 15:42:57 2022, MaxMem= 10066329600 cpu:               4.1 elap:               0.2
 (Enter /sw/apps/gaussian-16.0/g16/l202.exe)
 Stoichiometry    C55H74MgN4O6
 Framework group  C1[X(C55H74MgN4O6)]
 Deg. of freedom   414
 Full point group                 C1      NOp   1
 Largest Abelian subgroup         C1      NOp   1
 Largest concise Abelian subgroup C1      NOp   1
                         Standard orientation:                         
 ---------------------------------------------------------------------
 Center     Atomic      Atomic             Coordinates (Angstroms)
 Number     Number       Type             X           Y           Z
 ---------------------------------------------------------------------
      1         12           0       -4.093982    0.641582   -0.214815
      2          6           0       -3.517089   -2.769848    0.605137
      3          6           0       -0.700859    1.059165    0.319121
      4          6           0       -4.555435    3.793314   -0.748037
      5          6           0       -7.439688   -0.097186   -0.293812
      6          7           0       -2.320706   -0.786006    0.237974
      7          6           0       -2.313113   -2.091248    0.534310
      8          6           0       -0.922365   -2.685412    0.592623
      9          6           0       -0.082569   -1.398374    0.867379
     10          6           0       -1.061151   -0.296799    0.391109
     11          6           0        0.435535   -1.154594    2.352268
     12          6           0       -0.519491   -3.446754   -0.720160
     13          6           0        0.409585   -4.675049   -0.523643
     14          6           0        1.507604   -4.818106   -1.604873
     15          8           0        1.350607   -5.019687   -2.795274
     16          8           0        2.741943   -4.610347   -1.068593
     17          7           0       -2.764266    2.214544   -0.396637
     18          6           0       -1.412658    2.151019   -0.045825
     19          6           0       -0.923358    3.552144    0.056218
     20          6           0       -1.993326    4.380085   -0.357941
     21          6           0       -3.168524    3.500556   -0.558270
     22          6           0        0.480962    3.971740    0.250012
     23          6           0       -2.030991    5.823030   -0.561135
     24          8           0       -2.972338    6.428392   -1.005640
     25          6           0       -0.798682    6.750351   -0.330817
     26          7           0       -5.805884    1.609648   -0.822278
     27          6           0       -5.766755    2.993899   -0.820918
     28          6           0       -7.193601    3.566153   -1.075676
     29          6           0       -8.102048    2.294291   -1.034371
     30          6           0       -7.052956    1.127108   -0.794965
     31          6           0       -7.567260    4.686164   -0.169146
     32          6           0       -8.869656    2.199760   -2.409546
     33          6           0       -8.054051    2.062690   -3.730314
     34          7           0       -5.287085   -1.059650    0.068286
     35          6           0       -6.609597   -1.206907    0.044364
     36          6           0       -7.001465   -2.489610    0.464981
     37          6           0       -5.806847   -3.181187    0.646558
     38          6           0       -4.754880   -2.246651    0.355698
     39          6           0       -8.404132   -2.885120    0.723270
     40          6           0       -5.218624   -4.396536    1.031692
     41          8           0       -5.759180   -5.409411    1.404991
     42          6           0       -3.654870   -4.170113    0.963221
     43          6           0       -3.119681   -4.484226    2.301595
     44          8           0       -3.366990   -3.820328    3.294850
     45          8           0       -2.233850   -5.472619    2.264569
     46          6           0       -1.503369   -5.776804    3.508590
     47          6           0        3.899786   -4.707658   -1.902593
     48          6           0        5.152145   -4.612313   -1.051550
     49          6           0        6.381198   -4.756579   -1.468456
     50          6           0        6.822381   -5.086713   -2.906592
     51          6           0        7.590028   -4.664924   -0.538006
     52          6           0        7.884558   -3.221881   -0.159863
     53          6           0        9.340478   -2.874175   -0.372821
     54          6           0        9.496857   -1.409238   -0.914637
     55          6           0       10.976899   -1.166493   -1.142510
     56          6           0        8.987250   -0.325117    0.048321
     57          6           0        8.566175    1.048218   -0.572912
     58          6           0        8.934760    2.326246    0.286312
     59          6           0        7.761378    3.386081    0.166537
     60          6           0        8.167530    4.261644   -1.072237
     61          6           0        7.672153    4.256783    1.444670
     62          6           0        6.265247    4.350114    2.023150
     63          6           0        5.361976    5.162152    1.127747
     64          6           0        4.794603    6.352820    1.852714
     65          6           0        3.760113    5.799323    2.855508
     66          6           0        4.449516    7.463562    0.894631
     67          1           0        0.354854    1.227759    0.541490
     68          1           0       -4.709246    4.856198   -0.947559
     69          1           0       -8.518855   -0.258714   -0.259428
     70          1           0       -0.928662   -3.317290    1.480332
     71          1           0        0.828097   -1.518990    0.280907
     72          1           0       -0.255891   -0.475527    2.850795
     73          1           0        1.459051   -0.779427    2.375736
     74          1           0        0.461089   -2.128781    2.839588
     75          1           0       -0.121082   -2.781904   -1.486204
     76          1           0       -1.396526   -3.873006   -1.206636
     77          1           0       -0.258652   -5.534453   -0.581266
     78          1           0        0.839456   -4.826802    0.466978
     79          1           0        0.615467    4.882093    0.833680
     80          1           0        0.981369    4.070092   -0.713001
     81          1           0        0.965599    3.197691    0.845562
     82          1           0       -0.234379    6.705615    0.601280
     83          1           0       -0.892457    7.822253   -0.504352
     84          1           0       -0.075434    6.418795   -1.075092
     85          1           0       -7.205595    3.900361   -2.113745
     86          1           0       -8.820342    2.329599   -0.214823
     87          1           0       -6.694397    5.083831    0.349354
     88          1           0       -8.338501    4.370893    0.533051
     89          1           0       -8.000102    5.486272   -0.769912
     90          1           0       -9.531527    3.065291   -2.424223
     91          1           0       -9.525744    1.336441   -2.294397
     92          1           0       -6.978681    2.212182   -3.640349
     93          1           0       -8.266340    2.866686   -4.435404
     94          1           0       -8.253947    1.104305   -4.209240
     95          1           0       -8.908716   -2.259159    1.458665
     96          1           0       -8.320782   -3.855801    1.212880
     97          1           0       -8.965023   -3.062395   -0.194771
     98          1           0       -3.328455   -4.845457    0.172216
     99          1           0       -0.760766   -5.022634    3.766631
    100          1           0       -0.927362   -6.695152    3.396987
    101          1           0       -2.114332   -5.903580    4.402789
    102          1           0        4.054869   -3.919460   -2.639819
    103          1           0        3.941861   -5.647496   -2.452793
    104          1           0        5.118596   -4.255708   -0.021703
    105          1           0        7.392261   -4.220132   -3.241840
    106          1           0        5.961365   -5.291308   -3.542433
    107          1           0        7.420695   -5.989438   -3.031321
    108          1           0        8.423286   -5.236530   -0.947493
    109          1           0        7.343012   -5.240365    0.354047
    110          1           0        7.542354   -3.042452    0.859677
    111          1           0        7.312785   -2.602043   -0.850266
    112          1           0        9.781910   -3.516262   -1.135083
    113          1           0        9.908511   -2.972233    0.552886
    114          1           0        8.883025   -1.294977   -1.807927
    115          1           0       11.605840   -1.987864   -0.799608
    116          1           0       11.341659   -0.194177   -0.810977
    117          1           0       11.210592   -1.092941   -2.204184
    118          1           0        9.637017   -0.164334    0.908758
    119          1           0        8.079950   -0.651255    0.557405
    120          1           0        7.504194    1.002480   -0.814276
    121          1           0        9.017642    1.214811   -1.550212
    122          1           0        9.902648    2.616203   -0.122267
    123          1           0        9.169352    2.034413    1.309949
    124          1           0        6.750673    3.069794   -0.092741
    125          1           0        9.177311    4.625996   -0.882030
    126          1           0        7.560816    5.167482   -1.074790
    127          1           0        7.983252    3.739310   -2.010462
    128          1           0        8.009973    5.240556    1.119661
    129          1           0        8.355944    3.925240    2.225884
    130          1           0        6.294489    4.792668    3.018296
    131          1           0        5.862612    3.350747    2.186462
    132          1           0        4.503909    4.590844    0.774196
    133          1           0        5.903622    5.520770    0.252970
    134          1           0        5.620503    6.741997    2.448138
    135          1           0        4.042874    6.249003    3.808036
    136          1           0        3.792371    4.715714    2.972046
    137          1           0        2.785620    6.189029    2.561182
    138          1           0        3.463166    7.854486    1.140635
    139          1           0        4.314778    7.046921   -0.103367
    140          1           0        5.265546    8.179726    0.997346
 ---------------------------------------------------------------------
 Rotational constants (GHZ):           0.0327634           0.0166789           0.0120502
 Leave Link  202 at Wed Apr 27 15:42:57 2022, MaxMem= 10066329600 cpu:               0.2 elap:               0.0
 (Enter /sw/apps/gaussian-16.0/g16/l301.exe)
 Standard basis: def2SVP (5D, 7F)
 Ernie: Thresh=  0.10000D-02 Tol=  0.10000D-05 Strict=F.
 There are  1364 symmetry adapted cartesian basis functions of A   symmetry.
 There are  1298 symmetry adapted basis functions of A   symmetry.
  1298 basis functions,  2180 primitive gaussians,  1364 cartesian basis functions
   246 alpha electrons      246 beta electrons
       nuclear repulsion energy      9897.4258223948 Hartrees.
 IExCor= 4639 DFT=T Ex+Corr=wB97XD ExCW=0 ScaHFX=  1.000000
 ScaDFX=  1.000000  1.000000  1.000000  1.000000 ScalE2=  1.000000  1.000000
 IRadAn=      5 IRanWt=     -1 IRanGd=            0 ICorTp=0 IEmpDi=121
 HFx  wShort=  0.000000 wLong=  0.200000 cFull=  0.222036 cShort=  0.000000 cLong=  0.777964
 DFx  wShort=  0.000000 wLong=  0.200000 cFull=  0.000000 cShort=  0.000000 cLong=  1.000000
 NAtoms=  140 NActive=  140 NUniq=  140 SFac= 1.00D+00 NAtFMM=   60 NAOKFM=T Big=T
 Integral buffers will be    131072 words long.
 Raffenetti 1 integral format.
 Two-electron integral symmetry is turned on.
 R6Disp:  Grimme-D2 Dispersion energy=       -0.1356683342 Hartrees.
 Nuclear repulsion after empirical dispersion term =     9897.2901540606 Hartrees.
 Leave Link  301 at Wed Apr 27 15:42:57 2022, MaxMem= 10066329600 cpu:               1.7 elap:               0.1
 (Enter /sw/apps/gaussian-16.0/g16/l302.exe)
 NPDir=0 NMtPBC=     1 NCelOv=     1 NCel=       1 NClECP=     1 NCelD=      1
         NCelK=      1 NCelE2=     1 NClLst=     1 CellRange=     0.0.
 One-electron integrals computed using PRISM.
 One-electron integral symmetry used in STVInt
   1 Symmetry operations used in ECPInt.
 ECPInt:  NShTT=  192510 NPrTT=  683786 LenC2=  104586 LenP2D=  223985.
 LDataN:  DoStor=T MaxTD1= 4 Len=   56
 NBasis=  1298 RedAO= T EigKep=  2.38D-04  NBF=  1298
 NBsUse=  1298 1.00D-06 EigRej= -1.00D+00 NBFU=  1298
 Precomputing XC quadrature grid using
 IXCGrd= 4 IRadAn=           5 IRanWt=          -1 IRanGd=           0 AccXCQ= 0.00D+00.
 Generated NRdTot=       0 NPtTot=           0 NUsed=           0 NTot=          32
 NSgBfM=  1283  1283  1283  1283  1283 MxSgAt=   140 MxSgA2=   140.
 Leave Link  302 at Wed Apr 27 15:43:02 2022, MaxMem= 10066329600 cpu:              96.4 elap:               4.0
 (Enter /sw/apps/gaussian-16.0/g16/l303.exe)
 DipDrv:  MaxL=1.
 Leave Link  303 at Wed Apr 27 15:43:02 2022, MaxMem= 10066329600 cpu:               6.1 elap:               0.3
 (Enter /sw/apps/gaussian-16.0/g16/l308.exe)
 Leave Link  308 at Wed Apr 27 15:43:02 2022, MaxMem= 10066329600 cpu:               8.6 elap:               0.4
 (Enter /sw/apps/gaussian-16.0/g16/l401.exe)
 ExpMin= 3.36D-02 ExpMax= 4.95D+03 ExpMxC= 7.45D+02 IAcc=3 IRadAn=         5 AccDes= 0.00D+00
 Harris functional with IExCor= 4639 and IRadAn=       5 diagonalized for initial guess.
 HarFok:  IExCor= 4639 AccDes= 0.00D+00 IRadAn=         5 IDoV= 1 UseB2=F ITyADJ=14
 ICtDFT=  3500011 ScaDFX=  1.000000  1.000000  1.000000  1.000000
 FoFCou: FMM=F IPFlag=           0 FMFlag=      100000 FMFlg1=        2001
         NFxFlg=           0 DoJE=T BraDBF=F KetDBF=T FulRan=T
         wScrn=  0.000000 ICntrl=       500 IOpCl=  0 I1Cent=   200000004 NGrid=           0
         NMat0=    1 NMatS0=      1 NMatT0=    0 NMatD0=    1 NMtDS0=    0 NMtDT0=    0
 Petite list used in FoFCou.
 Harris En= -2877.97840436659    
 JPrj=0 DoOrth=F DoCkMO=F.
 Leave Link  401 at Wed Apr 27 15:43:09 2022, MaxMem= 10066329600 cpu:             149.8 elap:               6.3
 (Enter /sw/apps/gaussian-16.0/g16/l502.exe)
 Integral symmetry usage will be decided dynamically.
 Closed shell SCF:
 Using DIIS extrapolation, IDIIS=  1040.
 NGot= 10066329600 LenX= 10062561258 LenY= 10060699398
 Requested convergence on RMS density matrix=1.00D-08 within 128 cycles.
 Requested convergence on MAX density matrix=1.00D-06.
 Requested convergence on             energy=1.00D-06.
 No special actions if energy rises.
 Fock matrices will be formed incrementally for  20 cycles.

 Cycle   1  Pass 1  IDiag  1:
 FoFJK:  IHMeth= 1 ICntrl=       0 DoSepK=T KAlg= 0 I1Cent=           0 FoldK=F
 IRaf=         1 NMat=       1 IRICut=       1 DoRegI=T DoRafI=F ISym2E= 0 IDoP0=0 IntGTp=1.
 FoFCou: FMM=T IPFlag=           0 FMFlag=      100000 FMFlg1=        2001
         NFxFlg=           0 DoJE=T BraDBF=F KetDBF=F FulRan=T
         wScrn=  0.000000 ICntrl=       500 IOpCl=  0 I1Cent=           0 NGrid=           0
         NMat0=    1 NMatS0=      1 NMatT0=    0 NMatD0=    1 NMtDS0=    0 NMtDT0=    0
 Symmetry not used in FoFCou.
 FMM levels:  10  Number of levels for PrismC:   9
 E= -3007.23599672780    
 DIIS: error= 3.58D-02 at cycle   1 NSaved=   1.
 NSaved= 1 IEnMin= 1 EnMin= -3007.23599672780     IErMin= 1 ErrMin= 3.58D-02
 ErrMax= 3.58D-02  0.00D+00 EMaxC= 1.00D-01 BMatC= 1.48D+00 BMatP= 1.48D+00
 IDIUse=3 WtCom= 6.42D-01 WtEn= 3.58D-01
 Coeff-Com:  0.100D+01
 Coeff-En:   0.100D+01
 Coeff:      0.100D+01
 Gap=     0.158 Goal=   None    Shift=    0.000
 GapD=    0.158 DampG=1.000 DampE=0.500 DampFc=0.5000 IDamp=-1.
 Damping current iteration by 5.00D-01
 RMSDP=1.58D-03 MaxDP=2.14D-01              OVMax= 2.20D-01

 Cycle   2  Pass 1  IDiag  1:
 RMSU=  7.77D-04    CP:  9.85D-01
 E= -3007.55475728449     Delta-E=       -0.318760556698 Rises=F Damp=T
 DIIS: error= 1.47D-02 at cycle   2 NSaved=   2.
 NSaved= 2 IEnMin= 2 EnMin= -3007.55475728449     IErMin= 2 ErrMin= 1.47D-02
 ErrMax= 1.47D-02  0.00D+00 EMaxC= 1.00D-01 BMatC= 2.90D-01 BMatP= 1.48D+00
 IDIUse=3 WtCom= 8.53D-01 WtEn= 1.47D-01
 Coeff-Com: -0.348D+00 0.135D+01
 Coeff-En:   0.000D+00 0.100D+01
 Coeff:     -0.296D+00 0.130D+01
 Gap=     0.185 Goal=   None    Shift=    0.000
 RMSDP=7.37D-04 MaxDP=8.15D-02 DE=-3.19D-01 OVMax= 1.82D-01

 Cycle   3  Pass 1  IDiag  1:
 RMSU=  6.95D-04    CP:  9.76D-01  1.30D+00
 E= -3007.79263321840     Delta-E=       -0.237875933908 Rises=F Damp=F
 DIIS: error= 1.63D-02 at cycle   3 NSaved=   3.
 NSaved= 3 IEnMin= 3 EnMin= -3007.79263321840     IErMin= 2 ErrMin= 1.47D-02
 ErrMax= 1.63D-02  0.00D+00 EMaxC= 1.00D-01 BMatC= 1.33D-01 BMatP= 2.90D-01
 IDIUse=3 WtCom= 8.37D-01 WtEn= 1.63D-01
 Coeff-Com: -0.306D+00 0.675D+00 0.631D+00
 Coeff-En:   0.000D+00 0.000D+00 0.100D+01
 Coeff:     -0.256D+00 0.565D+00 0.691D+00
 Gap=     0.165 Goal=   None    Shift=    0.000
 RMSDP=4.59D-04 MaxDP=5.39D-02 DE=-2.38D-01 OVMax= 1.22D-01

 Cycle   4  Pass 1  IDiag  1:
 RMSU=  2.29D-04    CP:  9.72D-01  1.62D+00  5.54D-01
 E= -3007.88866563582     Delta-E=       -0.096032417414 Rises=F Damp=F
 DIIS: error= 6.36D-03 at cycle   4 NSaved=   4.
 NSaved= 4 IEnMin= 4 EnMin= -3007.88866563582     IErMin= 4 ErrMin= 6.36D-03
 ErrMax= 6.36D-03  0.00D+00 EMaxC= 1.00D-01 BMatC= 2.27D-02 BMatP= 1.33D-01
 IDIUse=3 WtCom= 9.36D-01 WtEn= 6.36D-02
 Coeff-Com: -0.110D+00 0.221D+00 0.382D+00 0.507D+00
 Coeff-En:   0.000D+00 0.000D+00 0.126D+00 0.874D+00
 Coeff:     -0.103D+00 0.207D+00 0.366D+00 0.531D+00
 Gap=     0.163 Goal=   None    Shift=    0.000
 RMSDP=1.53D-04 MaxDP=1.49D-02 DE=-9.60D-02 OVMax= 3.64D-02

 Cycle   5  Pass 1  IDiag  1:
 RMSU=  6.45D-05    CP:  9.72D-01  1.56D+00  7.05D-01  6.47D-01
 E= -3007.90766109824     Delta-E=       -0.018995462422 Rises=F Damp=F
 DIIS: error= 6.48D-04 at cycle   5 NSaved=   5.
 NSaved= 5 IEnMin= 5 EnMin= -3007.90766109824     IErMin= 5 ErrMin= 6.48D-04
 ErrMax= 6.48D-04  0.00D+00 EMaxC= 1.00D-01 BMatC= 4.57D-04 BMatP= 2.27D-02
 IDIUse=3 WtCom= 9.94D-01 WtEn= 6.48D-03
 Coeff-Com: -0.263D-01 0.497D-01 0.120D+00 0.229D+00 0.627D+00
 Coeff-En:   0.000D+00 0.000D+00 0.000D+00 0.000D+00 0.100D+01
 Coeff:     -0.261D-01 0.494D-01 0.119D+00 0.228D+00 0.630D+00
 Gap=     0.163 Goal=   None    Shift=    0.000
 RMSDP=2.97D-05 MaxDP=7.97D-03 DE=-1.90D-02 OVMax= 5.75D-03

 Cycle   6  Pass 1  IDiag  1:
 RMSU=  2.32D-05    CP:  9.72D-01  1.57D+00  7.03D-01  7.14D-01  8.77D-01
 E= -3007.90803169486     Delta-E=       -0.000370596625 Rises=F Damp=F
 DIIS: error= 1.70D-04 at cycle   6 NSaved=   6.
 NSaved= 6 IEnMin= 6 EnMin= -3007.90803169486     IErMin= 6 ErrMin= 1.70D-04
 ErrMax= 1.70D-04  0.00D+00 EMaxC= 1.00D-01 BMatC= 6.43D-05 BMatP= 4.57D-04
 IDIUse=3 WtCom= 9.98D-01 WtEn= 1.70D-03
 Coeff-Com:  0.102D-01-0.218D-01-0.187D-01 0.145D-02 0.287D+00 0.741D+00
 Coeff-En:   0.000D+00 0.000D+00 0.000D+00 0.000D+00 0.000D+00 0.100D+01
 Coeff:      0.102D-01-0.218D-01-0.186D-01 0.145D-02 0.287D+00 0.742D+00
 Gap=     0.164 Goal=   None    Shift=    0.000
 RMSDP=1.23D-05 MaxDP=1.42D-03 DE=-3.71D-04 OVMax= 4.45D-03

 Cycle   7  Pass 1  IDiag  1:
 RMSU=  8.26D-06    CP:  9.72D-01  1.57D+00  7.08D-01  7.26D-01  9.87D-01
                    CP:  9.23D-01
 E= -3007.90810682726     Delta-E=       -0.000075132401 Rises=F Damp=F
 DIIS: error= 5.46D-05 at cycle   7 NSaved=   7.
 NSaved= 7 IEnMin= 7 EnMin= -3007.90810682726     IErMin= 7 ErrMin= 5.46D-05
 ErrMax= 5.46D-05  0.00D+00 EMaxC= 1.00D-01 BMatC= 6.32D-06 BMatP= 6.43D-05
 IDIUse=1 WtCom= 1.00D+00 WtEn= 0.00D+00
 Coeff-Com:  0.619D-02-0.126D-01-0.171D-01-0.212D-01 0.488D-01 0.290D+00
 Coeff-Com:  0.706D+00
 Coeff:      0.619D-02-0.126D-01-0.171D-01-0.212D-01 0.488D-01 0.290D+00
 Coeff:      0.706D+00
 Gap=     0.164 Goal=   None    Shift=    0.000
 RMSDP=5.26D-06 MaxDP=1.48D-03 DE=-7.51D-05 OVMax= 1.22D-03

 Cycle   8  Pass 1  IDiag  1:
 RMSU=  3.40D-06    CP:  9.72D-01  1.57D+00  7.10D-01  7.32D-01  1.01D+00
                    CP:  1.06D+00  9.98D-01
 E= -3007.90811636508     Delta-E=       -0.000009537813 Rises=F Damp=F
 DIIS: error= 2.42D-05 at cycle   8 NSaved=   8.
 NSaved= 8 IEnMin= 8 EnMin= -3007.90811636508     IErMin= 8 ErrMin= 2.42D-05
 ErrMax= 2.42D-05  0.00D+00 EMaxC= 1.00D-01 BMatC= 1.35D-06 BMatP= 6.32D-06
 IDIUse=1 WtCom= 1.00D+00 WtEn= 0.00D+00
 Coeff-Com:  0.126D-02-0.231D-02-0.517D-02-0.116D-01-0.309D-01 0.454D-02
 Coeff-Com:  0.332D+00 0.713D+00
 Coeff:      0.126D-02-0.231D-02-0.517D-02-0.116D-01-0.309D-01 0.454D-02
 Coeff:      0.332D+00 0.713D+00
 Gap=     0.164 Goal=   None    Shift=    0.000
 RMSDP=2.32D-06 MaxDP=1.84D-04 DE=-9.54D-06 OVMax= 1.27D-03

 Cycle   9  Pass 1  IDiag  1:
 RMSU=  1.47D-06    CP:  9.72D-01  1.57D+00  7.10D-01  7.33D-01  1.02D+00
                    CP:  1.09D+00  1.16D+00  1.02D+00
 E= -3007.90811920907     Delta-E=       -0.000002843992 Rises=F Damp=F
 DIIS: error= 1.44D-05 at cycle   9 NSaved=   9.
 NSaved= 9 IEnMin= 9 EnMin= -3007.90811920907     IErMin= 9 ErrMin= 1.44D-05
 ErrMax= 1.44D-05  0.00D+00 EMaxC= 1.00D-01 BMatC= 2.04D-07 BMatP= 1.35D-06
 IDIUse=1 WtCom= 1.00D+00 WtEn= 0.00D+00
 Coeff-Com: -0.595D-03 0.127D-02 0.104D-02-0.708D-03-0.187D-01-0.450D-01
 Coeff-Com: -0.382D-02 0.252D+00 0.815D+00
 Coeff:     -0.595D-03 0.127D-02 0.104D-02-0.708D-03-0.187D-01-0.450D-01
 Coeff:     -0.382D-02 0.252D+00 0.815D+00
 Gap=     0.164 Goal=   None    Shift=    0.000
 RMSDP=1.38D-06 MaxDP=2.64D-04 DE=-2.84D-06 OVMax= 6.30D-04

 Cycle  10  Pass 1  IDiag  1:
 RMSU=  7.09D-07    CP:  9.72D-01  1.57D+00  7.11D-01  7.34D-01  1.02D+00
                    CP:  1.12D+00  1.22D+00  1.25D+00  1.22D+00
 E= -3007.90811997780     Delta-E=       -0.000000768734 Rises=F Damp=F
 DIIS: error= 6.76D-06 at cycle  10 NSaved=  10.
 NSaved=10 IEnMin=10 EnMin= -3007.90811997780     IErMin=10 ErrMin= 6.76D-06
 ErrMax= 6.76D-06  0.00D+00 EMaxC= 1.00D-01 BMatC= 6.28D-08 BMatP= 2.04D-07
 IDIUse=1 WtCom= 1.00D+00 WtEn= 0.00D+00
 Coeff-Com: -0.622D-03 0.122D-02 0.188D-02 0.282D-02 0.298D-03-0.216D-01
 Coeff-Com: -0.963D-01-0.760D-01 0.373D+00 0.815D+00
 Coeff:     -0.622D-03 0.122D-02 0.188D-02 0.282D-02 0.298D-03-0.216D-01
 Coeff:     -0.963D-01-0.760D-01 0.373D+00 0.815D+00
 Gap=     0.164 Goal=   None    Shift=    0.000
 RMSDP=8.71D-07 MaxDP=7.47D-05 DE=-7.69D-07 OVMax= 5.13D-04

 Cycle  11  Pass 1  IDiag  1:
 RMSU=  4.08D-07    CP:  9.72D-01  1.57D+00  7.11D-01  7.33D-01  1.02D+00
                    CP:  1.13D+00  1.26D+00  1.34D+00  1.58D+00  1.27D+00
 E= -3007.90812029302     Delta-E=       -0.000000315214 Rises=F Damp=F
 DIIS: error= 5.93D-06 at cycle  11 NSaved=  11.
 NSaved=11 IEnMin=11 EnMin= -3007.90812029302     IErMin=11 ErrMin= 5.93D-06
 ErrMax= 5.93D-06  0.00D+00 EMaxC= 1.00D-01 BMatC= 1.63D-08 BMatP= 6.28D-08
 IDIUse=1 WtCom= 1.00D+00 WtEn= 0.00D+00
 Coeff-Com: -0.141D-03 0.262D-03 0.541D-03 0.129D-02 0.398D-02 0.672D-03
 Coeff-Com: -0.404D-01-0.797D-01-0.138D-01 0.319D+00 0.808D+00
 Coeff:     -0.141D-03 0.262D-03 0.541D-03 0.129D-02 0.398D-02 0.672D-03
 Coeff:     -0.404D-01-0.797D-01-0.138D-01 0.319D+00 0.808D+00
 Gap=     0.164 Goal=   None    Shift=    0.000
 RMSDP=4.74D-07 MaxDP=4.01D-05 DE=-3.15D-07 OVMax= 3.05D-04

 Cycle  12  Pass 1  IDiag  1:
 RMSU=  1.88D-07    CP:  9.72D-01  1.57D+00  7.11D-01  7.33D-01  1.02D+00
                    CP:  1.13D+00  1.28D+00  1.39D+00  1.74D+00  1.62D+00
                    CP:  1.40D+00
 E= -3007.90812040220     Delta-E=       -0.000000109188 Rises=F Damp=F
 DIIS: error= 3.34D-06 at cycle  12 NSaved=  12.
 NSaved=12 IEnMin=12 EnMin= -3007.90812040220     IErMin=12 ErrMin= 3.34D-06
 ErrMax= 3.34D-06  0.00D+00 EMaxC= 1.00D-01 BMatC= 5.63D-09 BMatP= 1.63D-08
 IDIUse=1 WtCom= 1.00D+00 WtEn= 0.00D+00
 Coeff-Com:  0.196D-03-0.390D-03-0.602D-03-0.757D-03 0.855D-03 0.854D-02
 Coeff-Com:  0.263D-01 0.143D-01-0.136D+00-0.281D+00 0.208D+00 0.116D+01
 Coeff:      0.196D-03-0.390D-03-0.602D-03-0.757D-03 0.855D-03 0.854D-02
 Coeff:      0.263D-01 0.143D-01-0.136D+00-0.281D+00 0.208D+00 0.116D+01
 Gap=     0.164 Goal=   None    Shift=    0.000
 RMSDP=4.85D-07 MaxDP=3.35D-05 DE=-1.09D-07 OVMax= 2.93D-04

 Cycle  13  Pass 1  IDiag  1:
 RMSU=  1.15D-07    CP:  9.72D-01  1.57D+00  7.11D-01  7.33D-01  1.02D+00
                    CP:  1.13D+00  1.28D+00  1.41D+00  1.89D+00  1.94D+00
                    CP:  2.13D+00  1.72D+00
 E= -3007.90812046430     Delta-E=       -0.000000062100 Rises=F Damp=F
 DIIS: error= 1.65D-06 at cycle  13 NSaved=  13.
 NSaved=13 IEnMin=13 EnMin= -3007.90812046430     IErMin=13 ErrMin= 1.65D-06
 ErrMax= 1.65D-06  0.00D+00 EMaxC= 1.00D-01 BMatC= 1.84D-09 BMatP= 5.63D-09
 IDIUse=1 WtCom= 1.00D+00 WtEn= 0.00D+00
 Coeff-Com:  0.135D-03-0.265D-03-0.465D-03-0.770D-03-0.866D-03 0.355D-02
 Coeff-Com:  0.247D-01 0.327D-01-0.523D-01-0.248D+00-0.153D+00 0.532D+00
 Coeff-Com:  0.863D+00
 Coeff:      0.135D-03-0.265D-03-0.465D-03-0.770D-03-0.866D-03 0.355D-02
 Coeff:      0.247D-01 0.327D-01-0.523D-01-0.248D+00-0.153D+00 0.532D+00
 Coeff:      0.863D+00
 Gap=     0.164 Goal=   None    Shift=    0.000
 RMSDP=2.64D-07 MaxDP=1.79D-05 DE=-6.21D-08 OVMax= 1.60D-04

 Cycle  14  Pass 1  IDiag  1:
 RMSU=  5.59D-08    CP:  9.72D-01  1.57D+00  7.11D-01  7.33D-01  1.02D+00
                    CP:  1.14D+00  1.29D+00  1.41D+00  1.96D+00  2.10D+00
                    CP:  2.55D+00  2.27D+00  1.31D+00
 E= -3007.90812047962     Delta-E=       -0.000000015320 Rises=F Damp=F
 DIIS: error= 6.49D-07 at cycle  14 NSaved=  14.
 NSaved=14 IEnMin=14 EnMin= -3007.90812047962     IErMin=14 ErrMin= 6.49D-07
 ErrMax= 6.49D-07  0.00D+00 EMaxC= 1.00D-01 BMatC= 3.90D-10 BMatP= 1.84D-09
 IDIUse=1 WtCom= 1.00D+00 WtEn= 0.00D+00
 Coeff-Com:  0.460D-05-0.660D-05-0.377D-04-0.121D-03-0.559D-03-0.886D-03
 Coeff-Com:  0.282D-02 0.955D-02 0.183D-01-0.299D-01-0.114D+00-0.954D-01
 Coeff-Com:  0.321D+00 0.890D+00
 Coeff:      0.460D-05-0.660D-05-0.377D-04-0.121D-03-0.559D-03-0.886D-03
 Coeff:      0.282D-02 0.955D-02 0.183D-01-0.299D-01-0.114D+00-0.954D-01
 Coeff:      0.321D+00 0.890D+00
 Gap=     0.164 Goal=   None    Shift=    0.000
 RMSDP=1.21D-07 MaxDP=1.36D-05 DE=-1.53D-08 OVMax= 6.92D-05

 Cycle  15  Pass 1  IDiag  1:
 RMSU=  2.75D-08    CP:  9.72D-01  1.57D+00  7.11D-01  7.33D-01  1.02D+00
                    CP:  1.14D+00  1.29D+00  1.41D+00  1.99D+00  2.17D+00
                    CP:  2.73D+00  2.53D+00  1.67D+00  1.22D+00
 E= -3007.90812048256     Delta-E=       -0.000000002932 Rises=F Damp=F
 DIIS: error= 2.75D-07 at cycle  15 NSaved=  15.
 NSaved=15 IEnMin=15 EnMin= -3007.90812048256     IErMin=15 ErrMin= 2.75D-07
 ErrMax= 2.75D-07  0.00D+00 EMaxC= 1.00D-01 BMatC= 9.89D-11 BMatP= 3.90D-10
 IDIUse=1 WtCom= 1.00D+00 WtEn= 0.00D+00
 Coeff-Com: -0.328D-04 0.654D-04 0.102D-03 0.140D-03-0.417D-04-0.131D-02
 Coeff-Com: -0.503D-02-0.433D-02 0.209D-01 0.462D-01-0.873D-02-0.165D+00
 Coeff-Com: -0.818D-01 0.415D+00 0.784D+00
 Coeff:     -0.328D-04 0.654D-04 0.102D-03 0.140D-03-0.417D-04-0.131D-02
 Coeff:     -0.503D-02-0.433D-02 0.209D-01 0.462D-01-0.873D-02-0.165D+00
 Coeff:     -0.818D-01 0.415D+00 0.784D+00
 Gap=     0.164 Goal=   None    Shift=    0.000
 RMSDP=4.21D-08 MaxDP=2.69D-06 DE=-2.93D-09 OVMax= 2.25D-05

 Cycle  16  Pass 1  IDiag  1:
 RMSU=  1.23D-08    CP:  9.72D-01  1.57D+00  7.11D-01  7.33D-01  1.02D+00
                    CP:  1.14D+00  1.29D+00  1.41D+00  1.99D+00  2.18D+00
                    CP:  2.79D+00  2.62D+00  1.80D+00  1.47D+00  1.01D+00
 E= -3007.90812048281     Delta-E=       -0.000000000251 Rises=F Damp=F
 DIIS: error= 9.84D-08 at cycle  16 NSaved=  16.
 NSaved=16 IEnMin=16 EnMin= -3007.90812048281     IErMin=16 ErrMin= 9.84D-08
 ErrMax= 9.84D-08  0.00D+00 EMaxC= 1.00D-01 BMatC= 1.30D-11 BMatP= 9.89D-11
 IDIUse=1 WtCom= 1.00D+00 WtEn= 0.00D+00
 Coeff-Com: -0.116D-04 0.226D-04 0.396D-04 0.626D-04 0.598D-04-0.312D-03
 Coeff-Com: -0.211D-02-0.276D-02 0.530D-02 0.211D-01 0.107D-01-0.446D-01
 Coeff-Com: -0.793D-01 0.214D-01 0.276D+00 0.794D+00
 Coeff:     -0.116D-04 0.226D-04 0.396D-04 0.626D-04 0.598D-04-0.312D-03
 Coeff:     -0.211D-02-0.276D-02 0.530D-02 0.211D-01 0.107D-01-0.446D-01
 Coeff:     -0.793D-01 0.214D-01 0.276D+00 0.794D+00
 Gap=     0.164 Goal=   None    Shift=    0.000
 RMSDP=1.37D-08 MaxDP=2.10D-06 DE=-2.51D-10 OVMax= 6.85D-06

 Cycle  17  Pass 1  IDiag  1:
 RMSU=  5.42D-09    CP:  9.72D-01  1.57D+00  7.11D-01  7.33D-01  1.02D+00
                    CP:  1.14D+00  1.29D+00  1.41D+00  2.00D+00  2.19D+00
                    CP:  2.81D+00  2.65D+00  1.84D+00  1.55D+00  1.16D+00
                    CP:  1.22D+00
 E= -3007.90812048292     Delta-E=       -0.000000000115 Rises=F Damp=F
 DIIS: error= 6.28D-08 at cycle  17 NSaved=  17.
 NSaved=17 IEnMin=17 EnMin= -3007.90812048292     IErMin=17 ErrMin= 6.28D-08
 ErrMax= 6.28D-08  0.00D+00 EMaxC= 1.00D-01 BMatC= 3.22D-12 BMatP= 1.30D-11
 IDIUse=1 WtCom= 1.00D+00 WtEn= 0.00D+00
 Coeff-Com:  0.218D-05-0.451D-05-0.561D-05-0.452D-05 0.306D-04 0.155D-03
 Coeff-Com:  0.212D-03-0.168D-03-0.252D-02-0.117D-02 0.495D-02 0.191D-01
 Coeff-Com: -0.149D-01-0.731D-01-0.447D-01 0.291D+00 0.821D+00
 Coeff:      0.218D-05-0.451D-05-0.561D-05-0.452D-05 0.306D-04 0.155D-03
 Coeff:      0.212D-03-0.168D-03-0.252D-02-0.117D-02 0.495D-02 0.191D-01
 Coeff:     -0.149D-01-0.731D-01-0.447D-01 0.291D+00 0.821D+00
 Gap=     0.164 Goal=   None    Shift=    0.000
 RMSDP=5.90D-09 MaxDP=4.40D-07 DE=-1.15D-10 OVMax= 3.87D-06

 SCF Done:  E(RwB97XD) =  -3007.90812048     A.U. after   17 cycles
            NFock= 17  Conv=0.59D-08     -V/T= 2.0104
 KE= 2.976905114572D+03 PE=-2.678726735829D+04 EE= 1.090516396917D+04
 Leave Link  502 at Wed Apr 27 15:49:23 2022, MaxMem= 10066329600 cpu:            8598.2 elap:             374.5
 (Enter /sw/apps/gaussian-16.0/g16/l801.exe)
 DoSCS=F DFT=T ScalE2(SS,OS)=  1.000000  1.000000
 ExpMin= 3.36D-02 ExpMax= 4.95D+03 ExpMxC= 7.45D+02 IAcc=3 IRadAn=         5 AccDes= 0.00D+00
 HarFok:  IExCor=  205 AccDes= 0.00D+00 IRadAn=         5 IDoV=-2 UseB2=F ITyADJ=14
 ICtDFT= 12500011 ScaDFX=  1.000000  1.000000  1.000000  1.000000
 GSVD:  LWork=       -5460 too small for GESVD, short by       25550 words or       25550 for optimal perf.
 Largest valence mixing into a core orbital is  1.58D-04
 Largest core mixing into a valence orbital is  5.53D-05
 Range of M.O.s used for correlation:    71  1298
 NBasis=  1298 NAE=   246 NBE=   246 NFC=    70 NFV=     0
 NROrb=   1228 NOA=   176 NOB=   176 NVA=  1052 NVB=  1052
 Leave Link  801 at Wed Apr 27 15:49:23 2022, MaxMem= 10066329600 cpu:               6.7 elap:               0.3
 (Enter /sw/apps/gaussian-16.0/g16/l914.exe)
 RHF ground state
 Two-electron integrals replicated using symmetry.
 MDV= 10066329600 DFT=T DoStab=F Mixed=T DoRPA=T DoScal=F NonHer=T
 Making orbital integer symmetry assigments:
 Orbital symmetries:
       Occupied  (A) (A) (A) (A) (A) (A) (A) (A) (A) (A) (A) (A)
                 (A) (A) (A) (A) (A) (A) (A) (A) (A) (A) (A) (A)
                 (A) (A) (A) (A) (A) (A) (A) (A) (A) (A) (A) (A)
                 (A) (A) (A) (A) (A) (A) (A) (A) (A) (A) (A) (A)
                 (A) (A) (A) (A) (A) (A) (A) (A) (A) (A) (A) (A)
                 (A) (A) (A) (A) (A) (A) (A) (A) (A) (A) (A) (A)
                 (A) (A) (A) (A) (A) (A) (A) (A) (A) (A) (A) (A)
                 (A) (A) (A) (A) (A) (A) (A) (A) (A) (A) (A) (A)
                 (A) (A) (A) (A) (A) (A) (A) (A) (A) (A) (A) (A)
                 (A) (A) (A) (A) (A) (A) (A) (A) (A) (A) (A) (A)
                 (A) (A) (A) (A) (A) (A) (A) (A) (A) (A) (A) (A)
                 (A) (A) (A) (A) (A) (A) (A) (A) (A) (A) (A) (A)
                 (A) (A) (A) (A) (A) (A) (A) (A) (A) (A) (A) (A)
                 (A) (A) (A) (A) (A) (A) (A) (A) (A) (A) (A) (A)
                 (A) (A) (A) (A) (A) (A) (A) (A) (A) (A) (A) (A)
                 (A) (A) (A) (A) (A) (A) (A) (A) (A) (A) (A) (A)
                 (A) (A) (A) (A) (A) (A) (A) (A) (A) (A) (A) (A)
                 (A) (A) (A) (A) (A) (A) (A) (A) (A) (A) (A) (A)
                 (A) (A) (A) (A) (A) (A) (A) (A) (A) (A) (A) (A)
                 (A) (A) (A) (A) (A) (A) (A) (A) (A) (A) (A) (A)
                 (A) (A) (A) (A) (A) (A)
       Virtual   (A) (A) (A) (A) (A) (A) (A) (A) (A) (A) (A) (A)
                 (A) (A) (A) (A) (A) (A) (A) (A) (A) (A) (A) (A)
                 (A) (A) (A) (A) (A) (A) (A) (A) (A) (A) (A) (A)
                 (A) (A) (A) (A) (A) (A) (A) (A) (A) (A) (A) (A)
                 (A) (A) (A) (A) (A) (A) (A) (A) (A) (A) (A) (A)
                 (A) (A) (A) (A) (A) (A) (A) (A) (A) (A) (A) (A)
                 (A) (A) (A) (A) (A) (A) (A) (A) (A) (A) (A) (A)
                 (A) (A) (A) (A) (A) (A) (A) (A) (A) (A) (A) (A)
                 (A) (A) (A) (A) (A) (A) (A) (A) (A) (A) (A) (A)
                 (A) (A) (A) (A) (A) (A) (A) (A) (A) (A) (A) (A)
                 (A) (A) (A) (A) (A) (A) (A) (A) (A) (A) (A) (A)
                 (A) (A) (A) (A) (A) (A) (A) (A) (A) (A) (A) (A)
                 (A) (A) (A) (A) (A) (A) (A) (A) (A) (A) (A) (A)
                 (A) (A) (A) (A) (A) (A) (A) (A) (A) (A) (A) (A)
                 (A) (A) (A) (A) (A) (A) (A) (A) (A) (A) (A) (A)
                 (A) (A) (A) (A) (A) (A) (A) (A) (A) (A) (A) (A)
                 (A) (A) (A) (A) (A) (A) (A) (A) (A) (A) (A) (A)
                 (A) (A) (A) (A) (A) (A) (A) (A) (A) (A) (A) (A)
                 (A) (A) (A) (A) (A) (A) (A) (A) (A) (A) (A) (A)
                 (A) (A) (A) (A) (A) (A) (A) (A) (A) (A) (A) (A)
                 (A) (A) (A) (A) (A) (A) (A) (A) (A) (A) (A) (A)
                 (A) (A) (A) (A) (A) (A) (A) (A) (A) (A) (A) (A)
                 (A) (A) (A) (A) (A) (A) (A) (A) (A) (A) (A) (A)
                 (A) (A) (A) (A) (A) (A) (A) (A) (A) (A) (A) (A)
                 (A) (A) (A) (A) (A) (A) (A) (A) (A) (A) (A) (A)
                 (A) (A) (A) (A) (A) (A) (A) (A) (A) (A) (A) (A)
                 (A) (A) (A) (A) (A) (A) (A) (A) (A) (A) (A) (A)
                 (A) (A) (A) (A) (A) (A) (A) (A) (A) (A) (A) (A)
                 (A) (A) (A) (A) (A) (A) (A) (A) (A) (A) (A) (A)
                 (A) (A) (A) (A) (A) (A) (A) (A) (A) (A) (A) (A)
                 (A) (A) (A) (A) (A) (A) (A) (A) (A) (A) (A) (A)
                 (A) (A) (A) (A) (A) (A) (A) (A) (A) (A) (A) (A)
                 (A) (A) (A) (A) (A) (A) (A) (A) (A) (A) (A) (A)
                 (A) (A) (A) (A) (A) (A) (A) (A) (A) (A) (A) (A)
                 (A) (A) (A) (A) (A) (A) (A) (A) (A) (A) (A) (A)
                 (A) (A) (A) (A) (A) (A) (A) (A) (A) (A) (A) (A)
                 (A) (A) (A) (A) (A) (A) (A) (A) (A) (A) (A) (A)
                 (A) (A) (A) (A) (A) (A) (A) (A) (A) (A) (A) (A)
                 (A) (A) (A) (A) (A) (A) (A) (A) (A) (A) (A) (A)
                 (A) (A) (A) (A) (A) (A) (A) (A) (A) (A) (A) (A)
                 (A) (A) (A) (A) (A) (A) (A) (A) (A) (A) (A) (A)
                 (A) (A) (A) (A) (A) (A) (A) (A) (A) (A) (A) (A)
                 (A) (A) (A) (A) (A) (A) (A) (A) (A) (A) (A) (A)
                 (A) (A) (A) (A) (A) (A) (A) (A) (A) (A) (A) (A)
                 (A) (A) (A) (A) (A) (A) (A) (A) (A) (A) (A) (A)
                 (A) (A) (A) (A) (A) (A) (A) (A) (A) (A) (A) (A)
                 (A) (A) (A) (A) (A) (A) (A) (A) (A) (A) (A) (A)
                 (A) (A) (A) (A) (A) (A) (A) (A) (A) (A) (A) (A)
                 (A) (A) (A) (A) (A) (A) (A) (A) (A) (A) (A) (A)
                 (A) (A) (A) (A) (A) (A) (A) (A) (A) (A) (A) (A)
                 (A) (A) (A) (A) (A) (A) (A) (A) (A) (A) (A) (A)
                 (A) (A) (A) (A) (A) (A) (A) (A) (A) (A) (A) (A)
                 (A) (A) (A) (A) (A) (A) (A) (A) (A) (A) (A) (A)
                 (A) (A) (A) (A) (A) (A) (A) (A) (A) (A) (A) (A)
                 (A) (A) (A) (A) (A) (A) (A) (A) (A) (A) (A) (A)
                 (A) (A) (A) (A) (A) (A) (A) (A) (A) (A) (A) (A)
                 (A) (A) (A) (A) (A) (A) (A) (A) (A) (A) (A) (A)
                 (A) (A) (A) (A) (A) (A) (A) (A) (A) (A) (A) (A)
                 (A) (A) (A) (A) (A) (A) (A) (A) (A) (A) (A) (A)
                 (A) (A) (A) (A) (A) (A) (A) (A) (A) (A) (A) (A)
                 (A) (A) (A) (A) (A) (A) (A) (A) (A) (A) (A) (A)
                 (A) (A) (A) (A) (A) (A) (A) (A) (A) (A) (A) (A)
                 (A) (A) (A) (A) (A) (A) (A) (A) (A) (A) (A) (A)
                 (A) (A) (A) (A) (A) (A) (A) (A) (A) (A) (A) (A)
                 (A) (A) (A) (A) (A) (A) (A) (A) (A) (A) (A) (A)
                 (A) (A) (A) (A) (A) (A) (A) (A) (A) (A) (A) (A)
                 (A) (A) (A) (A) (A) (A) (A) (A) (A) (A) (A) (A)
                 (A) (A) (A) (A) (A) (A) (A) (A) (A) (A) (A) (A)
                 (A) (A) (A) (A) (A) (A) (A) (A) (A) (A) (A) (A)
                 (A) (A) (A) (A) (A) (A) (A) (A) (A) (A) (A) (A)
                 (A) (A) (A) (A) (A) (A) (A) (A) (A) (A) (A) (A)
                 (A) (A) (A) (A) (A) (A) (A) (A) (A) (A) (A) (A)
                 (A) (A) (A) (A) (A) (A) (A) (A) (A) (A) (A) (A)
                 (A) (A) (A) (A) (A) (A) (A) (A) (A) (A) (A) (A)
                 (A) (A) (A) (A) (A) (A) (A) (A) (A) (A) (A) (A)
                 (A) (A) (A) (A) (A) (A) (A) (A) (A) (A) (A) (A)
                 (A) (A) (A) (A) (A) (A) (A) (A) (A) (A) (A) (A)
                 (A) (A) (A) (A) (A) (A) (A) (A) (A) (A) (A) (A)
                 (A) (A) (A) (A) (A) (A) (A) (A) (A) (A) (A) (A)
                 (A) (A) (A) (A) (A) (A) (A) (A) (A) (A) (A) (A)
                 (A) (A) (A) (A) (A) (A) (A) (A) (A) (A) (A) (A)
                 (A) (A) (A) (A) (A) (A) (A) (A) (A) (A) (A) (A)
                 (A) (A) (A) (A) (A) (A) (A) (A) (A) (A) (A) (A)
                 (A) (A) (A) (A) (A) (A) (A) (A) (A) (A) (A) (A)
                 (A) (A) (A) (A) (A) (A) (A) (A) (A) (A) (A) (A)
                 (A) (A) (A) (A) (A) (A) (A) (A) (A) (A) (A) (A)
                 (A) (A) (A) (A) (A) (A) (A) (A) (A) (A) (A) (A)
                 (A) (A) (A) (A) (A) (A) (A) (A)
    20 initial guesses have been made.
 Convergence on wavefunction:    0.001000000000000
 Davidson Disk Diagonalization:  ConvIn= 1.00D-03 SkipCon=T Conv= 1.00D-03.
 Max sub-space:  2000 roots to seek:    20 dimension of matrix:       370304
 Iteration     1 Dimension    20 NMult     0 NNew     20
 CISAX will form    20 AO SS matrices at one time.
 NMat=    20 NSing=    20 JSym2X= 0.
 FoFJK:  IHMeth= 1 ICntrl=       0 DoSepK=T KAlg= 0 I1Cent=           0 FoldK=F
 IRaf=         1 NMat=      40 IRICut=       1 DoRegI=T DoRafI=F ISym2E= 0 IDoP0=3 IntGTp=3.
 FoFCou: FMM=T IPFlag=           0 FMFlag=      100000 FMFlg1=        2001
         NFxFlg=           0 DoJE=F BraDBF=F KetDBF=F FulRan=T
         wScrn=  0.000000 ICntrl=       500 IOpCl=  0 I1Cent=           0 NGrid=           0
         NMat0=   20 NMatS0=     20 NMatT0=    0 NMatD0=   20 NMtDS0=    0 NMtDT0=    0
 Symmetry not used in FoFCou.
 FMM levels:  10  Number of levels for PrismC:   9
 New state      3 was old state      4
 New state      4 was old state      3
 New state      5 was old state      7
 Excitation Energies [eV] at current iteration:
 Root      1 :     2.250228861670656
 Root      2 :     2.634528264297004
 Root      3 :     4.040063440329874
 Root      4 :     4.159520742061282
 Root      5 :     4.194890847356558
 Root      6 :     4.340371308925833
 Root      7 :     4.491478288101476
 Root      8 :     4.556025155701724
 Root      9 :     4.619419060690787
 Root     10 :     4.719672464863821
 Root     11 :     4.862374492932333
 Root     12 :     4.959695021357793
 Root     13 :     5.119022097404194
 Root     14 :     5.177517903821387
 Root     15 :     5.361490507577206
 Root     16 :     5.563585531678295
 Root     17 :     5.629056830815507
 Root     18 :     6.000005979437653
 Root     19 :     6.245989049644889
 Root     20 :     6.712792516908658
 Iteration     2 Dimension    30 NMult    20 NNew     10
 CISAX will form    10 AO SS matrices at one time.
 NMat=    10 NSing=    10 JSym2X= 0.
 Root      1 not converged, maximum delta is    0.072335894127373
 Root      2 not converged, maximum delta is    0.056704255662847
 New state      3 was old state      4
 Root      3 not converged, maximum delta is    0.211466144303836
 New state      4 was old state      3
 Root      4 not converged, maximum delta is    0.176122698616284
 Root      5 not converged, maximum delta is    0.253694352246250
 Excitation Energies [eV] at current iteration:
 Root      1 :     1.767670868010582   Change is   -0.482557993660073
 Root      2 :     2.237188695638428   Change is   -0.397339568658576
 Root      3 :     3.621078424034254   Change is   -0.538442318027028
 Root      4 :     3.656349914832978   Change is   -0.383713525496896
 Root      5 :     3.722804143613093   Change is   -0.472086703743465
 Iteration     3 Dimension    40 NMult    30 NNew     10
 CISAX will form    10 AO SS matrices at one time.
 NMat=    10 NSing=    10 JSym2X= 0.
 Root      1 not converged, maximum delta is    0.017869391555052
 Root      2 not converged, maximum delta is    0.010162129712603
 New state      3 was old state      5
 Root      3 not converged, maximum delta is    0.406596645299970
 New state      4 was old state      3
 Root      4 not converged, maximum delta is    0.215673727169053
 New state      5 was old state      4
 Root      5 not converged, maximum delta is    0.406472096662334
 Excitation Energies [eV] at current iteration:
 Root      1 :     1.731729491148732   Change is   -0.035941376861851
 Root      2 :     2.218073318226098   Change is   -0.019115377412330
 Root      3 :     3.548525395203307   Change is   -0.174278748409785
 Root      4 :     3.555955554935573   Change is   -0.065122869098681
 Root      5 :     3.659928395381854   Change is    0.003578480548876
 Iteration     4 Dimension    50 NMult    40 NNew     10
 CISAX will form    10 AO SS matrices at one time.
 NMat=    10 NSing=    10 JSym2X= 0.
 Root      1 not converged, maximum delta is    0.003308491248709
 Root      2 not converged, maximum delta is    0.004086829949481
 Root      3 not converged, maximum delta is    0.133294103748897
 Root      4 not converged, maximum delta is    0.120924673649332
 Root      5 not converged, maximum delta is    0.029018699681456
 Excitation Energies [eV] at current iteration:
 Root      1 :     1.727929833026809   Change is   -0.003799658121923
 Root      2 :     2.215670861507096   Change is   -0.002402456719002
 Root      3 :     3.532487553794216   Change is   -0.016037841409092
 Root      4 :     3.542027775089819   Change is   -0.013927779845754
 Root      5 :     3.653528252161096   Change is   -0.006400143220759
 Iteration     5 Dimension    60 NMult    50 NNew     10
 CISAX will form    10 AO SS matrices at one time.
 NMat=    10 NSing=    10 JSym2X= 0.
 Root      1 not converged, maximum delta is    0.001270622552317
 Root      2 has converged.
 Root      3 not converged, maximum delta is    0.009311422626582
 Root      4 not converged, maximum delta is    0.008853514995549
 Root      5 not converged, maximum delta is    0.009285932474270
 Excitation Energies [eV] at current iteration:
 Root      1 :     1.727574763497443   Change is   -0.000355069529366
 Root      2 :     2.215471785645196   Change is   -0.000199075861900
 Root      3 :     3.530491096716225   Change is   -0.001996457077991
 Root      4 :     3.540330195503490   Change is   -0.001697579586329
 Root      5 :     3.652332376949836   Change is   -0.001195875211260
 Iteration     6 Dimension    68 NMult    60 NNew      8
 CISAX will form     8 AO SS matrices at one time.
 NMat=     8 NSing=     8 JSym2X= 0.
 Root      1 has converged.
 Root      2 has converged.
 Root      3 not converged, maximum delta is    0.006231256425991
 Root      4 not converged, maximum delta is    0.008863820724868
 Root      5 not converged, maximum delta is    0.034797929605912
 Excitation Energies [eV] at current iteration:
 Root      1 :     1.727546706165071   Change is   -0.000028057332372
 Root      2 :     2.215470431921779   Change is   -0.000001353723418
 Root      3 :     3.530136282819480   Change is   -0.000354813896744
 Root      4 :     3.539951667704925   Change is   -0.000378527798565
 Root      5 :     3.651129024353668   Change is   -0.001203352596168
 Iteration     7 Dimension    74 NMult    68 NNew      6
 CISAX will form     6 AO SS matrices at one time.
 NMat=     6 NSing=     6 JSym2X= 0.
 Root      1 has converged.
 Root      2 has converged.
 Root      3 not converged, maximum delta is    0.013113228962639
 Root      4 not converged, maximum delta is    0.019812814975629
 Root      5 not converged, maximum delta is    0.331697489246464
 Excitation Energies [eV] at current iteration:
 Root      1 :     1.727546641242208   Change is   -0.000000064922863
 Root      2 :     2.215470034363191   Change is   -0.000000397558588
 Root      3 :     3.529965730434345   Change is   -0.000170552385136
 Root      4 :     3.539685162453861   Change is   -0.000266505251064
 Root      5 :     3.634244254913792   Change is   -0.016884769439877
 Iteration     8 Dimension    80 NMult    74 NNew      6
 CISAX will form     6 AO SS matrices at one time.
 NMat=     6 NSing=     6 JSym2X= 0.
 Root      1 has converged.
 Root      2 has converged.
 Root      3 not converged, maximum delta is    0.006219372053897
 Root      4 not converged, maximum delta is    0.009965051220290
 Root      5 not converged, maximum delta is    0.159838083098754
 Excitation Energies [eV] at current iteration:
 Root      1 :     1.727546567995360   Change is   -0.000000073246848
 Root      2 :     2.215469667649600   Change is   -0.000000366713591
 Root      3 :     3.529902497777241   Change is   -0.000063232657104
 Root      4 :     3.539569109149387   Change is   -0.000116053304474
 Root      5 :     3.613011080124012   Change is   -0.021233174789780
 Iteration     9 Dimension    86 NMult    80 NNew      6
 CISAX will form     6 AO SS matrices at one time.
 NMat=     6 NSing=     6 JSym2X= 0.
 Root      1 has converged.
 Root      2 has converged.
 Root      3 has converged.
 Root      4 not converged, maximum delta is    0.001486425095331
 Root      5 not converged, maximum delta is    0.010400291373711
 Excitation Energies [eV] at current iteration:
 Root      1 :     1.727546513148459   Change is   -0.000000054846901
 Root      2 :     2.215469128108711   Change is   -0.000000539540889
 Root      3 :     3.529893229237691   Change is   -0.000009268539550
 Root      4 :     3.539551604612898   Change is   -0.000017504536489
 Root      5 :     3.610208623666697   Change is   -0.002802456457315
 Iteration    10 Dimension    90 NMult    86 NNew      4
 CISAX will form     4 AO SS matrices at one time.
 NMat=     4 NSing=     4 JSym2X= 0.
 Root      1 has converged.
 Root      2 has converged.
 Root      3 has converged.
 Root      4 has converged.
 Root      5 not converged, maximum delta is    0.002276821018224
 Excitation Energies [eV] at current iteration:
 Root      1 :     1.727546487263425   Change is   -0.000000025885035
 Root      2 :     2.215468973047920   Change is   -0.000000155060792
 Root      3 :     3.529892324135724   Change is   -0.000000905101967
 Root      4 :     3.539549472017366   Change is   -0.000002132595532
 Root      5 :     3.609856770039010   Change is   -0.000351853627687
 Iteration    11 Dimension    92 NMult    90 NNew      2
 CISAX will form     2 AO SS matrices at one time.
 NMat=     2 NSing=     2 JSym2X= 0.
 Root      1 has converged.
 Root      2 has converged.
 Root      3 has converged.
 Root      4 has converged.
 Root      5 has converged.
 Excitation Energies [eV] at current iteration:
 Root      1 :     1.727546477240279   Change is   -0.000000010023146
 Root      2 :     2.215468873677324   Change is   -0.000000099370596
 Root      3 :     3.529892260159394   Change is   -0.000000063976330
 Root      4 :     3.539549304803063   Change is   -0.000000167214303
 Root      5 :     3.609808505023831   Change is   -0.000048265015178
 Convergence achieved on expansion vectors.
 ***********************************************************************
 Excited states from <AA,BB:AA,BB> singles matrix:
 ***********************************************************************
 
 1PDM for each excited state written to RWF  633
 Ground to excited state transition densities written to RWF  633
 Ground to excited state transition electric dipole moments (Au):
       state          X           Y           Z        Dip. S.      Osc.
         1         1.7113      2.4482     -0.2279      8.9742      0.3798
         2        -0.9876      0.7297     -0.3045      1.6006      0.0869
         3         0.5793     -0.5512      0.2114      0.6841      0.0592
         4         2.0369     -1.3837      0.5072      6.3205      0.5481
         5        -0.1945      0.0135      0.0048      0.0381      0.0034
 Ground to excited state transition velocity dipole moments (Au):
       state          X           Y           Z        Dip. S.      Osc.
         1        -0.1057     -0.1509      0.0133      0.0341      0.3582
         2         0.0765     -0.0560      0.0232      0.0095      0.0780
         3        -0.0725      0.0711     -0.0231      0.0109      0.0558
         4        -0.2553      0.1752     -0.0644      0.1000      0.5125
         5         0.0230     -0.0029      0.0015      0.0005      0.0027
 Ground to excited state transition magnetic dipole moments (Au):
       state          X           Y           Z
         1        -0.0218      0.0792      0.9266
         2         0.0709      0.1132     -0.0251
         3         0.1652      0.4087     -0.6168
         4        -0.1697     -0.7849     -1.3889
         5        -0.5456      0.4249     -0.0620
 Ground to excited state transition velocity quadrupole moments (Au):
       state          XX          YY          ZZ          XY          XZ          YZ
         1         1.4525     -0.3074      0.0402      0.9539     -0.1526     -0.0822
         2        -1.1667      0.0555      0.0169      0.5372     -0.2108     -0.0083
         3         1.0115      0.0015     -0.0156     -0.5369      0.2417     -0.0219
         4         3.4423     -0.0488      0.0368     -1.6103      0.7805     -0.1528
         5        -0.3917      0.1266      0.0030      0.0405     -0.0330     -0.0532
 <0|del|b> * <b|rxdel|0> + <0|del|b> * <b|delr+rdel|0>
 Rotatory Strengths (R) in cgs (10**-40 erg-esu-cm/Gauss)
       state          XX          YY          ZZ    R(velocity)    E-M Angle
         1       -55.4879     59.2166     26.1540      9.9609       89.11
         2       -27.2246    -35.9217     50.0908     -4.3519       96.51
         3       105.1456    -23.2842     89.1527     57.0047       66.59
         4      -220.2108    185.0145      9.5963     -8.5333       90.53
         5        -3.6680    -37.1775    -33.2957    -24.7137      149.41
 1/2[<0|r|b>*<b|rxdel|0> + (<0|rxdel|b>*<b|r|0>)*]
 Rotatory Strengths (R) in cgs (10**-40 erg-esu-cm/Gauss)
       state          XX          YY          ZZ     R(length)
         1        26.4286   -137.0946    149.3250     12.8863
         2        49.5248    -58.3866     -5.4141     -4.7587
         3       -67.6703    159.3095     92.2212     61.2868
         4       244.4278   -768.0479    498.1113     -8.5029
         5       -75.0611     -4.0659      0.2124    -26.3049
  1/2[<0|del|b>*<b|r|0> + (<0|r|b>*<b|del|0>)*] (Au)
       state          X           Y           Z        Dip. S.   Osc.(frdel)
         1        -0.1809     -0.3694     -0.0030      0.5533      0.3688
         2        -0.0755     -0.0409     -0.0071      0.1235      0.0823
         3        -0.0420     -0.0392     -0.0049      0.0861      0.0574
         4        -0.5199     -0.2424     -0.0327      0.7950      0.5300
         5        -0.0045     -0.0000      0.0000      0.0045      0.0030

 Excitation energies and oscillator strengths:
 
 Excited State   1:      Singlet-A      1.7275 eV  717.69 nm  f=0.3798  <S**2>=0.000
     245 -> 248       -0.20175
     246 -> 247        0.67864
     245 <- 248       -0.11619
 This state for optimization and/or second-order correction.
 Total Energy, E(TD-HF/TD-DFT) =  -3007.84463432    
 Copying the excited state density for this state as the 1-particle RhoCI density.
 
 Excited State   2:      Singlet-A      2.2155 eV  559.63 nm  f=0.0869  <S**2>=0.000
     245 -> 247        0.63229
     246 -> 248        0.30522
 
 Excited State   3:      Singlet-A      3.5299 eV  351.24 nm  f=0.0592  <S**2>=0.000
     240 -> 247       -0.11916
[...]
 Alpha virt. eigenvalues --    1.21773   1.22023   1.22495   1.22600   1.23666
 Alpha virt. eigenvalues --    1.24072   1.24652   1.24806   1.25013   1.25516
 Alpha virt. eigenvalues --    1.26008   1.26638   1.27003   1.27676   1.28614
 Alpha virt. eigenvalues --    1.29016   1.29385   1.29609   1.30171   1.30480
 Alpha virt. eigenvalues --    1.31070   1.31496   1.31777   1.32168   1.32445
 Alpha virt. eigenvalues --    1.32942   1.33572   1.34660   1.35207   1.35536
 Alpha virt. eigenvalues --    1.35964   1.36204   1.36441   1.36987   1.37978
 Alpha virt. eigenvalues --    1.38723   1.39017   1.39393   1.39581   1.40175
 Alpha virt. eigenvalues --    1.40514   1.40662   1.41617   1.41818   1.42028
 Alpha virt. eigenvalues --    1.42112   1.42505   1.42801   1.42890   1.43775
 Alpha virt. eigenvalues --    1.44108   1.44439   1.44944   1.45437   1.45570
 Alpha virt. eigenvalues --    1.45801   1.45877   1.46713   1.46827   1.47271
 Alpha virt. eigenvalues --    1.47667   1.47900   1.48185   1.48573   1.48698
 Alpha virt. eigenvalues --    1.49288   1.49542   1.49735   1.50582   1.50912
 Alpha virt. eigenvalues --    1.51727   1.51886   1.52177   1.53471   1.53900
 Alpha virt. eigenvalues --    1.53984   1.55676   1.55741   1.56517   1.56682
 Alpha virt. eigenvalues --    1.57337   1.57850   1.58069   1.58540   1.59044
 Alpha virt. eigenvalues --    1.59337   1.59600   1.60200   1.60459   1.60742
 Alpha virt. eigenvalues --    1.60893   1.61386   1.61552   1.61783   1.61940
 Alpha virt. eigenvalues --    1.62093   1.62190   1.62355   1.62497   1.62669
 Alpha virt. eigenvalues --    1.62787   1.62952   1.63206   1.63370   1.63784
 Alpha virt. eigenvalues --    1.64139   1.64268   1.64546   1.64755   1.65231
 Alpha virt. eigenvalues --    1.65326   1.65695   1.66079   1.66330   1.66759
 Alpha virt. eigenvalues --    1.67278   1.67600   1.67747   1.67935   1.68370
 Alpha virt. eigenvalues --    1.68445   1.69858   1.69941   1.70785   1.71566
 Alpha virt. eigenvalues --    1.71728   1.72276   1.72346   1.73458   1.73654
 Alpha virt. eigenvalues --    1.74079   1.74427   1.74470   1.74731   1.75582
 Alpha virt. eigenvalues --    1.75855   1.75964   1.76414   1.76972   1.77505
 Alpha virt. eigenvalues --    1.77627   1.78315   1.78642   1.78715   1.78927
 Alpha virt. eigenvalues --    1.79337   1.79778   1.79918   1.80411   1.80690
 Alpha virt. eigenvalues --    1.80919   1.81053   1.81130   1.81544   1.82029
 Alpha virt. eigenvalues --    1.82113   1.82197   1.82574   1.82949   1.83057
 Alpha virt. eigenvalues --    1.83398   1.83553   1.83843   1.83966   1.84116
 Alpha virt. eigenvalues --    1.84153   1.84390   1.84474   1.84890   1.85063
 Alpha virt. eigenvalues --    1.85160   1.85472   1.86067   1.86355   1.86375
 Alpha virt. eigenvalues --    1.86648   1.86718   1.86932   1.87070   1.87471
 Alpha virt. eigenvalues --    1.87607   1.88204   1.88366   1.88464   1.88638
 Alpha virt. eigenvalues --    1.88976   1.89200   1.89373   1.89583   1.89822
 Alpha virt. eigenvalues --    1.89868   1.90036   1.90271   1.90535   1.90714
 Alpha virt. eigenvalues --    1.90764   1.90953   1.91245   1.91386   1.91651
 Alpha virt. eigenvalues --    1.91787   1.91919   1.92279   1.92333   1.92557
 Alpha virt. eigenvalues --    1.92903   1.92935   1.93219   1.93522   1.93647
 Alpha virt. eigenvalues --    1.93816   1.93951   1.94190   1.94249   1.94754
 Alpha virt. eigenvalues --    1.94926   1.95041   1.95241   1.95587   1.95674
 Alpha virt. eigenvalues --    1.96125   1.96254   1.96464   1.96751   1.96892
 Alpha virt. eigenvalues --    1.97311   1.97445   1.97719   1.97896   1.97983
 Alpha virt. eigenvalues --    1.98517   1.98747   1.98993   1.99258   1.99606
 Alpha virt. eigenvalues --    1.99839   1.99866   2.00093   2.00531   2.00896
 Alpha virt. eigenvalues --    2.00999   2.01352   2.01546   2.01751   2.01901
 Alpha virt. eigenvalues --    2.02163   2.02696   2.02899   2.03068   2.03398
 Alpha virt. eigenvalues --    2.03529   2.03753   2.04030   2.04134   2.04538
 Alpha virt. eigenvalues --    2.04930   2.05136   2.05220   2.05640   2.05787
 Alpha virt. eigenvalues --    2.06264   2.06643   2.06856   2.07304   2.07456
 Alpha virt. eigenvalues --    2.07637   2.07914   2.08513   2.08734   2.08784
 Alpha virt. eigenvalues --    2.09266   2.09648   2.09810   2.10008   2.10701
 Alpha virt. eigenvalues --    2.10920   2.11024   2.11222   2.11808   2.12151
 Alpha virt. eigenvalues --    2.12373   2.12484   2.12844   2.13105   2.13383
 Alpha virt. eigenvalues --    2.14002   2.14456   2.14724   2.14838   2.15114
 Alpha virt. eigenvalues --    2.15588   2.15737   2.16088   2.16285   2.16741
 Alpha virt. eigenvalues --    2.16983   2.17089   2.17762   2.18329   2.18567
 Alpha virt. eigenvalues --    2.19004   2.19115   2.19668   2.19823   2.19949
 Alpha virt. eigenvalues --    2.20154   2.20352   2.20445   2.20523   2.21062
 Alpha virt. eigenvalues --    2.21236   2.21450   2.21882   2.22635   2.22939
 Alpha virt. eigenvalues --    2.23119   2.23745   2.23786   2.24166   2.24610
 Alpha virt. eigenvalues --    2.24871   2.25257   2.25761   2.25862   2.26566
 Alpha virt. eigenvalues --    2.26747   2.26961   2.27462   2.28300   2.28492
 Alpha virt. eigenvalues --    2.29270   2.29938   2.30550   2.30626   2.30708
 Alpha virt. eigenvalues --    2.31031   2.31367   2.31692   2.31955   2.32135
 Alpha virt. eigenvalues --    2.32233   2.32971   2.33760   2.33919   2.34549
 Alpha virt. eigenvalues --    2.35099   2.35562   2.36093   2.36703   2.36944
 Alpha virt. eigenvalues --    2.37108   2.37262   2.37903   2.39155   2.39553
 Alpha virt. eigenvalues --    2.40000   2.40390   2.40629   2.40942   2.41251
 Alpha virt. eigenvalues --    2.41734   2.41930   2.42409   2.42470   2.43347
 Alpha virt. eigenvalues --    2.43552   2.43856   2.44060   2.44415   2.44688
 Alpha virt. eigenvalues --    2.44731   2.45147   2.45700   2.45804   2.46018
 Alpha virt. eigenvalues --    2.46682   2.46952   2.47007   2.47308   2.47734
 Alpha virt. eigenvalues --    2.48171   2.48623   2.49031   2.49164   2.49264
 Alpha virt. eigenvalues --    2.49470   2.49892   2.50403   2.50791   2.51180
 Alpha virt. eigenvalues --    2.51311   2.51438   2.52495   2.52599   2.52831
 Alpha virt. eigenvalues --    2.53343   2.53513   2.54097   2.54205   2.54438
 Alpha virt. eigenvalues --    2.54935   2.55726   2.55748   2.55855   2.56254
 Alpha virt. eigenvalues --    2.57384   2.57966   2.58516   2.59150   2.59547
 Alpha virt. eigenvalues --    2.59870   2.60260   2.60820   2.60969   2.62080
 Alpha virt. eigenvalues --    2.62577   2.62776   2.63092   2.63365   2.64542
 Alpha virt. eigenvalues --    2.65375   2.65563   2.66169   2.66350   2.66756
 Alpha virt. eigenvalues --    2.66892   2.67030   2.67268   2.67726   2.68387
 Alpha virt. eigenvalues --    2.68452   2.68643   2.68836   2.69086   2.69680
 Alpha virt. eigenvalues --    2.69826   2.70338   2.70410   2.71201   2.71448
 Alpha virt. eigenvalues --    2.71811   2.72092   2.72402   2.72451   2.72674
 Alpha virt. eigenvalues --    2.72816   2.74498   2.74590   2.74949   2.76148
 Alpha virt. eigenvalues --    2.76449   2.76682   2.76749   2.77178   2.77554
 Alpha virt. eigenvalues --    2.77895   2.78270   2.78865   2.79334   2.79395
 Alpha virt. eigenvalues --    2.79823   2.80481   2.81504   2.81668   2.81949
 Alpha virt. eigenvalues --    2.82048   2.82237   2.82965   2.83573   2.83600
 Alpha virt. eigenvalues --    2.83899   2.84363   2.84922   2.85604   2.86015
 Alpha virt. eigenvalues --    2.86313   2.86705   2.87631   2.87748   2.88521
 Alpha virt. eigenvalues --    2.89517   2.89549   2.89812   2.90712   2.90965
 Alpha virt. eigenvalues --    2.91284   2.92328   2.92893   2.93085   2.93954
 Alpha virt. eigenvalues --    2.94123   2.94351   2.94862   2.95840   2.96493
 Alpha virt. eigenvalues --    2.96575   2.96867   2.97041   2.97377   2.98053
 Alpha virt. eigenvalues --    2.98669   2.98830   2.99196   2.99375   2.99425
 Alpha virt. eigenvalues --    2.99861   2.99973   3.00211   3.00880   3.01660
 Alpha virt. eigenvalues --    3.01939   3.02106   3.02359   3.02574   3.02803
 Alpha virt. eigenvalues --    3.02850   3.03142   3.03410   3.03812   3.04130
 Alpha virt. eigenvalues --    3.04698   3.04946   3.05771   3.06066   3.06523
 Alpha virt. eigenvalues --    3.06652   3.07188   3.07303   3.07655   3.07872
 Alpha virt. eigenvalues --    3.08024   3.08272   3.08564   3.08622   3.08808
 Alpha virt. eigenvalues --    3.09162   3.09563   3.09773   3.10438   3.10907
 Alpha virt. eigenvalues --    3.11178   3.11312   3.11871   3.12047   3.12233
 Alpha virt. eigenvalues --    3.12582   3.12914   3.13396   3.13572   3.13855
 Alpha virt. eigenvalues --    3.14879   3.15118   3.16225   3.16629   3.17031
 Alpha virt. eigenvalues --    3.17922   3.18062   3.19849   3.20052   3.20213
 Alpha virt. eigenvalues --    3.20922   3.21605   3.22116   3.23017   3.24523
 Alpha virt. eigenvalues --    3.25937   3.26102   3.27039   3.27840   3.28461
 Alpha virt. eigenvalues --    3.28834   3.29707   3.30694   3.31779   3.32059
 Alpha virt. eigenvalues --    3.33771   3.37058   3.47469   3.49613   3.51612
 Alpha virt. eigenvalues --    3.52668   3.54201   3.56101   3.58183   3.60673
 Alpha virt. eigenvalues --    3.68000   3.68789   3.72166   3.72872   3.75626
 Alpha virt. eigenvalues --    3.75756   3.79559
          Condensed to atoms (all electrons):
 Mulliken charges:
               1
     1  Mg   0.964319
     2  C   -0.050605
     3  C   -0.095884
     4  C   -0.084264
     5  C   -0.102512
     6  N   -0.285122
     7  C   -0.072029
     8  C   -0.017770
     9  C   -0.116865
    10  C    0.045767
    11  C    0.024068
    12  C    0.036404
    13  C    0.012980
    14  C    0.197356
    15  O   -0.259382
    16  O   -0.347870
    17  N   -0.486342
    18  C    0.202152
    19  C   -0.158520
    20  C   -0.026842
    21  C    0.147344
    22  C    0.056322
    23  C    0.030121
    24  O   -0.218212
    25  C   -0.035713
    26  N   -0.404912
    27  C    0.071144
    28  C   -0.079267
    29  C   -0.111561
    30  C    0.110401
    31  C    0.050976
    32  C   -0.019435
    33  C   -0.061790
    34  N   -0.380164
    35  C    0.119843
    36  C   -0.200854
    37  C    0.003295
    38  C    0.157198
    39  C    0.079859
    40  C    0.051342
    41  O   -0.190931
    42  C   -0.037209
    43  C    0.235604
    44  O   -0.253502
    45  O   -0.332695
    46  C    0.137356
    47  C    0.268449
    48  C   -0.133506
    49  C   -0.243326
    50  C    0.025060
    51  C    0.039347
    52  C   -0.013869
    53  C    0.004096
    54  C   -0.188673
    55  C    0.023505
    56  C   -0.008727
    57  C   -0.036391
    58  C    0.009242
    59  C   -0.198920
    60  C   -0.013221
    61  C    0.048035
    62  C   -0.031516
    63  C   -0.018598
    64  C   -0.256091
    65  C    0.010889
    66  C    0.040055
    67  H   -0.002762
    68  H    0.027678
    69  H   -0.001181
    70  H    0.021068
    71  H    0.032262
    72  H    0.053845
    73  H    0.042673
    74  H    0.034421
    75  H    0.049182
    76  H    0.043539
    77  H    0.059667
    78  H    0.044835
    79  H    0.042754
    80  H    0.072950
    81  H    0.033901
    82  H    0.041076
    83  H    0.047854
    84  H    0.036668
    85  H    0.045779
    86  H    0.032584
    87  H    0.048044
    88  H    0.028599
    89  H    0.029681
    90  H    0.033911
    91  H    0.025003
    92  H    0.042815
    93  H    0.033865
    94  H    0.050390
    95  H    0.049560
    96  H    0.045608
    97  H    0.051525
    98  H    0.062914
    99  H    0.042993
   100  H    0.053811
   101  H    0.068212
   102  H    0.053600
   103  H    0.053964
   104  H    0.013885
   105  H    0.044453
   106  H    0.022546
   107  H    0.046874
   108  H    0.017133
   109  H    0.023967
   110  H    0.037865
   111  H    0.026870
   112  H    0.022142
   113  H    0.023278
   114  H    0.018222
   115  H    0.029086
   116  H    0.024681
   117  H    0.014789
   118  H    0.009146
   119  H    0.007656
   120  H    0.017678
   121  H    0.013433
   122  H    0.027991
   123  H    0.022067
   124  H    0.028213
   125  H    0.028457
   126  H    0.016769
   127  H    0.040359
   128  H    0.000862
   129  H    0.014415
   130  H    0.019236
   131  H    0.017566
   132  H    0.011166
   133  H    0.005016
   134  H    0.013084
   135  H    0.030121
   136  H    0.038937
   137  H    0.024486
   138  H    0.013002
   139  H    0.025830
   140  H    0.045996
 Sum of Mulliken charges =  -0.00000
 Mulliken charges with hydrogens summed into heavy atoms:
               1
     1  Mg   0.964319
     2  C   -0.050605
     3  C   -0.098646
     4  C   -0.056586
     5  C   -0.103693
     6  N   -0.285122
     7  C   -0.072029
     8  C    0.003298
     9  C   -0.084603
    10  C    0.045767
    11  C    0.155006
    12  C    0.129124
    13  C    0.117482
    14  C    0.197356
    15  O   -0.259382
    16  O   -0.347870
    17  N   -0.486342
    18  C    0.202152
    19  C   -0.158520
    20  C   -0.026842
    21  C    0.147344
    22  C    0.205927
    23  C    0.030121
    24  O   -0.218212
    25  C    0.089884
    26  N   -0.404912
    27  C    0.071144
    28  C   -0.033488
    29  C   -0.078977
    30  C    0.110401
    31  C    0.157300
    32  C    0.039479
    33  C    0.065280
    34  N   -0.380164
    35  C    0.119843
    36  C   -0.200854
    37  C    0.003295
    38  C    0.157198
    39  C    0.226552
    40  C    0.051342
    41  O   -0.190931
    42  C    0.025705
    43  C    0.235604
    44  O   -0.253502
    45  O   -0.332695
    46  C    0.302372
    47  C    0.376012
    48  C   -0.119621
    49  C   -0.243326
    50  C    0.138933
    51  C    0.080448
    52  C    0.050866
    53  C    0.049515
    54  C   -0.170451
    55  C    0.092061
    56  C    0.008076
    57  C   -0.005280
    58  C    0.059299
    59  C   -0.170708
    60  C    0.072365
    61  C    0.063312
    62  C    0.005286
    63  C   -0.002417
    64  C   -0.243006
    65  C    0.104433
    66  C    0.124883
 Electronic spatial extent (au):  <R**2>=          87910.3026
 Charge=             -0.0000 electrons
 Dipole moment (field-independent basis, Debye):
    X=              5.6687    Y=              1.9841    Z=              0.9929  Tot=              6.0875
 Quadrupole moment (field-independent basis, Debye-Ang):
   XX=           -377.3788   YY=           -425.2617   ZZ=           -409.3364
   XY=            -25.2055   XZ=             14.0945   YZ=              0.4448
 Traceless Quadrupole moment (field-independent basis, Debye-Ang):
   XX=             26.6135   YY=            -21.2694   ZZ=             -5.3441
   XY=            -25.2055   XZ=             14.0945   YZ=              0.4448
 Octapole moment (field-independent basis, Debye-Ang**2):
  XXX=           -140.5200  YYY=           -102.8853  ZZZ=             28.4990  XYY=            279.8620
  XXY=            117.9512  XXZ=           -124.7531  XZZ=             40.6983  YZZ=            -16.0881
  YYZ=             97.6003  XYZ=            -37.5467
 Hexadecapole moment (field-independent basis, Debye-Ang**3):
 XXXX=         -74849.7899 YYYY=         -37477.9517 ZZZZ=          -5591.0176 XXXY=          -1954.1634
 XXXZ=            307.4372 YYYX=           -303.5871 YYYZ=            -73.7328 ZZZX=             70.0669
 ZZZY=           -343.5858 XXYY=         -19698.7106 XXZZ=         -14003.2054 YYZZ=          -6933.4694
 XXYZ=            532.1967 YYXZ=            183.3962 ZZXY=           -194.4031
 N-N= 9.897290154061D+03 E-N=-2.678726735300D+04  KE= 2.976905114572D+03
 Leave Link  601 at Wed Apr 27 16:11:24 2022, MaxMem= 10066329600 cpu:              10.5 elap:               0.5
 (Enter /sw/apps/gaussian-16.0/g16/l9999.exe)
 1\1\GINC-BP1-COMPUTE196\SP\RwB97XD TD-FC\def2SVP\C55H74Mg1N4O6\OF15641
 \27-Apr-2022\0\\#p wB97XD/Def2SVP td=(nstates=5)\\step_1251_chromophor
 e_12 TDDFT with wB97XD functional\\0,1\Mg,0,46.164,16.433,28.432\C,0,4
 4.409,15.447,31.363\C,0,47.72,18.752,30.475\C,0,47.657,17.531,25.787\C
 ,0,44.16,14.271,26.684\N,0,46.149,16.878,30.71\C,0,45.379,16.38,31.685
 \C,0,45.81,16.812,33.07\C,0,46.593,18.117,32.722\C,0,46.902,17.888,31.
 222\C,0,45.87,19.509,32.991\C,0,46.667,15.729,33.817\C,0,46.485,15.677
 ,35.358\C,0,47.797,15.437,36.143\O,0,48.509,14.45,36.108\O,0,48.134,16
 .54,36.867\N,0,47.662,17.836,28.181\C,0,48.082,18.729,29.171\C,0,48.85
 8,19.8,28.49\C,0,48.957,19.419,27.131\C,0,48.117,18.211,26.958\C,0,49.
 627,20.874,29.154\C,0,49.701,20.038,26.041\O,0,49.795,19.583,24.93\C,0
 ,50.569,21.321,26.22\N,0,46.13,15.669,26.521\C,0,46.738,16.433,25.539\
 C,0,46.424,15.839,24.133\C,0,45.378,14.719,24.443\C,0,45.253,14.79,26.
 024\C,0,46.035,16.857,23.119\C,0,45.953,13.353,23.902\C,0,47.297,12.81
 1,24.475\N,0,44.608,15.099,28.876\C,0,43.872,14.327,28.08\C,0,42.811,1
 3.72,28.774\C,0,43.007,14.082,30.104\C,0,44.169,14.927,30.122\C,0,41.7
 19,12.963,28.122\C,0,42.513,13.989,31.415\O,0,41.524,13.419,31.808\C,0
 ,43.477,14.865,32.312\C,0,42.634,15.868,32.99\O,0,42.053,16.764,32.4\O
 ,0,42.704,15.766,34.312\C,0,42.037,16.811,35.11\C,0,49.314,16.521,37.6
 75\C,0,49.38,17.784,38.513\C,0,50.269,18.056,39.43\C,0,51.422,17.14,39
 .881\C,0,50.252,19.348,40.246\C,0,50.74,20.527,39.419\C,0,51.806,21.31
 6,40.145\C,0,52.911,21.819,39.15\C,0,53.956,22.554,39.968\C,0,52.394,2
 2.786,38.073\C,0,53.217,22.891,36.746\C,0,53.318,24.342,36.12\C,0,53.2
 44,24.23,34.54\C,0,54.744,24.077,34.101\C,0,52.623,25.509,33.925\C,0,5
 1.5,25.227,32.934\C,0,52.035,24.6,31.67\C,0,51.709,25.435,30.461\C,0,5
 0.192,25.281,30.222\C,0,52.709,25.212,29.356\H,0,48.179,19.532,31.086\
 H,0,48.176,17.889,24.895\H,0,43.502,13.655,26.068\H,0,44.882,17.065,33
 .582\H,0,47.451,18.125,33.394\H,0,45.429,19.854,32.056\H,0,46.547,20.2
 5,33.417\H,0,45.109,19.326,33.749\H,0,47.724,15.776,33.556\H,0,46.387,
 14.725,33.499\H,0,45.813,14.835,35.525\H,0,45.913,16.48,35.824\H,0,49.
 653,21.823,28.619\H,0,50.642,20.537,29.363\H,0,49.111,21.106,30.086\H,
 0,50.156,22.211,26.696\H,0,51.104,21.732,25.364\H,0,51.356,21.014,26.9
 08\H,0,47.327,15.316,23.816\H,0,44.412,14.92,23.979\H,0,46.277,17.865,
 23.457\H,0,44.979,16.764,22.867\H,0,46.593,16.662,22.203\H,0,45.986,13
 .469,22.819\H,0,45.158,12.631,24.091\H,0,47.856,13.502,25.105\H,0,48.0
 49,12.661,23.7\H,0,47.139,11.873,25.007\H,0,41.178,13.534,27.368\H,0,4
 0.988,12.813,28.917\H,0,42.029,11.965,27.811\H,0,43.945,14.139,32.977\
 H,0,42.555,17.769,35.083\H,0,42.03,16.538,36.165\H,0,41.003,17.03,34.8
 42\H,0,50.275,16.529,37.16\H,0,49.343,15.669,38.354\H,0,48.753,18.649,
 38.295\H,0,52.336,17.672,39.617\H,0,51.355,16.163,39.403\H,0,51.443,16
 .878,40.939\H,0,50.747,19.193,41.205\H,0,49.219,19.511,40.553\H,0,49.8
 84,21.132,39.119\H,0,51.215,20.104,38.534\H,0,52.327,20.686,40.866\H,0
 ,51.377,22.175,40.662\H,0,53.299,20.967,38.592\H,0,53.682,22.665,41.01
 7\H,0,54.315,23.485,39.529\H,0,54.894,22.001,40.007\H,0,52.166,23.782,
 38.453\H,0,51.405,22.488,37.724\H,0,52.821,22.161,36.04\H,0,54.246,22.
 556,36.871\H,0,54.249,24.719,36.543\H,0,52.56,24.992,36.557\H,0,52.773
 ,23.369,34.065\H,0,55.286,24.917,34.536\H,0,54.814,24.251,33.027\H,0,5
 5.119,23.073,34.297\H,0,53.458,25.992,33.418\H,0,52.262,26.205,34.682\
 H,0,50.968,26.147,32.694\H,0,50.744,24.594,33.398\H,0,51.605,23.617,31
 .479\H,0,53.117,24.483,31.723\H,0,51.866,26.466,30.778\H,0,49.827,26.3
 06,30.147\H,0,49.662,24.794,31.041\H,0,50.066,24.794,29.255\H,0,52.178
 ,25.082,28.414\H,0,53.199,24.25,29.505\H,0,53.364,26.083,29.397\\Versi
 on=ES64L-G16RevA.03\State=1-A\HF=-3007.9081205\RMSD=5.901e-09\PG=C01 [
 X(C55H74Mg1N4O6)]\\@


 SI MONUMENTUM REQUIRIS, CIRCUMSPICE
     -- FROM SIR CHRISTOPHER WREN'S TOMBSTONE
 Job cpu time:       0 days 11 hours 11 minutes  7.2 seconds.
 Elapsed time:       0 days  0 hours 28 minutes 27.0 seconds.
 File lengths (MBytes):  RWF=   8929 Int=      0 D2E=      0 Chk=    390 Scr=      1
 Normal termination of Gaussian 16 at Wed Apr 27 16:11:25 2022.
