 Entering Gaussian System, Link 0=g16
 Initial command:
 /sw/apps/gaussian-16.0/g16/l1.exe "/tmp/Gau-75907.inp" -scrdir="/tmp/"
 Entering Link 1 = /sw/apps/gaussian-16.0/g16/l1.exe PID=     75908.
  
 Copyright (c) 1988,1990,1992,1993,1995,1998,2003,2009,2016,
            Gaussian, Inc.  All Rights Reserved.
  
 This is part of the Gaussian(R) 16 program.  It is based on
 the Gaussian(R) 09 system (copyright 2009, Gaussian, Inc.),
 the Gaussian(R) 03 system (copyright 2003, Gaussian, Inc.),
 the Gaussian(R) 98 system (copyright 1998, Gaussian, Inc.),
 the Gaussian(R) 94 system (copyright 1995, Gaussian, Inc.),
 the Gaussian 92(TM) system (copyright 1992, Gaussian, Inc.),
 the Gaussian 90(TM) system (copyright 1990, Gaussian, Inc.),
 the Gaussian 88(TM) system (copyright 1988, Gaussian, Inc.),
 the Gaussian 86(TM) system (copyright 1986, Carnegie Mellon
 University), and the Gaussian 82(TM) system (copyright 1983,
 Carnegie Mellon University). Gaussian is a federally registered
 trademark of Gaussian, Inc.
  
 This software contains proprietary and confidential information,
 including trade secrets, belonging to Gaussian, Inc.
  
 This software is provided under written license and may be
 used, copied, transmitted, or stored only in accord with that
 written license.
  
 The following legend is applicable only to US Government
 contracts under FAR:
  
                    RESTRICTED RIGHTS LEGEND
  
 Use, reproduction and disclosure by the US Government is
 subject to restrictions as set forth in subparagraphs (a)
 and (c) of the Commercial Computer Software - Restricted
 Rights clause in FAR 52.227-19.
  
 Gaussian, Inc.
 340 Quinnipiac St., Bldg. 40, Wallingford CT 06492
  
  
 ---------------------------------------------------------------
 Warning -- This program may not be used in any manner that
 competes with the business of Gaussian, Inc. or will provide
 assistance to any competitor of Gaussian, Inc.  The licensee
 of this program is prohibited from giving any competitor of
 Gaussian, Inc. access to this program.  By using this program,
 the user acknowledges that Gaussian, Inc. is engaged in the
 business of creating and licensing software in the field of
 computational chemistry and represents and warrants to the
 licensee that it is not a competitor of Gaussian, Inc. and that
 it will not use this program in any manner prohibited above.
 ---------------------------------------------------------------
  

 Cite this work as:
 Gaussian 16, Revision A.03,
 M. J. Frisch, G. W. Trucks, H. B. Schlegel, G. E. Scuseria, 
 M. A. Robb, J. R. Cheeseman, G. Scalmani, V. Barone, 
 G. A. Petersson, H. Nakatsuji, X. Li, M. Caricato, A. V. Marenich, 
 J. Bloino, B. G. Janesko, R. Gomperts, B. Mennucci, H. P. Hratchian, 
 J. V. Ortiz, A. F. Izmaylov, J. L. Sonnenberg, D. Williams-Young, 
 F. Ding, F. Lipparini, F. Egidi, J. Goings, B. Peng, A. Petrone, 
 T. Henderson, D. Ranasinghe, V. G. Zakrzewski, J. Gao, N. Rega, 
 G. Zheng, W. Liang, M. Hada, M. Ehara, K. Toyota, R. Fukuda, 
 J. Hasegawa, M. Ishida, T. Nakajima, Y. Honda, O. Kitao, H. Nakai, 
 T. Vreven, K. Throssell, J. A. Montgomery, Jr., J. E. Peralta, 
 F. Ogliaro, M. J. Bearpark, J. J. Heyd, E. N. Brothers, K. N. Kudin, 
 V. N. Staroverov, T. A. Keith, R. Kobayashi, J. Normand, 
 K. Raghavachari, A. P. Rendell, J. C. Burant, S. S. Iyengar, 
 J. Tomasi, M. Cossi, J. M. Millam, M. Klene, C. Adamo, R. Cammi, 
 J. W. Ochterski, R. L. Martin, K. Morokuma, O. Farkas, 
 J. B. Foresman, and D. J. Fox, Gaussian, Inc., Wallingford CT, 2016.
 
 ******************************************
 Gaussian 16:  ES64L-G16RevA.03 25-Dec-2016
                30-Apr-2022 
 ******************************************
 %nproc=24
 Will use up to   24 processors via shared memory.
 %mem=75GB
 ------------------------------
 #p blyp/Def2SVP td=(nstates=5)
 ------------------------------
 1/38=1,172=1/1;
 2/12=2,17=6,18=5,40=1/2;
 3/5=43,7=101,11=9,25=1,30=1,74=402/1,2,3,8;
 4//1;
 5/5=2,38=5/2;
 8/6=1,10=1,108=5/1;
 9/41=5,42=1,70=2/14;
 6/7=2,8=2,9=2,10=2/1;
 99/5=1,9=1/99;
 Leave Link    1 at Sat Apr 30 04:59:58 2022, MaxMem= 10066329600 cpu:               0.9 elap:               0.0
 (Enter /sw/apps/gaussian-16.0/g16/l101.exe)
 -------------------------------------------------
 step_551_chromophore_9 TDDFT with blyp functional
 -------------------------------------------------
 Symbolic Z-matrix:
 Charge =  0 Multiplicity = 1
 Mg                    35.362    1.151     29.763 
 C                     32.996    2.261     32.146 
 C                     37.738    1.207     32.2 
 C                     37.589    0.317     27.374 
 C                     32.876    1.619     27.258 
 N                     35.369    1.74      31.887 
 C                     34.276    2.058     32.707 
 C                     34.689    2.111     34.13 
 C                     36.226    2.165     34.074 
 C                     36.488    1.598     32.609 
 C                     36.708    3.626     34.242 
 C                     34.18     0.942     35.011 
 C                     34.172    1.105     36.614 
 C                     34.767    2.43      37.212 
 O                     34.139    3.484     37.402 
 O                     36.048    2.18      37.636 
 N                     37.406    0.656     29.807 
 C                     38.222    0.897     30.926 
 C                     39.577    0.589     30.533 
 C                     39.496    0.145     29.12 
 C                     38.113    0.378     28.685 
 C                     40.733    0.527     31.463 
 C                     40.61    -0.35      28.177 
 O                     40.442   -0.425     26.966 
 C                     41.921   -0.782     28.792 
 N                     35.157    0.674     27.609 
 C                     36.268    0.427     26.868 
 C                     35.94     0.782     25.446 
 C                     34.427    0.963     25.417 
 C                     34.109    1.129     26.857 
 C                     36.826    1.881     24.705 
 C                     33.585   -0.158     24.712 
 C                     33.177   -1.382     25.682 
 N                     33.361    1.84      29.704 
 C                     32.453    1.947     28.603 
 C                     31.074    2.22      29.101 
 C                     31.28     2.41      30.501 
 C                     32.662    2.135     30.772 
 C                     29.892    2.49      28.215 
 C                     30.671    2.785     31.738 
 O                     29.516    3.099     31.956 
 C                     31.732    2.538     32.863 
 C                     31.763    3.737     33.776 
 O                     32.435    4.668     33.578 
 O                     30.944    3.58      34.889 
 C                     31.042    4.58      35.945 
 C                     36.726    3.25      38.36 
 C                     37.456    2.697     39.604 
 C                     36.99     2.118     40.784 
 C                     35.571    1.924     41.136 
 C                     38.046    1.694     41.815 
 C                     38.769    0.385     41.542 
 C                     39.182   -0.245     42.825 
 C                     40.536   -0.964     42.782 
 C                     40.411   -2.519     43.194 
 C                     41.691   -0.22      43.645 
 C                     42.298    0.838     42.86 
 C                     42.698    1.92      43.832 
 C                     43.705    2.926     43.16 
 C                     45.134    2.375     43.566 
 C                     43.533    4.453     43.5 
 C                     43.562    5.34      42.217 
 C                     44.579    6.439     42.381 
 C                     44.041    7.757     41.702 
 C                     45.169    8.598     41.063 
 C                     43.234    8.552     42.733 
 H                     38.49     1.102     32.984 
 H                     38.24     0.112     26.522 
 H                     32.134    1.774     26.472 
 H                     34.341    3.008     34.643 
 H                     36.714    1.459     34.747 
 H                     36.092    4.208     33.556 
 H                     37.757    3.801     34.002 
 H                     36.613    3.869     35.3 
 H                     34.614   -0.001     34.678 
 H                     33.13     0.902     34.722 
 H                     34.7      0.284     37.098 
 H                     33.115    0.918     36.806 
 H                     41.555    1.003     30.928 
 H                     40.964   -0.479     31.811 
 H                     40.491    1.11      32.352 
 H                     42.497    0.073     29.146 
 H                     42.581   -1.264     28.071 
 H                     41.77    -1.538     29.563 
 H                     36.202   -0.166     24.977 
 H                     34.322    1.951     24.968 
 H                     36.873    1.792     23.62 
 H                     37.851    1.837     25.076 
 H                     36.359    2.858     24.825 
 H                     34.131   -0.48      23.825 
 H                     32.732    0.41      24.342 
 H                     33.384   -2.307     25.144 
 H                     32.124   -1.452     25.956 
 H                     33.749   -1.47      26.605 
 H                     30.37     2.901     27.326 
 H                     29.226    3.252     28.62 
 H                     29.306    1.621     27.916 
 H                     31.298    1.645     33.314 
 H                     30.173    5.234     35.888 
 H                     32.014    5.04      36.123 
 H                     30.994    3.896     36.793 
 H                     36.145    4.077     38.766 
 H                     37.398    3.736     37.653 
 H                     38.518    2.918     39.498 
 H                     34.923    2.253     40.324 
 H                     35.222    2.449     42.025 
 H                     35.472    0.854     41.314 
 H                     37.617    1.818     42.809 
 H                     38.775    2.504     41.812 
 H                     39.545    0.664     40.829 
 H                     38.063   -0.255     41.014 
 H                     38.323   -0.9       42.974 
 H                     39.177    0.525     43.596 
 H                     40.915   -1.153     41.778 
 H                     40.859   -3.222     42.491 
 H                     39.36    -2.793     43.103 
 H                     40.777   -2.647     44.213 
 H                     42.471   -0.973     43.755 
 H                     41.264    0.147     44.579 
 H                     41.493    1.25      42.252 
 H                     43.128    0.397     42.308 
 H                     43.029    1.47      44.768 
 H                     41.77     2.444     44.064 
 H                     43.709    2.837     42.073 
 H                     45.742    2.049     42.722 
 H                     45.157    1.516     44.237 
 H                     45.719    3.139     44.077 
 H                     44.325    4.756     44.185 
 H                     42.649    4.615     44.117 
 H                     42.561    5.755     42.093 
 H                     43.791    4.75      41.33 
 H                     45.551    6.145     41.986 
 H                     44.796    6.746     43.403 
 H                     43.306    7.37      40.996 
 H                     45.953    7.917     40.731 
 H                     45.679    9.254     41.769 
 H                     44.879    9.176     40.185 
 H                     42.297    8.879     42.283 
 H                     43.664    9.402     43.262 
 H                     42.907    7.918     43.557 
 
 ITRead=  0  0  0  0  0  0  0  0  0  0  0  0  0  0  0  0  0  0  0  0
 ITRead=  0  0  0  0  0  0  0  0  0  0  0  0  0  0  0  0  0  0  0  0
 ITRead=  0  0  0  0  0  0  0  0  0  0  0  0  0  0  0  0  0  0  0  0
 ITRead=  0  0  0  0  0  0  0  0  0  0  0  0  0  0  0  0  0  0  0  0
 ITRead=  0  0  0  0  0  0  0  0  0  0  0  0  0  0  0  0  0  0  0  0
 ITRead=  0  0  0  0  0  0  0  0  0  0  0  0  0  0  0  0  0  0  0  0
 ITRead=  0  0  0  0  0  0  0  0  0  0  0  0  0  0  0  0  0  0  0  0
 MicOpt= -1 -1 -1 -1 -1 -1 -1 -1 -1 -1 -1 -1 -1 -1 -1 -1 -1 -1 -1 -1
 MicOpt= -1 -1 -1 -1 -1 -1 -1 -1 -1 -1 -1 -1 -1 -1 -1 -1 -1 -1 -1 -1
 MicOpt= -1 -1 -1 -1 -1 -1 -1 -1 -1 -1 -1 -1 -1 -1 -1 -1 -1 -1 -1 -1
 MicOpt= -1 -1 -1 -1 -1 -1 -1 -1 -1 -1 -1 -1 -1 -1 -1 -1 -1 -1 -1 -1
 MicOpt= -1 -1 -1 -1 -1 -1 -1 -1 -1 -1 -1 -1 -1 -1 -1 -1 -1 -1 -1 -1
 MicOpt= -1 -1 -1 -1 -1 -1 -1 -1 -1 -1 -1 -1 -1 -1 -1 -1 -1 -1 -1 -1
 MicOpt= -1 -1 -1 -1 -1 -1 -1 -1 -1 -1 -1 -1 -1 -1 -1 -1 -1 -1 -1 -1
 NAtoms=    140 NQM=      140 NQMF=       0 NMMI=      0 NMMIF=      0
                NMic=       0 NMicF=      0.
                    Isotopes and Nuclear Properties:
 (Nuclear quadrupole moments (NQMom) in fm**2, nuclear magnetic moments (NMagM)
  in nuclear magnetons)

  Atom         1           2           3           4           5           6           7           8           9          10
 IAtWgt=          24          12          12          12          12          14          12          12          12          12
 AtmWgt=  23.9850450  12.0000000  12.0000000  12.0000000  12.0000000  14.0030740  12.0000000  12.0000000  12.0000000  12.0000000
 NucSpn=           0           0           0           0           0           2           0           0           0           0
 AtZEff=  -0.0000000  -0.0000000  -0.0000000  -0.0000000  -0.0000000  -0.0000000  -0.0000000  -0.0000000  -0.0000000  -0.0000000
 NQMom=    0.0000000   0.0000000   0.0000000   0.0000000   0.0000000   2.0440000   0.0000000   0.0000000   0.0000000   0.0000000
 NMagM=    0.0000000   0.0000000   0.0000000   0.0000000   0.0000000   0.4037610   0.0000000   0.0000000   0.0000000   0.0000000
 AtZNuc=  12.0000000   6.0000000   6.0000000   6.0000000   6.0000000   7.0000000   6.0000000   6.0000000   6.0000000   6.0000000

  Atom        11          12          13          14          15          16          17          18          19          20
 IAtWgt=          12          12          12          12          16          16          14          12          12          12
 AtmWgt=  12.0000000  12.0000000  12.0000000  12.0000000  15.9949146  15.9949146  14.0030740  12.0000000  12.0000000  12.0000000
 NucSpn=           0           0           0           0           0           0           2           0           0           0
 AtZEff=  -0.0000000  -0.0000000  -0.0000000  -0.0000000  -0.0000000  -0.0000000  -0.0000000  -0.0000000  -0.0000000  -0.0000000
 NQMom=    0.0000000   0.0000000   0.0000000   0.0000000   0.0000000   0.0000000   2.0440000   0.0000000   0.0000000   0.0000000
 NMagM=    0.0000000   0.0000000   0.0000000   0.0000000   0.0000000   0.0000000   0.4037610   0.0000000   0.0000000   0.0000000
 AtZNuc=   6.0000000   6.0000000   6.0000000   6.0000000   8.0000000   8.0000000   7.0000000   6.0000000   6.0000000   6.0000000

  Atom        21          22          23          24          25          26          27          28          29          30
 IAtWgt=          12          12          12          16          12          14          12          12          12          12
 AtmWgt=  12.0000000  12.0000000  12.0000000  15.9949146  12.0000000  14.0030740  12.0000000  12.0000000  12.0000000  12.0000000
 NucSpn=           0           0           0           0           0           2           0           0           0           0
 AtZEff=  -0.0000000  -0.0000000  -0.0000000  -0.0000000  -0.0000000  -0.0000000  -0.0000000  -0.0000000  -0.0000000  -0.0000000
 NQMom=    0.0000000   0.0000000   0.0000000   0.0000000   0.0000000   2.0440000   0.0000000   0.0000000   0.0000000   0.0000000
 NMagM=    0.0000000   0.0000000   0.0000000   0.0000000   0.0000000   0.4037610   0.0000000   0.0000000   0.0000000   0.0000000
 AtZNuc=   6.0000000   6.0000000   6.0000000   8.0000000   6.0000000   7.0000000   6.0000000   6.0000000   6.0000000   6.0000000

  Atom        31          32          33          34          35          36          37          38          39          40
 IAtWgt=          12          12          12          14          12          12          12          12          12          12
 AtmWgt=  12.0000000  12.0000000  12.0000000  14.0030740  12.0000000  12.0000000  12.0000000  12.0000000  12.0000000  12.0000000
 NucSpn=           0           0           0           2           0           0           0           0           0           0
 AtZEff=  -0.0000000  -0.0000000  -0.0000000  -0.0000000  -0.0000000  -0.0000000  -0.0000000  -0.0000000  -0.0000000  -0.0000000
 NQMom=    0.0000000   0.0000000   0.0000000   2.0440000   0.0000000   0.0000000   0.0000000   0.0000000   0.0000000   0.0000000
 NMagM=    0.0000000   0.0000000   0.0000000   0.4037610   0.0000000   0.0000000   0.0000000   0.0000000   0.0000000   0.0000000
 AtZNuc=   6.0000000   6.0000000   6.0000000   7.0000000   6.0000000   6.0000000   6.0000000   6.0000000   6.0000000   6.0000000

  Atom        41          42          43          44          45          46          47          48          49          50
 IAtWgt=          16          12          12          16          16          12          12          12          12          12
 AtmWgt=  15.9949146  12.0000000  12.0000000  15.9949146  15.9949146  12.0000000  12.0000000  12.0000000  12.0000000  12.0000000
 NucSpn=           0           0           0           0           0           0           0           0           0           0
 AtZEff=  -0.0000000  -0.0000000  -0.0000000  -0.0000000  -0.0000000  -0.0000000  -0.0000000  -0.0000000  -0.0000000  -0.0000000
 NQMom=    0.0000000   0.0000000   0.0000000   0.0000000   0.0000000   0.0000000   0.0000000   0.0000000   0.0000000   0.0000000
 NMagM=    0.0000000   0.0000000   0.0000000   0.0000000   0.0000000   0.0000000   0.0000000   0.0000000   0.0000000   0.0000000
 AtZNuc=   8.0000000   6.0000000   6.0000000   8.0000000   8.0000000   6.0000000   6.0000000   6.0000000   6.0000000   6.0000000

  Atom        51          52          53          54          55          56          57          58          59          60
 IAtWgt=          12          12          12          12          12          12          12          12          12          12
 AtmWgt=  12.0000000  12.0000000  12.0000000  12.0000000  12.0000000  12.0000000  12.0000000  12.0000000  12.0000000  12.0000000
 NucSpn=           0           0           0           0           0           0           0           0           0           0
 AtZEff=  -0.0000000  -0.0000000  -0.0000000  -0.0000000  -0.0000000  -0.0000000  -0.0000000  -0.0000000  -0.0000000  -0.0000000
 NQMom=    0.0000000   0.0000000   0.0000000   0.0000000   0.0000000   0.0000000   0.0000000   0.0000000   0.0000000   0.0000000
 NMagM=    0.0000000   0.0000000   0.0000000   0.0000000   0.0000000   0.0000000   0.0000000   0.0000000   0.0000000   0.0000000
 AtZNuc=   6.0000000   6.0000000   6.0000000   6.0000000   6.0000000   6.0000000   6.0000000   6.0000000   6.0000000   6.0000000

  Atom        61          62          63          64          65          66          67          68          69          70
 IAtWgt=          12          12          12          12          12          12           1           1           1           1
 AtmWgt=  12.0000000  12.0000000  12.0000000  12.0000000  12.0000000  12.0000000   1.0078250   1.0078250   1.0078250   1.0078250
 NucSpn=           0           0           0           0           0           0           1           1           1           1
 AtZEff=  -0.0000000  -0.0000000  -0.0000000  -0.0000000  -0.0000000  -0.0000000  -0.0000000  -0.0000000  -0.0000000  -0.0000000
 NQMom=    0.0000000   0.0000000   0.0000000   0.0000000   0.0000000   0.0000000   0.0000000   0.0000000   0.0000000   0.0000000
 NMagM=    0.0000000   0.0000000   0.0000000   0.0000000   0.0000000   0.0000000   2.7928460   2.7928460   2.7928460   2.7928460
 AtZNuc=   6.0000000   6.0000000   6.0000000   6.0000000   6.0000000   6.0000000   1.0000000   1.0000000   1.0000000   1.0000000

  Atom        71          72          73          74          75          76          77          78          79          80
 IAtWgt=           1           1           1           1           1           1           1           1           1           1
 AtmWgt=   1.0078250   1.0078250   1.0078250   1.0078250   1.0078250   1.0078250   1.0078250   1.0078250   1.0078250   1.0078250
 NucSpn=           1           1           1           1           1           1           1           1           1           1
 AtZEff=  -0.0000000  -0.0000000  -0.0000000  -0.0000000  -0.0000000  -0.0000000  -0.0000000  -0.0000000  -0.0000000  -0.0000000
 NQMom=    0.0000000   0.0000000   0.0000000   0.0000000   0.0000000   0.0000000   0.0000000   0.0000000   0.0000000   0.0000000
 NMagM=    2.7928460   2.7928460   2.7928460   2.7928460   2.7928460   2.7928460   2.7928460   2.7928460   2.7928460   2.7928460
 AtZNuc=   1.0000000   1.0000000   1.0000000   1.0000000   1.0000000   1.0000000   1.0000000   1.0000000   1.0000000   1.0000000

  Atom        81          82          83          84          85          86          87          88          89          90
 IAtWgt=           1           1           1           1           1           1           1           1           1           1
 AtmWgt=   1.0078250   1.0078250   1.0078250   1.0078250   1.0078250   1.0078250   1.0078250   1.0078250   1.0078250   1.0078250
 NucSpn=           1           1           1           1           1           1           1           1           1           1
 AtZEff=  -0.0000000  -0.0000000  -0.0000000  -0.0000000  -0.0000000  -0.0000000  -0.0000000  -0.0000000  -0.0000000  -0.0000000
 NQMom=    0.0000000   0.0000000   0.0000000   0.0000000   0.0000000   0.0000000   0.0000000   0.0000000   0.0000000   0.0000000
 NMagM=    2.7928460   2.7928460   2.7928460   2.7928460   2.7928460   2.7928460   2.7928460   2.7928460   2.7928460   2.7928460
 AtZNuc=   1.0000000   1.0000000   1.0000000   1.0000000   1.0000000   1.0000000   1.0000000   1.0000000   1.0000000   1.0000000

  Atom        91          92          93          94          95          96          97          98          99         100
 IAtWgt=           1           1           1           1           1           1           1           1           1           1
 AtmWgt=   1.0078250   1.0078250   1.0078250   1.0078250   1.0078250   1.0078250   1.0078250   1.0078250   1.0078250   1.0078250
 NucSpn=           1           1           1           1           1           1           1           1           1           1
 AtZEff=  -0.0000000  -0.0000000  -0.0000000  -0.0000000  -0.0000000  -0.0000000  -0.0000000  -0.0000000  -0.0000000  -0.0000000
 NQMom=    0.0000000   0.0000000   0.0000000   0.0000000   0.0000000   0.0000000   0.0000000   0.0000000   0.0000000   0.0000000
 NMagM=    2.7928460   2.7928460   2.7928460   2.7928460   2.7928460   2.7928460   2.7928460   2.7928460   2.7928460   2.7928460
 AtZNuc=   1.0000000   1.0000000   1.0000000   1.0000000   1.0000000   1.0000000   1.0000000   1.0000000   1.0000000   1.0000000

  Atom       101         102         103         104         105         106         107         108         109         110
 IAtWgt=           1           1           1           1           1           1           1           1           1           1
 AtmWgt=   1.0078250   1.0078250   1.0078250   1.0078250   1.0078250   1.0078250   1.0078250   1.0078250   1.0078250   1.0078250
 NucSpn=           1           1           1           1           1           1           1           1           1           1
 AtZEff=  -0.0000000  -0.0000000  -0.0000000  -0.0000000  -0.0000000  -0.0000000  -0.0000000  -0.0000000  -0.0000000  -0.0000000
 NQMom=    0.0000000   0.0000000   0.0000000   0.0000000   0.0000000   0.0000000   0.0000000   0.0000000   0.0000000   0.0000000
 NMagM=    2.7928460   2.7928460   2.7928460   2.7928460   2.7928460   2.7928460   2.7928460   2.7928460   2.7928460   2.7928460
 AtZNuc=   1.0000000   1.0000000   1.0000000   1.0000000   1.0000000   1.0000000   1.0000000   1.0000000   1.0000000   1.0000000

  Atom       111         112         113         114         115         116         117         118         119         120
 IAtWgt=           1           1           1           1           1           1           1           1           1           1
 AtmWgt=   1.0078250   1.0078250   1.0078250   1.0078250   1.0078250   1.0078250   1.0078250   1.0078250   1.0078250   1.0078250
 NucSpn=           1           1           1           1           1           1           1           1           1           1
 AtZEff=  -0.0000000  -0.0000000  -0.0000000  -0.0000000  -0.0000000  -0.0000000  -0.0000000  -0.0000000  -0.0000000  -0.0000000
 NQMom=    0.0000000   0.0000000   0.0000000   0.0000000   0.0000000   0.0000000   0.0000000   0.0000000   0.0000000   0.0000000
 NMagM=    2.7928460   2.7928460   2.7928460   2.7928460   2.7928460   2.7928460   2.7928460   2.7928460   2.7928460   2.7928460
 AtZNuc=   1.0000000   1.0000000   1.0000000   1.0000000   1.0000000   1.0000000   1.0000000   1.0000000   1.0000000   1.0000000

  Atom       121         122         123         124         125         126         127         128         129         130
 IAtWgt=           1           1           1           1           1           1           1           1           1           1
 AtmWgt=   1.0078250   1.0078250   1.0078250   1.0078250   1.0078250   1.0078250   1.0078250   1.0078250   1.0078250   1.0078250
 NucSpn=           1           1           1           1           1           1           1           1           1           1
 AtZEff=  -0.0000000  -0.0000000  -0.0000000  -0.0000000  -0.0000000  -0.0000000  -0.0000000  -0.0000000  -0.0000000  -0.0000000
 NQMom=    0.0000000   0.0000000   0.0000000   0.0000000   0.0000000   0.0000000   0.0000000   0.0000000   0.0000000   0.0000000
 NMagM=    2.7928460   2.7928460   2.7928460   2.7928460   2.7928460   2.7928460   2.7928460   2.7928460   2.7928460   2.7928460
 AtZNuc=   1.0000000   1.0000000   1.0000000   1.0000000   1.0000000   1.0000000   1.0000000   1.0000000   1.0000000   1.0000000

  Atom       131         132         133         134         135         136         137         138         139         140
 IAtWgt=           1           1           1           1           1           1           1           1           1           1
 AtmWgt=   1.0078250   1.0078250   1.0078250   1.0078250   1.0078250   1.0078250   1.0078250   1.0078250   1.0078250   1.0078250
 NucSpn=           1           1           1           1           1           1           1           1           1           1
 AtZEff=  -0.0000000  -0.0000000  -0.0000000  -0.0000000  -0.0000000  -0.0000000  -0.0000000  -0.0000000  -0.0000000  -0.0000000
 NQMom=    0.0000000   0.0000000   0.0000000   0.0000000   0.0000000   0.0000000   0.0000000   0.0000000   0.0000000   0.0000000
 NMagM=    2.7928460   2.7928460   2.7928460   2.7928460   2.7928460   2.7928460   2.7928460   2.7928460   2.7928460   2.7928460
 AtZNuc=   1.0000000   1.0000000   1.0000000   1.0000000   1.0000000   1.0000000   1.0000000   1.0000000   1.0000000   1.0000000
 Leave Link  101 at Sat Apr 30 04:59:59 2022, MaxMem= 10066329600 cpu:               2.8 elap:               0.1
 (Enter /sw/apps/gaussian-16.0/g16/l202.exe)
 Stoichiometry    C55H74MgN4O6
 Framework group  C1[X(C55H74MgN4O6)]
 Deg. of freedom   414
 Full point group                 C1      NOp   1
 Largest Abelian subgroup         C1      NOp   1
 Largest concise Abelian subgroup C1      NOp   1
                         Standard orientation:                         
 ---------------------------------------------------------------------
 Center     Atomic      Atomic             Coordinates (Angstroms)
 Number     Number       Type             X           Y           Z
 ---------------------------------------------------------------------
      1         12           0       -4.998234    0.797275   -0.129063
      2          6           0       -3.876430   -2.531935    0.279181
      3          6           0       -1.748784    1.796368   -0.303322
      4          6           0       -6.156223    3.959353   -0.279837
      5          6           0       -8.294279   -0.358659    0.559521
      6          7           0       -3.061553   -0.240193    0.047783
      7          6           0       -2.813309   -1.620027    0.098829
      8          6           0       -1.367435   -1.897131   -0.077155
      9          6           0       -0.693714   -0.529761    0.134551
     10          6           0       -1.924892    0.448188   -0.118776
     11          6           0       -0.142779   -0.432003    1.577459
     12          6           0       -0.975939   -2.534251   -1.434583
     13          6           0        0.444983   -3.280428   -1.577558
     14          6           0        1.408693   -3.250599   -0.337547
     15          8           0        1.411794   -4.068769    0.596256
     16          8           0        2.346468   -2.268945   -0.537971
     17          7           0       -4.067958    2.660769   -0.423806
     18          6           0       -2.677641    2.840581   -0.319951
     19          6           0       -2.428411    4.259718   -0.416245
     20          6           0       -3.758765    4.891737   -0.592249
     21          6           0       -4.755791    3.828179   -0.416219
     22          6           0       -1.082436    4.874595   -0.540164
     23          6           0       -4.126707    6.375089   -0.791131
     24          8           0       -5.275349    6.777427   -0.652871
     25          6           0       -3.029900    7.329753   -1.202470
     26          7           0       -7.039730    1.654613   -0.209913
     27          6           0       -7.201656    3.003006   -0.204687
     28          6           0       -8.557023    3.284150    0.378093
     29          6           0       -9.265232    1.935116    0.414380
     30          6           0       -8.131220    0.988074    0.275067
     31          6           0       -8.658759    4.202807    1.677168
     32          6           0      -10.412782    1.700370   -0.629964
     33          6           0       -9.902979    1.122076   -2.048138
     34          7           0       -5.897832   -1.055161    0.362268
     35          6           0       -7.272576   -1.383815    0.586278
     36          6           0       -7.445272   -2.864608    0.626296
     37          6           0       -6.099208   -3.337170    0.568555
     38          6           0       -5.251506   -2.194509    0.382227
     39          6           0       -8.739303   -3.557698    0.942726
     40          6           0       -5.253047   -4.486106    0.643606
     41          8           0       -5.561698   -5.652744    0.797991
     42          6           0       -3.803147   -4.009416    0.293019
     43          6           0       -2.841658   -4.593666    1.296176
     44          8           0       -2.587890   -4.075156    2.308252
     45          8           0       -2.267233   -5.780663    0.854302
     46          6           0       -1.173618   -6.335140    1.642528
     47          6           0        3.427998   -2.178085    0.437118
     48          6           0        4.790425   -1.992597   -0.266892
     49          6           0        5.536302   -2.826155   -1.099747
     50          6           0        5.159774   -4.196927   -1.492572
     51          6           0        6.879801   -2.281678   -1.606135
     52          6           0        6.816970   -1.299213   -2.764390
     53          6           0        8.056423   -1.396572   -3.581600
     54          6           0        8.561491   -0.062776   -4.145533
     55          6           0        8.673615   -0.087631   -5.754945
     56          6           0        9.947112    0.442112   -3.469167
     57          6           0        9.671792    1.141961   -2.228825
     58          6           0       10.842573    0.876238   -1.315495
     59          6           0       10.846278    1.886729   -0.108613
     60          6           0       11.800337    3.058383   -0.585558
     61          6           0       11.251289    1.321613    1.303308
     62          6           0       10.249298    1.763455    2.414383
     63          6           0       11.001629    2.395886    3.555880
     64          6           0       10.317554    1.996875    4.919859
     65          6           0       10.386326    3.127571    5.970946
     66          6           0       10.942439    0.692828    5.425047
     67          1           0       -0.724262    2.128088   -0.480811
     68          1           0       -6.624606    4.945167   -0.257093
     69          1           0       -9.309763   -0.689308    0.787222
     70          1           0       -0.970080   -2.585269    0.669476
     71          1           0        0.036842   -0.277479   -0.634963
     72          1           0       -0.959572   -0.769740    2.215863
     73          1           0        0.157158    0.566936    1.894924
     74          1           0        0.769845   -1.026725    1.606788
     75          1           0       -1.181133   -1.842396   -2.251728
     76          1           0       -1.723339   -3.322668   -1.520694
     77          1           0        1.014462   -2.889320   -2.420060
     78          1           0        0.097786   -4.263045   -1.898496
     79          1           0       -1.109865    5.752893    0.105069
     80          1           0       -0.793201    5.096678   -1.566577
     81          1           0       -0.344710    4.166985   -0.160925
     82          1           0       -2.346479    7.532061   -0.377773
     83          1           0       -3.413259    8.313086   -1.474236
     84          1           0       -2.517345    6.985160   -2.100980
     85          1           0       -8.962147    3.885916   -0.434964
     86          1           0       -9.586467    1.871756    1.454362
     87          1           0       -9.598527    4.740763    1.798802
     88          1           0       -7.861453    4.947330    1.663341
     89          1           0       -8.651419    3.570555    2.564423
     90          1           0      -10.975104    2.629512   -0.725129
     91          1           0      -11.064821    1.016425   -0.087564
     92          1           0      -10.391374    1.702113   -2.831047
     93          1           0      -10.162114    0.086451   -2.269758
     94          1           0       -8.838443    1.230894   -2.252536
     95          1           0       -9.245191   -2.813732    1.557802
     96          1           0       -8.601311   -4.454365    1.547021
     97          1           0       -9.380905   -3.790787    0.093035
     98          1           0       -3.719661   -4.437371   -0.706526
     99          1           0       -1.548294   -7.186812    2.208566
    100          1           0       -0.508334   -5.638432    2.152492
    101          1           0       -0.536768   -6.635700    0.809852
    102          1           0        3.614442   -3.011631    1.112962
    103          1           0        3.181182   -1.357142    1.109995
    104          1           0        5.219480   -1.049588    0.071583
    105          1           0        4.186640   -4.463338   -1.080838
    106          1           0        5.840531   -4.988656   -1.180352
    107          1           0        5.138430   -4.178655   -2.581422
    108          1           0        7.566125   -3.121275   -1.713324
    109          1           0        7.316166   -1.778693   -0.743499
    110          1           0        6.587976   -0.348483   -2.282664
    111          1           0        5.946864   -1.575709   -3.358769
    112          1           0        7.706425   -2.105358   -4.332754
    113          1           0        8.824108   -1.875602   -2.974512
    114          1           0        7.835137    0.748476   -4.104821
    115          1           0        8.180150    0.739324   -6.266568
    116          1           0        8.070561   -0.924451   -6.107105
    117          1           0        9.721382   -0.195689   -6.036384
    118          1           0       10.314623    1.209049   -4.150528
    119          1           0       10.611585   -0.410967   -3.327371
    120          1           0        8.814440    0.632677   -1.789497
    121          1           0        9.520762    2.192786   -2.475893
    122          1           0       11.761821    0.829677   -1.899423
    123          1           0       10.677709   -0.133130   -0.936575
    124          1           0        9.884721    2.387752    0.009245
    125          1           0       11.304093    4.023671   -0.686735
    126          1           0       12.293712    2.928927   -1.549131
    127          1           0       12.614368    3.214638    0.121534
    128          1           0       12.257722    1.662151    1.547078
    129          1           0       11.399908    0.242517    1.260243
    130          1           0        9.725102    0.866572    2.746682
    131          1           0        9.506409    2.459950    2.026671
    132          1           0       11.072362    3.476641    3.436668
    133          1           0       12.035932    2.080521    3.684657
    134          1           0        9.308979    1.730253    4.603441
    135          1           0       10.377216    4.081688    5.443482
    136          1           0       11.323042    3.149965    6.528560
    137          1           0        9.552699    3.162417    6.673029
    138          1           0       10.151609    0.012001    5.738833
    139          1           0       11.710564    0.689959    6.197845
    140          1           0       11.434386    0.148914    4.618818
 ---------------------------------------------------------------------
 Rotational constants (GHZ):           0.0388741           0.0113648           0.0100147
 Leave Link  202 at Sat Apr 30 04:59:59 2022, MaxMem= 10066329600 cpu:               0.2 elap:               0.0
 (Enter /sw/apps/gaussian-16.0/g16/l301.exe)
 Standard basis: def2SVP (5D, 7F)
 Ernie: Thresh=  0.10000D-02 Tol=  0.10000D-05 Strict=F.
 There are  1364 symmetry adapted cartesian basis functions of A   symmetry.
 There are  1298 symmetry adapted basis functions of A   symmetry.
  1298 basis functions,  2180 primitive gaussians,  1364 cartesian basis functions
   246 alpha electrons      246 beta electrons
       nuclear repulsion energy      9644.1225640647 Hartrees.
 IExCor=  402 DFT=T Ex=B Corr=LYP ExCW=0 ScaHFX=  0.000000
 ScaDFX=  1.000000  1.000000  1.000000  1.000000 ScalE2=  1.000000  1.000000
 IRadAn=      5 IRanWt=     -1 IRanGd=            0 ICorTp=0 IEmpDi=  4
 NAtoms=  140 NActive=  140 NUniq=  140 SFac= 1.00D+00 NAtFMM=   60 NAOKFM=T Big=T
 Integral buffers will be    131072 words long.
 Regular integral format.
 Two-electron integral symmetry is turned on.
 Leave Link  301 at Sat Apr 30 04:59:59 2022, MaxMem= 10066329600 cpu:               1.3 elap:               0.1
 (Enter /sw/apps/gaussian-16.0/g16/l302.exe)
 NPDir=0 NMtPBC=     1 NCelOv=     1 NCel=       1 NClECP=     1 NCelD=      1
         NCelK=      1 NCelE2=     1 NClLst=     1 CellRange=     0.0.
 One-electron integrals computed using PRISM.
 One-electron integral symmetry used in STVInt
   1 Symmetry operations used in ECPInt.
 ECPInt:  NShTT=  192510 NPrTT=  683786 LenC2=   96002 LenP2D=  209234.
 LDataN:  DoStor=T MaxTD1= 4 Len=   56
 NBasis=  1298 RedAO= T EigKep=  2.88D-04  NBF=  1298
 NBsUse=  1298 1.00D-06 EigRej= -1.00D+00 NBFU=  1298
 Precomputing XC quadrature grid using
 IXCGrd= 4 IRadAn=           5 IRanWt=          -1 IRanGd=           0 AccXCQ= 0.00D+00.
 Generated NRdTot=       0 NPtTot=           0 NUsed=           0 NTot=          32
 NSgBfM=  1145  1133  1136  1138  1145 MxSgAt=   140 MxSgA2=   140.
 Leave Link  302 at Sat Apr 30 05:00:02 2022, MaxMem= 10066329600 cpu:              81.2 elap:               3.4
 (Enter /sw/apps/gaussian-16.0/g16/l303.exe)
 DipDrv:  MaxL=1.
 Leave Link  303 at Sat Apr 30 05:00:02 2022, MaxMem= 10066329600 cpu:               6.8 elap:               0.3
 (Enter /sw/apps/gaussian-16.0/g16/l308.exe)
 Leave Link  308 at Sat Apr 30 05:00:03 2022, MaxMem= 10066329600 cpu:               9.3 elap:               0.5
 (Enter /sw/apps/gaussian-16.0/g16/l401.exe)
 ExpMin= 3.36D-02 ExpMax= 4.95D+03 ExpMxC= 7.45D+02 IAcc=3 IRadAn=         5 AccDes= 0.00D+00
 Harris functional with IExCor=  402 and IRadAn=       5 diagonalized for initial guess.
 HarFok:  IExCor=  402 AccDes= 0.00D+00 IRadAn=         5 IDoV= 1 UseB2=F ITyADJ=14
 ICtDFT=  3500011 ScaDFX=  1.000000  1.000000  1.000000  1.000000
 FoFCou: FMM=F IPFlag=           0 FMFlag=      100000 FMFlg1=        2001
         NFxFlg=           0 DoJE=T BraDBF=F KetDBF=T FulRan=T
         wScrn=  0.000000 ICntrl=       500 IOpCl=  0 I1Cent=   200000004 NGrid=           0
         NMat0=    1 NMatS0=      1 NMatT0=    0 NMatD0=    1 NMtDS0=    0 NMtDT0=    0
 Petite list used in FoFCou.
 Harris En= -3008.75897759171    
 JPrj=0 DoOrth=F DoCkMO=F.
 Leave Link  401 at Sat Apr 30 05:00:09 2022, MaxMem= 10066329600 cpu:             140.4 elap:               5.9
 (Enter /sw/apps/gaussian-16.0/g16/l502.exe)
 Integral symmetry usage will be decided dynamically.
 Closed shell SCF:
 Using DIIS extrapolation, IDIIS=  1040.
 NGot= 10066329600 LenX= 10062561258 LenY= 10060699398
 Requested convergence on RMS density matrix=1.00D-08 within 128 cycles.
 Requested convergence on MAX density matrix=1.00D-06.
 Requested convergence on             energy=1.00D-06.
 No special actions if energy rises.
 Fock matrices will be formed incrementally for  20 cycles.

 Cycle   1  Pass 1  IDiag  1:
 FoFJK:  IHMeth= 1 ICntrl=     500 DoSepK=F KAlg= 0 I1Cent=           0 FoldK=F
 IRaf= 520000000 NMat=       1 IRICut=       1 DoRegI=T DoRafI=F ISym2E= 0 IDoP0=0 IntGTp=1.
 FoFCou: FMM=T IPFlag=           0 FMFlag=      100000 FMFlg1=        2001
         NFxFlg=           0 DoJE=T BraDBF=F KetDBF=F FulRan=T
         wScrn=  0.000000 ICntrl=       500 IOpCl=  0 I1Cent=           0 NGrid=           0
         NMat0=    1 NMatS0=      1 NMatT0=    0 NMatD0=    1 NMtDS0=    0 NMtDT0=    0
 Symmetry not used in FoFCou.
 FMM levels:  10  Number of levels for PrismC:   9
 E= -3005.69049150397    
 DIIS: error= 2.16D-02 at cycle   1 NSaved=   1.
 NSaved= 1 IEnMin= 1 EnMin= -3005.69049150397     IErMin= 1 ErrMin= 2.16D-02
 ErrMax= 2.16D-02  0.00D+00 EMaxC= 1.00D-01 BMatC= 1.53D+00 BMatP= 1.53D+00
 IDIUse=3 WtCom= 7.84D-01 WtEn= 2.16D-01
 Coeff-Com:  0.100D+01
 Coeff-En:   0.100D+01
 Coeff:      0.100D+01
 Gap=     0.055 Goal=   None    Shift=    0.000
 GapD=    0.055 DampG=0.500 DampE=0.500 DampFc=0.2500 IDamp=-1.
 Damping current iteration by 2.50D-01
 RMSDP=3.79D-03 MaxDP=5.11D-01              OVMax= 9.52D-01

 Cycle   2  Pass 1  IDiag  1:
 RMSU=  9.41D-04    CP:  9.90D-01
 E= -3006.19191057990     Delta-E=       -0.501419075930 Rises=F Damp=T
 DIIS: error= 7.75D-03 at cycle   2 NSaved=   2.
 NSaved= 2 IEnMin= 2 EnMin= -3006.19191057990     IErMin= 2 ErrMin= 7.75D-03
 ErrMax= 7.75D-03  0.00D+00 EMaxC= 1.00D-01 BMatC= 2.56D-01 BMatP= 1.53D+00
 IDIUse=3 WtCom= 9.22D-01 WtEn= 7.75D-02
 Coeff-Com: -0.310D+00 0.131D+01
 Coeff-En:   0.628D-01 0.937D+00
 Coeff:     -0.281D+00 0.128D+01
 Gap=    -0.253 Goal=   None    Shift=    0.000
 RMSDP=1.58D-03 MaxDP=2.45D-01 DE=-5.01D-01 OVMax= 4.82D-01

 Cycle   3  Pass 1  IDiag  1:
 RMSU=  1.54D-03    CP:  9.69D-01  1.28D+00
 E= -3005.39253421646     Delta-E=        0.799376363442 Rises=F Damp=F
 DIIS: error= 2.70D-02 at cycle   3 NSaved=   3.
 NSaved= 3 IEnMin= 2 EnMin= -3006.19191057990     IErMin= 2 ErrMin= 7.75D-03
 ErrMax= 2.70D-02  0.00D+00 EMaxC= 1.00D-01 BMatC= 1.52D+00 BMatP= 2.56D-01
 IDIUse=2 WtCom= 0.00D+00 WtEn= 1.00D+00
 Coeff-En:   0.000D+00 0.662D+00 0.338D+00
 Coeff:      0.000D+00 0.662D+00 0.338D+00
 Gap=     0.064 Goal=   None    Shift=    0.000
 RMSDP=2.17D-03 MaxDP=4.71D-01 DE= 7.99D-01 OVMax= 7.89D-01

 Cycle   4  Pass 1  IDiag  1:
 RMSU=  1.14D-03    CP:  9.68D-01  1.93D+00 -1.30D-01
 E= -3004.15700015557     Delta-E=        1.235534060886 Rises=F Damp=F
 DIIS: error= 3.50D-02 at cycle   4 NSaved=   4.
 NSaved= 4 IEnMin= 2 EnMin= -3006.19191057990     IErMin= 2 ErrMin= 7.75D-03
 ErrMax= 3.50D-02  0.00D+00 EMaxC= 1.00D-01 BMatC= 2.14D+00 BMatP= 2.56D-01
 IDIUse=2 WtCom= 0.00D+00 WtEn= 1.00D+00
 EnCoef did     1 forward-backward iterations
 Coeff-En:   0.950D-01 0.000D+00 0.516D+00 0.389D+00
 Coeff:      0.950D-01 0.000D+00 0.516D+00 0.389D+00
 Gap=     0.119 Goal=   None    Shift=    0.000
 RMSDP=1.53D-03 MaxDP=3.53D-01 DE= 1.24D+00 OVMax= 6.64D-01

 Cycle   5  Pass 1  IDiag  1:
 RMSU=  7.14D-04    CP:  9.81D-01  1.16D+00  1.19D-01  6.63D-02
 E= -3007.12453247861     Delta-E=       -2.967532323037 Rises=F Damp=F
 DIIS: error= 1.73D-02 at cycle   5 NSaved=   5.
 NSaved= 5 IEnMin= 5 EnMin= -3007.12453247861     IErMin= 2 ErrMin= 7.75D-03
 ErrMax= 1.73D-02  0.00D+00 EMaxC= 1.00D-01 BMatC= 2.59D-01 BMatP= 2.56D-01
 IDIUse=3 WtCom= 8.27D-01 WtEn= 1.73D-01
 EnCoef did     5 forward-backward iterations
 Coeff-Com: -0.203D+00 0.741D+00 0.223D+00 0.513D-01 0.187D+00
 Coeff-En:   0.000D+00 0.000D+00 0.111D+00 0.947D-01 0.794D+00
 Coeff:     -0.168D+00 0.613D+00 0.204D+00 0.588D-01 0.292D+00
 Gap=     0.110 Goal=   None    Shift=    0.000
 RMSDP=8.80D-04 MaxDP=9.53D-02 DE=-2.97D+00 OVMax= 4.46D-01

 Cycle   6  Pass 1  IDiag  1:
 RMSU=  7.50D-04    CP:  9.76D-01  1.10D+00  2.56D-01  1.91D-01  4.72D-01
 E= -3007.13153742476     Delta-E=       -0.007004946148 Rises=F Damp=F
 DIIS: error= 1.62D-02 at cycle   6 NSaved=   6.
 NSaved= 6 IEnMin= 6 EnMin= -3007.13153742476     IErMin= 2 ErrMin= 7.75D-03
 ErrMax= 1.62D-02  0.00D+00 EMaxC= 1.00D-01 BMatC= 2.24D-01 BMatP= 2.56D-01
 IDIUse=3 WtCom= 8.38D-01 WtEn= 1.62D-01
 Coeff-Com: -0.210D+00 0.504D+00 0.694D-01-0.196D-01 0.281D+00 0.375D+00
 Coeff-En:   0.000D+00 0.000D+00 0.000D+00 0.000D+00 0.495D+00 0.505D+00
 Coeff:     -0.176D+00 0.423D+00 0.581D-01-0.164D-01 0.315D+00 0.396D+00
 Gap=     0.032 Goal=   None    Shift=    0.000
 RMSDP=8.06D-04 MaxDP=1.30D-01 DE=-7.00D-03 OVMax= 5.76D-01

 Cycle   7  Pass 1  IDiag  1:
 RMSU=  5.28D-04    CP:  9.80D-01  1.20D+00  2.35D-01 -8.54D-03  9.39D-01
                    CP:  4.06D-01
 E= -3007.25075702214     Delta-E=       -0.119219597385 Rises=F Damp=F
 DIIS: error= 7.74D-03 at cycle   7 NSaved=   7.
 NSaved= 7 IEnMin= 7 EnMin= -3007.25075702214     IErMin= 7 ErrMin= 7.74D-03
 ErrMax= 7.74D-03  0.00D+00 EMaxC= 1.00D-01 BMatC= 8.20D-02 BMatP= 2.24D-01
 IDIUse=3 WtCom= 9.23D-01 WtEn= 7.74D-02
 EnCoef did     6 forward-backward iterations
 Coeff-Com: -0.130D+00 0.273D+00 0.237D-01-0.877D-02 0.255D+00 0.340D+00
 Coeff-Com:  0.248D+00
 Coeff-En:   0.000D+00 0.000D+00 0.000D+00 0.000D+00 0.208D+00 0.354D+00
 Coeff-En:   0.439D+00
 Coeff:     -0.120D+00 0.252D+00 0.219D-01-0.809D-02 0.251D+00 0.341D+00
 Coeff:      0.263D+00
 Gap=     0.033 Goal=   None    Shift=    0.000
 RMSDP=4.93D-04 MaxDP=5.05D-02 DE=-1.19D-01 OVMax= 4.14D-01

 Cycle   8  Pass 1  IDiag  1:
 RMSU=  1.80D-04    CP:  9.80D-01  1.19D+00  1.85D-01  5.64D-02  8.17D-01
                    CP:  6.61D-01  2.54D-01
 E= -3007.36126944084     Delta-E=       -0.110512418700 Rises=F Damp=F
 DIIS: error= 2.81D-03 at cycle   8 NSaved=   8.
 NSaved= 8 IEnMin= 8 EnMin= -3007.36126944084     IErMin= 8 ErrMin= 2.81D-03
 ErrMax= 2.81D-03  0.00D+00 EMaxC= 1.00D-01 BMatC= 9.83D-03 BMatP= 8.20D-02
 IDIUse=3 WtCom= 9.72D-01 WtEn= 2.81D-02
 Coeff-Com: -0.576D-01 0.110D+00 0.470D-02-0.476D-03 0.152D+00 0.200D+00
 Coeff-Com:  0.230D+00 0.361D+00
 Coeff-En:   0.000D+00 0.000D+00 0.000D+00 0.000D+00 0.000D+00 0.000D+00
 Coeff-En:   0.172D+00 0.828D+00
 Coeff:     -0.560D-01 0.107D+00 0.457D-02-0.463D-03 0.148D+00 0.194D+00
 Coeff:      0.229D+00 0.374D+00
 Gap=     0.041 Goal=   None    Shift=    0.000
 RMSDP=1.70D-04 MaxDP=1.62D-02 DE=-1.11D-01 OVMax= 1.38D-01

 Cycle   9  Pass 1  IDiag  1:
 RMSU=  8.92D-05    CP:  9.79D-01  1.19D+00  1.84D-01  5.57D-02  8.54D-01
                    CP:  5.81D-01  4.26D-01  4.91D-01
 E= -3007.37263682300     Delta-E=       -0.011367382156 Rises=F Damp=F
 DIIS: error= 1.45D-03 at cycle   9 NSaved=   9.
 NSaved= 9 IEnMin= 9 EnMin= -3007.37263682300     IErMin= 9 ErrMin= 1.45D-03
 ErrMax= 1.45D-03  0.00D+00 EMaxC= 1.00D-01 BMatC= 2.03D-03 BMatP= 9.83D-03
 IDIUse=3 WtCom= 9.86D-01 WtEn= 1.45D-02
 Coeff-Com: -0.194D-01 0.375D-01-0.365D-02 0.508D-03 0.433D-01 0.612D-01
 Coeff-Com:  0.994D-01 0.306D+00 0.475D+00
 Coeff-En:   0.000D+00 0.000D+00 0.000D+00 0.000D+00 0.000D+00 0.000D+00
 Coeff-En:   0.000D+00 0.235D+00 0.765D+00
 Coeff:     -0.191D-01 0.369D-01-0.360D-02 0.501D-03 0.427D-01 0.603D-01
 Coeff:      0.980D-01 0.305D+00 0.479D+00
 Gap=     0.041 Goal=   None    Shift=    0.000
 RMSDP=9.27D-05 MaxDP=9.53D-03 DE=-1.14D-02 OVMax= 5.90D-02

 Cycle  10  Pass 1  IDiag  1:
 RMSU=  5.66D-05    CP:  9.80D-01  1.19D+00  1.81D-01  4.94D-02  8.59D-01
                    CP:  6.16D-01  4.10D-01  7.05D-01  3.78D-01
 E= -3007.37340370187     Delta-E=       -0.000766878871 Rises=F Damp=F
 DIIS: error= 1.69D-03 at cycle  10 NSaved=  10.
 NSaved=10 IEnMin=10 EnMin= -3007.37340370187     IErMin= 9 ErrMin= 1.45D-03
 ErrMax= 1.69D-03  0.00D+00 EMaxC= 1.00D-01 BMatC= 1.34D-03 BMatP= 2.03D-03
 IDIUse=3 WtCom= 9.86D-01 WtEn= 1.45D-02
 EnCoef did     6 forward-backward iterations
 Coeff-Com: -0.491D-02 0.107D-01-0.449D-02 0.103D-02 0.200D-02 0.652D-02
 Coeff-Com:  0.317D-01 0.183D+00 0.456D+00 0.318D+00
 Coeff-En:   0.000D+00 0.000D+00 0.000D+00 0.000D+00 0.000D+00 0.000D+00
 Coeff-En:   0.000D+00 0.400D-01 0.451D+00 0.509D+00
 Coeff:     -0.484D-02 0.106D-01-0.443D-02 0.101D-02 0.197D-02 0.643D-02
 Coeff:      0.312D-01 0.181D+00 0.456D+00 0.321D+00
 Gap=     0.041 Goal=   None    Shift=    0.000
 RMSDP=6.12D-05 MaxDP=6.24D-03 DE=-7.67D-04 OVMax= 4.97D-02

 Cycle  11  Pass 1  IDiag  1:
 RMSU=  2.23D-05    CP:  9.80D-01  1.19D+00  1.81D-01  5.14D-02  8.58D-01
                    CP:  6.18D-01  4.04D-01  6.91D-01  6.94D-01  1.29D-01
 E= -3007.37500800190     Delta-E=       -0.001604300031 Rises=F Damp=F
 DIIS: error= 6.30D-04 at cycle  11 NSaved=  11.
 NSaved=11 IEnMin=11 EnMin= -3007.37500800190     IErMin=11 ErrMin= 6.30D-04
 ErrMax= 6.30D-04  0.00D+00 EMaxC= 1.00D-01 BMatC= 2.52D-04 BMatP= 1.34D-03
 IDIUse=3 WtCom= 9.94D-01 WtEn= 6.30D-03
 EnCoef did     5 forward-backward iterations
 Coeff-Com: -0.241D-02 0.619D-02-0.280D-02 0.924D-03-0.489D-02-0.359D-02
 Coeff-Com:  0.106D-01 0.910D-01 0.300D+00 0.283D+00 0.322D+00
 Coeff-En:   0.000D+00 0.000D+00 0.000D+00 0.000D+00 0.000D+00 0.000D+00
 Coeff-En:   0.000D+00 0.000D+00 0.361D-01 0.216D+00 0.748D+00
 Coeff:     -0.240D-02 0.616D-02-0.278D-02 0.918D-03-0.486D-02-0.356D-02
 Coeff:      0.105D-01 0.904D-01 0.298D+00 0.282D+00 0.325D+00
 Gap=     0.041 Goal=   None    Shift=    0.000
 RMSDP=2.36D-05 MaxDP=3.12D-03 DE=-1.60D-03 OVMax= 1.74D-02

 Cycle  12  Pass 1  IDiag  1:
 RMSU=  8.48D-06    CP:  9.80D-01  1.19D+00  1.80D-01  5.25D-02  8.60D-01
                    CP:  6.12D-01  4.08D-01  6.78D-01  6.41D-01  3.55D-01
                    CP:  2.75D-01
 E= -3007.37532391598     Delta-E=       -0.000315914078 Rises=F Damp=F
 DIIS: error= 1.60D-04 at cycle  12 NSaved=  12.
 NSaved=12 IEnMin=12 EnMin= -3007.37532391598     IErMin=12 ErrMin= 1.60D-04
 ErrMax= 1.60D-04  0.00D+00 EMaxC= 1.00D-01 BMatC= 2.88D-05 BMatP= 2.52D-04
 IDIUse=3 WtCom= 9.98D-01 WtEn= 1.60D-03
 Coeff-Com: -0.267D-02 0.660D-02-0.101D-02 0.180D-03-0.346D-02-0.167D-02
 Coeff-Com:  0.195D-02 0.147D-01 0.952D-01 0.131D+00 0.260D+00 0.500D+00
 Coeff-En:   0.000D+00 0.000D+00 0.000D+00 0.000D+00 0.000D+00 0.000D+00
 Coeff-En:   0.000D+00 0.000D+00 0.000D+00 0.000D+00 0.110D+00 0.890D+00
 Coeff:     -0.266D-02 0.659D-02-0.101D-02 0.180D-03-0.345D-02-0.167D-02
 Coeff:      0.195D-02 0.147D-01 0.950D-01 0.131D+00 0.259D+00 0.500D+00
 Gap=     0.041 Goal=   None    Shift=    0.000
 RMSDP=7.12D-06 MaxDP=6.64D-04 DE=-3.16D-04 OVMax= 3.25D-03

 Cycle  13  Pass 1  IDiag  1:
 RMSU=  3.75D-06    CP:  9.80D-01  1.19D+00  1.80D-01  5.21D-02  8.59D-01
                    CP:  6.14D-01  4.10D-01  6.79D-01  6.50D-01  3.45D-01
                    CP:  4.29D-01  4.78D-01
 E= -3007.37535068316     Delta-E=       -0.000026767184 Rises=F Damp=F
 DIIS: error= 8.23D-05 at cycle  13 NSaved=  13.
 NSaved=13 IEnMin=13 EnMin= -3007.37535068316     IErMin=13 ErrMin= 8.23D-05
 ErrMax= 8.23D-05  0.00D+00 EMaxC= 1.00D-01 BMatC= 7.23D-06 BMatP= 2.88D-05
 IDIUse=1 WtCom= 1.00D+00 WtEn= 0.00D+00
 Coeff-Com: -0.194D-02 0.448D-02-0.272D-03-0.424D-04-0.146D-02-0.158D-03
 Coeff-Com: -0.843D-03-0.160D-01-0.909D-02 0.313D-01 0.135D+00 0.398D+00
 Coeff-Com:  0.461D+00
 Coeff:     -0.194D-02 0.448D-02-0.272D-03-0.424D-04-0.146D-02-0.158D-03
 Coeff:     -0.843D-03-0.160D-01-0.909D-02 0.313D-01 0.135D+00 0.398D+00
 Coeff:      0.461D+00
 Gap=     0.041 Goal=   None    Shift=    0.000
 RMSDP=2.77D-06 MaxDP=3.60D-04 DE=-2.68D-05 OVMax= 6.07D-04

 Cycle  14  Pass 1  IDiag  1:
 RMSU=  1.68D-06    CP:  9.80D-01  1.19D+00  1.80D-01  5.21D-02  8.60D-01
                    CP:  6.14D-01  4.11D-01  6.81D-01  6.54D-01  3.53D-01
                    CP:  4.49D-01  6.05D-01  6.27D-01
 E= -3007.37535681844     Delta-E=       -0.000006135282 Rises=F Damp=F
 DIIS: error= 4.60D-05 at cycle  14 NSaved=  14.
 NSaved=14 IEnMin=14 EnMin= -3007.37535681844     IErMin=14 ErrMin= 4.60D-05
 ErrMax= 4.60D-05  0.00D+00 EMaxC= 1.00D-01 BMatC= 1.25D-06 BMatP= 7.23D-06
 IDIUse=1 WtCom= 1.00D+00 WtEn= 0.00D+00
 Coeff-Com: -0.107D-02 0.223D-02-0.974D-04-0.136D-05-0.276D-03 0.277D-03
 Coeff-Com: -0.743D-03-0.159D-01-0.288D-01-0.371D-02 0.514D-01 0.192D+00
 Coeff-Com:  0.314D+00 0.490D+00
 Coeff:     -0.107D-02 0.223D-02-0.974D-04-0.136D-05-0.276D-03 0.277D-03
 Coeff:     -0.743D-03-0.159D-01-0.288D-01-0.371D-02 0.514D-01 0.192D+00
 Coeff:      0.314D+00 0.490D+00
 Gap=     0.041 Goal=   None    Shift=    0.000
 RMSDP=1.15D-06 MaxDP=1.36D-04 DE=-6.14D-06 OVMax= 2.91D-04

 Cycle  15  Pass 1  IDiag  1:
 RMSU=  8.08D-07    CP:  9.80D-01  1.19D+00  1.80D-01  5.22D-02  8.60D-01
                    CP:  6.15D-01  4.11D-01  6.81D-01  6.55D-01  3.55D-01
                    CP:  4.60D-01  6.30D-01  6.62D-01  6.54D-01
 E= -3007.37535774713     Delta-E=       -0.000000928687 Rises=F Damp=F
 DIIS: error= 1.22D-05 at cycle  15 NSaved=  15.
 NSaved=15 IEnMin=15 EnMin= -3007.37535774713     IErMin=15 ErrMin= 1.22D-05
 ErrMax= 1.22D-05  0.00D+00 EMaxC= 1.00D-01 BMatC= 3.46D-07 BMatP= 1.25D-06
 IDIUse=1 WtCom= 1.00D+00 WtEn= 0.00D+00
 Coeff-Com: -0.457D-03 0.833D-03-0.201D-04-0.158D-04 0.168D-03 0.304D-03
 Coeff-Com: -0.433D-03-0.975D-02-0.251D-01-0.148D-01 0.197D-02 0.424D-01
 Coeff-Com:  0.120D+00 0.390D+00 0.495D+00
 Coeff:     -0.457D-03 0.833D-03-0.201D-04-0.158D-04 0.168D-03 0.304D-03
 Coeff:     -0.433D-03-0.975D-02-0.251D-01-0.148D-01 0.197D-02 0.424D-01
 Coeff:      0.120D+00 0.390D+00 0.495D+00
 Gap=     0.041 Goal=   None    Shift=    0.000
 RMSDP=8.13D-07 MaxDP=2.94D-04 DE=-9.29D-07 OVMax= 1.65D-04

 Cycle  16  Pass 1  IDiag  1:
 RMSU=  3.94D-07    CP:  9.80D-01  1.19D+00  1.79D-01  5.21D-02  8.60D-01
                    CP:  6.15D-01  4.12D-01  6.83D-01  6.55D-01  3.55D-01
                    CP:  4.73D-01  6.53D-01  7.04D-01  7.71D-01  6.40D-01
 E= -3007.37535803322     Delta-E=       -0.000000286089 Rises=F Damp=F
 DIIS: error= 6.01D-06 at cycle  16 NSaved=  16.
 NSaved=16 IEnMin=16 EnMin= -3007.37535803322     IErMin=16 ErrMin= 6.01D-06
 ErrMax= 6.01D-06  0.00D+00 EMaxC= 1.00D-01 BMatC= 4.78D-08 BMatP= 3.46D-07
 IDIUse=1 WtCom= 1.00D+00 WtEn= 0.00D+00
 Coeff-Com: -0.164D-03 0.249D-03-0.648D-05-0.537D-05 0.164D-03 0.157D-03
 Coeff-Com: -0.195D-03-0.431D-02-0.134D-01-0.102D-01-0.806D-02-0.545D-02
 Coeff-Com:  0.279D-01 0.196D+00 0.354D+00 0.464D+00
 Coeff:     -0.164D-03 0.249D-03-0.648D-05-0.537D-05 0.164D-03 0.157D-03
 Coeff:     -0.195D-03-0.431D-02-0.134D-01-0.102D-01-0.806D-02-0.545D-02
 Coeff:      0.279D-01 0.196D+00 0.354D+00 0.464D+00
 Gap=     0.041 Goal=   None    Shift=    0.000
 RMSDP=2.94D-07 MaxDP=3.72D-05 DE=-2.86D-07 OVMax= 8.71D-05

 Cycle  17  Pass 1  IDiag  1:
 RMSU=  1.81D-07    CP:  9.80D-01  1.19D+00  1.79D-01  5.21D-02  8.60D-01
                    CP:  6.15D-01  4.12D-01  6.83D-01  6.55D-01  3.56D-01
                    CP:  4.74D-01  6.59D-01  7.10D-01  7.94D-01  7.06D-01
                    CP:  5.31D-01
 E= -3007.37535807088     Delta-E=       -0.000000037662 Rises=F Damp=F
 DIIS: error= 2.66D-06 at cycle  17 NSaved=  17.
 NSaved=17 IEnMin=17 EnMin= -3007.37535807088     IErMin=17 ErrMin= 2.66D-06
 ErrMax= 2.66D-06  0.00D+00 EMaxC= 1.00D-01 BMatC= 1.21D-08 BMatP= 4.78D-08
 IDIUse=1 WtCom= 1.00D+00 WtEn= 0.00D+00
 Coeff-Com: -0.559D-04 0.630D-04-0.309D-05-0.695D-07 0.100D-03 0.752D-04
 Coeff-Com: -0.796D-04-0.179D-02-0.641D-02-0.559D-02-0.673D-02-0.116D-01
 Coeff-Com:  0.122D-02 0.857D-01 0.188D+00 0.365D+00 0.392D+00
 Coeff:     -0.559D-04 0.630D-04-0.309D-05-0.695D-07 0.100D-03 0.752D-04
 Coeff:     -0.796D-04-0.179D-02-0.641D-02-0.559D-02-0.673D-02-0.116D-01
 Coeff:      0.122D-02 0.857D-01 0.188D+00 0.365D+00 0.392D+00
 Gap=     0.041 Goal=   None    Shift=    0.000
 RMSDP=1.30D-07 MaxDP=1.73D-05 DE=-3.77D-08 OVMax= 3.80D-05

 Cycle  18  Pass 1  IDiag  1:
 RMSU=  7.44D-08    CP:  9.80D-01  1.19D+00  1.79D-01  5.21D-02  8.60D-01
                    CP:  6.15D-01  4.12D-01  6.83D-01  6.55D-01  3.56D-01
                    CP:  4.74D-01  6.58D-01  7.14D-01  8.05D-01  6.98D-01
                    CP:  6.30D-01  5.14D-01
 E= -3007.37535808216     Delta-E=       -0.000000011281 Rises=F Damp=F
 DIIS: error= 8.74D-07 at cycle  18 NSaved=  18.
 NSaved=18 IEnMin=18 EnMin= -3007.37535808216     IErMin=18 ErrMin= 8.74D-07
 ErrMax= 8.74D-07  0.00D+00 EMaxC= 1.00D-01 BMatC= 1.51D-09 BMatP= 1.21D-08
 IDIUse=1 WtCom= 1.00D+00 WtEn= 0.00D+00
 Coeff-Com: -0.152D-04 0.106D-04-0.121D-05-0.298D-06 0.398D-04 0.320D-04
 Coeff-Com: -0.343D-04-0.604D-03-0.249D-02-0.242D-02-0.363D-02-0.763D-02
 Coeff-Com: -0.377D-02 0.281D-01 0.729D-01 0.183D+00 0.286D+00 0.450D+00
 Coeff:     -0.152D-04 0.106D-04-0.121D-05-0.298D-06 0.398D-04 0.320D-04
 Coeff:     -0.343D-04-0.604D-03-0.249D-02-0.242D-02-0.363D-02-0.763D-02
 Coeff:     -0.377D-02 0.281D-01 0.729D-01 0.183D+00 0.286D+00 0.450D+00
 Gap=     0.041 Goal=   None    Shift=    0.000
 RMSDP=6.03D-08 MaxDP=9.53D-06 DE=-1.13D-08 OVMax= 2.52D-05

 Cycle  19  Pass 1  IDiag  1:
 RMSU=  3.05D-08    CP:  9.80D-01  1.19D+00  1.79D-01  5.21D-02  8.60D-01
                    CP:  6.15D-01  4.12D-01  6.83D-01  6.55D-01  3.56D-01
                    CP:  4.75D-01  6.58D-01  7.16D-01  8.10D-01  7.12D-01
                    CP:  6.16D-01  5.54D-01  4.39D-01
 E= -3007.37535808353     Delta-E=       -0.000000001364 Rises=F Damp=F
 DIIS: error= 4.15D-07 at cycle  19 NSaved=  19.
 NSaved=19 IEnMin=19 EnMin= -3007.37535808353     IErMin=19 ErrMin= 4.15D-07
 ErrMax= 4.15D-07  0.00D+00 EMaxC= 1.00D-01 BMatC= 3.14D-10 BMatP= 1.51D-09
 IDIUse=1 WtCom= 1.00D+00 WtEn= 0.00D+00
 Coeff-Com: -0.112D-05-0.499D-05-0.717D-06 0.155D-06 0.138D-04 0.130D-04
 Coeff-Com: -0.125D-04-0.167D-03-0.869D-03-0.960D-03-0.176D-02-0.418D-02
 Coeff-Com: -0.329D-02 0.728D-02 0.248D-01 0.814D-01 0.155D+00 0.349D+00
 Coeff-Com:  0.394D+00
 Coeff:     -0.112D-05-0.499D-05-0.717D-06 0.155D-06 0.138D-04 0.130D-04
 Coeff:     -0.125D-04-0.167D-03-0.869D-03-0.960D-03-0.176D-02-0.418D-02
 Coeff:     -0.329D-02 0.728D-02 0.248D-01 0.814D-01 0.155D+00 0.349D+00
 Coeff:      0.394D+00
 Gap=     0.041 Goal=   None    Shift=    0.000
 RMSDP=2.20D-08 MaxDP=2.54D-06 DE=-1.36D-09 OVMax= 6.18D-06

 Cycle  20  Pass 1  IDiag  1:
 RMSU=  1.06D-08    CP:  9.80D-01  1.19D+00  1.79D-01  5.21D-02  8.60D-01
                    CP:  6.15D-01  4.12D-01  6.83D-01  6.55D-01  3.56D-01
                    CP:  4.75D-01  6.58D-01  7.16D-01  8.11D-01  7.12D-01
                    CP:  6.26D-01  5.50D-01  5.48D-01  4.82D-01
 E= -3007.37535808376     Delta-E=       -0.000000000231 Rises=F Damp=F
 DIIS: error= 1.64D-07 at cycle  20 NSaved=  20.
 NSaved=20 IEnMin=20 EnMin= -3007.37535808376     IErMin=20 ErrMin= 1.64D-07
 ErrMax= 1.64D-07  0.00D+00 EMaxC= 1.00D-01 BMatC= 2.97D-11 BMatP= 3.14D-10
 IDIUse=1 WtCom= 1.00D+00 WtEn= 0.00D+00
 Coeff-Com:  0.927D-06-0.385D-05-0.342D-06 0.199D-06 0.341D-05 0.467D-05
 Coeff-Com: -0.416D-05-0.374D-04-0.269D-03-0.331D-03-0.704D-03-0.180D-02
 Coeff-Com: -0.165D-02 0.142D-02 0.740D-02 0.318D-01 0.678D-01 0.182D+00
 Coeff-Com:  0.274D+00 0.440D+00
 Coeff:      0.927D-06-0.385D-05-0.342D-06 0.199D-06 0.341D-05 0.467D-05
 Coeff:     -0.416D-05-0.374D-04-0.269D-03-0.331D-03-0.704D-03-0.180D-02
 Coeff:     -0.165D-02 0.142D-02 0.740D-02 0.318D-01 0.678D-01 0.182D+00
 Coeff:      0.274D+00 0.440D+00
 Gap=     0.041 Goal=   None    Shift=    0.000
 RMSDP=7.11D-09 MaxDP=8.63D-07 DE=-2.31D-10 OVMax= 1.89D-06

 SCF Done:  E(RB-LYP) =  -3007.37535808     A.U. after   20 cycles
            NFock= 20  Conv=0.71D-08     -V/T= 2.0100
 KE= 2.977690040804D+03 PE=-2.628369142378D+04 EE= 1.065450346083D+04
 Leave Link  502 at Sat Apr 30 05:03:49 2022, MaxMem= 10066329600 cpu:            5255.7 elap:             219.8
 (Enter /sw/apps/gaussian-16.0/g16/l801.exe)
 DoSCS=F DFT=T ScalE2(SS,OS)=  1.000000  1.000000
 ExpMin= 3.36D-02 ExpMax= 4.95D+03 ExpMxC= 7.45D+02 IAcc=3 IRadAn=         5 AccDes= 0.00D+00
 HarFok:  IExCor=  205 AccDes= 0.00D+00 IRadAn=         5 IDoV=-2 UseB2=F ITyADJ=14
 ICtDFT= 12500011 ScaDFX=  1.000000  1.000000  1.000000  1.000000
 GSVD:  LWork=       -5460 too small for GESVD, short by       25550 words or       25550 for optimal perf.
 Largest valence mixing into a core orbital is  1.26D-04
 Largest core mixing into a valence orbital is  4.54D-05
 Range of M.O.s used for correlation:    71  1298
 NBasis=  1298 NAE=   246 NBE=   246 NFC=    70 NFV=     0
 NROrb=   1228 NOA=   176 NOB=   176 NVA=  1052 NVB=  1052

 **** Warning!!: The smallest alpha delta epsilon is  0.41214838D-01

 Leave Link  801 at Sat Apr 30 05:03:49 2022, MaxMem= 10066329600 cpu:               6.5 elap:               0.3
 (Enter /sw/apps/gaussian-16.0/g16/l914.exe)
 RHF ground state
 Two-electron integrals replicated using symmetry.
 MDV= 10066329600 DFT=T DoStab=F Mixed=F DoRPA=T DoScal=T NonHer=F
 Making orbital integer symmetry assigments:
 Orbital symmetries:
       Occupied  (A) (A) (A) (A) (A) (A) (A) (A) (A) (A) (A) (A)
                 (A) (A) (A) (A) (A) (A) (A) (A) (A) (A) (A) (A)
                 (A) (A) (A) (A) (A) (A) (A) (A) (A) (A) (A) (A)
                 (A) (A) (A) (A) (A) (A) (A) (A) (A) (A) (A) (A)
                 (A) (A) (A) (A) (A) (A) (A) (A) (A) (A) (A) (A)
                 (A) (A) (A) (A) (A) (A) (A) (A) (A) (A) (A) (A)
                 (A) (A) (A) (A) (A) (A) (A) (A) (A) (A) (A) (A)
                 (A) (A) (A) (A) (A) (A) (A) (A) (A) (A) (A) (A)
                 (A) (A) (A) (A) (A) (A) (A) (A) (A) (A) (A) (A)
                 (A) (A) (A) (A) (A) (A) (A) (A) (A) (A) (A) (A)
                 (A) (A) (A) (A) (A) (A) (A) (A) (A) (A) (A) (A)
                 (A) (A) (A) (A) (A) (A) (A) (A) (A) (A) (A) (A)
                 (A) (A) (A) (A) (A) (A) (A) (A) (A) (A) (A) (A)
                 (A) (A) (A) (A) (A) (A) (A) (A) (A) (A) (A) (A)
                 (A) (A) (A) (A) (A) (A) (A) (A) (A) (A) (A) (A)
                 (A) (A) (A) (A) (A) (A) (A) (A) (A) (A) (A) (A)
                 (A) (A) (A) (A) (A) (A) (A) (A) (A) (A) (A) (A)
                 (A) (A) (A) (A) (A) (A) (A) (A) (A) (A) (A) (A)
                 (A) (A) (A) (A) (A) (A) (A) (A) (A) (A) (A) (A)
                 (A) (A) (A) (A) (A) (A) (A) (A) (A) (A) (A) (A)
                 (A) (A) (A) (A) (A) (A)
       Virtual   (A) (A) (A) (A) (A) (A) (A) (A) (A) (A) (A) (A)
                 (A) (A) (A) (A) (A) (A) (A) (A) (A) (A) (A) (A)
                 (A) (A) (A) (A) (A) (A) (A) (A) (A) (A) (A) (A)
                 (A) (A) (A) (A) (A) (A) (A) (A) (A) (A) (A) (A)
                 (A) (A) (A) (A) (A) (A) (A) (A) (A) (A) (A) (A)
                 (A) (A) (A) (A) (A) (A) (A) (A) (A) (A) (A) (A)
                 (A) (A) (A) (A) (A) (A) (A) (A) (A) (A) (A) (A)
                 (A) (A) (A) (A) (A) (A) (A) (A) (A) (A) (A) (A)
                 (A) (A) (A) (A) (A) (A) (A) (A) (A) (A) (A) (A)
                 (A) (A) (A) (A) (A) (A) (A) (A) (A) (A) (A) (A)
                 (A) (A) (A) (A) (A) (A) (A) (A) (A) (A) (A) (A)
                 (A) (A) (A) (A) (A) (A) (A) (A) (A) (A) (A) (A)
                 (A) (A) (A) (A) (A) (A) (A) (A) (A) (A) (A) (A)
                 (A) (A) (A) (A) (A) (A) (A) (A) (A) (A) (A) (A)
                 (A) (A) (A) (A) (A) (A) (A) (A) (A) (A) (A) (A)
                 (A) (A) (A) (A) (A) (A) (A) (A) (A) (A) (A) (A)
                 (A) (A) (A) (A) (A) (A) (A) (A) (A) (A) (A) (A)
                 (A) (A) (A) (A) (A) (A) (A) (A) (A) (A) (A) (A)
                 (A) (A) (A) (A) (A) (A) (A) (A) (A) (A) (A) (A)
                 (A) (A) (A) (A) (A) (A) (A) (A) (A) (A) (A) (A)
                 (A) (A) (A) (A) (A) (A) (A) (A) (A) (A) (A) (A)
                 (A) (A) (A) (A) (A) (A) (A) (A) (A) (A) (A) (A)
                 (A) (A) (A) (A) (A) (A) (A) (A) (A) (A) (A) (A)
                 (A) (A) (A) (A) (A) (A) (A) (A) (A) (A) (A) (A)
                 (A) (A) (A) (A) (A) (A) (A) (A) (A) (A) (A) (A)
                 (A) (A) (A) (A) (A) (A) (A) (A) (A) (A) (A) (A)
                 (A) (A) (A) (A) (A) (A) (A) (A) (A) (A) (A) (A)
                 (A) (A) (A) (A) (A) (A) (A) (A) (A) (A) (A) (A)
                 (A) (A) (A) (A) (A) (A) (A) (A) (A) (A) (A) (A)
                 (A) (A) (A) (A) (A) (A) (A) (A) (A) (A) (A) (A)
                 (A) (A) (A) (A) (A) (A) (A) (A) (A) (A) (A) (A)
                 (A) (A) (A) (A) (A) (A) (A) (A) (A) (A) (A) (A)
                 (A) (A) (A) (A) (A) (A) (A) (A) (A) (A) (A) (A)
                 (A) (A) (A) (A) (A) (A) (A) (A) (A) (A) (A) (A)
                 (A) (A) (A) (A) (A) (A) (A) (A) (A) (A) (A) (A)
                 (A) (A) (A) (A) (A) (A) (A) (A) (A) (A) (A) (A)
                 (A) (A) (A) (A) (A) (A) (A) (A) (A) (A) (A) (A)
                 (A) (A) (A) (A) (A) (A) (A) (A) (A) (A) (A) (A)
                 (A) (A) (A) (A) (A) (A) (A) (A) (A) (A) (A) (A)
                 (A) (A) (A) (A) (A) (A) (A) (A) (A) (A) (A) (A)
                 (A) (A) (A) (A) (A) (A) (A) (A) (A) (A) (A) (A)
                 (A) (A) (A) (A) (A) (A) (A) (A) (A) (A) (A) (A)
                 (A) (A) (A) (A) (A) (A) (A) (A) (A) (A) (A) (A)
                 (A) (A) (A) (A) (A) (A) (A) (A) (A) (A) (A) (A)
                 (A) (A) (A) (A) (A) (A) (A) (A) (A) (A) (A) (A)
                 (A) (A) (A) (A) (A) (A) (A) (A) (A) (A) (A) (A)
                 (A) (A) (A) (A) (A) (A) (A) (A) (A) (A) (A) (A)
                 (A) (A) (A) (A) (A) (A) (A) (A) (A) (A) (A) (A)
                 (A) (A) (A) (A) (A) (A) (A) (A) (A) (A) (A) (A)
                 (A) (A) (A) (A) (A) (A) (A) (A) (A) (A) (A) (A)
                 (A) (A) (A) (A) (A) (A) (A) (A) (A) (A) (A) (A)
                 (A) (A) (A) (A) (A) (A) (A) (A) (A) (A) (A) (A)
                 (A) (A) (A) (A) (A) (A) (A) (A) (A) (A) (A) (A)
                 (A) (A) (A) (A) (A) (A) (A) (A) (A) (A) (A) (A)
                 (A) (A) (A) (A) (A) (A) (A) (A) (A) (A) (A) (A)
                 (A) (A) (A) (A) (A) (A) (A) (A) (A) (A) (A) (A)
                 (A) (A) (A) (A) (A) (A) (A) (A) (A) (A) (A) (A)
                 (A) (A) (A) (A) (A) (A) (A) (A) (A) (A) (A) (A)
                 (A) (A) (A) (A) (A) (A) (A) (A) (A) (A) (A) (A)
                 (A) (A) (A) (A) (A) (A) (A) (A) (A) (A) (A) (A)
                 (A) (A) (A) (A) (A) (A) (A) (A) (A) (A) (A) (A)
                 (A) (A) (A) (A) (A) (A) (A) (A) (A) (A) (A) (A)
                 (A) (A) (A) (A) (A) (A) (A) (A) (A) (A) (A) (A)
                 (A) (A) (A) (A) (A) (A) (A) (A) (A) (A) (A) (A)
                 (A) (A) (A) (A) (A) (A) (A) (A) (A) (A) (A) (A)
                 (A) (A) (A) (A) (A) (A) (A) (A) (A) (A) (A) (A)
                 (A) (A) (A) (A) (A) (A) (A) (A) (A) (A) (A) (A)
                 (A) (A) (A) (A) (A) (A) (A) (A) (A) (A) (A) (A)
                 (A) (A) (A) (A) (A) (A) (A) (A) (A) (A) (A) (A)
                 (A) (A) (A) (A) (A) (A) (A) (A) (A) (A) (A) (A)
                 (A) (A) (A) (A) (A) (A) (A) (A) (A) (A) (A) (A)
                 (A) (A) (A) (A) (A) (A) (A) (A) (A) (A) (A) (A)
                 (A) (A) (A) (A) (A) (A) (A) (A) (A) (A) (A) (A)
                 (A) (A) (A) (A) (A) (A) (A) (A) (A) (A) (A) (A)
                 (A) (A) (A) (A) (A) (A) (A) (A) (A) (A) (A) (A)
                 (A) (A) (A) (A) (A) (A) (A) (A) (A) (A) (A) (A)
                 (A) (A) (A) (A) (A) (A) (A) (A) (A) (A) (A) (A)
                 (A) (A) (A) (A) (A) (A) (A) (A) (A) (A) (A) (A)
                 (A) (A) (A) (A) (A) (A) (A) (A) (A) (A) (A) (A)
                 (A) (A) (A) (A) (A) (A) (A) (A) (A) (A) (A) (A)
                 (A) (A) (A) (A) (A) (A) (A) (A) (A) (A) (A) (A)
                 (A) (A) (A) (A) (A) (A) (A) (A) (A) (A) (A) (A)
                 (A) (A) (A) (A) (A) (A) (A) (A) (A) (A) (A) (A)
                 (A) (A) (A) (A) (A) (A) (A) (A) (A) (A) (A) (A)
                 (A) (A) (A) (A) (A) (A) (A) (A) (A) (A) (A) (A)
                 (A) (A) (A) (A) (A) (A) (A) (A) (A) (A) (A) (A)
                 (A) (A) (A) (A) (A) (A) (A) (A) (A) (A) (A) (A)
                 (A) (A) (A) (A) (A) (A) (A) (A)
    20 initial guesses have been made.
 Convergence on wavefunction:    0.001000000000000
 Davidson Disk Diagonalization:  ConvIn= 1.00D-03 SkipCon=T Conv= 1.00D-03.
 Max sub-space:  2000 roots to seek:    20 dimension of matrix:       370304
 Iteration     1 Dimension    20 NMult     0 NNew     20
 CISAX will form    20 AO SS matrices at one time.
 NMat=    20 NSing=    20 JSym2X= 0.
 FoFJK:  IHMeth= 1 ICntrl=     500 DoSepK=F KAlg= 0 I1Cent=           0 FoldK=F
 IRaf= 520000000 NMat=      20 IRICut=       1 DoRegI=T DoRafI=F ISym2E= 0 IDoP0=0 IntGTp=1.
 FoFCou: FMM=T IPFlag=           0 FMFlag=      100000 FMFlg1=        2001
         NFxFlg=           0 DoJE=F BraDBF=F KetDBF=F FulRan=T
         wScrn=  0.000000 ICntrl=       500 IOpCl=  0 I1Cent=           0 NGrid=           0
         NMat0=   20 NMatS0=     20 NMatT0=    0 NMatD0=   20 NMtDS0=    0 NMtDT0=    0
 Symmetry not used in FoFCou.
 FMM levels:  10  Number of levels for PrismC:   9
 New state      1 was old state      3
 New state      2 was old state      4
 New state      3 was old state      1
 New state      4 was old state      2
 New state      5 was old state      6
 Excitation Energies [eV] at current iteration:
 Root      1 :     1.797186287789218
 Root      2 :     1.921063554306304
 Root      3 :     2.092409693385418
 Root      4 :     2.261794116966420
 Root      5 :     2.291598026171722
 Root      6 :     2.648409734339666
 Root      7 :     2.755728625694723
 Root      8 :     2.976779370556259
 Root      9 :     2.979732540818815
 Root     10 :     3.035410060946459
 Root     11 :     3.056145820214676
 Root     12 :     3.100483478030613
 Root     13 :     3.104893035269496
 Root     14 :     3.207055753501448
 Root     15 :     3.290231218933731
 Root     16 :     3.456594833727465
 Root     17 :     3.676918367215636
 Root     18 :     3.952666240208073
 Root     19 :     3.967639810898640
 Root     20 :     4.364293745195969
 Iteration     2 Dimension    40 NMult    20 NNew     20
 CISAX will form    20 AO SS matrices at one time.
 NMat=    20 NSing=    20 JSym2X= 0.
 Root      1 not converged, maximum delta is    0.166389297416607
 New state      2 was old state      3
 Root      2 not converged, maximum delta is    0.157595250029549
 New state      3 was old state      2
 Root      3 not converged, maximum delta is    0.038748505765067
 Root      4 not converged, maximum delta is    0.089698877245307
 Root      5 not converged, maximum delta is    0.060717172808206
 Excitation Energies [eV] at current iteration:
 Root      1 :     1.772378558492743   Change is   -0.024807729296476
 Root      2 :     1.847407006710084   Change is   -0.245002686675334
 Root      3 :     1.904604206986592   Change is   -0.016459347319712
 Root      4 :     2.024013999428535   Change is   -0.237780117537885
 Root      5 :     2.290576939512420   Change is   -0.001021086659301
 Root      6 :     2.416677729177295   Change is   -0.339050896517427
 Root      7 :     2.616394346203801   Change is   -0.363338194615015
 Root      8 :     2.698512370234475   Change is    0.050102635894809
 Root      9 :     2.870641518455422   Change is   -0.106137852100837
 Root     10 :     2.995890255190298   Change is   -0.039519805756161
 Root     11 :     3.018381850159215   Change is   -0.082101627871399
 Root     12 :     3.038872551234911   Change is   -0.017273268979764
 Root     13 :     3.067540850592486   Change is   -0.609377516623149
 Root     14 :     3.104892138972729   Change is   -0.000000896296766
 Root     15 :     3.124176766890074   Change is   -0.082878986611375
 Root     16 :     3.208682823935300   Change is   -0.247912009792165
 Root     17 :     3.230559897184611   Change is   -0.059671321749121
 Root     18 :     3.337129348921339   Change is   -0.615536891286734
 Root     19 :     3.523620675912081   Change is   -0.444019134986559
 Root     20 :     3.975414926320315   Change is   -0.388878818875654
 Iteration     3 Dimension    45 NMult    40 NNew      5
 CISAX will form     5 AO SS matrices at one time.
 NMat=     5 NSing=     5 JSym2X= 0.
 Root      1 not converged, maximum delta is    0.168182185716625
 Root      2 not converged, maximum delta is    0.136931225580608
 Root      3 not converged, maximum delta is    0.027812685085982
 Root      4 not converged, maximum delta is    0.029641290675756
 Root      5 not converged, maximum delta is    0.005145990944591
 Excitation Energies [eV] at current iteration:
 Root      1 :     1.758179731153649   Change is   -0.014198827339094
 Root      2 :     1.807873743421901   Change is   -0.039533263288183
 Root      3 :     1.900072650697855   Change is   -0.004531556288737
 Root      4 :     1.992117485131708   Change is   -0.031896514296828
 Root      5 :     2.290491331172954   Change is   -0.000085608339466
 Iteration     4 Dimension    50 NMult    45 NNew      5
 CISAX will form     5 AO SS matrices at one time.
 NMat=     5 NSing=     5 JSym2X= 0.
 Root      1 not converged, maximum delta is    0.073388041252737
 Root      2 not converged, maximum delta is    0.058087642149247
 Root      3 not converged, maximum delta is    0.012031911226994
 Root      4 not converged, maximum delta is    0.014408353187141
 Root      5 not converged, maximum delta is    0.002918349075017
 Excitation Energies [eV] at current iteration:
 Root      1 :     1.749985483094147   Change is   -0.008194248059502
 Root      2 :     1.796545589663740   Change is   -0.011328153758161
 Root      3 :     1.898568168099521   Change is   -0.001504482598334
 Root      4 :     1.980182814906468   Change is   -0.011934670225239
 Root      5 :     2.290455089128022   Change is   -0.000036242044933
 Iteration     5 Dimension    55 NMult    50 NNew      5
 CISAX will form     5 AO SS matrices at one time.
 NMat=     5 NSing=     5 JSym2X= 0.
 Root      1 not converged, maximum delta is    0.021046668113911
 Root      2 not converged, maximum delta is    0.020876340137039
 Root      3 not converged, maximum delta is    0.003765887351842
 Root      4 not converged, maximum delta is    0.004665325916065
 Root      5 not converged, maximum delta is    0.001470580655906
 Excitation Energies [eV] at current iteration:
 Root      1 :     1.746939601689445   Change is   -0.003045881404702
 Root      2 :     1.793392565620139   Change is   -0.003153024043600
 Root      3 :     1.898012055232112   Change is   -0.000556112867409
 Root      4 :     1.976610562645285   Change is   -0.003572252261184
 Root      5 :     2.290438624781344   Change is   -0.000016464346677
 Iteration     6 Dimension    60 NMult    55 NNew      5
 CISAX will form     5 AO SS matrices at one time.
 NMat=     5 NSing=     5 JSym2X= 0.
 Root      1 not converged, maximum delta is    0.008805190046311
 Root      2 not converged, maximum delta is    0.009511366377635
 Root      3 not converged, maximum delta is    0.001679613426653
 Root      4 not converged, maximum delta is    0.002079829527713
 Root      5 has converged.
 Excitation Energies [eV] at current iteration:
 Root      1 :     1.745542366419718   Change is   -0.001397235269727
 Root      2 :     1.791907251039301   Change is   -0.001485314580839
 Root      3 :     1.897698265497567   Change is   -0.000313789734545
 Root      4 :     1.975040454843577   Change is   -0.001570107801708
 Root      5 :     2.290431565059451   Change is   -0.000007059721893
 Iteration     7 Dimension    64 NMult    60 NNew      4
 CISAX will form     4 AO SS matrices at one time.
 NMat=     4 NSing=     4 JSym2X= 0.
 Root      1 not converged, maximum delta is    0.003566501045969
 Root      2 not converged, maximum delta is    0.003966168924713
 Root      3 not converged, maximum delta is    0.001096622414896
 Root      4 has converged.
 Root      5 has converged.
 Excitation Energies [eV] at current iteration:
 Root      1 :     1.744961089684242   Change is   -0.000581276735476
 Root      2 :     1.791301023057772   Change is   -0.000606227981529
 Root      3 :     1.897540470907803   Change is   -0.000157794589765
 Root      4 :     1.974489985655041   Change is   -0.000550469188536
 Root      5 :     2.290430992161037   Change is   -0.000000572898414
 Iteration     8 Dimension    67 NMult    64 NNew      3
 CISAX will form     3 AO SS matrices at one time.
 NMat=     3 NSing=     3 JSym2X= 0.
 Root      1 not converged, maximum delta is    0.001538244323951
 Root      2 not converged, maximum delta is    0.001770816856278
 Root      3 has converged.
 Root      4 has converged.
 Root      5 has converged.
 Excitation Energies [eV] at current iteration:
 Root      1 :     1.744722073724889   Change is   -0.000239015959354
 Root      2 :     1.791049649982971   Change is   -0.000251373074800
 Root      3 :     1.897468647569060   Change is   -0.000071823338743
 Root      4 :     1.974430616893831   Change is   -0.000059368761210
 Root      5 :     2.290430923899966   Change is   -0.000000068261070
 Iteration     9 Dimension    69 NMult    67 NNew      2
 CISAX will form     2 AO SS matrices at one time.
 NMat=     2 NSing=     2 JSym2X= 0.
 Root      1 has converged.
 Root      2 has converged.
 Root      3 has converged.
 Root      4 has converged.
 Root      5 has converged.
 Excitation Energies [eV] at current iteration:
 Root      1 :     1.744622173805958   Change is   -0.000099899918931
 Root      2 :     1.790943630981104   Change is   -0.000106019001867
 Root      3 :     1.897467274272807   Change is   -0.000001373296253
 Root      4 :     1.974402755512625   Change is   -0.000027861381206
 Root      5 :     2.290430912504847   Change is   -0.000000011395120
 Convergence achieved on expansion vectors.
 ***********************************************************************
 Excited states from <AA,BB:AA,BB> singles matrix:
 ***********************************************************************
 
 1PDM for each excited state written to RWF  633
 Ground to excited state transition densities written to RWF  633
 Ground to excited state transition electric dipole moments (Au):
       state          X           Y           Z        Dip. S.      Osc.
         1        -1.1454     -1.4236      0.2197      3.3868      0.1448
         2        -0.4598     -1.9530      0.2445      4.0855      0.1793
         3        -0.1910      0.3364     -0.0243      0.1503      0.0070
         4         0.8820     -0.6259      0.0173      1.1700      0.0566
[...]
 Alpha virt. eigenvalues --    1.06262   1.06669   1.07473   1.07705   1.07974
 Alpha virt. eigenvalues --    1.08072   1.09256   1.09499   1.09979   1.10111
 Alpha virt. eigenvalues --    1.10511   1.11249   1.11924   1.12105   1.12158
 Alpha virt. eigenvalues --    1.13069   1.13120   1.13530   1.14423   1.14839
 Alpha virt. eigenvalues --    1.15503   1.15737   1.16276   1.16380   1.16605
 Alpha virt. eigenvalues --    1.16804   1.17730   1.18215   1.18554   1.18953
 Alpha virt. eigenvalues --    1.19281   1.20370   1.20797   1.21251   1.21461
 Alpha virt. eigenvalues --    1.22259   1.22400   1.22765   1.23384   1.23624
 Alpha virt. eigenvalues --    1.23907   1.24195   1.24829   1.25325   1.25649
 Alpha virt. eigenvalues --    1.26716   1.26842   1.27072   1.27573   1.27743
 Alpha virt. eigenvalues --    1.27859   1.28729   1.29100   1.29175   1.29250
 Alpha virt. eigenvalues --    1.29466   1.30117   1.31318   1.31979   1.32263
 Alpha virt. eigenvalues --    1.32363   1.32743   1.33398   1.33734   1.34273
 Alpha virt. eigenvalues --    1.34400   1.34738   1.35165   1.35738   1.35859
 Alpha virt. eigenvalues --    1.36126   1.36874   1.37522   1.37745   1.38336
 Alpha virt. eigenvalues --    1.39503   1.39885   1.40076   1.40413   1.41100
 Alpha virt. eigenvalues --    1.41344   1.41604   1.41931   1.42299   1.42526
 Alpha virt. eigenvalues --    1.43008   1.43485   1.44107   1.44561   1.44715
 Alpha virt. eigenvalues --    1.44796   1.44901   1.45434   1.46059   1.46571
 Alpha virt. eigenvalues --    1.46846   1.47312   1.47333   1.47465   1.47816
 Alpha virt. eigenvalues --    1.47970   1.48070   1.48698   1.48807   1.49178
 Alpha virt. eigenvalues --    1.49203   1.49457   1.49778   1.49889   1.50456
 Alpha virt. eigenvalues --    1.50905   1.51115   1.51218   1.51397   1.51834
 Alpha virt. eigenvalues --    1.51928   1.52005   1.52078   1.52987   1.53305
 Alpha virt. eigenvalues --    1.53394   1.54159   1.54605   1.54748   1.55045
 Alpha virt. eigenvalues --    1.55208   1.55491   1.55884   1.56972   1.57407
 Alpha virt. eigenvalues --    1.57580   1.58042   1.58520   1.59305   1.59514
 Alpha virt. eigenvalues --    1.60093   1.60577   1.60966   1.61384   1.61420
 Alpha virt. eigenvalues --    1.61601   1.62125   1.62502   1.63005   1.63247
 Alpha virt. eigenvalues --    1.63269   1.63585   1.63643   1.64066   1.64159
 Alpha virt. eigenvalues --    1.64472   1.65178   1.65259   1.65438   1.65616
 Alpha virt. eigenvalues --    1.66014   1.66249   1.66544   1.66695   1.66873
 Alpha virt. eigenvalues --    1.67215   1.67751   1.67907   1.67985   1.68511
 Alpha virt. eigenvalues --    1.68679   1.68875   1.69397   1.69570   1.69660
 Alpha virt. eigenvalues --    1.69802   1.70032   1.70287   1.70495   1.70545
 Alpha virt. eigenvalues --    1.70804   1.70872   1.71206   1.71646   1.71734
 Alpha virt. eigenvalues --    1.71807   1.72010   1.72313   1.72390   1.73042
 Alpha virt. eigenvalues --    1.73330   1.73557   1.73855   1.74064   1.74117
 Alpha virt. eigenvalues --    1.74485   1.74574   1.74700   1.74823   1.74952
 Alpha virt. eigenvalues --    1.75137   1.75217   1.75501   1.75563   1.75693
 Alpha virt. eigenvalues --    1.75841   1.76052   1.76146   1.76266   1.76419
 Alpha virt. eigenvalues --    1.76605   1.76755   1.76862   1.77163   1.77536
 Alpha virt. eigenvalues --    1.77825   1.77895   1.78012   1.78053   1.78153
 Alpha virt. eigenvalues --    1.78272   1.78619   1.78749   1.78956   1.79112
 Alpha virt. eigenvalues --    1.79654   1.80031   1.80280   1.80525   1.80651
 Alpha virt. eigenvalues --    1.80738   1.80875   1.81132   1.81340   1.81505
 Alpha virt. eigenvalues --    1.81768   1.82076   1.82235   1.82778   1.83006
 Alpha virt. eigenvalues --    1.83191   1.83274   1.83945   1.83990   1.84366
 Alpha virt. eigenvalues --    1.84659   1.85265   1.85339   1.85703   1.85759
 Alpha virt. eigenvalues --    1.86072   1.86274   1.86659   1.87079   1.87212
 Alpha virt. eigenvalues --    1.87299   1.87547   1.87626   1.87910   1.88123
 Alpha virt. eigenvalues --    1.88436   1.88771   1.89159   1.89335   1.89586
 Alpha virt. eigenvalues --    1.89829   1.90314   1.90736   1.90880   1.91125
 Alpha virt. eigenvalues --    1.91178   1.91853   1.91931   1.92277   1.92427
 Alpha virt. eigenvalues --    1.92733   1.93342   1.93699   1.93744   1.94041
 Alpha virt. eigenvalues --    1.94198   1.94224   1.94533   1.94595   1.94667
 Alpha virt. eigenvalues --    1.95225   1.95547   1.95616   1.95909   1.96465
 Alpha virt. eigenvalues --    1.96778   1.97323   1.97351   1.97649   1.97832
 Alpha virt. eigenvalues --    1.97937   1.98121   1.98802   1.98848   1.99545
 Alpha virt. eigenvalues --    1.99639   1.99908   2.00806   2.01060   2.01327
 Alpha virt. eigenvalues --    2.02055   2.02157   2.02315   2.02661   2.03014
 Alpha virt. eigenvalues --    2.03229   2.03653   2.03784   2.03848   2.04169
 Alpha virt. eigenvalues --    2.04493   2.05006   2.05548   2.06127   2.06513
 Alpha virt. eigenvalues --    2.06632   2.07204   2.07253   2.07584   2.07755
 Alpha virt. eigenvalues --    2.08012   2.08339   2.08696   2.08884   2.09112
 Alpha virt. eigenvalues --    2.10197   2.10230   2.10417   2.10717   2.10987
 Alpha virt. eigenvalues --    2.11856   2.11957   2.12291   2.12471   2.12598
 Alpha virt. eigenvalues --    2.13187   2.13829   2.14115   2.14606   2.15231
 Alpha virt. eigenvalues --    2.15688   2.15917   2.16169   2.16790   2.16944
 Alpha virt. eigenvalues --    2.17600   2.18023   2.18380   2.19571   2.19834
 Alpha virt. eigenvalues --    2.20635   2.21363   2.21599   2.21649   2.21723
 Alpha virt. eigenvalues --    2.22204   2.22351   2.22491   2.22722   2.23691
 Alpha virt. eigenvalues --    2.24008   2.24062   2.24617   2.24992   2.25146
 Alpha virt. eigenvalues --    2.25633   2.25810   2.26144   2.26413   2.27010
 Alpha virt. eigenvalues --    2.27579   2.27719   2.28077   2.28551   2.28921
 Alpha virt. eigenvalues --    2.29485   2.29789   2.30361   2.30505   2.30832
 Alpha virt. eigenvalues --    2.31072   2.31239   2.31309   2.32026   2.32255
 Alpha virt. eigenvalues --    2.32312   2.32692   2.32906   2.33273   2.33663
 Alpha virt. eigenvalues --    2.34284   2.34418   2.34523   2.34990   2.35941
 Alpha virt. eigenvalues --    2.36242   2.36267   2.36593   2.36967   2.37235
 Alpha virt. eigenvalues --    2.37373   2.37992   2.38371   2.38705   2.38821
 Alpha virt. eigenvalues --    2.39353   2.39436   2.40415   2.40510   2.40940
 Alpha virt. eigenvalues --    2.41223   2.41570   2.42139   2.42509   2.43416
 Alpha virt. eigenvalues --    2.44419   2.44567   2.45099   2.45145   2.45745
 Alpha virt. eigenvalues --    2.46670   2.46681   2.47011   2.47104   2.47617
 Alpha virt. eigenvalues --    2.47982   2.48266   2.48664   2.48729   2.49282
 Alpha virt. eigenvalues --    2.49461   2.49837   2.50271   2.50472   2.51013
 Alpha virt. eigenvalues --    2.51317   2.52211   2.52334   2.52544   2.53274
 Alpha virt. eigenvalues --    2.54054   2.54301   2.54631   2.54820   2.54893
 Alpha virt. eigenvalues --    2.55145   2.55417   2.55863   2.56276   2.57146
 Alpha virt. eigenvalues --    2.57435   2.57886   2.58284   2.58378   2.59485
 Alpha virt. eigenvalues --    2.59785   2.59877   2.60087   2.60281   2.60706
 Alpha virt. eigenvalues --    2.60913   2.61506   2.61578   2.61943   2.62124
 Alpha virt. eigenvalues --    2.62621   2.62751   2.63542   2.63810   2.64296
 Alpha virt. eigenvalues --    2.64617   2.65162   2.65526   2.65795   2.66176
 Alpha virt. eigenvalues --    2.66414   2.67115   2.67483   2.67557   2.68027
 Alpha virt. eigenvalues --    2.68375   2.69334   2.69943   2.70878   2.71117
 Alpha virt. eigenvalues --    2.71646   2.71752   2.72030   2.73214   2.73869
 Alpha virt. eigenvalues --    2.74768   2.75181   2.75391   2.75901   2.76732
 Alpha virt. eigenvalues --    2.76971   2.77648   2.77723   2.78517   2.79503
 Alpha virt. eigenvalues --    2.79748   2.80274   2.80810   2.80899   2.81300
 Alpha virt. eigenvalues --    2.81457   2.82211   2.82705   2.82868   2.83273
 Alpha virt. eigenvalues --    2.83621   2.84032   2.84185   2.84288   2.84518
 Alpha virt. eigenvalues --    2.84589   2.85461   2.85606   2.85890   2.86157
 Alpha virt. eigenvalues --    2.86371   2.86513   2.86689   2.86896   2.87325
 Alpha virt. eigenvalues --    2.87551   2.87689   2.87820   2.88432   2.88772
 Alpha virt. eigenvalues --    2.89277   2.89576   2.89700   2.89996   2.90551
 Alpha virt. eigenvalues --    2.90776   2.90919   2.91061   2.91855   2.91960
 Alpha virt. eigenvalues --    2.92117   2.92631   2.92714   2.93523   2.93918
 Alpha virt. eigenvalues --    2.94182   2.94804   2.95084   2.95228   2.96072
 Alpha virt. eigenvalues --    2.96354   2.97039   2.97045   2.97209   2.97529
 Alpha virt. eigenvalues --    2.97883   2.98168   2.98534   2.99561   2.99729
 Alpha virt. eigenvalues --    3.00530   3.00832   3.01401   3.01845   3.02174
 Alpha virt. eigenvalues --    3.02260   3.03933   3.04123   3.04446   3.06598
 Alpha virt. eigenvalues --    3.06794   3.07212   3.08435   3.09282   3.09831
 Alpha virt. eigenvalues --    3.10274   3.11107   3.11726   3.12917   3.13851
 Alpha virt. eigenvalues --    3.18090   3.18976   3.28079   3.28506   3.31217
 Alpha virt. eigenvalues --    3.32970   3.34741   3.36183   3.39469   3.42613
 Alpha virt. eigenvalues --    3.45561   3.46750   3.53874   3.54658   3.57608
 Alpha virt. eigenvalues --    3.58442   3.62731
          Condensed to atoms (all electrons):
 Mulliken charges:
               1
     1  Mg   0.658479
     2  C    0.043399
     3  C   -0.075505
     4  C   -0.051589
     5  C   -0.041510
     6  N   -0.213206
     7  C   -0.047081
     8  C   -0.012789
     9  C   -0.000159
    10  C    0.027888
    11  C    0.136545
    12  C    0.084865
    13  C    0.152013
    14  C    0.111774
    15  O   -0.209441
    16  O   -0.259574
    17  N   -0.314461
    18  C    0.168876
    19  C   -0.163625
    20  C   -0.005811
    21  C    0.146573
    22  C    0.183838
    23  C   -0.058155
    24  O   -0.161583
    25  C    0.123066
    26  N   -0.210635
    27  C   -0.027109
    28  C    0.032828
    29  C    0.037415
    30  C    0.008625
    31  C    0.124630
    32  C    0.106217
    33  C    0.058147
    34  N   -0.240468
    35  C    0.088960
    36  C   -0.176525
    37  C    0.122058
    38  C    0.040798
    39  C    0.161854
    40  C   -0.111983
    41  O   -0.124245
    42  C    0.046354
    43  C    0.094586
    44  O   -0.120947
    45  O   -0.292759
    46  C    0.213311
    47  C    0.296176
    48  C   -0.115225
    49  C   -0.148739
    50  C    0.160809
    51  C    0.081050
    52  C    0.097146
    53  C    0.148389
    54  C   -0.090737
    55  C    0.073573
    56  C    0.112745
    57  C    0.086401
    58  C    0.080573
    59  C   -0.063491
    60  C    0.077071
    61  C    0.120585
    62  C    0.087372
    63  C    0.066649
    64  C   -0.074068
    65  C    0.117794
    66  C    0.099505
    67  H   -0.064273
    68  H   -0.028323
    69  H   -0.064165
    70  H    0.000540
    71  H   -0.039625
    72  H    0.014109
    73  H   -0.020345
    74  H    0.000444
    75  H   -0.023558
    76  H   -0.025608
    77  H   -0.003981
    78  H   -0.002300
    79  H   -0.000706
    80  H    0.014079
    81  H   -0.016820
    82  H    0.009514
    83  H   -0.018381
    84  H    0.008059
    85  H   -0.033465
    86  H   -0.039837
    87  H   -0.011370
    88  H    0.005799
    89  H   -0.010764
    90  H   -0.016292
    91  H   -0.017091
    92  H   -0.014004
    93  H   -0.002876
    94  H    0.013835
    95  H   -0.004544
    96  H    0.011389
    97  H    0.006636
    98  H    0.017046
    99  H    0.021434
   100  H    0.025808
   101  H    0.000500
   102  H    0.014483
   103  H   -0.013517
   104  H   -0.038348
   105  H   -0.009919
   106  H    0.005377
   107  H   -0.003662
   108  H   -0.038618
   109  H   -0.027707
   110  H   -0.020715
   111  H   -0.033777
   112  H   -0.029245
   113  H   -0.026568
   114  H   -0.035444
   115  H   -0.017448
   116  H   -0.034813
   117  H   -0.006732
   118  H   -0.040426
   119  H   -0.024035
   120  H   -0.031590
   121  H   -0.028315
   122  H   -0.021214
   123  H   -0.045542
   124  H   -0.028346
   125  H   -0.022097
   126  H   -0.019703
   127  H   -0.024137
   128  H   -0.034464
   129  H   -0.041978
   130  H   -0.024184
   131  H   -0.020612
   132  H   -0.040885
   133  H   -0.030241
   134  H   -0.035621
   135  H   -0.030235
   136  H   -0.017075
   137  H   -0.012422
   138  H   -0.022292
   139  H   -0.015283
   140  H   -0.031032
 Sum of Mulliken charges =  -0.00000
 Mulliken charges with hydrogens summed into heavy atoms:
               1
     1  Mg   0.658479
     2  C    0.043399
     3  C   -0.139777
     4  C   -0.079912
     5  C   -0.105675
     6  N   -0.213206
     7  C   -0.047081
     8  C   -0.012249
     9  C   -0.039785
    10  C    0.027888
    11  C    0.130754
    12  C    0.035699
    13  C    0.145732
    14  C    0.111774
    15  O   -0.209441
    16  O   -0.259574
    17  N   -0.314461
    18  C    0.168876
    19  C   -0.163625
    20  C   -0.005811
    21  C    0.146573
    22  C    0.180391
    23  C   -0.058155
    24  O   -0.161583
    25  C    0.122257
    26  N   -0.210635
    27  C   -0.027109
    28  C   -0.000637
    29  C   -0.002422
    30  C    0.008625
    31  C    0.108295
    32  C    0.072834
    33  C    0.055102
    34  N   -0.240468
    35  C    0.088960
    36  C   -0.176525
    37  C    0.122058
    38  C    0.040798
    39  C    0.175335
    40  C   -0.111983
    41  O   -0.124245
    42  C    0.063400
    43  C    0.094586
    44  O   -0.120947
    45  O   -0.292759
    46  C    0.261054
    47  C    0.297142
    48  C   -0.153573
    49  C   -0.148739
    50  C    0.152606
    51  C    0.014726
    52  C    0.042654
    53  C    0.092576
    54  C   -0.126181
    55  C    0.014580
    56  C    0.048285
    57  C    0.026497
    58  C    0.013817
    59  C   -0.091837
    60  C    0.011133
    61  C    0.044143
    62  C    0.042576
    63  C   -0.004477
    64  C   -0.109689
    65  C    0.058061
    66  C    0.030898
 Electronic spatial extent (au):  <R**2>=         108355.2353
 Charge=             -0.0000 electrons
 Dipole moment (field-independent basis, Debye):
    X=              3.8611    Y=              2.5910    Z=             -2.6177  Tot=              5.3361
 Quadrupole moment (field-independent basis, Debye-Ang):
   XX=           -374.5365   YY=           -439.0044   ZZ=           -408.2275
   XY=            -13.4199   XZ=              0.4528   YZ=             12.9462
 Traceless Quadrupole moment (field-independent basis, Debye-Ang):
   XX=             32.7197   YY=            -31.7483   ZZ=             -0.9714
   XY=            -13.4199   XZ=              0.4528   YZ=             12.9462
 Octapole moment (field-independent basis, Debye-Ang**2):
  XXX=           -375.0624  YYY=            -23.2898  ZZZ=             -3.3918  XYY=            290.1009
  XXY=            -18.7597  XXZ=             43.9306  XZZ=            -42.7049  YZZ=            -13.4892
  YYZ=            -36.0685  XYZ=            -51.7320
 Hexadecapole moment (field-independent basis, Debye-Ang**3):
 XXXX=        -109682.7116 YYYY=         -26573.0715 ZZZZ=         -10944.0955 XXXY=           -709.9925
 XXXZ=           -262.0477 YYYX=            -80.1027 YYYZ=            -20.0399 ZZZX=             99.7461
 ZZZY=           -112.2523 XXYY=         -24826.2732 XXZZ=         -21195.5261 YYZZ=          -5904.0020
 XXYZ=            267.2826 YYXZ=           -100.7474 ZZXY=            -71.0230
 N-N= 9.644122564065D+03 E-N=-2.628369147285D+04  KE= 2.977690040804D+03
 Leave Link  601 at Sat Apr 30 05:12:31 2022, MaxMem= 10066329600 cpu:              12.1 elap:               0.6
 (Enter /sw/apps/gaussian-16.0/g16/l9999.exe)
 1\1\GINC-BP1-COMPUTE070\SP\RBLYP TD-FC\def2SVP\C55H74Mg1N4O6\OF15641\3
 0-Apr-2022\0\\#p blyp/Def2SVP td=(nstates=5)\\step_551_chromophore_9 T
 DDFT with blyp functional\\0,1\Mg,0,35.362,1.151,29.763\C,0,32.996,2.2
 61,32.146\C,0,37.738,1.207,32.2\C,0,37.589,0.317,27.374\C,0,32.876,1.6
 19,27.258\N,0,35.369,1.74,31.887\C,0,34.276,2.058,32.707\C,0,34.689,2.
 111,34.13\C,0,36.226,2.165,34.074\C,0,36.488,1.598,32.609\C,0,36.708,3
 .626,34.242\C,0,34.18,0.942,35.011\C,0,34.172,1.105,36.614\C,0,34.767,
 2.43,37.212\O,0,34.139,3.484,37.402\O,0,36.048,2.18,37.636\N,0,37.406,
 0.656,29.807\C,0,38.222,0.897,30.926\C,0,39.577,0.589,30.533\C,0,39.49
 6,0.145,29.12\C,0,38.113,0.378,28.685\C,0,40.733,0.527,31.463\C,0,40.6
 1,-0.35,28.177\O,0,40.442,-0.425,26.966\C,0,41.921,-0.782,28.792\N,0,3
 5.157,0.674,27.609\C,0,36.268,0.427,26.868\C,0,35.94,0.782,25.446\C,0,
 34.427,0.963,25.417\C,0,34.109,1.129,26.857\C,0,36.826,1.881,24.705\C,
 0,33.585,-0.158,24.712\C,0,33.177,-1.382,25.682\N,0,33.361,1.84,29.704
 \C,0,32.453,1.947,28.603\C,0,31.074,2.22,29.101\C,0,31.28,2.41,30.501\
 C,0,32.662,2.135,30.772\C,0,29.892,2.49,28.215\C,0,30.671,2.785,31.738
 \O,0,29.516,3.099,31.956\C,0,31.732,2.538,32.863\C,0,31.763,3.737,33.7
 76\O,0,32.435,4.668,33.578\O,0,30.944,3.58,34.889\C,0,31.042,4.58,35.9
 45\C,0,36.726,3.25,38.36\C,0,37.456,2.697,39.604\C,0,36.99,2.118,40.78
 4\C,0,35.571,1.924,41.136\C,0,38.046,1.694,41.815\C,0,38.769,0.385,41.
 542\C,0,39.182,-0.245,42.825\C,0,40.536,-0.964,42.782\C,0,40.411,-2.51
 9,43.194\C,0,41.691,-0.22,43.645\C,0,42.298,0.838,42.86\C,0,42.698,1.9
 2,43.832\C,0,43.705,2.926,43.16\C,0,45.134,2.375,43.566\C,0,43.533,4.4
 53,43.5\C,0,43.562,5.34,42.217\C,0,44.579,6.439,42.381\C,0,44.041,7.75
 7,41.702\C,0,45.169,8.598,41.063\C,0,43.234,8.552,42.733\H,0,38.49,1.1
 02,32.984\H,0,38.24,0.112,26.522\H,0,32.134,1.774,26.472\H,0,34.341,3.
 008,34.643\H,0,36.714,1.459,34.747\H,0,36.092,4.208,33.556\H,0,37.757,
 3.801,34.002\H,0,36.613,3.869,35.3\H,0,34.614,-0.001,34.678\H,0,33.13,
 0.902,34.722\H,0,34.7,0.284,37.098\H,0,33.115,0.918,36.806\H,0,41.555,
 1.003,30.928\H,0,40.964,-0.479,31.811\H,0,40.491,1.11,32.352\H,0,42.49
 7,0.073,29.146\H,0,42.581,-1.264,28.071\H,0,41.77,-1.538,29.563\H,0,36
 .202,-0.166,24.977\H,0,34.322,1.951,24.968\H,0,36.873,1.792,23.62\H,0,
 37.851,1.837,25.076\H,0,36.359,2.858,24.825\H,0,34.131,-0.48,23.825\H,
 0,32.732,0.41,24.342\H,0,33.384,-2.307,25.144\H,0,32.124,-1.452,25.956
 \H,0,33.749,-1.47,26.605\H,0,30.37,2.901,27.326\H,0,29.226,3.252,28.62
 \H,0,29.306,1.621,27.916\H,0,31.298,1.645,33.314\H,0,30.173,5.234,35.8
 88\H,0,32.014,5.04,36.123\H,0,30.994,3.896,36.793\H,0,36.145,4.077,38.
 766\H,0,37.398,3.736,37.653\H,0,38.518,2.918,39.498\H,0,34.923,2.253,4
 0.324\H,0,35.222,2.449,42.025\H,0,35.472,0.854,41.314\H,0,37.617,1.818
 ,42.809\H,0,38.775,2.504,41.812\H,0,39.545,0.664,40.829\H,0,38.063,-0.
 255,41.014\H,0,38.323,-0.9,42.974\H,0,39.177,0.525,43.596\H,0,40.915,-
 1.153,41.778\H,0,40.859,-3.222,42.491\H,0,39.36,-2.793,43.103\H,0,40.7
 77,-2.647,44.213\H,0,42.471,-0.973,43.755\H,0,41.264,0.147,44.579\H,0,
 41.493,1.25,42.252\H,0,43.128,0.397,42.308\H,0,43.029,1.47,44.768\H,0,
 41.77,2.444,44.064\H,0,43.709,2.837,42.073\H,0,45.742,2.049,42.722\H,0
 ,45.157,1.516,44.237\H,0,45.719,3.139,44.077\H,0,44.325,4.756,44.185\H
 ,0,42.649,4.615,44.117\H,0,42.561,5.755,42.093\H,0,43.791,4.75,41.33\H
 ,0,45.551,6.145,41.986\H,0,44.796,6.746,43.403\H,0,43.306,7.37,40.996\
 H,0,45.953,7.917,40.731\H,0,45.679,9.254,41.769\H,0,44.879,9.176,40.18
 5\H,0,42.297,8.879,42.283\H,0,43.664,9.402,43.262\H,0,42.907,7.918,43.
 557\\Version=ES64L-G16RevA.03\State=1-A\HF=-3007.3753581\RMSD=7.112e-0
 9\PG=C01 [X(C55H74Mg1N4O6)]\\@


 NOTHING RESEMBLES A NEW PHENOMENON AS MUCH AS A MISTAKE.

                               -- ENRICO FERMI (?)
 Job cpu time:       0 days  4 hours 59 minutes 48.8 seconds.
 Elapsed time:       0 days  0 hours 12 minutes 32.5 seconds.
 File lengths (MBytes):  RWF=   8019 Int=      0 D2E=      0 Chk=    390 Scr=      1
 Normal termination of Gaussian 16 at Sat Apr 30 05:12:32 2022.
