 Entering Gaussian System, Link 0=g16
 Initial command:
 /sw/apps/gaussian-16.0/g16/l1.exe "/tmp/Gau-139175.inp" -scrdir="/tmp/"
 Entering Link 1 = /sw/apps/gaussian-16.0/g16/l1.exe PID=    139176.
  
 Copyright (c) 1988,1990,1992,1993,1995,1998,2003,2009,2016,
            Gaussian, Inc.  All Rights Reserved.
  
 This is part of the Gaussian(R) 16 program.  It is based on
 the Gaussian(R) 09 system (copyright 2009, Gaussian, Inc.),
 the Gaussian(R) 03 system (copyright 2003, Gaussian, Inc.),
 the Gaussian(R) 98 system (copyright 1998, Gaussian, Inc.),
 the Gaussian(R) 94 system (copyright 1995, Gaussian, Inc.),
 the Gaussian 92(TM) system (copyright 1992, Gaussian, Inc.),
 the Gaussian 90(TM) system (copyright 1990, Gaussian, Inc.),
 the Gaussian 88(TM) system (copyright 1988, Gaussian, Inc.),
 the Gaussian 86(TM) system (copyright 1986, Carnegie Mellon
 University), and the Gaussian 82(TM) system (copyright 1983,
 Carnegie Mellon University). Gaussian is a federally registered
 trademark of Gaussian, Inc.
  
 This software contains proprietary and confidential information,
 including trade secrets, belonging to Gaussian, Inc.
  
 This software is provided under written license and may be
 used, copied, transmitted, or stored only in accord with that
 written license.
  
 The following legend is applicable only to US Government
 contracts under FAR:
  
                    RESTRICTED RIGHTS LEGEND
  
 Use, reproduction and disclosure by the US Government is
 subject to restrictions as set forth in subparagraphs (a)
 and (c) of the Commercial Computer Software - Restricted
 Rights clause in FAR 52.227-19.
  
 Gaussian, Inc.
 340 Quinnipiac St., Bldg. 40, Wallingford CT 06492
  
  
 ---------------------------------------------------------------
 Warning -- This program may not be used in any manner that
 competes with the business of Gaussian, Inc. or will provide
 assistance to any competitor of Gaussian, Inc.  The licensee
 of this program is prohibited from giving any competitor of
 Gaussian, Inc. access to this program.  By using this program,
 the user acknowledges that Gaussian, Inc. is engaged in the
 business of creating and licensing software in the field of
 computational chemistry and represents and warrants to the
 licensee that it is not a competitor of Gaussian, Inc. and that
 it will not use this program in any manner prohibited above.
 ---------------------------------------------------------------
  

 Cite this work as:
 Gaussian 16, Revision A.03,
 M. J. Frisch, G. W. Trucks, H. B. Schlegel, G. E. Scuseria, 
 M. A. Robb, J. R. Cheeseman, G. Scalmani, V. Barone, 
 G. A. Petersson, H. Nakatsuji, X. Li, M. Caricato, A. V. Marenich, 
 J. Bloino, B. G. Janesko, R. Gomperts, B. Mennucci, H. P. Hratchian, 
 J. V. Ortiz, A. F. Izmaylov, J. L. Sonnenberg, D. Williams-Young, 
 F. Ding, F. Lipparini, F. Egidi, J. Goings, B. Peng, A. Petrone, 
 T. Henderson, D. Ranasinghe, V. G. Zakrzewski, J. Gao, N. Rega, 
 G. Zheng, W. Liang, M. Hada, M. Ehara, K. Toyota, R. Fukuda, 
 J. Hasegawa, M. Ishida, T. Nakajima, Y. Honda, O. Kitao, H. Nakai, 
 T. Vreven, K. Throssell, J. A. Montgomery, Jr., J. E. Peralta, 
 F. Ogliaro, M. J. Bearpark, J. J. Heyd, E. N. Brothers, K. N. Kudin, 
 V. N. Staroverov, T. A. Keith, R. Kobayashi, J. Normand, 
 K. Raghavachari, A. P. Rendell, J. C. Burant, S. S. Iyengar, 
 J. Tomasi, M. Cossi, J. M. Millam, M. Klene, C. Adamo, R. Cammi, 
 J. W. Ochterski, R. L. Martin, K. Morokuma, O. Farkas, 
 J. B. Foresman, and D. J. Fox, Gaussian, Inc., Wallingford CT, 2016.
 
 ******************************************
 Gaussian 16:  ES64L-G16RevA.03 25-Dec-2016
                30-Apr-2022 
 ******************************************
 %nproc=24
 Will use up to   24 processors via shared memory.
 %mem=75GB
 ---------------------------------
 #p PBE1PBE/Def2SVP td=(nstates=5)
 ---------------------------------
 1/38=1,172=1/1;
 2/12=2,17=6,18=5,40=1/2;
 3/5=43,7=101,11=9,25=1,30=1,74=-13/1,2,3,8;
 4//1;
 5/5=2,38=5/2;
 8/6=1,10=1,108=5/1;
 9/41=5,42=1,70=2/14;
 6/7=2,8=2,9=2,10=2/1;
 99/5=1,9=1/99;
 Leave Link    1 at Sat Apr 30 07:46:41 2022, MaxMem= 10066329600 cpu:               1.0 elap:               0.0
 (Enter /sw/apps/gaussian-16.0/g16/l101.exe)
 -----------------------------------------------------
 step_651_chromophore_25 TDDFT with PBE1PBE functional
 -----------------------------------------------------
 Symbolic Z-matrix:
 Charge =  0 Multiplicity = 1
 Mg                   -2.725     34.916    27.054 
 C                    -3.844     32.933    29.803 
 C                    -0.82      36.781    29.372 
 C                    -2.028     36.966    24.66 
 C                    -4.661     32.933    24.985 
 N                    -2.497     34.894    29.321 
 C                    -3.003     33.969    30.195 
 C                    -2.503     34.34     31.651 
 C                    -1.568     35.496    31.449 
 C                    -1.54      35.71     29.954 
 C                    -1.981     36.678    32.318 
 C                    -1.863     33.064    32.335 
 C                    -2.46      32.692    33.745 
 C                    -1.522     32.658    34.977 
 O                    -0.775     31.726    35.216 
 O                    -1.522     33.858    35.774 
 N                    -1.629     36.65     26.995 
 C                    -0.852     37.254    28.051 
 C                    -0.089     38.355    27.49 
 C                    -0.497     38.497    26.085 
 C                    -1.431     37.365    25.881 
 C                     0.849     39.189    28.346 
 C                    -0.047     39.484    24.983 
 O                    -0.391     39.42     23.787 
 C                     0.81      40.579    25.397 
 N                    -3.355     34.978    25.087 
 C                    -2.848     35.892    24.256 
 C                    -3.014     35.556    22.797 
 C                    -3.703     34.176    22.911 
 C                    -3.891     33.995    24.454 
 C                    -3.757     36.535    21.879 
 C                    -2.85      32.931    22.397 
 C                    -3.727     31.839    21.71 
 N                    -3.984     33.281    27.262 
 C                    -4.759     32.632    26.32 
 C                    -5.376     31.479    26.923 
 C                    -5.118     31.604    28.297 
 C                    -4.276     32.743    28.48 
 C                    -6.093     30.412    26.231 
 C                    -5.394     31.059    29.616 
 O                    -6.086     30.068    29.913 
 C                    -4.552     31.831    30.62 
 C                    -5.359     32.358    31.728 
 O                    -5.925     33.452    31.841 
 O                    -5.439     31.348    32.7 
 C                    -6.202     31.807    33.905 
 C                    -0.913     33.769    37.089 
 C                    -1.242     35.023    37.919 
 C                    -1.287     35.282    39.247 
 C                    -0.793     34.238    40.298 
 C                    -1.586     36.75     39.785 
 C                    -1.897     36.884    41.278 
 C                    -1.269     38.218    41.793 
 C                    -1.547     38.468    43.309 
 C                    -1.829     39.909    43.646 
 C                    -0.421     37.859    44.205 
 C                    -0.975     36.684    45.104 
 C                    -0.857     36.938    46.685 
 C                     0.147     35.885    47.321 
 C                    -0.143     35.633    48.776 
 C                     1.711     36.208    46.943 
 C                     2.655     34.983    46.626 
 C                     3.769     35.374    45.588 
 C                     3.528     34.708    44.249 
 C                     4.803     33.926    43.813 
 C                     3.013     35.771    43.245 
 H                    -0.162     37.246    30.108 
 H                    -1.638     37.482    23.78 
 H                    -5.062     32.247    24.237 
 H                    -3.381     34.651    32.216 
 H                    -0.589     35.346    31.905 
 H                    -2.408     37.473    31.706 
 H                    -1.072     37.113    32.733 
 H                    -2.72      36.406    33.072 
 H                    -0.777     33.09     32.428 
 H                    -2.09      32.256    31.639 
 H                    -3.108     31.816    33.765 
 H                    -3.096     33.548    33.969 
 H                     1.869     39.065    27.983 
 H                     0.761     38.988    29.413 
 H                     0.6       40.241    28.202 
 H                     1.286     41.184    24.626 
 H                     1.66      40.104    25.886 
 H                     0.197     41.15     26.095 
 H                    -2.032     35.33     22.382 
 H                    -4.706     34.248    22.491 
 H                    -4.442     37.165    22.448 
 H                    -4.331     36.087    21.068 
 H                    -2.982     37.193    21.486 
 H                    -2.445     32.387    23.25 
 H                    -1.95      33.112    21.809 
 H                    -4.742     32.215    21.578 
 H                    -3.8       30.891    22.243 
 H                    -3.475     31.757    20.653 
 H                    -7.172     30.566    26.186 
 H                    -5.864     29.522    26.817 
 H                    -5.863     30.185    25.19 
 H                    -3.864     31.163    31.139 
 H                    -7.154     32.315    33.752 
 H                    -5.605     32.442    34.56 
 H                    -6.542     30.979    34.528 
 H                     0.162     33.741    36.912 
 H                    -1.235     32.842    37.564 
 H                    -1.416     35.876    37.262 
 H                    -1.652     33.915    40.886 
 H                    -0.028     34.676    40.938 
 H                    -0.482     33.283    39.875 
 H                    -2.374     37.117    39.127 
 H                    -0.763     37.407    39.503 
 H                    -1.658     36.021    41.901 
 H                    -2.944     37.171    41.373 
 H                    -1.628     39.053    41.191 
 H                    -0.192     38.124    41.651 
 H                    -2.433     37.905    43.602 
 H                    -1.083     40.329    44.321 
 H                    -2.83      39.951    44.076 
 H                    -1.819     40.613    42.814 
 H                     0.121     38.631    44.75 
 H                     0.235     37.346    43.501 
 H                    -0.379     35.883    44.669 
 H                    -2.017     36.369    45.054 
 H                    -1.899     36.818    46.983 
 H                    -0.695     37.978    46.967 
 H                    -0.02      35.01     46.693 
 H                     0.768     35.416    49.333 
 H                    -0.799     34.771    48.894 
 H                    -0.462     36.588    49.195 
 H                     2.178     36.757    47.76 
 H                     1.722     36.985    46.178 
 H                     2.044     34.193    46.19 
 H                     3.187     34.636    47.512 
 H                     4.726     35.211    46.085 
 H                     3.818     36.453    45.445 
 H                     2.652     34.06     44.253 
 H                     4.508     32.927    43.492 
 H                     5.47      33.725    44.652 
 H                     5.303     34.451    43. 
 H                     2.108     35.353    42.802 
 H                     3.7       36.014    42.434 
 H                     2.877     36.751    43.701 
 
 ITRead=  0  0  0  0  0  0  0  0  0  0  0  0  0  0  0  0  0  0  0  0
 ITRead=  0  0  0  0  0  0  0  0  0  0  0  0  0  0  0  0  0  0  0  0
 ITRead=  0  0  0  0  0  0  0  0  0  0  0  0  0  0  0  0  0  0  0  0
 ITRead=  0  0  0  0  0  0  0  0  0  0  0  0  0  0  0  0  0  0  0  0
 ITRead=  0  0  0  0  0  0  0  0  0  0  0  0  0  0  0  0  0  0  0  0
 ITRead=  0  0  0  0  0  0  0  0  0  0  0  0  0  0  0  0  0  0  0  0
 ITRead=  0  0  0  0  0  0  0  0  0  0  0  0  0  0  0  0  0  0  0  0
 MicOpt= -1 -1 -1 -1 -1 -1 -1 -1 -1 -1 -1 -1 -1 -1 -1 -1 -1 -1 -1 -1
 MicOpt= -1 -1 -1 -1 -1 -1 -1 -1 -1 -1 -1 -1 -1 -1 -1 -1 -1 -1 -1 -1
 MicOpt= -1 -1 -1 -1 -1 -1 -1 -1 -1 -1 -1 -1 -1 -1 -1 -1 -1 -1 -1 -1
 MicOpt= -1 -1 -1 -1 -1 -1 -1 -1 -1 -1 -1 -1 -1 -1 -1 -1 -1 -1 -1 -1
 MicOpt= -1 -1 -1 -1 -1 -1 -1 -1 -1 -1 -1 -1 -1 -1 -1 -1 -1 -1 -1 -1
 MicOpt= -1 -1 -1 -1 -1 -1 -1 -1 -1 -1 -1 -1 -1 -1 -1 -1 -1 -1 -1 -1
 MicOpt= -1 -1 -1 -1 -1 -1 -1 -1 -1 -1 -1 -1 -1 -1 -1 -1 -1 -1 -1 -1
 NAtoms=    140 NQM=      140 NQMF=       0 NMMI=      0 NMMIF=      0
                NMic=       0 NMicF=      0.
                    Isotopes and Nuclear Properties:
 (Nuclear quadrupole moments (NQMom) in fm**2, nuclear magnetic moments (NMagM)
  in nuclear magnetons)

  Atom         1           2           3           4           5           6           7           8           9          10
 IAtWgt=          24          12          12          12          12          14          12          12          12          12
 AtmWgt=  23.9850450  12.0000000  12.0000000  12.0000000  12.0000000  14.0030740  12.0000000  12.0000000  12.0000000  12.0000000
 NucSpn=           0           0           0           0           0           2           0           0           0           0
 AtZEff=  -0.0000000  -0.0000000  -0.0000000  -0.0000000  -0.0000000  -0.0000000  -0.0000000  -0.0000000  -0.0000000  -0.0000000
 NQMom=    0.0000000   0.0000000   0.0000000   0.0000000   0.0000000   2.0440000   0.0000000   0.0000000   0.0000000   0.0000000
 NMagM=    0.0000000   0.0000000   0.0000000   0.0000000   0.0000000   0.4037610   0.0000000   0.0000000   0.0000000   0.0000000
 AtZNuc=  12.0000000   6.0000000   6.0000000   6.0000000   6.0000000   7.0000000   6.0000000   6.0000000   6.0000000   6.0000000

  Atom        11          12          13          14          15          16          17          18          19          20
 IAtWgt=          12          12          12          12          16          16          14          12          12          12
 AtmWgt=  12.0000000  12.0000000  12.0000000  12.0000000  15.9949146  15.9949146  14.0030740  12.0000000  12.0000000  12.0000000
 NucSpn=           0           0           0           0           0           0           2           0           0           0
 AtZEff=  -0.0000000  -0.0000000  -0.0000000  -0.0000000  -0.0000000  -0.0000000  -0.0000000  -0.0000000  -0.0000000  -0.0000000
 NQMom=    0.0000000   0.0000000   0.0000000   0.0000000   0.0000000   0.0000000   2.0440000   0.0000000   0.0000000   0.0000000
 NMagM=    0.0000000   0.0000000   0.0000000   0.0000000   0.0000000   0.0000000   0.4037610   0.0000000   0.0000000   0.0000000
 AtZNuc=   6.0000000   6.0000000   6.0000000   6.0000000   8.0000000   8.0000000   7.0000000   6.0000000   6.0000000   6.0000000

  Atom        21          22          23          24          25          26          27          28          29          30
 IAtWgt=          12          12          12          16          12          14          12          12          12          12
 AtmWgt=  12.0000000  12.0000000  12.0000000  15.9949146  12.0000000  14.0030740  12.0000000  12.0000000  12.0000000  12.0000000
 NucSpn=           0           0           0           0           0           2           0           0           0           0
 AtZEff=  -0.0000000  -0.0000000  -0.0000000  -0.0000000  -0.0000000  -0.0000000  -0.0000000  -0.0000000  -0.0000000  -0.0000000
 NQMom=    0.0000000   0.0000000   0.0000000   0.0000000   0.0000000   2.0440000   0.0000000   0.0000000   0.0000000   0.0000000
 NMagM=    0.0000000   0.0000000   0.0000000   0.0000000   0.0000000   0.4037610   0.0000000   0.0000000   0.0000000   0.0000000
 AtZNuc=   6.0000000   6.0000000   6.0000000   8.0000000   6.0000000   7.0000000   6.0000000   6.0000000   6.0000000   6.0000000

  Atom        31          32          33          34          35          36          37          38          39          40
 IAtWgt=          12          12          12          14          12          12          12          12          12          12
 AtmWgt=  12.0000000  12.0000000  12.0000000  14.0030740  12.0000000  12.0000000  12.0000000  12.0000000  12.0000000  12.0000000
 NucSpn=           0           0           0           2           0           0           0           0           0           0
 AtZEff=  -0.0000000  -0.0000000  -0.0000000  -0.0000000  -0.0000000  -0.0000000  -0.0000000  -0.0000000  -0.0000000  -0.0000000
 NQMom=    0.0000000   0.0000000   0.0000000   2.0440000   0.0000000   0.0000000   0.0000000   0.0000000   0.0000000   0.0000000
 NMagM=    0.0000000   0.0000000   0.0000000   0.4037610   0.0000000   0.0000000   0.0000000   0.0000000   0.0000000   0.0000000
 AtZNuc=   6.0000000   6.0000000   6.0000000   7.0000000   6.0000000   6.0000000   6.0000000   6.0000000   6.0000000   6.0000000

  Atom        41          42          43          44          45          46          47          48          49          50
 IAtWgt=          16          12          12          16          16          12          12          12          12          12
 AtmWgt=  15.9949146  12.0000000  12.0000000  15.9949146  15.9949146  12.0000000  12.0000000  12.0000000  12.0000000  12.0000000
 NucSpn=           0           0           0           0           0           0           0           0           0           0
 AtZEff=  -0.0000000  -0.0000000  -0.0000000  -0.0000000  -0.0000000  -0.0000000  -0.0000000  -0.0000000  -0.0000000  -0.0000000
 NQMom=    0.0000000   0.0000000   0.0000000   0.0000000   0.0000000   0.0000000   0.0000000   0.0000000   0.0000000   0.0000000
 NMagM=    0.0000000   0.0000000   0.0000000   0.0000000   0.0000000   0.0000000   0.0000000   0.0000000   0.0000000   0.0000000
 AtZNuc=   8.0000000   6.0000000   6.0000000   8.0000000   8.0000000   6.0000000   6.0000000   6.0000000   6.0000000   6.0000000

  Atom        51          52          53          54          55          56          57          58          59          60
 IAtWgt=          12          12          12          12          12          12          12          12          12          12
 AtmWgt=  12.0000000  12.0000000  12.0000000  12.0000000  12.0000000  12.0000000  12.0000000  12.0000000  12.0000000  12.0000000
 NucSpn=           0           0           0           0           0           0           0           0           0           0
 AtZEff=  -0.0000000  -0.0000000  -0.0000000  -0.0000000  -0.0000000  -0.0000000  -0.0000000  -0.0000000  -0.0000000  -0.0000000
 NQMom=    0.0000000   0.0000000   0.0000000   0.0000000   0.0000000   0.0000000   0.0000000   0.0000000   0.0000000   0.0000000
 NMagM=    0.0000000   0.0000000   0.0000000   0.0000000   0.0000000   0.0000000   0.0000000   0.0000000   0.0000000   0.0000000
 AtZNuc=   6.0000000   6.0000000   6.0000000   6.0000000   6.0000000   6.0000000   6.0000000   6.0000000   6.0000000   6.0000000

  Atom        61          62          63          64          65          66          67          68          69          70
 IAtWgt=          12          12          12          12          12          12           1           1           1           1
 AtmWgt=  12.0000000  12.0000000  12.0000000  12.0000000  12.0000000  12.0000000   1.0078250   1.0078250   1.0078250   1.0078250
 NucSpn=           0           0           0           0           0           0           1           1           1           1
 AtZEff=  -0.0000000  -0.0000000  -0.0000000  -0.0000000  -0.0000000  -0.0000000  -0.0000000  -0.0000000  -0.0000000  -0.0000000
 NQMom=    0.0000000   0.0000000   0.0000000   0.0000000   0.0000000   0.0000000   0.0000000   0.0000000   0.0000000   0.0000000
 NMagM=    0.0000000   0.0000000   0.0000000   0.0000000   0.0000000   0.0000000   2.7928460   2.7928460   2.7928460   2.7928460
 AtZNuc=   6.0000000   6.0000000   6.0000000   6.0000000   6.0000000   6.0000000   1.0000000   1.0000000   1.0000000   1.0000000

  Atom        71          72          73          74          75          76          77          78          79          80
 IAtWgt=           1           1           1           1           1           1           1           1           1           1
 AtmWgt=   1.0078250   1.0078250   1.0078250   1.0078250   1.0078250   1.0078250   1.0078250   1.0078250   1.0078250   1.0078250
 NucSpn=           1           1           1           1           1           1           1           1           1           1
 AtZEff=  -0.0000000  -0.0000000  -0.0000000  -0.0000000  -0.0000000  -0.0000000  -0.0000000  -0.0000000  -0.0000000  -0.0000000
 NQMom=    0.0000000   0.0000000   0.0000000   0.0000000   0.0000000   0.0000000   0.0000000   0.0000000   0.0000000   0.0000000
 NMagM=    2.7928460   2.7928460   2.7928460   2.7928460   2.7928460   2.7928460   2.7928460   2.7928460   2.7928460   2.7928460
 AtZNuc=   1.0000000   1.0000000   1.0000000   1.0000000   1.0000000   1.0000000   1.0000000   1.0000000   1.0000000   1.0000000

  Atom        81          82          83          84          85          86          87          88          89          90
 IAtWgt=           1           1           1           1           1           1           1           1           1           1
 AtmWgt=   1.0078250   1.0078250   1.0078250   1.0078250   1.0078250   1.0078250   1.0078250   1.0078250   1.0078250   1.0078250
 NucSpn=           1           1           1           1           1           1           1           1           1           1
 AtZEff=  -0.0000000  -0.0000000  -0.0000000  -0.0000000  -0.0000000  -0.0000000  -0.0000000  -0.0000000  -0.0000000  -0.0000000
 NQMom=    0.0000000   0.0000000   0.0000000   0.0000000   0.0000000   0.0000000   0.0000000   0.0000000   0.0000000   0.0000000
 NMagM=    2.7928460   2.7928460   2.7928460   2.7928460   2.7928460   2.7928460   2.7928460   2.7928460   2.7928460   2.7928460
 AtZNuc=   1.0000000   1.0000000   1.0000000   1.0000000   1.0000000   1.0000000   1.0000000   1.0000000   1.0000000   1.0000000

  Atom        91          92          93          94          95          96          97          98          99         100
 IAtWgt=           1           1           1           1           1           1           1           1           1           1
 AtmWgt=   1.0078250   1.0078250   1.0078250   1.0078250   1.0078250   1.0078250   1.0078250   1.0078250   1.0078250   1.0078250
 NucSpn=           1           1           1           1           1           1           1           1           1           1
 AtZEff=  -0.0000000  -0.0000000  -0.0000000  -0.0000000  -0.0000000  -0.0000000  -0.0000000  -0.0000000  -0.0000000  -0.0000000
 NQMom=    0.0000000   0.0000000   0.0000000   0.0000000   0.0000000   0.0000000   0.0000000   0.0000000   0.0000000   0.0000000
 NMagM=    2.7928460   2.7928460   2.7928460   2.7928460   2.7928460   2.7928460   2.7928460   2.7928460   2.7928460   2.7928460
 AtZNuc=   1.0000000   1.0000000   1.0000000   1.0000000   1.0000000   1.0000000   1.0000000   1.0000000   1.0000000   1.0000000

  Atom       101         102         103         104         105         106         107         108         109         110
 IAtWgt=           1           1           1           1           1           1           1           1           1           1
 AtmWgt=   1.0078250   1.0078250   1.0078250   1.0078250   1.0078250   1.0078250   1.0078250   1.0078250   1.0078250   1.0078250
 NucSpn=           1           1           1           1           1           1           1           1           1           1
 AtZEff=  -0.0000000  -0.0000000  -0.0000000  -0.0000000  -0.0000000  -0.0000000  -0.0000000  -0.0000000  -0.0000000  -0.0000000
 NQMom=    0.0000000   0.0000000   0.0000000   0.0000000   0.0000000   0.0000000   0.0000000   0.0000000   0.0000000   0.0000000
 NMagM=    2.7928460   2.7928460   2.7928460   2.7928460   2.7928460   2.7928460   2.7928460   2.7928460   2.7928460   2.7928460
 AtZNuc=   1.0000000   1.0000000   1.0000000   1.0000000   1.0000000   1.0000000   1.0000000   1.0000000   1.0000000   1.0000000

  Atom       111         112         113         114         115         116         117         118         119         120
 IAtWgt=           1           1           1           1           1           1           1           1           1           1
 AtmWgt=   1.0078250   1.0078250   1.0078250   1.0078250   1.0078250   1.0078250   1.0078250   1.0078250   1.0078250   1.0078250
 NucSpn=           1           1           1           1           1           1           1           1           1           1
 AtZEff=  -0.0000000  -0.0000000  -0.0000000  -0.0000000  -0.0000000  -0.0000000  -0.0000000  -0.0000000  -0.0000000  -0.0000000
 NQMom=    0.0000000   0.0000000   0.0000000   0.0000000   0.0000000   0.0000000   0.0000000   0.0000000   0.0000000   0.0000000
 NMagM=    2.7928460   2.7928460   2.7928460   2.7928460   2.7928460   2.7928460   2.7928460   2.7928460   2.7928460   2.7928460
 AtZNuc=   1.0000000   1.0000000   1.0000000   1.0000000   1.0000000   1.0000000   1.0000000   1.0000000   1.0000000   1.0000000

  Atom       121         122         123         124         125         126         127         128         129         130
 IAtWgt=           1           1           1           1           1           1           1           1           1           1
 AtmWgt=   1.0078250   1.0078250   1.0078250   1.0078250   1.0078250   1.0078250   1.0078250   1.0078250   1.0078250   1.0078250
 NucSpn=           1           1           1           1           1           1           1           1           1           1
 AtZEff=  -0.0000000  -0.0000000  -0.0000000  -0.0000000  -0.0000000  -0.0000000  -0.0000000  -0.0000000  -0.0000000  -0.0000000
 NQMom=    0.0000000   0.0000000   0.0000000   0.0000000   0.0000000   0.0000000   0.0000000   0.0000000   0.0000000   0.0000000
 NMagM=    2.7928460   2.7928460   2.7928460   2.7928460   2.7928460   2.7928460   2.7928460   2.7928460   2.7928460   2.7928460
 AtZNuc=   1.0000000   1.0000000   1.0000000   1.0000000   1.0000000   1.0000000   1.0000000   1.0000000   1.0000000   1.0000000

  Atom       131         132         133         134         135         136         137         138         139         140
 IAtWgt=           1           1           1           1           1           1           1           1           1           1
 AtmWgt=   1.0078250   1.0078250   1.0078250   1.0078250   1.0078250   1.0078250   1.0078250   1.0078250   1.0078250   1.0078250
 NucSpn=           1           1           1           1           1           1           1           1           1           1
 AtZEff=  -0.0000000  -0.0000000  -0.0000000  -0.0000000  -0.0000000  -0.0000000  -0.0000000  -0.0000000  -0.0000000  -0.0000000
 NQMom=    0.0000000   0.0000000   0.0000000   0.0000000   0.0000000   0.0000000   0.0000000   0.0000000   0.0000000   0.0000000
 NMagM=    2.7928460   2.7928460   2.7928460   2.7928460   2.7928460   2.7928460   2.7928460   2.7928460   2.7928460   2.7928460
 AtZNuc=   1.0000000   1.0000000   1.0000000   1.0000000   1.0000000   1.0000000   1.0000000   1.0000000   1.0000000   1.0000000
 Leave Link  101 at Sat Apr 30 07:46:41 2022, MaxMem= 10066329600 cpu:               3.2 elap:               0.2
 (Enter /sw/apps/gaussian-16.0/g16/l202.exe)
 Stoichiometry    C55H74MgN4O6
 Framework group  C1[X(C55H74MgN4O6)]
 Deg. of freedom   414
 Full point group                 C1      NOp   1
 Largest Abelian subgroup         C1      NOp   1
 Largest concise Abelian subgroup C1      NOp   1
                         Standard orientation:                         
 ---------------------------------------------------------------------
 Center     Atomic      Atomic             Coordinates (Angstroms)
 Number     Number       Type             X           Y           Z
 ---------------------------------------------------------------------
      1         12           0        6.146926    0.440454    0.081015
      2          6           0        3.797918   -2.246440    0.016146
      3          6           0        3.391251    2.643363    0.264908
      4          6           0        8.223134    2.886470   -0.273825
      5          6           0        8.672425   -1.916338   -0.087895
      6          7           0        3.884298    0.179419    0.016754
      7          6           0        3.185610   -0.998078    0.046320
      8          6           0        1.639858   -0.654798    0.065991
      9          6           0        1.583740    0.840965    0.170444
     10          6           0        3.028815    1.275076    0.240536
     11          6           0        0.730577    1.425133   -0.949249
     12          6           0        0.934985   -1.442013    1.244582
     13          6           0       -0.308940   -2.309979    0.817757
     14          6           0       -1.690502   -2.012376    1.451432
     15          8           0       -2.002701   -2.387646    2.567433
     16          8           0       -2.552166   -1.169806    0.662242
     17          7           0        5.881448    2.471952   -0.037264
     18          6           0        4.659716    3.225298    0.116106
     19          6           0        4.991453    4.638630    0.155263
     20          6           0        6.435363    4.754681   -0.094359
     21          6           0        6.887463    3.345435   -0.165266
     22          6           0        3.919850    5.701688    0.327630
     23          6           0        7.363818    5.988336   -0.178854
     24          8           0        8.604762    5.939062   -0.281214
     25          6           0        6.722968    7.289928   -0.172616
     26          7           0        8.188690    0.458960   -0.236303
     27          6           0        8.845800    1.621055   -0.263614
     28          6           0       10.329191    1.494282   -0.034235
     29          6           0       10.440248   -0.030517    0.199800
     30          6           0        8.976076   -0.535613   -0.023880
     31          6           0       11.302736    2.021116   -1.096247
     32          6           0       10.866912   -0.476732    1.669725
     33          6           0       11.778808   -1.742416    1.677029
     34          7           0        6.290473   -1.626735   -0.006691
     35          6           0        7.403163   -2.434119   -0.145402
     36          6           0        7.006261   -3.814478   -0.041554
     37          6           0        5.603018   -3.793204   -0.064399
     38          6           0        5.188360   -2.426526   -0.069255
     39          6           0        7.891219   -4.969186    0.080679
     40          6           0        4.399405   -4.606224   -0.121621
     41          8           0        4.305541   -5.847233   -0.137164
     42          6           0        3.205061   -3.671613   -0.007566
     43          6           0        2.236081   -3.879077   -1.091391
     44          8           0        2.158383   -3.328406   -2.196238
     45          8           0        1.366815   -4.902234   -0.680528
     46          6           0        0.299082   -5.156009   -1.700538
     47          6           0       -3.949344   -1.115222    1.053320
     48          6           0       -4.784974   -0.419091   -0.036075
     49          6           0       -6.095066   -0.451838   -0.375599
     50          6           0       -7.147619   -1.193046    0.508322
     51          6           0       -6.664663    0.482505   -1.531640
     52          6           0       -8.077872    0.171938   -2.031753
     53          6           0       -8.790613    1.522151   -2.360525
     54          6           0      -10.240386    1.320422   -2.904128
     55          6           0      -10.614435    2.275339   -4.007665
     56          6           0      -11.289464    1.312390   -1.746137
     57          6           0      -11.986770   -0.098895   -1.612793
     58          6           0      -13.575126   -0.085563   -1.847203
     59          6           0      -14.316581   -0.479596   -0.499500
     60          6           0      -15.670531   -1.085156   -0.753954
     61          6           0      -14.262719    0.722854    0.616080
     62          6           0      -14.047566    0.311715    2.125028
     63          6           0      -13.266827    1.424601    2.914492
     64          6           0      -11.864659    0.968439    3.261476
     65          6           0      -11.625115    1.121973    4.793237
     66          6           0      -10.855476    1.705560    2.344190
     67          1           0        2.514830    3.269549    0.440016
     68          1           0        8.977097    3.668119   -0.158401
     69          1           0        9.527048   -2.575395    0.073862
     70          1           0        1.230815   -0.988375   -0.887025
     71          1           0        0.962563    1.194624    0.993817
     72          1           0        1.357147    1.930164   -1.684947
     73          1           0        0.123380    2.220569   -0.517597
     74          1           0        0.149411    0.665924   -1.473147
     75          1           0        0.637451   -0.826072    2.093589
     76          1           0        1.714081   -2.110769    1.611439
     77          1           0       -0.147442   -3.387648    0.802666
     78          1           0       -0.466178   -2.009809   -0.217899
     79          1           0        4.091629    6.233596    1.263104
     80          1           0        2.904550    5.314508    0.250871
     81          1           0        4.037040    6.438473   -0.467891
     82          1           0        7.347936    8.174209   -0.052185
     83          1           0        6.115649    7.302166    0.731961
     84          1           0        6.116171    7.294277   -1.078592
     85          1           0       10.565946    1.930646    0.935898
     86          1           0       11.035927   -0.466806   -0.601705
     87          1           0       10.831926    2.053988   -2.079682
     88          1           0       12.235665    1.468189   -1.204947
     89          1           0       11.497434    3.054439   -0.809239
     90          1           0        9.991466   -0.830052    2.214085
     91          1           0       11.261221    0.271942    2.357120
     92          1           0       12.074108   -1.986095    0.656028
     93          1           0       11.334168   -2.639467    2.107978
     94          1           0       12.772455   -1.494232    2.049247
     95          1           0        8.128286   -5.443092   -0.872839
     96          1           0        7.333833   -5.658228    0.715091
     97          1           0        8.883098   -4.853565    0.517620
     98          1           0        2.611873   -3.911803    0.875251
     99          1           0        0.594199   -5.253816   -2.745104
    100          1           0       -0.497926   -4.412970   -1.664069
    101          1           0       -0.191497   -6.120484   -1.564771
    102          1           0       -3.976631   -0.505030    1.955905
    103          1           0       -4.291645   -2.125626    1.278154
    104          1           0       -4.165898    0.282473   -0.596511
    105          1           0       -7.540095   -2.033838   -0.063505
    106          1           0       -7.948329   -0.512923    0.796357
    107          1           0       -6.727493   -1.723482    1.362609
    108          1           0       -5.896176    0.445196   -2.304061
    109          1           0       -6.587698    1.523803   -1.218150
    110          1           0       -8.675212   -0.495651   -1.409235
    111          1           0       -7.992958   -0.199067   -3.052904
    112          1           0       -8.189348    2.096182   -3.065847
    113          1           0       -8.848125    2.074213   -1.421989
    114          1           0      -10.322584    0.318156   -3.324272
    115          1           0      -11.444644    2.924460   -3.728497
    116          1           0      -10.849919    1.676636   -4.887874
    117          1           0       -9.848544    2.988103   -4.313146
    118          1           0      -11.977556    2.153642   -1.820957
    119          1           0      -10.688797    1.380213   -0.838547
    120          1           0      -11.618965   -0.342378   -0.617063
    121          1           0      -11.720203   -0.931516   -2.263312
    122          1           0      -13.662647   -0.817049   -2.651092
    123          1           0      -13.951966    0.802613   -2.353664
    124          1           0      -13.610906   -1.180114   -0.053187
    125          1           0      -16.373339   -0.840571    0.041972
    126          1           0      -15.604485   -2.172017   -0.794897
    127          1           0      -16.085230   -0.558560   -1.614226
    128          1           0      -15.188162    1.296592    0.579188
    129          1           0      -13.567577    1.484404    0.261266
    130          1           0      -13.452054   -0.600748    2.142194
    131          1           0      -14.992541    0.184086    2.653385
    132          1           0      -13.923153    1.748644    3.722983
    133          1           0      -13.208595    2.350527    2.343211
    134          1           0      -11.659865   -0.049806    2.932032
    135          1           0      -11.187759    0.198716    5.173214
    136          1           0      -12.559312    1.196275    5.350880
    137          1           0      -10.958134    1.961742    4.984333
    138          1           0      -10.222744    0.930742    1.909097
    139          1           0      -10.206711    2.421375    2.849612
    140          1           0      -11.342598    2.349174    1.612544
 ---------------------------------------------------------------------
 Rotational constants (GHZ):           0.0538577           0.0084101           0.0077032
 Leave Link  202 at Sat Apr 30 07:46:41 2022, MaxMem= 10066329600 cpu:               0.2 elap:               0.0
 (Enter /sw/apps/gaussian-16.0/g16/l301.exe)
 Standard basis: def2SVP (5D, 7F)
 Ernie: Thresh=  0.10000D-02 Tol=  0.10000D-05 Strict=F.
 There are  1364 symmetry adapted cartesian basis functions of A   symmetry.
 There are  1298 symmetry adapted basis functions of A   symmetry.
  1298 basis functions,  2180 primitive gaussians,  1364 cartesian basis functions
   246 alpha electrons      246 beta electrons
       nuclear repulsion energy      9387.9513538114 Hartrees.
 IExCor= 1009 DFT=T Ex+Corr=PBE1PBE ExCW=0 ScaHFX=  0.250000
 ScaDFX=  0.750000  0.750000  1.000000  1.000000 ScalE2=  1.000000  1.000000
 IRadAn=      5 IRanWt=     -1 IRanGd=            0 ICorTp=0 IEmpDi=  4
 NAtoms=  140 NActive=  140 NUniq=  140 SFac= 1.00D+00 NAtFMM=   60 NAOKFM=T Big=T
 Integral buffers will be    131072 words long.
 Regular integral format.
 Two-electron integral symmetry is turned on.
 Leave Link  301 at Sat Apr 30 07:46:41 2022, MaxMem= 10066329600 cpu:               1.5 elap:               0.1
 (Enter /sw/apps/gaussian-16.0/g16/l302.exe)
 NPDir=0 NMtPBC=     1 NCelOv=     1 NCel=       1 NClECP=     1 NCelD=      1
         NCelK=      1 NCelE2=     1 NClLst=     1 CellRange=     0.0.
 One-electron integrals computed using PRISM.
 One-electron integral symmetry used in STVInt
   1 Symmetry operations used in ECPInt.
 ECPInt:  NShTT=  192510 NPrTT=  683786 LenC2=   90866 LenP2D=  201446.
 LDataN:  DoStor=T MaxTD1= 4 Len=   56
 NBasis=  1298 RedAO= T EigKep=  2.64D-04  NBF=  1298
 NBsUse=  1298 1.00D-06 EigRej= -1.00D+00 NBFU=  1298
 Precomputing XC quadrature grid using
 IXCGrd= 4 IRadAn=           5 IRanWt=          -1 IRanGd=           0 AccXCQ= 0.00D+00.
 Generated NRdTot=       0 NPtTot=           0 NUsed=           0 NTot=          32
 NSgBfM=  1006   999  1002  1005  1006 MxSgAt=   140 MxSgA2=   140.
 Leave Link  302 at Sat Apr 30 07:46:45 2022, MaxMem= 10066329600 cpu:              76.2 elap:               3.2
 (Enter /sw/apps/gaussian-16.0/g16/l303.exe)
 DipDrv:  MaxL=1.
 Leave Link  303 at Sat Apr 30 07:46:45 2022, MaxMem= 10066329600 cpu:               6.3 elap:               0.3
 (Enter /sw/apps/gaussian-16.0/g16/l308.exe)
 Leave Link  308 at Sat Apr 30 07:46:45 2022, MaxMem= 10066329600 cpu:               9.5 elap:               0.5
 (Enter /sw/apps/gaussian-16.0/g16/l401.exe)
 ExpMin= 3.36D-02 ExpMax= 4.95D+03 ExpMxC= 7.45D+02 IAcc=3 IRadAn=         5 AccDes= 0.00D+00
 Harris functional with IExCor= 1009 and IRadAn=       5 diagonalized for initial guess.
 HarFok:  IExCor= 1009 AccDes= 0.00D+00 IRadAn=         5 IDoV= 1 UseB2=F ITyADJ=14
 ICtDFT=  3500011 ScaDFX=  1.000000  1.000000  1.000000  1.000000
 FoFCou: FMM=F IPFlag=           0 FMFlag=      100000 FMFlg1=        2001
         NFxFlg=           0 DoJE=T BraDBF=F KetDBF=T FulRan=T
         wScrn=  0.000000 ICntrl=       500 IOpCl=  0 I1Cent=   200000004 NGrid=           0
         NMat0=    1 NMatS0=      1 NMatT0=    0 NMatD0=    1 NMtDS0=    0 NMtDT0=    0
 Petite list used in FoFCou.
 Harris En= -3006.11287067507    
 JPrj=0 DoOrth=F DoCkMO=F.
 Leave Link  401 at Sat Apr 30 07:46:51 2022, MaxMem= 10066329600 cpu:             130.0 elap:               5.5
 (Enter /sw/apps/gaussian-16.0/g16/l502.exe)
 Integral symmetry usage will be decided dynamically.
 Closed shell SCF:
 Using DIIS extrapolation, IDIIS=  1040.
 NGot= 10066329600 LenX= 10062561258 LenY= 10060699398
 Requested convergence on RMS density matrix=1.00D-08 within 128 cycles.
 Requested convergence on MAX density matrix=1.00D-06.
 Requested convergence on             energy=1.00D-06.
 No special actions if energy rises.
 Fock matrices will be formed incrementally for  20 cycles.

 Cycle   1  Pass 1  IDiag  1:
 FoFJK:  IHMeth= 1 ICntrl=       0 DoSepK=F KAlg= 0 I1Cent=           0 FoldK=F
 IRaf= 510000000 NMat=       1 IRICut=       1 DoRegI=T DoRafI=F ISym2E= 0 IDoP0=0 IntGTp=1.
 FoFCou: FMM=T IPFlag=           0 FMFlag=      100000 FMFlg1=        2001
         NFxFlg=           0 DoJE=F BraDBF=F KetDBF=F FulRan=T
         wScrn=  0.000000 ICntrl=         0 IOpCl=  0 I1Cent=           0 NGrid=           0
         NMat0=    1 NMatS0=      1 NMatT0=    0 NMatD0=    1 NMtDS0=    0 NMtDT0=    0
 Symmetry not used in FoFCou.
 FMM levels:  10  Number of levels for PrismC:   9
 E= -3003.80637743983    
 DIIS: error= 2.09D-02 at cycle   1 NSaved=   1.
 NSaved= 1 IEnMin= 1 EnMin= -3003.80637743983     IErMin= 1 ErrMin= 2.09D-02
 ErrMax= 2.09D-02  0.00D+00 EMaxC= 1.00D-01 BMatC= 1.44D+00 BMatP= 1.44D+00
 IDIUse=3 WtCom= 7.91D-01 WtEn= 2.09D-01
 Coeff-Com:  0.100D+01
 Coeff-En:   0.100D+01
 Coeff:      0.100D+01
 Gap=     0.083 Goal=   None    Shift=    0.000
 GapD=    0.083 DampG=0.500 DampE=0.500 DampFc=0.2500 IDamp=-1.
 Damping current iteration by 2.50D-01
 RMSDP=2.74D-03 MaxDP=6.45D-01              OVMax= 2.96D-01

 Cycle   2  Pass 1  IDiag  1:
 RMSU=  6.79D-04    CP:  9.90D-01
 E= -3004.34566690989     Delta-E=       -0.539289470058 Rises=F Damp=T
 DIIS: error= 7.83D-03 at cycle   2 NSaved=   2.
 NSaved= 2 IEnMin= 2 EnMin= -3004.34566690989     IErMin= 2 ErrMin= 7.83D-03
 ErrMax= 7.83D-03  0.00D+00 EMaxC= 1.00D-01 BMatC= 3.60D-01 BMatP= 1.44D+00
 IDIUse=3 WtCom= 9.22D-01 WtEn= 7.83D-02
 Coeff-Com: -0.761D+00 0.176D+01
 Coeff-En:   0.000D+00 0.100D+01
 Coeff:     -0.702D+00 0.170D+01
 Gap=     0.182 Goal=   None    Shift=    0.000
 RMSDP=1.01D-03 MaxDP=7.47D-02 DE=-5.39D-01 OVMax= 3.14D-01

 Cycle   3  Pass 1  IDiag  1:
 RMSU=  8.73D-04    CP:  9.63D-01  1.65D+00
 E= -3005.12685509778     Delta-E=       -0.781188187897 Rises=F Damp=F
 DIIS: error= 1.22D-02 at cycle   3 NSaved=   3.
 NSaved= 3 IEnMin= 3 EnMin= -3005.12685509778     IErMin= 2 ErrMin= 7.83D-03
 ErrMax= 1.22D-02  0.00D+00 EMaxC= 1.00D-01 BMatC= 1.98D-01 BMatP= 3.60D-01
 IDIUse=3 WtCom= 8.78D-01 WtEn= 1.22D-01
 Coeff-Com: -0.514D+00 0.109D+01 0.428D+00
 Coeff-En:   0.000D+00 0.000D+00 0.100D+01
 Coeff:     -0.451D+00 0.953D+00 0.498D+00
 Gap=     0.074 Goal=   None    Shift=    0.000
 RMSDP=6.81D-04 MaxDP=1.30D-01 DE=-7.81D-01 OVMax= 2.81D-01

 Cycle   4  Pass 1  IDiag  1:
 RMSU=  4.35D-04    CP:  9.69D-01  1.98D+00  4.60D-01
 E= -3005.25482367250     Delta-E=       -0.127968574719 Rises=F Damp=F
 DIIS: error= 8.60D-03 at cycle   4 NSaved=   4.
 NSaved= 4 IEnMin= 4 EnMin= -3005.25482367250     IErMin= 2 ErrMin= 7.83D-03
 ErrMax= 8.60D-03  0.00D+00 EMaxC= 1.00D-01 BMatC= 5.68D-02 BMatP= 1.98D-01
 IDIUse=3 WtCom= 9.14D-01 WtEn= 8.60D-02
 Coeff-Com: -0.141D+00 0.301D+00 0.343D+00 0.497D+00
 Coeff-En:   0.000D+00 0.000D+00 0.298D+00 0.702D+00
 Coeff:     -0.129D+00 0.275D+00 0.339D+00 0.514D+00
 Gap=     0.072 Goal=   None    Shift=    0.000
 RMSDP=3.78D-04 MaxDP=4.78D-02 DE=-1.28D-01 OVMax= 2.24D-01

 Cycle   5  Pass 1  IDiag  1:
 RMSU=  1.84D-04    CP:  9.68D-01  1.83D+00  6.82D-01  4.32D-01
 E= -3005.30159603679     Delta-E=       -0.046772364289 Rises=F Damp=F
 DIIS: error= 5.43D-03 at cycle   5 NSaved=   5.
 NSaved= 5 IEnMin= 5 EnMin= -3005.30159603679     IErMin= 5 ErrMin= 5.43D-03
 ErrMax= 5.43D-03  0.00D+00 EMaxC= 1.00D-01 BMatC= 1.26D-02 BMatP= 5.68D-02
 IDIUse=3 WtCom= 9.46D-01 WtEn= 5.43D-02
 Coeff-Com: -0.344D-01 0.762D-01 0.205D+00 0.397D+00 0.356D+00
 Coeff-En:   0.000D+00 0.000D+00 0.000D+00 0.251D+00 0.749D+00
 Coeff:     -0.326D-01 0.721D-01 0.193D+00 0.389D+00 0.378D+00
 Gap=     0.075 Goal=   None    Shift=    0.000
 RMSDP=1.76D-04 MaxDP=1.68D-02 DE=-4.68D-02 OVMax= 1.26D-01

 Cycle   6  Pass 1  IDiag  1:
 RMSU=  6.54D-05    CP:  9.67D-01  1.83D+00  6.43D-01  6.19D-01  2.53D-01
 E= -3005.31802362342     Delta-E=       -0.016427586632 Rises=F Damp=F
 DIIS: error= 1.15D-03 at cycle   6 NSaved=   6.
 NSaved= 6 IEnMin= 6 EnMin= -3005.31802362342     IErMin= 6 ErrMin= 1.15D-03
 ErrMax= 1.15D-03  0.00D+00 EMaxC= 1.00D-01 BMatC= 1.13D-03 BMatP= 1.26D-02
 IDIUse=3 WtCom= 9.89D-01 WtEn= 1.15D-02
 Coeff-Com: -0.110D-02 0.356D-02 0.682D-01 0.164D+00 0.257D+00 0.508D+00
 Coeff-En:   0.000D+00 0.000D+00 0.000D+00 0.000D+00 0.103D+00 0.897D+00
 Coeff:     -0.109D-02 0.352D-02 0.674D-01 0.162D+00 0.255D+00 0.513D+00
 Gap=     0.075 Goal=   None    Shift=    0.000
 RMSDP=5.54D-05 MaxDP=6.50D-03 DE=-1.64D-02 OVMax= 3.94D-02

 Cycle   7  Pass 1  IDiag  1:
 RMSU=  3.13D-05    CP:  9.68D-01  1.84D+00  6.49D-01  5.96D-01  4.24D-01
                    CP:  5.23D-01
 E= -3005.31922253404     Delta-E=       -0.001198910613 Rises=F Damp=F
 DIIS: error= 6.40D-04 at cycle   7 NSaved=   7.
 NSaved= 7 IEnMin= 7 EnMin= -3005.31922253404     IErMin= 7 ErrMin= 6.40D-04
 ErrMax= 6.40D-04  0.00D+00 EMaxC= 1.00D-01 BMatC= 2.15D-04 BMatP= 1.13D-03
 IDIUse=3 WtCom= 9.94D-01 WtEn= 6.40D-03
 Coeff-Com:  0.328D-02-0.663D-02 0.173D-01 0.523D-01 0.125D+00 0.368D+00
 Coeff-Com:  0.440D+00
 Coeff-En:   0.000D+00 0.000D+00 0.000D+00 0.000D+00 0.000D+00 0.181D+00
 Coeff-En:   0.819D+00
 Coeff:      0.326D-02-0.659D-02 0.172D-01 0.519D-01 0.124D+00 0.367D+00
 Coeff:      0.443D+00
 Gap=     0.076 Goal=   None    Shift=    0.000
 RMSDP=2.55D-05 MaxDP=2.46D-03 DE=-1.20D-03 OVMax= 1.60D-02

 Cycle   8  Pass 1  IDiag  1:
 RMSU=  1.17D-05    CP:  9.68D-01  1.84D+00  6.51D-01  5.96D-01  3.98D-01
                    CP:  6.82D-01  3.82D-01
 E= -3005.31946553885     Delta-E=       -0.000243004815 Rises=F Damp=F
 DIIS: error= 2.21D-04 at cycle   8 NSaved=   8.
 NSaved= 8 IEnMin= 8 EnMin= -3005.31946553885     IErMin= 8 ErrMin= 2.21D-04
 ErrMax= 2.21D-04  0.00D+00 EMaxC= 1.00D-01 BMatC= 3.48D-05 BMatP= 2.15D-04
 IDIUse=3 WtCom= 9.98D-01 WtEn= 2.21D-03
 Coeff-Com:  0.201D-02-0.428D-02 0.158D-02 0.961D-02 0.456D-01 0.174D+00
 Coeff-Com:  0.322D+00 0.449D+00
 Coeff-En:   0.000D+00 0.000D+00 0.000D+00 0.000D+00 0.000D+00 0.000D+00
 Coeff-En:   0.172D+00 0.828D+00
 Coeff:      0.200D-02-0.427D-02 0.158D-02 0.959D-02 0.455D-01 0.174D+00
 Coeff:      0.322D+00 0.450D+00
 Gap=     0.076 Goal=   None    Shift=    0.000
 RMSDP=8.28D-06 MaxDP=6.90D-04 DE=-2.43D-04 OVMax= 4.16D-03

 Cycle   9  Pass 1  IDiag  1:
 RMSU=  3.42D-06    CP:  9.68D-01  1.84D+00  6.51D-01  5.99D-01  4.04D-01
                    CP:  6.57D-01  5.30D-01  5.30D-01
 E= -3005.31950861835     Delta-E=       -0.000043079497 Rises=F Damp=F
 DIIS: error= 5.40D-05 at cycle   9 NSaved=   9.
 NSaved= 9 IEnMin= 9 EnMin= -3005.31950861835     IErMin= 9 ErrMin= 5.40D-05
 ErrMax= 5.40D-05  0.00D+00 EMaxC= 1.00D-01 BMatC= 2.39D-06 BMatP= 3.48D-05
 IDIUse=1 WtCom= 1.00D+00 WtEn= 0.00D+00
 Coeff-Com:  0.674D-03-0.146D-02-0.105D-02-0.109D-02 0.122D-01 0.588D-01
 Coeff-Com:  0.146D+00 0.266D+00 0.520D+00
 Coeff:      0.674D-03-0.146D-02-0.105D-02-0.109D-02 0.122D-01 0.588D-01
 Coeff:      0.146D+00 0.266D+00 0.520D+00
 Gap=     0.076 Goal=   None    Shift=    0.000
 RMSDP=2.09D-06 MaxDP=3.26D-04 DE=-4.31D-05 OVMax= 7.99D-04

 Cycle  10  Pass 1  IDiag  1:
 RMSU=  1.58D-06    CP:  9.68D-01  1.84D+00  6.51D-01  5.98D-01  4.04D-01
                    CP:  6.68D-01  5.28D-01  5.78D-01  7.25D-01
 E= -3005.31951074533     Delta-E=       -0.000002126983 Rises=F Damp=F
 DIIS: error= 1.31D-05 at cycle  10 NSaved=  10.
 NSaved=10 IEnMin=10 EnMin= -3005.31951074533     IErMin=10 ErrMin= 1.31D-05
 ErrMax= 1.31D-05  0.00D+00 EMaxC= 1.00D-01 BMatC= 3.35D-07 BMatP= 2.39D-06
 IDIUse=1 WtCom= 1.00D+00 WtEn= 0.00D+00
 Coeff-Com:  0.886D-04-0.182D-03-0.691D-03-0.207D-02 0.947D-03 0.856D-02
 Coeff-Com:  0.410D-01 0.880D-01 0.303D+00 0.561D+00
 Coeff:      0.886D-04-0.182D-03-0.691D-03-0.207D-02 0.947D-03 0.856D-02
 Coeff:      0.410D-01 0.880D-01 0.303D+00 0.561D+00
 Gap=     0.076 Goal=   None    Shift=    0.000
 RMSDP=8.06D-07 MaxDP=8.13D-05 DE=-2.13D-06 OVMax= 3.02D-04

 Cycle  11  Pass 1  IDiag  1:
 RMSU=  5.47D-07    CP:  9.68D-01  1.84D+00  6.51D-01  5.98D-01  4.04D-01
                    CP:  6.68D-01  5.31D-01  5.84D-01  8.35D-01  7.20D-01
 E= -3005.31951108717     Delta-E=       -0.000000341835 Rises=F Damp=F
 DIIS: error= 5.70D-06 at cycle  11 NSaved=  11.
 NSaved=11 IEnMin=11 EnMin= -3005.31951108717     IErMin=11 ErrMin= 5.70D-06
 ErrMax= 5.70D-06  0.00D+00 EMaxC= 1.00D-01 BMatC= 7.04D-08 BMatP= 3.35D-07
 IDIUse=1 WtCom= 1.00D+00 WtEn= 0.00D+00
 Coeff-Com: -0.220D-04 0.627D-04-0.321D-03-0.135D-02-0.108D-02-0.357D-02
 Coeff-Com:  0.676D-02 0.187D-01 0.124D+00 0.361D+00 0.496D+00
 Coeff:     -0.220D-04 0.627D-04-0.321D-03-0.135D-02-0.108D-02-0.357D-02
 Coeff:      0.676D-02 0.187D-01 0.124D+00 0.361D+00 0.496D+00
 Gap=     0.076 Goal=   None    Shift=    0.000
 RMSDP=3.30D-07 MaxDP=3.06D-05 DE=-3.42D-07 OVMax= 1.13D-04

 Cycle  12  Pass 1  IDiag  1:
 RMSU=  2.10D-07    CP:  9.68D-01  1.84D+00  6.51D-01  5.98D-01  4.04D-01
                    CP:  6.68D-01  5.33D-01  5.92D-01  8.38D-01  8.34D-01
                    CP:  8.10D-01
 E= -3005.31951116123     Delta-E=       -0.000000074058 Rises=F Damp=F
 DIIS: error= 2.50D-06 at cycle  12 NSaved=  12.
 NSaved=12 IEnMin=12 EnMin= -3005.31951116123     IErMin=12 ErrMin= 2.50D-06
 ErrMax= 2.50D-06  0.00D+00 EMaxC= 1.00D-01 BMatC= 8.82D-09 BMatP= 7.04D-08
 IDIUse=1 WtCom= 1.00D+00 WtEn= 0.00D+00
 Coeff-Com: -0.105D-04 0.382D-04-0.287D-04-0.356D-03-0.519D-03-0.363D-02
 Coeff-Com: -0.293D-02-0.695D-02 0.836D-02 0.849D-01 0.242D+00 0.680D+00
 Coeff:     -0.105D-04 0.382D-04-0.287D-04-0.356D-03-0.519D-03-0.363D-02
 Coeff:     -0.293D-02-0.695D-02 0.836D-02 0.849D-01 0.242D+00 0.680D+00
 Gap=     0.076 Goal=   None    Shift=    0.000
 RMSDP=1.51D-07 MaxDP=2.71D-05 DE=-7.41D-08 OVMax= 7.21D-05

 Cycle  13  Pass 1  IDiag  1:
 RMSU=  9.24D-08    CP:  9.68D-01  1.84D+00  6.51D-01  5.98D-01  4.05D-01
                    CP:  6.68D-01  5.34D-01  5.93D-01  8.59D-01  8.54D-01
                    CP:  9.40D-01  9.22D-01
 E= -3005.31951117287     Delta-E=       -0.000000011640 Rises=F Damp=F
 DIIS: error= 1.36D-06 at cycle  13 NSaved=  13.
 NSaved=13 IEnMin=13 EnMin= -3005.31951117287     IErMin=13 ErrMin= 1.36D-06
 ErrMax= 1.36D-06  0.00D+00 EMaxC= 1.00D-01 BMatC= 2.07D-09 BMatP= 8.82D-09
 IDIUse=1 WtCom= 1.00D+00 WtEn= 0.00D+00
 Coeff-Com:  0.133D-05 0.543D-05 0.476D-04 0.359D-04-0.632D-04-0.172D-02
 Coeff-Com: -0.308D-02-0.872D-02-0.209D-01-0.237D-01 0.354D-01 0.394D+00
 Coeff-Com:  0.629D+00
 Coeff:      0.133D-05 0.543D-05 0.476D-04 0.359D-04-0.632D-04-0.172D-02
 Coeff:     -0.308D-02-0.872D-02-0.209D-01-0.237D-01 0.354D-01 0.394D+00
 Coeff:      0.629D+00
 Gap=     0.076 Goal=   None    Shift=    0.000
 RMSDP=6.93D-08 MaxDP=4.90D-06 DE=-1.16D-08 OVMax= 2.93D-05

 Cycle  14  Pass 1  IDiag  1:
 RMSU=  3.96D-08    CP:  9.68D-01  1.84D+00  6.51D-01  5.98D-01  4.05D-01
                    CP:  6.68D-01  5.34D-01  5.95D-01  8.65D-01  8.73D-01
                    CP:  9.75D-01  1.07D+00  8.74D-01
 E= -3005.31951117548     Delta-E=       -0.000000002618 Rises=F Damp=F
 DIIS: error= 4.28D-07 at cycle  14 NSaved=  14.
 NSaved=14 IEnMin=14 EnMin= -3005.31951117548     IErMin=14 ErrMin= 4.28D-07
 ErrMax= 4.28D-07  0.00D+00 EMaxC= 1.00D-01 BMatC= 3.71D-10 BMatP= 2.07D-09
 IDIUse=1 WtCom= 1.00D+00 WtEn= 0.00D+00
 Coeff-Com:  0.411D-05-0.508D-05 0.345D-04 0.675D-04 0.605D-04-0.585D-03
 Coeff-Com: -0.135D-02-0.448D-02-0.136D-01-0.261D-01-0.123D-01 0.140D+00
 Coeff-Com:  0.385D+00 0.533D+00
 Coeff:      0.411D-05-0.508D-05 0.345D-04 0.675D-04 0.605D-04-0.585D-03
 Coeff:     -0.135D-02-0.448D-02-0.136D-01-0.261D-01-0.123D-01 0.140D+00
 Coeff:      0.385D+00 0.533D+00
 Gap=     0.076 Goal=   None    Shift=    0.000
 RMSDP=2.68D-08 MaxDP=4.30D-06 DE=-2.62D-09 OVMax= 1.40D-05

 Cycle  15  Pass 1  IDiag  1:
 RMSU=  1.59D-08    CP:  9.68D-01  1.84D+00  6.51D-01  5.98D-01  4.05D-01
                    CP:  6.68D-01  5.34D-01  5.95D-01  8.66D-01  8.76D-01
                    CP:  9.94D-01  1.10D+00  9.91D-01  8.83D-01
 E= -3005.31951117584     Delta-E=       -0.000000000360 Rises=F Damp=F
 DIIS: error= 1.90D-07 at cycle  15 NSaved=  15.
 NSaved=15 IEnMin=15 EnMin= -3005.31951117584     IErMin=15 ErrMin= 1.90D-07
 ErrMax= 1.90D-07  0.00D+00 EMaxC= 1.00D-01 BMatC= 6.08D-11 BMatP= 3.71D-10
 IDIUse=1 WtCom= 1.00D+00 WtEn= 0.00D+00
 Coeff-Com:  0.209D-05-0.373D-05 0.109D-04 0.268D-04 0.624D-04-0.201D-05
 Coeff-Com: -0.518D-04-0.771D-03-0.316D-02-0.978D-02-0.132D-01-0.278D-02
 Coeff-Com:  0.985D-01 0.317D+00 0.614D+00
 Coeff:      0.209D-05-0.373D-05 0.109D-04 0.268D-04 0.624D-04-0.201D-05
 Coeff:     -0.518D-04-0.771D-03-0.316D-02-0.978D-02-0.132D-01-0.278D-02
 Coeff:      0.985D-01 0.317D+00 0.614D+00
 Gap=     0.076 Goal=   None    Shift=    0.000
 RMSDP=1.14D-08 MaxDP=1.05D-06 DE=-3.60D-10 OVMax= 5.42D-06

 Cycle  16  Pass 1  IDiag  1:
 RMSU=  6.64D-09    CP:  9.68D-01  1.84D+00  6.51D-01  5.98D-01  4.05D-01
                    CP:  6.68D-01  5.34D-01  5.95D-01  8.67D-01  8.78D-01
                    CP:  9.99D-01  1.12D+00  1.03D+00  1.00D+00  8.51D-01
 E= -3005.31951117589     Delta-E=       -0.000000000042 Rises=F Damp=F
 DIIS: error= 6.37D-08 at cycle  16 NSaved=  16.
 NSaved=16 IEnMin=16 EnMin= -3005.31951117589     IErMin=16 ErrMin= 6.37D-08
 ErrMax= 6.37D-08  0.00D+00 EMaxC= 1.00D-01 BMatC= 7.87D-12 BMatP= 6.08D-11
 IDIUse=1 WtCom= 1.00D+00 WtEn= 0.00D+00
 Coeff-Com:  0.405D-06-0.112D-05 0.323D-06 0.310D-05 0.284D-04 0.951D-04
 Coeff-Com:  0.215D-03 0.319D-03 0.649D-03-0.106D-02-0.502D-02-0.276D-01
 Coeff-Com: -0.130D-01 0.694D-01 0.304D+00 0.672D+00
 Coeff:      0.405D-06-0.112D-05 0.323D-06 0.310D-05 0.284D-04 0.951D-04
 Coeff:      0.215D-03 0.319D-03 0.649D-03-0.106D-02-0.502D-02-0.276D-01
 Coeff:     -0.130D-01 0.694D-01 0.304D+00 0.672D+00
 Gap=     0.076 Goal=   None    Shift=    0.000
 RMSDP=5.00D-09 MaxDP=3.50D-07 DE=-4.18D-11 OVMax= 2.52D-06

 SCF Done:  E(RPBE1PBE) =  -3005.31951118     A.U. after   16 cycles
            NFock= 16  Conv=0.50D-08     -V/T= 2.0104
 KE= 2.974474790037D+03 PE=-2.576614482857D+04 EE= 1.039839917354D+04
 Leave Link  502 at Sat Apr 30 07:51:24 2022, MaxMem= 10066329600 cpu:            6504.5 elap:             272.8
 (Enter /sw/apps/gaussian-16.0/g16/l801.exe)
 DoSCS=F DFT=T ScalE2(SS,OS)=  1.000000  1.000000
 ExpMin= 3.36D-02 ExpMax= 4.95D+03 ExpMxC= 7.45D+02 IAcc=3 IRadAn=         5 AccDes= 0.00D+00
 HarFok:  IExCor=  205 AccDes= 0.00D+00 IRadAn=         5 IDoV=-2 UseB2=F ITyADJ=14
 ICtDFT= 12500011 ScaDFX=  1.000000  1.000000  1.000000  1.000000
 GSVD:  LWork=       -5460 too small for GESVD, short by       25550 words or       25550 for optimal perf.
 Largest valence mixing into a core orbital is  1.64D-04
 Largest core mixing into a valence orbital is  5.65D-05
 Range of M.O.s used for correlation:    71  1298
 NBasis=  1298 NAE=   246 NBE=   246 NFC=    70 NFV=     0
 NROrb=   1228 NOA=   176 NOB=   176 NVA=  1052 NVB=  1052

 **** Warning!!: The smallest alpha delta epsilon is  0.76199987D-01

 Leave Link  801 at Sat Apr 30 07:51:24 2022, MaxMem= 10066329600 cpu:               6.4 elap:               0.3
 (Enter /sw/apps/gaussian-16.0/g16/l914.exe)
 RHF ground state
 Two-electron integrals replicated using symmetry.
 MDV= 10066329600 DFT=T DoStab=F Mixed=T DoRPA=T DoScal=F NonHer=T
 Making orbital integer symmetry assigments:
 Orbital symmetries:
       Occupied  (A) (A) (A) (A) (A) (A) (A) (A) (A) (A) (A) (A)
                 (A) (A) (A) (A) (A) (A) (A) (A) (A) (A) (A) (A)
                 (A) (A) (A) (A) (A) (A) (A) (A) (A) (A) (A) (A)
                 (A) (A) (A) (A) (A) (A) (A) (A) (A) (A) (A) (A)
                 (A) (A) (A) (A) (A) (A) (A) (A) (A) (A) (A) (A)
                 (A) (A) (A) (A) (A) (A) (A) (A) (A) (A) (A) (A)
                 (A) (A) (A) (A) (A) (A) (A) (A) (A) (A) (A) (A)
                 (A) (A) (A) (A) (A) (A) (A) (A) (A) (A) (A) (A)
                 (A) (A) (A) (A) (A) (A) (A) (A) (A) (A) (A) (A)
                 (A) (A) (A) (A) (A) (A) (A) (A) (A) (A) (A) (A)
                 (A) (A) (A) (A) (A) (A) (A) (A) (A) (A) (A) (A)
                 (A) (A) (A) (A) (A) (A) (A) (A) (A) (A) (A) (A)
                 (A) (A) (A) (A) (A) (A) (A) (A) (A) (A) (A) (A)
                 (A) (A) (A) (A) (A) (A) (A) (A) (A) (A) (A) (A)
                 (A) (A) (A) (A) (A) (A) (A) (A) (A) (A) (A) (A)
                 (A) (A) (A) (A) (A) (A) (A) (A) (A) (A) (A) (A)
                 (A) (A) (A) (A) (A) (A) (A) (A) (A) (A) (A) (A)
                 (A) (A) (A) (A) (A) (A) (A) (A) (A) (A) (A) (A)
                 (A) (A) (A) (A) (A) (A) (A) (A) (A) (A) (A) (A)
                 (A) (A) (A) (A) (A) (A) (A) (A) (A) (A) (A) (A)
                 (A) (A) (A) (A) (A) (A)
       Virtual   (A) (A) (A) (A) (A) (A) (A) (A) (A) (A) (A) (A)
                 (A) (A) (A) (A) (A) (A) (A) (A) (A) (A) (A) (A)
                 (A) (A) (A) (A) (A) (A) (A) (A) (A) (A) (A) (A)
                 (A) (A) (A) (A) (A) (A) (A) (A) (A) (A) (A) (A)
                 (A) (A) (A) (A) (A) (A) (A) (A) (A) (A) (A) (A)
                 (A) (A) (A) (A) (A) (A) (A) (A) (A) (A) (A) (A)
                 (A) (A) (A) (A) (A) (A) (A) (A) (A) (A) (A) (A)
                 (A) (A) (A) (A) (A) (A) (A) (A) (A) (A) (A) (A)
                 (A) (A) (A) (A) (A) (A) (A) (A) (A) (A) (A) (A)
                 (A) (A) (A) (A) (A) (A) (A) (A) (A) (A) (A) (A)
                 (A) (A) (A) (A) (A) (A) (A) (A) (A) (A) (A) (A)
                 (A) (A) (A) (A) (A) (A) (A) (A) (A) (A) (A) (A)
                 (A) (A) (A) (A) (A) (A) (A) (A) (A) (A) (A) (A)
                 (A) (A) (A) (A) (A) (A) (A) (A) (A) (A) (A) (A)
                 (A) (A) (A) (A) (A) (A) (A) (A) (A) (A) (A) (A)
                 (A) (A) (A) (A) (A) (A) (A) (A) (A) (A) (A) (A)
                 (A) (A) (A) (A) (A) (A) (A) (A) (A) (A) (A) (A)
                 (A) (A) (A) (A) (A) (A) (A) (A) (A) (A) (A) (A)
                 (A) (A) (A) (A) (A) (A) (A) (A) (A) (A) (A) (A)
                 (A) (A) (A) (A) (A) (A) (A) (A) (A) (A) (A) (A)
                 (A) (A) (A) (A) (A) (A) (A) (A) (A) (A) (A) (A)
                 (A) (A) (A) (A) (A) (A) (A) (A) (A) (A) (A) (A)
                 (A) (A) (A) (A) (A) (A) (A) (A) (A) (A) (A) (A)
                 (A) (A) (A) (A) (A) (A) (A) (A) (A) (A) (A) (A)
                 (A) (A) (A) (A) (A) (A) (A) (A) (A) (A) (A) (A)
                 (A) (A) (A) (A) (A) (A) (A) (A) (A) (A) (A) (A)
                 (A) (A) (A) (A) (A) (A) (A) (A) (A) (A) (A) (A)
                 (A) (A) (A) (A) (A) (A) (A) (A) (A) (A) (A) (A)
                 (A) (A) (A) (A) (A) (A) (A) (A) (A) (A) (A) (A)
                 (A) (A) (A) (A) (A) (A) (A) (A) (A) (A) (A) (A)
                 (A) (A) (A) (A) (A) (A) (A) (A) (A) (A) (A) (A)
                 (A) (A) (A) (A) (A) (A) (A) (A) (A) (A) (A) (A)
                 (A) (A) (A) (A) (A) (A) (A) (A) (A) (A) (A) (A)
                 (A) (A) (A) (A) (A) (A) (A) (A) (A) (A) (A) (A)
                 (A) (A) (A) (A) (A) (A) (A) (A) (A) (A) (A) (A)
                 (A) (A) (A) (A) (A) (A) (A) (A) (A) (A) (A) (A)
                 (A) (A) (A) (A) (A) (A) (A) (A) (A) (A) (A) (A)
                 (A) (A) (A) (A) (A) (A) (A) (A) (A) (A) (A) (A)
                 (A) (A) (A) (A) (A) (A) (A) (A) (A) (A) (A) (A)
                 (A) (A) (A) (A) (A) (A) (A) (A) (A) (A) (A) (A)
                 (A) (A) (A) (A) (A) (A) (A) (A) (A) (A) (A) (A)
                 (A) (A) (A) (A) (A) (A) (A) (A) (A) (A) (A) (A)
                 (A) (A) (A) (A) (A) (A) (A) (A) (A) (A) (A) (A)
                 (A) (A) (A) (A) (A) (A) (A) (A) (A) (A) (A) (A)
                 (A) (A) (A) (A) (A) (A) (A) (A) (A) (A) (A) (A)
                 (A) (A) (A) (A) (A) (A) (A) (A) (A) (A) (A) (A)
                 (A) (A) (A) (A) (A) (A) (A) (A) (A) (A) (A) (A)
                 (A) (A) (A) (A) (A) (A) (A) (A) (A) (A) (A) (A)
                 (A) (A) (A) (A) (A) (A) (A) (A) (A) (A) (A) (A)
                 (A) (A) (A) (A) (A) (A) (A) (A) (A) (A) (A) (A)
                 (A) (A) (A) (A) (A) (A) (A) (A) (A) (A) (A) (A)
                 (A) (A) (A) (A) (A) (A) (A) (A) (A) (A) (A) (A)
                 (A) (A) (A) (A) (A) (A) (A) (A) (A) (A) (A) (A)
                 (A) (A) (A) (A) (A) (A) (A) (A) (A) (A) (A) (A)
                 (A) (A) (A) (A) (A) (A) (A) (A) (A) (A) (A) (A)
                 (A) (A) (A) (A) (A) (A) (A) (A) (A) (A) (A) (A)
                 (A) (A) (A) (A) (A) (A) (A) (A) (A) (A) (A) (A)
                 (A) (A) (A) (A) (A) (A) (A) (A) (A) (A) (A) (A)
                 (A) (A) (A) (A) (A) (A) (A) (A) (A) (A) (A) (A)
                 (A) (A) (A) (A) (A) (A) (A) (A) (A) (A) (A) (A)
                 (A) (A) (A) (A) (A) (A) (A) (A) (A) (A) (A) (A)
                 (A) (A) (A) (A) (A) (A) (A) (A) (A) (A) (A) (A)
                 (A) (A) (A) (A) (A) (A) (A) (A) (A) (A) (A) (A)
                 (A) (A) (A) (A) (A) (A) (A) (A) (A) (A) (A) (A)
                 (A) (A) (A) (A) (A) (A) (A) (A) (A) (A) (A) (A)
                 (A) (A) (A) (A) (A) (A) (A) (A) (A) (A) (A) (A)
                 (A) (A) (A) (A) (A) (A) (A) (A) (A) (A) (A) (A)
                 (A) (A) (A) (A) (A) (A) (A) (A) (A) (A) (A) (A)
                 (A) (A) (A) (A) (A) (A) (A) (A) (A) (A) (A) (A)
                 (A) (A) (A) (A) (A) (A) (A) (A) (A) (A) (A) (A)
                 (A) (A) (A) (A) (A) (A) (A) (A) (A) (A) (A) (A)
                 (A) (A) (A) (A) (A) (A) (A) (A) (A) (A) (A) (A)
                 (A) (A) (A) (A) (A) (A) (A) (A) (A) (A) (A) (A)
                 (A) (A) (A) (A) (A) (A) (A) (A) (A) (A) (A) (A)
                 (A) (A) (A) (A) (A) (A) (A) (A) (A) (A) (A) (A)
                 (A) (A) (A) (A) (A) (A) (A) (A) (A) (A) (A) (A)
                 (A) (A) (A) (A) (A) (A) (A) (A) (A) (A) (A) (A)
                 (A) (A) (A) (A) (A) (A) (A) (A) (A) (A) (A) (A)
                 (A) (A) (A) (A) (A) (A) (A) (A) (A) (A) (A) (A)
                 (A) (A) (A) (A) (A) (A) (A) (A) (A) (A) (A) (A)
                 (A) (A) (A) (A) (A) (A) (A) (A) (A) (A) (A) (A)
                 (A) (A) (A) (A) (A) (A) (A) (A) (A) (A) (A) (A)
                 (A) (A) (A) (A) (A) (A) (A) (A) (A) (A) (A) (A)
                 (A) (A) (A) (A) (A) (A) (A) (A) (A) (A) (A) (A)
                 (A) (A) (A) (A) (A) (A) (A) (A) (A) (A) (A) (A)
                 (A) (A) (A) (A) (A) (A) (A) (A) (A) (A) (A) (A)
                 (A) (A) (A) (A) (A) (A) (A) (A) (A) (A) (A) (A)
                 (A) (A) (A) (A) (A) (A) (A) (A)
    20 initial guesses have been made.
 Convergence on wavefunction:    0.001000000000000
 Davidson Disk Diagonalization:  ConvIn= 1.00D-03 SkipCon=T Conv= 1.00D-03.
 Max sub-space:  2000 roots to seek:    20 dimension of matrix:       370304
 Iteration     1 Dimension    20 NMult     0 NNew     20
 CISAX will form    20 AO SS matrices at one time.
 NMat=    20 NSing=    20 JSym2X= 0.
 FoFJK:  IHMeth= 1 ICntrl=       0 DoSepK=F KAlg= 0 I1Cent=           0 FoldK=F
 IRaf= 510000000 NMat=      40 IRICut=       1 DoRegI=T DoRafI=F ISym2E= 0 IDoP0=3 IntGTp=3.
 FoFCou: FMM=T IPFlag=           0 FMFlag=      100000 FMFlg1=        2001
         NFxFlg=           0 DoJE=F BraDBF=F KetDBF=F FulRan=T
         wScrn=  0.000000 ICntrl=         0 IOpCl=  0 I1Cent=           0 NGrid=           0
         NMat0=   40 NMatS0=     20 NMatT0=    0 NMatD0=   40 NMtDS0=    0 NMtDT0=    0
 Symmetry not used in FoFCou.
 FMM levels:  10  Number of levels for PrismC:   9
 New state      3 was old state      9
 New state      4 was old state      6
 Excitation Energies [eV] at current iteration:
 Root      1 :     2.231488342730651
 Root      2 :     2.533187633294638
 Root      3 :     3.189696584632900
 Root      4 :     3.194018774702879
 Root      5 :     3.333853698360397
 Root      6 :     3.399904766562619
 Root      7 :     3.535142249341349
 Root      8 :     3.696759752199024
 Root      9 :     3.884548368809087
 Root     10 :     3.966764695031135
 Root     11 :     4.240861383667985
 Root     12 :     4.265765976496451
 Root     13 :     4.306587352245245
 Root     14 :     4.351863625110465
 Root     15 :     4.468399565751249
 Root     16 :     4.492659881535643
 Root     17 :     4.604891872006405
 Root     18 :     4.654064467403313
 Root     19 :     4.753423082899524
 Root     20 :     4.889834536984805
 Iteration     2 Dimension    30 NMult    20 NNew     10
 CISAX will form    10 AO SS matrices at one time.
 NMat=    10 NSing=    10 JSym2X= 0.
 Root      1 not converged, maximum delta is    0.053710106096079
 Root      2 not converged, maximum delta is    0.052993253573111
 Root      3 not converged, maximum delta is    0.173381344057404
 New state      4 was old state      5
 Root      4 not converged, maximum delta is    0.392923484082690
 New state      5 was old state      4
 Root      5 not converged, maximum delta is    0.379675338546870
 Excitation Energies [eV] at current iteration:
 Root      1 :     1.898442997688424   Change is   -0.333045345042227
 Root      2 :     2.274518570630130   Change is   -0.258669062664508
 Root      3 :     3.028611550951302   Change is   -0.161085033681598
 Root      4 :     3.078502904350671   Change is   -0.255350794009726
 Root      5 :     3.088398350660645   Change is   -0.105620424042234
 Iteration     3 Dimension    40 NMult    30 NNew     10
 CISAX will form    10 AO SS matrices at one time.
 NMat=    10 NSing=    10 JSym2X= 0.
 Root      1 not converged, maximum delta is    0.025871939262726
 Root      2 not converged, maximum delta is    0.020797650292950
 Root      3 not converged, maximum delta is    0.025785584610720
 Root      4 not converged, maximum delta is    0.142129713281014
 Root      5 not converged, maximum delta is    0.151116899503005
 Excitation Energies [eV] at current iteration:
 Root      1 :     1.866553081889547   Change is   -0.031889915798876
 Root      2 :     2.257052144400922   Change is   -0.017466426229208
 Root      3 :     3.013408941701091   Change is   -0.015202609250211
 Root      4 :     3.066627824526081   Change is   -0.011875079824590
 Root      5 :     3.074190661791544   Change is   -0.014207688869101
 Iteration     4 Dimension    50 NMult    40 NNew     10
 CISAX will form    10 AO SS matrices at one time.
 NMat=    10 NSing=    10 JSym2X= 0.
 Root      1 not converged, maximum delta is    0.003257191762399
 Root      2 not converged, maximum delta is    0.006933882723456
 Root      3 not converged, maximum delta is    0.004434856718449
 Root      4 not converged, maximum delta is    0.016901853577001
 Root      5 not converged, maximum delta is    0.017827939081681
 Excitation Energies [eV] at current iteration:
 Root      1 :     1.863318192091676   Change is   -0.003234889797871
 Root      2 :     2.254180060447595   Change is   -0.002872083953327
 Root      3 :     3.011799053865402   Change is   -0.001609887835688
 Root      4 :     3.065104180428991   Change is   -0.001523644097090
 Root      5 :     3.072255719982508   Change is   -0.001934941809036
 Iteration     5 Dimension    60 NMult    50 NNew     10
 CISAX will form    10 AO SS matrices at one time.
 NMat=    10 NSing=    10 JSym2X= 0.
 Root      1 has converged.
 Root      2 not converged, maximum delta is    0.001296979252265
 Root      3 not converged, maximum delta is    0.001827719324101
 Root      4 not converged, maximum delta is    0.003280071081380
 Root      5 not converged, maximum delta is    0.004252207657970
 Excitation Energies [eV] at current iteration:
 Root      1 :     1.862975741492277   Change is   -0.000342450599399
 Root      2 :     2.253960837335748   Change is   -0.000219223111846
 Root      3 :     3.011598593280767   Change is   -0.000200460584635
 Root      4 :     3.064902801444612   Change is   -0.000201378984380
 Root      5 :     3.071998286468311   Change is   -0.000257433514197
 Iteration     6 Dimension    68 NMult    60 NNew      8
 CISAX will form     8 AO SS matrices at one time.
 NMat=     8 NSing=     8 JSym2X= 0.
 Root      1 has converged.
 Root      2 has converged.
 Root      3 not converged, maximum delta is    0.001061516287186
 Root      4 not converged, maximum delta is    0.001290923219058
 Root      5 not converged, maximum delta is    0.001688515832017
 Excitation Energies [eV] at current iteration:
 Root      1 :     1.862971265026171   Change is   -0.000004476466107
 Root      2 :     2.253935598005857   Change is   -0.000025239329891
 Root      3 :     3.011569326905095   Change is   -0.000029266375672
 Root      4 :     3.064877848902792   Change is   -0.000024952541820
 Root      5 :     3.071964622745647   Change is   -0.000033663722664
 Iteration     7 Dimension    74 NMult    68 NNew      6
 CISAX will form     6 AO SS matrices at one time.
 NMat=     6 NSing=     6 JSym2X= 0.
 Root      1 has converged.
 Root      2 has converged.
 Root      3 has converged.
 Root      4 has converged.
 Root      5 not converged, maximum delta is    0.001068807398083
 Excitation Energies [eV] at current iteration:
 Root      1 :     1.862968602542904   Change is   -0.000002662483267
 Root      2 :     2.253935269356325   Change is   -0.000000328649532
 Root      3 :     3.011565245863568   Change is   -0.000004081041527
 Root      4 :     3.064874869476687   Change is   -0.000002979426105
 Root      5 :     3.071958997365317   Change is   -0.000005625380330
 Convergence on energies, max DE= 5.63D-06.
 Convergence on expansion vectors.
 ***********************************************************************
 Excited states from <AA,BB:AA,BB> singles matrix:
 ***********************************************************************
 
 1PDM for each excited state written to RWF  633
 Ground to excited state transition densities written to RWF  633
 Ground to excited state transition electric dipole moments (Au):
       state          X           Y           Z        Dip. S.      Osc.
         1         0.4814     -2.8228     -0.0315      8.2009      0.3743
         2         1.2164      0.5546     -0.0401      1.7887      0.0988
         3         0.1068      0.0666      0.0271      0.0166      0.0012
         4        -0.0348     -0.0104     -0.0045      0.0013      0.0001
         5        -0.1093     -0.1263      0.0242      0.0285      0.0021
 Ground to excited state transition velocity dipole moments (Au):
       state          X           Y           Z        Dip. S.      Osc.
         1        -0.0305      0.1873      0.0014      0.0360      0.3507
         2        -0.0952     -0.0449      0.0028      0.0111      0.0893
         3        -0.0087     -0.0090     -0.0003      0.0002      0.0009
         4         0.0046      0.0005      0.0010      0.0000      0.0001
         5         0.0102      0.0139     -0.0013      0.0003      0.0018
 Ground to excited state transition magnetic dipole moments (Au):
       state          X           Y           Z
         1         0.0268      0.0043      2.2278
         2         0.0380     -0.0800     -0.6567
         3        -0.0866     -0.5826      0.1152
         4        -0.2316      0.0345      0.6677
         5        -0.3540     -0.0966     -0.5146
 Ground to excited state transition velocity quadrupole moments (Au):
       state          XX          YY          ZZ          XY          XZ          YZ
         1        -0.7526      0.3333     -0.0127      2.1222     -0.0413     -0.0301
         2        -1.9857     -0.0415      0.0087     -0.4791      0.0585      0.0473
         3        -0.1496     -0.0185      0.0116     -0.1196      0.0169      0.0054
         4         0.0960     -0.1120      0.0011     -0.1704     -0.0273      0.0074
         5         0.2168      0.1476     -0.0008      0.4263      0.0182     -0.0300
 <0|del|b> * <b|rxdel|0> + <0|del|b> * <b|delr+rdel|0>
 Rotatory Strengths (R) in cgs (10**-40 erg-esu-cm/Gauss)
       state          XX          YY          ZZ    R(velocity)    E-M Angle
         1        75.3756      1.2772    -44.8220     10.6103       89.58
         2        12.9627    -36.7998      7.9385     -5.2995       91.53
         3        17.2137      2.0200     18.8065     12.6801       37.74
         4         1.6879     -0.5590     -3.4262     -0.7658       96.28
         5        -4.6392     -8.5469    -13.7382     -8.9748      113.22
 1/2[<0|r|b>*<b|rxdel|0> + (<0|rxdel|b>*<b|r|0>)*]
 Rotatory Strengths (R) in cgs (10**-40 erg-esu-cm/Gauss)
       state          XX          YY          ZZ     R(length)
         1        -9.1114      8.4922     49.5731     16.3180
         2       -32.6539     31.3854    -18.6440     -6.6375
         3         6.5372     27.4202     -2.2110     10.5821
         4        -5.6948      0.2537      2.1355     -1.1018
         5       -27.3572     -8.6274      8.7978     -9.0623
  1/2[<0|del|b>*<b|r|0> + (<0|r|b>*<b|del|0>)*] (Au)
       state          X           Y           Z        Dip. S.   Osc.(frdel)
         1        -0.0147     -0.5287     -0.0000      0.5435      0.3623
         2        -0.1158     -0.0249     -0.0001      0.1408      0.0939
         3        -0.0009     -0.0006     -0.0000      0.0015      0.0010
         4        -0.0002     -0.0000     -0.0000      0.0002      0.0001
         5        -0.0011     -0.0018     -0.0000      0.0029      0.0019

 Excitation energies and oscillator strengths:
 
 Excited State   1:      Singlet-A      1.8630 eV  665.52 nm  f=0.3743  <S**2>=0.000
     245 -> 248        0.17792
     246 -> 247        0.69164
     246 <- 247       -0.10599
 This state for optimization and/or second-order correction.
 Total Energy, E(TD-HF/TD-DFT) =  -3005.25104834    
 Copying the excited state density for this state as the 1-particle RhoCI density.
 
 Excited State   2:      Singlet-A      2.2539 eV  550.08 nm  f=0.0988  <S**2>=0.000
     245 -> 247        0.64275
     246 -> 248       -0.28093
 
 Excited State   3:      Singlet-A      3.0116 eV  411.69 nm  f=0.0012  <S**2>=0.000
     240 -> 247        0.64503
     240 -> 249       -0.20046
     243 -> 247       -0.14453
 
 Excited State   4:      Singlet-A      3.0649 eV  404.53 nm  f=0.0001  <S**2>=0.000
     240 -> 247       -0.10885
     242 -> 247        0.52191
     242 -> 249        0.10646
     243 -> 247       -0.42318
 
 Excited State   5:      Singlet-A      3.0720 eV  403.60 nm  f=0.0021  <S**2>=0.000
     240 -> 247        0.11269
     241 -> 247       -0.20317
     242 -> 247        0.41702
     243 -> 247        0.49363
 SavETr:  write IOETrn=   770 NScale= 10 NData=  16 NLR=1 NState=    5 LETran=     100.
 Leave Link  914 at Sat Apr 30 08:04:51 2022, MaxMem= 10066329600 cpu:           19323.6 elap:             806.7
 (Enter /sw/apps/gaussian-16.0/g16/l601.exe)
 Copying SCF densities to generalized density rwf, IOpCl= 0 IROHF=0.
 Hyperfine terms turned off by default for NAtoms > 100.

 **********************************************************************

            Population analysis using the SCF density.

 **********************************************************************

 Orbital symmetries:
       Occupied  (A) (A) (A) (A) (A) (A) (A) (A) (A) (A) (A) (A)
                 (A) (A) (A) (A) (A) (A) (A) (A) (A) (A) (A) (A)
                 (A) (A) (A) (A) (A) (A) (A) (A) (A) (A) (A) (A)
                 (A) (A) (A) (A) (A) (A) (A) (A) (A) (A) (A) (A)
                 (A) (A) (A) (A) (A) (A) (A) (A) (A) (A) (A) (A)
                 (A) (A) (A) (A) (A) (A) (A) (A) (A) (A) (A) (A)
                 (A) (A) (A) (A) (A) (A) (A) (A) (A) (A) (A) (A)
                 (A) (A) (A) (A) (A) (A) (A) (A) (A) (A) (A) (A)
                 (A) (A) (A) (A) (A) (A) (A) (A) (A) (A) (A) (A)
                 (A) (A) (A) (A) (A) (A) (A) (A) (A) (A) (A) (A)
                 (A) (A) (A) (A) (A) (A) (A) (A) (A) (A) (A) (A)
                 (A) (A) (A) (A) (A) (A) (A) (A) (A) (A) (A) (A)
                 (A) (A) (A) (A) (A) (A) (A) (A) (A) (A) (A) (A)
                 (A) (A) (A) (A) (A) (A) (A) (A) (A) (A) (A) (A)
                 (A) (A) (A) (A) (A) (A) (A) (A) (A) (A) (A) (A)
                 (A) (A) (A) (A) (A) (A) (A) (A) (A) (A) (A) (A)
                 (A) (A) (A) (A) (A) (A) (A) (A) (A) (A) (A) (A)
                 (A) (A) (A) (A) (A) (A) (A) (A) (A) (A) (A) (A)
                 (A) (A) (A) (A) (A) (A) (A) (A) (A) (A) (A) (A)
                 (A) (A) (A) (A) (A) (A) (A) (A) (A) (A) (A) (A)
                 (A) (A) (A) (A) (A) (A)
       Virtual   (A) (A) (A) (A) (A) (A) (A) (A) (A) (A) (A) (A)
                 (A) (A) (A) (A) (A) (A) (A) (A) (A) (A) (A) (A)
                 (A) (A) (A) (A) (A) (A) (A) (A) (A) (A) (A) (A)
                 (A) (A) (A) (A) (A) (A) (A) (A) (A) (A) (A) (A)
                 (A) (A) (A) (A) (A) (A) (A) (A) (A) (A) (A) (A)
                 (A) (A) (A) (A) (A) (A) (A) (A) (A) (A) (A) (A)
                 (A) (A) (A) (A) (A) (A) (A) (A) (A) (A) (A) (A)
                 (A) (A) (A) (A) (A) (A) (A) (A) (A) (A) (A) (A)
                 (A) (A) (A) (A) (A) (A) (A) (A) (A) (A) (A) (A)
                 (A) (A) (A) (A) (A) (A) (A) (A) (A) (A) (A) (A)
                 (A) (A) (A) (A) (A) (A) (A) (A) (A) (A) (A) (A)
                 (A) (A) (A) (A) (A) (A) (A) (A) (A) (A) (A) (A)
                 (A) (A) (A) (A) (A) (A) (A) (A) (A) (A) (A) (A)
                 (A) (A) (A) (A) (A) (A) (A) (A) (A) (A) (A) (A)
                 (A) (A) (A) (A) (A) (A) (A) (A) (A) (A) (A) (A)
                 (A) (A) (A) (A) (A) (A) (A) (A) (A) (A) (A) (A)
                 (A) (A) (A) (A) (A) (A) (A) (A) (A) (A) (A) (A)
                 (A) (A) (A) (A) (A) (A) (A) (A) (A) (A) (A) (A)
                 (A) (A) (A) (A) (A) (A) (A) (A) (A) (A) (A) (A)
                 (A) (A) (A) (A) (A) (A) (A) (A) (A) (A) (A) (A)
                 (A) (A) (A) (A) (A) (A) (A) (A) (A) (A) (A) (A)
                 (A) (A) (A) (A) (A) (A) (A) (A) (A) (A) (A) (A)
                 (A) (A) (A) (A) (A) (A) (A) (A) (A) (A) (A) (A)
                 (A) (A) (A) (A) (A) (A) (A) (A) (A) (A) (A) (A)
                 (A) (A) (A) (A) (A) (A) (A) (A) (A) (A) (A) (A)
                 (A) (A) (A) (A) (A) (A) (A) (A) (A) (A) (A) (A)
                 (A) (A) (A) (A) (A) (A) (A) (A) (A) (A) (A) (A)
                 (A) (A) (A) (A) (A) (A) (A) (A) (A) (A) (A) (A)
                 (A) (A) (A) (A) (A) (A) (A) (A) (A) (A) (A) (A)
[...]
 Alpha virt. eigenvalues --    1.17032   1.17593   1.17858   1.18240   1.18894
 Alpha virt. eigenvalues --    1.19448   1.19690   1.19729   1.20564   1.21035
 Alpha virt. eigenvalues --    1.21452   1.22079   1.22300   1.22955   1.24126
 Alpha virt. eigenvalues --    1.24552   1.24837   1.24949   1.25287   1.25599
 Alpha virt. eigenvalues --    1.26090   1.26557   1.27054   1.27583   1.27746
 Alpha virt. eigenvalues --    1.28187   1.28317   1.28787   1.28902   1.29086
 Alpha virt. eigenvalues --    1.29654   1.30099   1.30944   1.31136   1.31485
 Alpha virt. eigenvalues --    1.31945   1.32367   1.33191   1.33391   1.33638
 Alpha virt. eigenvalues --    1.34113   1.34460   1.34954   1.36323   1.36634
 Alpha virt. eigenvalues --    1.36806   1.37288   1.37443   1.37545   1.38382
 Alpha virt. eigenvalues --    1.38628   1.38969   1.39505   1.39729   1.39966
 Alpha virt. eigenvalues --    1.40481   1.41498   1.41954   1.42083   1.42584
 Alpha virt. eigenvalues --    1.42664   1.42955   1.43129   1.44092   1.44398
 Alpha virt. eigenvalues --    1.44503   1.44598   1.45614   1.45888   1.46271
 Alpha virt. eigenvalues --    1.46917   1.47196   1.47493   1.48007   1.48144
 Alpha virt. eigenvalues --    1.48463   1.49200   1.49784   1.49994   1.50305
 Alpha virt. eigenvalues --    1.50824   1.51028   1.51220   1.52190   1.52472
 Alpha virt. eigenvalues --    1.52734   1.53100   1.53192   1.53465   1.53570
 Alpha virt. eigenvalues --    1.53676   1.54665   1.54920   1.55011   1.55123
 Alpha virt. eigenvalues --    1.55445   1.55565   1.55739   1.55789   1.56114
 Alpha virt. eigenvalues --    1.56397   1.56552   1.56862   1.56884   1.56962
 Alpha virt. eigenvalues --    1.57201   1.57891   1.58223   1.58526   1.58857
 Alpha virt. eigenvalues --    1.59076   1.59502   1.59829   1.59943   1.60852
 Alpha virt. eigenvalues --    1.61515   1.61779   1.62651   1.62926   1.63185
 Alpha virt. eigenvalues --    1.63213   1.63548   1.63754   1.63811   1.64622
 Alpha virt. eigenvalues --    1.64753   1.65189   1.65665   1.66360   1.67131
 Alpha virt. eigenvalues --    1.67664   1.67935   1.68089   1.68508   1.69002
 Alpha virt. eigenvalues --    1.69651   1.69970   1.70032   1.70350   1.70718
 Alpha virt. eigenvalues --    1.70790   1.71153   1.71614   1.71792   1.71866
 Alpha virt. eigenvalues --    1.72431   1.73055   1.73442   1.73666   1.73930
 Alpha virt. eigenvalues --    1.74014   1.74488   1.74715   1.74928   1.75085
 Alpha virt. eigenvalues --    1.75366   1.75720   1.75798   1.75841   1.75947
 Alpha virt. eigenvalues --    1.76604   1.76719   1.76883   1.77129   1.77324
 Alpha virt. eigenvalues --    1.77488   1.78031   1.78189   1.78318   1.78438
 Alpha virt. eigenvalues --    1.78498   1.78606   1.78783   1.78980   1.79423
 Alpha virt. eigenvalues --    1.79742   1.80034   1.80156   1.80500   1.80532
 Alpha virt. eigenvalues --    1.80827   1.80872   1.81077   1.81246   1.81554
 Alpha virt. eigenvalues --    1.81605   1.81676   1.82090   1.82182   1.82632
 Alpha virt. eigenvalues --    1.82914   1.83087   1.83191   1.83340   1.83429
 Alpha virt. eigenvalues --    1.83717   1.84212   1.84581   1.84719   1.84833
 Alpha virt. eigenvalues --    1.85093   1.85144   1.85593   1.85794   1.85844
 Alpha virt. eigenvalues --    1.86280   1.86329   1.86426   1.86708   1.87028
 Alpha virt. eigenvalues --    1.87428   1.87606   1.87645   1.87818   1.88059
 Alpha virt. eigenvalues --    1.88246   1.88492   1.88588   1.88774   1.88978
 Alpha virt. eigenvalues --    1.89399   1.89437   1.89639   1.89763   1.90195
 Alpha virt. eigenvalues --    1.90265   1.90700   1.90896   1.91271   1.91563
 Alpha virt. eigenvalues --    1.92208   1.92544   1.92576   1.92824   1.92896
 Alpha virt. eigenvalues --    1.93231   1.93495   1.93747   1.94207   1.94548
 Alpha virt. eigenvalues --    1.94605   1.94843   1.95303   1.95695   1.95721
 Alpha virt. eigenvalues --    1.95954   1.96286   1.96512   1.96891   1.97381
 Alpha virt. eigenvalues --    1.97784   1.98184   1.98309   1.98566   1.98647
 Alpha virt. eigenvalues --    1.98961   1.99237   1.99681   1.99830   1.99935
 Alpha virt. eigenvalues --    2.00566   2.00806   2.01098   2.01382   2.01746
 Alpha virt. eigenvalues --    2.01955   2.02110   2.02266   2.02630   2.02668
 Alpha virt. eigenvalues --    2.02737   2.03295   2.03589   2.03910   2.04062
 Alpha virt. eigenvalues --    2.04252   2.04892   2.05055   2.05627   2.06049
 Alpha virt. eigenvalues --    2.06262   2.06731   2.06933   2.07055   2.07266
 Alpha virt. eigenvalues --    2.07480   2.07669   2.07828   2.07891   2.08488
 Alpha virt. eigenvalues --    2.08888   2.09188   2.09277   2.09842   2.10051
 Alpha virt. eigenvalues --    2.10332   2.10398   2.10756   2.11314   2.11551
 Alpha virt. eigenvalues --    2.11675   2.12165   2.12618   2.13019   2.13298
 Alpha virt. eigenvalues --    2.13614   2.13791   2.14169   2.14456   2.14948
 Alpha virt. eigenvalues --    2.15031   2.15706   2.16361   2.16527   2.16685
 Alpha virt. eigenvalues --    2.17589   2.17723   2.17928   2.18809   2.19036
 Alpha virt. eigenvalues --    2.19560   2.19604   2.20081   2.20506   2.20967
 Alpha virt. eigenvalues --    2.21582   2.21673   2.22532   2.22865   2.23278
 Alpha virt. eigenvalues --    2.23687   2.23952   2.24511   2.24703   2.25235
 Alpha virt. eigenvalues --    2.26237   2.26450   2.26694   2.27653   2.27829
 Alpha virt. eigenvalues --    2.28015   2.28193   2.28366   2.28573   2.29487
 Alpha virt. eigenvalues --    2.29741   2.30117   2.30402   2.30930   2.31164
 Alpha virt. eigenvalues --    2.31555   2.32053   2.32439   2.32731   2.33068
 Alpha virt. eigenvalues --    2.33258   2.33718   2.33771   2.34093   2.34533
 Alpha virt. eigenvalues --    2.34648   2.35406   2.35476   2.35914   2.36301
 Alpha virt. eigenvalues --    2.36433   2.36625   2.36886   2.37123   2.37484
 Alpha virt. eigenvalues --    2.38258   2.38856   2.39240   2.39456   2.40039
 Alpha virt. eigenvalues --    2.40105   2.40550   2.40903   2.41630   2.41839
 Alpha virt. eigenvalues --    2.42005   2.42042   2.42792   2.42948   2.43690
 Alpha virt. eigenvalues --    2.43891   2.44043   2.44473   2.44872   2.44936
 Alpha virt. eigenvalues --    2.45149   2.45208   2.45564   2.46498   2.46963
 Alpha virt. eigenvalues --    2.47375   2.47575   2.47849   2.48844   2.49290
 Alpha virt. eigenvalues --    2.49420   2.49574   2.49955   2.50260   2.50745
 Alpha virt. eigenvalues --    2.51256   2.51405   2.52159   2.52794   2.53005
 Alpha virt. eigenvalues --    2.53788   2.54235   2.54587   2.54796   2.55772
 Alpha virt. eigenvalues --    2.55838   2.56388   2.56509   2.56735   2.57324
 Alpha virt. eigenvalues --    2.58248   2.58475   2.59399   2.59439   2.59667
 Alpha virt. eigenvalues --    2.59958   2.60454   2.60524   2.61462   2.61666
 Alpha virt. eigenvalues --    2.61686   2.61891   2.62162   2.62736   2.63004
 Alpha virt. eigenvalues --    2.63097   2.63553   2.64183   2.64805   2.65019
 Alpha virt. eigenvalues --    2.65943   2.66130   2.66228   2.66524   2.66724
 Alpha virt. eigenvalues --    2.67654   2.68363   2.68802   2.68970   2.70322
 Alpha virt. eigenvalues --    2.70565   2.70762   2.70973   2.71011   2.71734
 Alpha virt. eigenvalues --    2.72437   2.72741   2.73097   2.73186   2.73951
 Alpha virt. eigenvalues --    2.74461   2.75242   2.75560   2.75624   2.75810
 Alpha virt. eigenvalues --    2.76188   2.76291   2.77349   2.77500   2.77720
 Alpha virt. eigenvalues --    2.78304   2.78463   2.78874   2.79118   2.80353
 Alpha virt. eigenvalues --    2.80625   2.80981   2.81509   2.82265   2.82790
 Alpha virt. eigenvalues --    2.83587   2.84759   2.84977   2.85468   2.85634
 Alpha virt. eigenvalues --    2.86367   2.86849   2.87201   2.87499   2.88180
 Alpha virt. eigenvalues --    2.88741   2.89426   2.90263   2.90336   2.90677
 Alpha virt. eigenvalues --    2.90798   2.91053   2.91834   2.92111   2.92360
 Alpha virt. eigenvalues --    2.93379   2.93557   2.93872   2.94271   2.94548
 Alpha virt. eigenvalues --    2.94652   2.94840   2.95273   2.95334   2.95356
 Alpha virt. eigenvalues --    2.95529   2.95683   2.96232   2.96252   2.96619
 Alpha virt. eigenvalues --    2.96797   2.97234   2.97424   2.97633   2.97821
 Alpha virt. eigenvalues --    2.98033   2.98174   2.98602   2.98951   2.98997
 Alpha virt. eigenvalues --    2.99409   2.99713   3.00079   3.00417   3.00472
 Alpha virt. eigenvalues --    3.00658   3.01531   3.01678   3.02356   3.02680
 Alpha virt. eigenvalues --    3.02850   3.03677   3.03755   3.04768   3.05376
 Alpha virt. eigenvalues --    3.05489   3.05676   3.06256   3.06835   3.06910
 Alpha virt. eigenvalues --    3.07184   3.07556   3.08046   3.08328   3.08627
 Alpha virt. eigenvalues --    3.08878   3.09105   3.09406   3.09933   3.10435
 Alpha virt. eigenvalues --    3.11716   3.12573   3.12608   3.13655   3.13836
 Alpha virt. eigenvalues --    3.14322   3.15194   3.17014   3.17061   3.17756
 Alpha virt. eigenvalues --    3.18013   3.18816   3.20358   3.20699   3.20931
 Alpha virt. eigenvalues --    3.22777   3.25836   3.34287   3.38941   3.39879
 Alpha virt. eigenvalues --    3.40619   3.43045   3.46221   3.49886   3.51957
 Alpha virt. eigenvalues --    3.55398   3.56950   3.60048   3.63102   3.63243
 Alpha virt. eigenvalues --    3.64165   3.66112
          Condensed to atoms (all electrons):
 Mulliken charges:
               1
     1  Mg   0.983423
     2  C   -0.023104
     3  C   -0.088208
     4  C   -0.040111
     5  C   -0.087870
     6  N   -0.386072
     7  C    0.037284
     8  C   -0.096869
     9  C   -0.122736
    10  C    0.093834
    11  C   -0.001299
    12  C    0.024951
    13  C   -0.057793
    14  C    0.233161
    15  O   -0.251988
    16  O   -0.413868
    17  N   -0.516320
    18  C    0.198583
    19  C   -0.173876
    20  C   -0.110482
    21  C    0.160012
    22  C    0.053323
    23  C    0.080760
    24  O   -0.260609
    25  C   -0.010776
    26  N   -0.363446
    27  C    0.038244
    28  C   -0.081913
    29  C   -0.131008
    30  C    0.032962
    31  C    0.018055
    32  C   -0.029267
    33  C   -0.081866
    34  N   -0.497866
    35  C    0.214937
    36  C   -0.184617
    37  C   -0.040101
    38  C    0.170890
    39  C    0.057733
    40  C    0.158117
    41  O   -0.227199
    42  C   -0.093787
    43  C    0.285434
    44  O   -0.257952
    45  O   -0.378897
    46  C    0.121737
    47  C    0.261563
    48  C   -0.151261
    49  C   -0.191967
    50  C   -0.019695
    51  C    0.017959
    52  C   -0.058827
    53  C   -0.057855
    54  C   -0.201669
    55  C    0.008378
    56  C   -0.004260
    57  C   -0.100164
    58  C   -0.022050
    59  C   -0.205452
    60  C    0.030115
    61  C   -0.032165
    62  C   -0.041924
    63  C   -0.021709
    64  C   -0.241701
    65  C    0.000674
    66  C   -0.034547
    67  H    0.001323
    68  H    0.025428
    69  H    0.003347
    70  H    0.071890
    71  H    0.045145
    72  H    0.041559
    73  H    0.033549
    74  H    0.055373
    75  H    0.053449
    76  H    0.044823
    77  H    0.089578
    78  H    0.055444
    79  H    0.063767
    80  H    0.045374
    81  H    0.049877
    82  H    0.054212
    83  H    0.048946
    84  H    0.074857
    85  H    0.049842
    86  H    0.049284
    87  H    0.045275
    88  H    0.048028
    89  H    0.057240
    90  H    0.047761
    91  H    0.046397
    92  H    0.028135
    93  H    0.056403
    94  H    0.043522
    95  H    0.062771
    96  H    0.065655
    97  H    0.033223
    98  H    0.092703
    99  H    0.066009
   100  H    0.049506
   101  H    0.053839
   102  H    0.052555
   103  H    0.050361
   104  H    0.026102
   105  H    0.052157
   106  H    0.070051
   107  H    0.035473
   108  H    0.040879
   109  H    0.046309
   110  H    0.041968
   111  H    0.039186
   112  H    0.030899
   113  H    0.030578
   114  H    0.030998
   115  H    0.024375
   116  H    0.036038
   117  H    0.022885
   118  H    0.039186
   119  H    0.027075
   120  H    0.034910
   121  H    0.039577
   122  H    0.019923
   123  H    0.028470
   124  H    0.028837
   125  H    0.021483
   126  H    0.043449
   127  H    0.034551
   128  H    0.017478
   129  H    0.025421
   130  H    0.032731
   131  H    0.037857
   132  H    0.019878
   133  H    0.020731
   134  H    0.039833
   135  H    0.030626
   136  H    0.036314
   137  H    0.039547
   138  H    0.043778
   139  H    0.023754
   140  H    0.043256
 Sum of Mulliken charges =  -0.00000
 Mulliken charges with hydrogens summed into heavy atoms:
               1
     1  Mg   0.983423
     2  C   -0.023104
     3  C   -0.086885
     4  C   -0.014683
     5  C   -0.084523
     6  N   -0.386072
     7  C    0.037284
     8  C   -0.024979
     9  C   -0.077591
    10  C    0.093834
    11  C    0.129182
    12  C    0.123223
    13  C    0.087229
    14  C    0.233161
    15  O   -0.251988
    16  O   -0.413868
    17  N   -0.516320
    18  C    0.198583
    19  C   -0.173876
    20  C   -0.110482
    21  C    0.160012
    22  C    0.212342
    23  C    0.080760
    24  O   -0.260609
    25  C    0.167239
    26  N   -0.363446
    27  C    0.038244
    28  C   -0.032071
    29  C   -0.081724
    30  C    0.032962
    31  C    0.168598
    32  C    0.064892
    33  C    0.046194
    34  N   -0.497866
    35  C    0.214937
    36  C   -0.184617
    37  C   -0.040101
    38  C    0.170890
    39  C    0.219383
    40  C    0.158117
    41  O   -0.227199
    42  C   -0.001084
    43  C    0.285434
    44  O   -0.257952
    45  O   -0.378897
    46  C    0.291091
    47  C    0.364479
    48  C   -0.125159
    49  C   -0.191967
    50  C    0.137985
    51  C    0.105147
    52  C    0.022327
    53  C    0.003622
    54  C   -0.170671
    55  C    0.091676
    56  C    0.062001
    57  C   -0.025677
    58  C    0.026344
    59  C   -0.176615
    60  C    0.129599
    61  C    0.010734
    62  C    0.028664
    63  C    0.018901
    64  C   -0.201868
    65  C    0.107162
    66  C    0.076240
 Electronic spatial extent (au):  <R**2>=         135403.4284
 Charge=             -0.0000 electrons
 Dipole moment (field-independent basis, Debye):
    X=             -1.5012    Y=              3.3827    Z=              0.8693  Tot=              3.8016
 Quadrupole moment (field-independent basis, Debye-Ang):
   XX=           -361.1467   YY=           -416.7565   ZZ=           -411.2652
   XY=            -10.7528   XZ=             18.5011   YZ=              7.7505
 Traceless Quadrupole moment (field-independent basis, Debye-Ang):
   XX=             35.2428   YY=            -20.3671   ZZ=            -14.8757
   XY=            -10.7528   XZ=             18.5011   YZ=              7.7505
 Octapole moment (field-independent basis, Debye-Ang**2):
  XXX=            337.8419  YYY=            163.2297  ZZZ=            -21.2049  XYY=           -174.6105
  XXY=           -275.8816  XXZ=            128.6452  XZZ=              8.7366  YZZ=              3.5687
  YYZ=            -12.5353  XYZ=             -7.2423
 Hexadecapole moment (field-independent basis, Debye-Ang**3):
 XXXX=        -155070.2247 YYYY=         -19954.3851 ZZZZ=          -6045.1310 XXXY=          -3976.9880
 XXXZ=            -26.6689 YYYX=            556.9739 YYYZ=            314.1645 ZZZX=             89.9836
 ZZZY=             86.7377 XXYY=         -31562.7851 XXZZ=         -27781.4868 YYZZ=          -4271.8007
 XXYZ=            196.7759 YYXZ=            214.5848 ZZXY=             58.4928
 N-N= 9.387951353811D+03 E-N=-2.576614479672D+04  KE= 2.974474790037D+03
 Leave Link  601 at Sat Apr 30 08:04:51 2022, MaxMem= 10066329600 cpu:              13.3 elap:               0.7
 (Enter /sw/apps/gaussian-16.0/g16/l9999.exe)
 1\1\GINC-BP1-COMPUTE082\SP\RPBE1PBE TD-FC\def2SVP\C55H74Mg1N4O6\OF1564
 1\30-Apr-2022\0\\#p PBE1PBE/Def2SVP td=(nstates=5)\\step_651_chromopho
 re_25 TDDFT with PBE1PBE functional\\0,1\Mg,0,-2.725,34.916,27.054\C,0
 ,-3.844,32.933,29.803\C,0,-0.82,36.781,29.372\C,0,-2.028,36.966,24.66\
 C,0,-4.661,32.933,24.985\N,0,-2.497,34.894,29.321\C,0,-3.003,33.969,30
 .195\C,0,-2.503,34.34,31.651\C,0,-1.568,35.496,31.449\C,0,-1.54,35.71,
 29.954\C,0,-1.981,36.678,32.318\C,0,-1.863,33.064,32.335\C,0,-2.46,32.
 692,33.745\C,0,-1.522,32.658,34.977\O,0,-0.775,31.726,35.216\O,0,-1.52
 2,33.858,35.774\N,0,-1.629,36.65,26.995\C,0,-0.852,37.254,28.051\C,0,-
 0.089,38.355,27.49\C,0,-0.497,38.497,26.085\C,0,-1.431,37.365,25.881\C
 ,0,0.849,39.189,28.346\C,0,-0.047,39.484,24.983\O,0,-0.391,39.42,23.78
 7\C,0,0.81,40.579,25.397\N,0,-3.355,34.978,25.087\C,0,-2.848,35.892,24
 .256\C,0,-3.014,35.556,22.797\C,0,-3.703,34.176,22.911\C,0,-3.891,33.9
 95,24.454\C,0,-3.757,36.535,21.879\C,0,-2.85,32.931,22.397\C,0,-3.727,
 31.839,21.71\N,0,-3.984,33.281,27.262\C,0,-4.759,32.632,26.32\C,0,-5.3
 76,31.479,26.923\C,0,-5.118,31.604,28.297\C,0,-4.276,32.743,28.48\C,0,
 -6.093,30.412,26.231\C,0,-5.394,31.059,29.616\O,0,-6.086,30.068,29.913
 \C,0,-4.552,31.831,30.62\C,0,-5.359,32.358,31.728\O,0,-5.925,33.452,31
 .841\O,0,-5.439,31.348,32.7\C,0,-6.202,31.807,33.905\C,0,-0.913,33.769
 ,37.089\C,0,-1.242,35.023,37.919\C,0,-1.287,35.282,39.247\C,0,-0.793,3
 4.238,40.298\C,0,-1.586,36.75,39.785\C,0,-1.897,36.884,41.278\C,0,-1.2
 69,38.218,41.793\C,0,-1.547,38.468,43.309\C,0,-1.829,39.909,43.646\C,0
 ,-0.421,37.859,44.205\C,0,-0.975,36.684,45.104\C,0,-0.857,36.938,46.68
 5\C,0,0.147,35.885,47.321\C,0,-0.143,35.633,48.776\C,0,1.711,36.208,46
 .943\C,0,2.655,34.983,46.626\C,0,3.769,35.374,45.588\C,0,3.528,34.708,
 44.249\C,0,4.803,33.926,43.813\C,0,3.013,35.771,43.245\H,0,-0.162,37.2
 46,30.108\H,0,-1.638,37.482,23.78\H,0,-5.062,32.247,24.237\H,0,-3.381,
 34.651,32.216\H,0,-0.589,35.346,31.905\H,0,-2.408,37.473,31.706\H,0,-1
 .072,37.113,32.733\H,0,-2.72,36.406,33.072\H,0,-0.777,33.09,32.428\H,0
 ,-2.09,32.256,31.639\H,0,-3.108,31.816,33.765\H,0,-3.096,33.548,33.969
 \H,0,1.869,39.065,27.983\H,0,0.761,38.988,29.413\H,0,0.6,40.241,28.202
 \H,0,1.286,41.184,24.626\H,0,1.66,40.104,25.886\H,0,0.197,41.15,26.095
 \H,0,-2.032,35.33,22.382\H,0,-4.706,34.248,22.491\H,0,-4.442,37.165,22
 .448\H,0,-4.331,36.087,21.068\H,0,-2.982,37.193,21.486\H,0,-2.445,32.3
 87,23.25\H,0,-1.95,33.112,21.809\H,0,-4.742,32.215,21.578\H,0,-3.8,30.
 891,22.243\H,0,-3.475,31.757,20.653\H,0,-7.172,30.566,26.186\H,0,-5.86
 4,29.522,26.817\H,0,-5.863,30.185,25.19\H,0,-3.864,31.163,31.139\H,0,-
 7.154,32.315,33.752\H,0,-5.605,32.442,34.56\H,0,-6.542,30.979,34.528\H
 ,0,0.162,33.741,36.912\H,0,-1.235,32.842,37.564\H,0,-1.416,35.876,37.2
 62\H,0,-1.652,33.915,40.886\H,0,-0.028,34.676,40.938\H,0,-0.482,33.283
 ,39.875\H,0,-2.374,37.117,39.127\H,0,-0.763,37.407,39.503\H,0,-1.658,3
 6.021,41.901\H,0,-2.944,37.171,41.373\H,0,-1.628,39.053,41.191\H,0,-0.
 192,38.124,41.651\H,0,-2.433,37.905,43.602\H,0,-1.083,40.329,44.321\H,
 0,-2.83,39.951,44.076\H,0,-1.819,40.613,42.814\H,0,0.121,38.631,44.75\
 H,0,0.235,37.346,43.501\H,0,-0.379,35.883,44.669\H,0,-2.017,36.369,45.
 054\H,0,-1.899,36.818,46.983\H,0,-0.695,37.978,46.967\H,0,-0.02,35.01,
 46.693\H,0,0.768,35.416,49.333\H,0,-0.799,34.771,48.894\H,0,-0.462,36.
 588,49.195\H,0,2.178,36.757,47.76\H,0,1.722,36.985,46.178\H,0,2.044,34
 .193,46.19\H,0,3.187,34.636,47.512\H,0,4.726,35.211,46.085\H,0,3.818,3
 6.453,45.445\H,0,2.652,34.06,44.253\H,0,4.508,32.927,43.492\H,0,5.47,3
 3.725,44.652\H,0,5.303,34.451,43.\H,0,2.108,35.353,42.802\H,0,3.7,36.0
 14,42.434\H,0,2.877,36.751,43.701\\Version=ES64L-G16RevA.03\State=1-A\
 HF=-3005.3195112\RMSD=4.999e-09\PG=C01 [X(C55H74Mg1N4O6)]\\@


 A COMPLEXITY IS MERELY A DISARRANGEMENT OF SIMPLICITIES.

                                    -- G. O. ABELL IN "EXPLORATION OF THE UNIVERSE"
 Job cpu time:       0 days  7 hours 14 minutes 42.6 seconds.
 Elapsed time:       0 days  0 hours 18 minutes 10.5 seconds.
 File lengths (MBytes):  RWF=   8929 Int=      0 D2E=      0 Chk=    390 Scr=      1
 Normal termination of Gaussian 16 at Sat Apr 30 08:04:52 2022.
