 Entering Gaussian System, Link 0=g16
 Initial command:
 /sw/apps/gaussian-16.0/g16/l1.exe "/tmp/Gau-168224.inp" -scrdir="/tmp/"
 Entering Link 1 = /sw/apps/gaussian-16.0/g16/l1.exe PID=    168225.
  
 Copyright (c) 1988,1990,1992,1993,1995,1998,2003,2009,2016,
            Gaussian, Inc.  All Rights Reserved.
  
 This is part of the Gaussian(R) 16 program.  It is based on
 the Gaussian(R) 09 system (copyright 2009, Gaussian, Inc.),
 the Gaussian(R) 03 system (copyright 2003, Gaussian, Inc.),
 the Gaussian(R) 98 system (copyright 1998, Gaussian, Inc.),
 the Gaussian(R) 94 system (copyright 1995, Gaussian, Inc.),
 the Gaussian 92(TM) system (copyright 1992, Gaussian, Inc.),
 the Gaussian 90(TM) system (copyright 1990, Gaussian, Inc.),
 the Gaussian 88(TM) system (copyright 1988, Gaussian, Inc.),
 the Gaussian 86(TM) system (copyright 1986, Carnegie Mellon
 University), and the Gaussian 82(TM) system (copyright 1983,
 Carnegie Mellon University). Gaussian is a federally registered
 trademark of Gaussian, Inc.
  
 This software contains proprietary and confidential information,
 including trade secrets, belonging to Gaussian, Inc.
  
 This software is provided under written license and may be
 used, copied, transmitted, or stored only in accord with that
 written license.
  
 The following legend is applicable only to US Government
 contracts under FAR:
  
                    RESTRICTED RIGHTS LEGEND
  
 Use, reproduction and disclosure by the US Government is
 subject to restrictions as set forth in subparagraphs (a)
 and (c) of the Commercial Computer Software - Restricted
 Rights clause in FAR 52.227-19.
  
 Gaussian, Inc.
 340 Quinnipiac St., Bldg. 40, Wallingford CT 06492
  
  
 ---------------------------------------------------------------
 Warning -- This program may not be used in any manner that
 competes with the business of Gaussian, Inc. or will provide
 assistance to any competitor of Gaussian, Inc.  The licensee
 of this program is prohibited from giving any competitor of
 Gaussian, Inc. access to this program.  By using this program,
 the user acknowledges that Gaussian, Inc. is engaged in the
 business of creating and licensing software in the field of
 computational chemistry and represents and warrants to the
 licensee that it is not a competitor of Gaussian, Inc. and that
 it will not use this program in any manner prohibited above.
 ---------------------------------------------------------------
  

 Cite this work as:
 Gaussian 16, Revision A.03,
 M. J. Frisch, G. W. Trucks, H. B. Schlegel, G. E. Scuseria, 
 M. A. Robb, J. R. Cheeseman, G. Scalmani, V. Barone, 
 G. A. Petersson, H. Nakatsuji, X. Li, M. Caricato, A. V. Marenich, 
 J. Bloino, B. G. Janesko, R. Gomperts, B. Mennucci, H. P. Hratchian, 
 J. V. Ortiz, A. F. Izmaylov, J. L. Sonnenberg, D. Williams-Young, 
 F. Ding, F. Lipparini, F. Egidi, J. Goings, B. Peng, A. Petrone, 
 T. Henderson, D. Ranasinghe, V. G. Zakrzewski, J. Gao, N. Rega, 
 G. Zheng, W. Liang, M. Hada, M. Ehara, K. Toyota, R. Fukuda, 
 J. Hasegawa, M. Ishida, T. Nakajima, Y. Honda, O. Kitao, H. Nakai, 
 T. Vreven, K. Throssell, J. A. Montgomery, Jr., J. E. Peralta, 
 F. Ogliaro, M. J. Bearpark, J. J. Heyd, E. N. Brothers, K. N. Kudin, 
 V. N. Staroverov, T. A. Keith, R. Kobayashi, J. Normand, 
 K. Raghavachari, A. P. Rendell, J. C. Burant, S. S. Iyengar, 
 J. Tomasi, M. Cossi, J. M. Millam, M. Klene, C. Adamo, R. Cammi, 
 J. W. Ochterski, R. L. Martin, K. Morokuma, O. Farkas, 
 J. B. Foresman, and D. J. Fox, Gaussian, Inc., Wallingford CT, 2016.
 
 ******************************************
 Gaussian 16:  ES64L-G16RevA.03 25-Dec-2016
                28-Apr-2022 
 ******************************************
 %nproc=24
 Will use up to   24 processors via shared memory.
 %mem=75GB
 ---------------------------------
 #p PBE1PBE/Def2SVP td=(nstates=5)
 ---------------------------------
 1/38=1,172=1/1;
 2/12=2,17=6,18=5,40=1/2;
 3/5=43,7=101,11=9,25=1,30=1,74=-13/1,2,3,8;
 4//1;
 5/5=2,38=5/2;
 8/6=1,10=1,108=5/1;
 9/41=5,42=1,70=2/14;
 6/7=2,8=2,9=2,10=2/1;
 99/5=1,9=1/99;
 Leave Link    1 at Thu Apr 28 21:46:05 2022, MaxMem= 10066329600 cpu:               1.5 elap:               0.1
 (Enter /sw/apps/gaussian-16.0/g16/l101.exe)
 ------------------------------------------------------
 step_1751_chromophore_22 TDDFT with PBE1PBE functional
 ------------------------------------------------------
 Symbolic Z-matrix:
 Charge =  0 Multiplicity = 1
 Mg                    8.891     47.291    25.473 
 C                     6.739     47.566    28.265 
 C                     11.598    47.713    27.765 
 C                     10.869    47.072    22.927 
 C                     6.169     47.724    23.333 
 N                     9.126     47.6      27.782 
 C                     8.085     47.509    28.691 
 C                     8.572     47.63     30.129 
 C                     10.035    47.867    29.909 
 C                     10.312    47.775    28.382 
 C                     10.552    49.141    30.535 
 C                     8.181     46.423    31.085 
 C                     9.086     46.077    32.24 
 C                     8.428     45.624    33.567 
 O                     7.535     44.746    33.707 
 O                     8.99      46.343    34.635 
 N                     10.915    47.425    25.326 
 C                     11.855    47.602    26.38 
 C                     13.209    47.6      25.778 
 C                     13.024    47.167    24.388 
 C                     11.582    47.208    24.153 
 C                     14.535    47.826    26.482 
 C                     14.06     46.835    23.275 
 O                     13.666    46.408    22.204 
 C                     15.469    47.028    23.487 
 N                     8.492     47.411    23.447 
 C                     9.524     47.286    22.56 
 C                     9.099     47.44     21.121 
 C                     7.543     47.475    21.201 
 C                     7.376     47.656    22.723 
 C                     9.67      48.752    20.475 
 C                     6.672     46.26     20.723 
 C                     5.285     46.6      20.088 
 N                     6.87      47.602    25.661 
 C                     5.877     47.657    24.695 
 C                     4.597     47.605    25.322 
 C                     4.86      47.649    26.735 
 C                     6.272     47.655    26.88 
 C                     3.285     47.609    24.53 
 C                     4.26      47.601    28.044 
 O                     3.064     47.559    28.393 
 C                     5.451     47.522    29.1 
 C                     5.243     46.187    29.822 
 O                     5.863     45.13     29.514 
 O                     4.465     46.395    30.999 
 C                     4.524     45.216    31.856 
 C                     8.45      45.967    35.9 
 C                     9.155     46.706    36.963 
 C                     9.036     46.776    38.304 
 C                     8.04      46.003    39.125 
 C                     10.069    47.634    39.028 
 C                     10.959    46.838    39.998 
 C                     11.204    47.636    41.356 
 C                     10.262    47.227    42.505 
 C                     9.062     48.082    42.517 
 C                     11.098    47.114    43.799 
 C                     11.653    45.728    43.986 
 C                     11.903    45.164    45.401 
 C                     13.41     44.963    45.722 
 C                     13.919    46.12     46.642 
 C                     13.835    43.565    46.305 
 C                     14.948    42.872    45.501 
 C                     14.3      41.885    44.536 
 C                     15.177    41.247    43.344 
 C                     15.378    42.226    42.235 
 C                     14.689    39.864    42.923 
 H                     12.515    47.682    28.356 
 H                     11.499    47.073    22.035 
 H                     5.276     47.816    22.712 
 H                     8.064     48.511    30.521 
 H                     10.642    47.028    30.25 
 H                     11.029    49.041    31.511 
 H                     9.744     49.864    30.644 
 H                     11.37     49.504    29.913 
 H                     8.324     45.576    30.415 
 H                     7.156     46.513    31.446 
 H                     9.681     46.987    32.313 
 H                     9.758     45.262    31.973 
 H                     15.051    48.676    26.037 
 H                     15.125    46.921    26.337 
 H                     14.496    48.009    27.556 
 H                     15.545    47.95     24.063 
 H                     15.839    47.275    22.492 
 H                     15.905    46.197    24.042 
 H                     9.448     46.616    20.499 
 H                     7.111     48.348    20.712 
 H                     10.047    49.472    21.201 
 H                     8.947     49.267    19.842 
 H                     10.5      48.411    19.856 
 H                     6.398     45.676    21.602 
 H                     7.158     45.577    20.025 
 H                     5.217     46.393    19.02 
 H                     5.156     47.682    20.128 
 H                     4.469     46.114    20.623 
 H                     3.362     46.839    23.762 
 H                     3.166     48.477    23.882 
 H                     2.415     47.36     25.138 
 H                     5.505     48.261    29.899 
 H                     3.886     44.421    31.47 
 H                     4.174     45.518    32.843 
 H                     5.463     44.671    31.959 
 H                     8.599     44.899    36.053 
 H                     7.417     46.302    35.996 
 H                     9.978     47.236    36.483 
 H                     8.534     45.355    39.849 
 H                     7.445     45.416    38.426 
 H                     7.5       46.679    39.788 
 H                     9.508     48.393    39.573 
 H                     10.757    48.002    38.267 
 H                     11.908    46.811    39.462 
 H                     10.582    45.837    40.207 
 H                     11.109    48.714    41.23 
 H                     12.253    47.414    41.552 
 H                     9.975     46.196    42.303 
 H                     8.197     47.505    42.189 
 H                     9.034     48.951    41.861 
 H                     8.796     48.473    43.499 
 H                     10.472    47.435    44.632 
 H                     11.922    47.827    43.836 
 H                     12.495    45.564    43.313 
 H                     10.941    45.       43.598 
 H                     11.368    44.216    45.457 
 H                     11.37     45.876    46.032 
 H                     13.972    45.06     44.793 
 H                     14.55     46.811    46.082 
 H                     14.543    45.774    47.466 
 H                     13.096    46.633    47.14 
 H                     12.991    42.875    46.304 
 H                     14.118    43.62     47.356 
 H                     15.515    42.225    46.171 
 H                     15.644    43.506    44.952 
 H                     13.413    42.438    44.225 
 H                     13.977    40.991    45.069 
 H                     16.217    41.166    43.658 
 H                     15.434    43.253    42.595 
 H                     14.61     42.172    41.464 
 H                     16.335    42.048    41.744 
 H                     14.8      39.661    41.858 
 H                     13.656    39.809    43.266 
 H                     15.225    39.115    43.506 
 
 ITRead=  0  0  0  0  0  0  0  0  0  0  0  0  0  0  0  0  0  0  0  0
 ITRead=  0  0  0  0  0  0  0  0  0  0  0  0  0  0  0  0  0  0  0  0
 ITRead=  0  0  0  0  0  0  0  0  0  0  0  0  0  0  0  0  0  0  0  0
 ITRead=  0  0  0  0  0  0  0  0  0  0  0  0  0  0  0  0  0  0  0  0
 ITRead=  0  0  0  0  0  0  0  0  0  0  0  0  0  0  0  0  0  0  0  0
 ITRead=  0  0  0  0  0  0  0  0  0  0  0  0  0  0  0  0  0  0  0  0
 ITRead=  0  0  0  0  0  0  0  0  0  0  0  0  0  0  0  0  0  0  0  0
 MicOpt= -1 -1 -1 -1 -1 -1 -1 -1 -1 -1 -1 -1 -1 -1 -1 -1 -1 -1 -1 -1
 MicOpt= -1 -1 -1 -1 -1 -1 -1 -1 -1 -1 -1 -1 -1 -1 -1 -1 -1 -1 -1 -1
 MicOpt= -1 -1 -1 -1 -1 -1 -1 -1 -1 -1 -1 -1 -1 -1 -1 -1 -1 -1 -1 -1
 MicOpt= -1 -1 -1 -1 -1 -1 -1 -1 -1 -1 -1 -1 -1 -1 -1 -1 -1 -1 -1 -1
 MicOpt= -1 -1 -1 -1 -1 -1 -1 -1 -1 -1 -1 -1 -1 -1 -1 -1 -1 -1 -1 -1
 MicOpt= -1 -1 -1 -1 -1 -1 -1 -1 -1 -1 -1 -1 -1 -1 -1 -1 -1 -1 -1 -1
 MicOpt= -1 -1 -1 -1 -1 -1 -1 -1 -1 -1 -1 -1 -1 -1 -1 -1 -1 -1 -1 -1
 NAtoms=    140 NQM=      140 NQMF=       0 NMMI=      0 NMMIF=      0
                NMic=       0 NMicF=      0.
                    Isotopes and Nuclear Properties:
 (Nuclear quadrupole moments (NQMom) in fm**2, nuclear magnetic moments (NMagM)
  in nuclear magnetons)

  Atom         1           2           3           4           5           6           7           8           9          10
 IAtWgt=          24          12          12          12          12          14          12          12          12          12
 AtmWgt=  23.9850450  12.0000000  12.0000000  12.0000000  12.0000000  14.0030740  12.0000000  12.0000000  12.0000000  12.0000000
 NucSpn=           0           0           0           0           0           2           0           0           0           0
 AtZEff=  -0.0000000  -0.0000000  -0.0000000  -0.0000000  -0.0000000  -0.0000000  -0.0000000  -0.0000000  -0.0000000  -0.0000000
 NQMom=    0.0000000   0.0000000   0.0000000   0.0000000   0.0000000   2.0440000   0.0000000   0.0000000   0.0000000   0.0000000
 NMagM=    0.0000000   0.0000000   0.0000000   0.0000000   0.0000000   0.4037610   0.0000000   0.0000000   0.0000000   0.0000000
 AtZNuc=  12.0000000   6.0000000   6.0000000   6.0000000   6.0000000   7.0000000   6.0000000   6.0000000   6.0000000   6.0000000

  Atom        11          12          13          14          15          16          17          18          19          20
 IAtWgt=          12          12          12          12          16          16          14          12          12          12
 AtmWgt=  12.0000000  12.0000000  12.0000000  12.0000000  15.9949146  15.9949146  14.0030740  12.0000000  12.0000000  12.0000000
 NucSpn=           0           0           0           0           0           0           2           0           0           0
 AtZEff=  -0.0000000  -0.0000000  -0.0000000  -0.0000000  -0.0000000  -0.0000000  -0.0000000  -0.0000000  -0.0000000  -0.0000000
 NQMom=    0.0000000   0.0000000   0.0000000   0.0000000   0.0000000   0.0000000   2.0440000   0.0000000   0.0000000   0.0000000
 NMagM=    0.0000000   0.0000000   0.0000000   0.0000000   0.0000000   0.0000000   0.4037610   0.0000000   0.0000000   0.0000000
 AtZNuc=   6.0000000   6.0000000   6.0000000   6.0000000   8.0000000   8.0000000   7.0000000   6.0000000   6.0000000   6.0000000

  Atom        21          22          23          24          25          26          27          28          29          30
 IAtWgt=          12          12          12          16          12          14          12          12          12          12
 AtmWgt=  12.0000000  12.0000000  12.0000000  15.9949146  12.0000000  14.0030740  12.0000000  12.0000000  12.0000000  12.0000000
 NucSpn=           0           0           0           0           0           2           0           0           0           0
 AtZEff=  -0.0000000  -0.0000000  -0.0000000  -0.0000000  -0.0000000  -0.0000000  -0.0000000  -0.0000000  -0.0000000  -0.0000000
 NQMom=    0.0000000   0.0000000   0.0000000   0.0000000   0.0000000   2.0440000   0.0000000   0.0000000   0.0000000   0.0000000
 NMagM=    0.0000000   0.0000000   0.0000000   0.0000000   0.0000000   0.4037610   0.0000000   0.0000000   0.0000000   0.0000000
 AtZNuc=   6.0000000   6.0000000   6.0000000   8.0000000   6.0000000   7.0000000   6.0000000   6.0000000   6.0000000   6.0000000

  Atom        31          32          33          34          35          36          37          38          39          40
 IAtWgt=          12          12          12          14          12          12          12          12          12          12
 AtmWgt=  12.0000000  12.0000000  12.0000000  14.0030740  12.0000000  12.0000000  12.0000000  12.0000000  12.0000000  12.0000000
 NucSpn=           0           0           0           2           0           0           0           0           0           0
 AtZEff=  -0.0000000  -0.0000000  -0.0000000  -0.0000000  -0.0000000  -0.0000000  -0.0000000  -0.0000000  -0.0000000  -0.0000000
 NQMom=    0.0000000   0.0000000   0.0000000   2.0440000   0.0000000   0.0000000   0.0000000   0.0000000   0.0000000   0.0000000
 NMagM=    0.0000000   0.0000000   0.0000000   0.4037610   0.0000000   0.0000000   0.0000000   0.0000000   0.0000000   0.0000000
 AtZNuc=   6.0000000   6.0000000   6.0000000   7.0000000   6.0000000   6.0000000   6.0000000   6.0000000   6.0000000   6.0000000

  Atom        41          42          43          44          45          46          47          48          49          50
 IAtWgt=          16          12          12          16          16          12          12          12          12          12
 AtmWgt=  15.9949146  12.0000000  12.0000000  15.9949146  15.9949146  12.0000000  12.0000000  12.0000000  12.0000000  12.0000000
 NucSpn=           0           0           0           0           0           0           0           0           0           0
 AtZEff=  -0.0000000  -0.0000000  -0.0000000  -0.0000000  -0.0000000  -0.0000000  -0.0000000  -0.0000000  -0.0000000  -0.0000000
 NQMom=    0.0000000   0.0000000   0.0000000   0.0000000   0.0000000   0.0000000   0.0000000   0.0000000   0.0000000   0.0000000
 NMagM=    0.0000000   0.0000000   0.0000000   0.0000000   0.0000000   0.0000000   0.0000000   0.0000000   0.0000000   0.0000000
 AtZNuc=   8.0000000   6.0000000   6.0000000   8.0000000   8.0000000   6.0000000   6.0000000   6.0000000   6.0000000   6.0000000

  Atom        51          52          53          54          55          56          57          58          59          60
 IAtWgt=          12          12          12          12          12          12          12          12          12          12
 AtmWgt=  12.0000000  12.0000000  12.0000000  12.0000000  12.0000000  12.0000000  12.0000000  12.0000000  12.0000000  12.0000000
 NucSpn=           0           0           0           0           0           0           0           0           0           0
 AtZEff=  -0.0000000  -0.0000000  -0.0000000  -0.0000000  -0.0000000  -0.0000000  -0.0000000  -0.0000000  -0.0000000  -0.0000000
 NQMom=    0.0000000   0.0000000   0.0000000   0.0000000   0.0000000   0.0000000   0.0000000   0.0000000   0.0000000   0.0000000
 NMagM=    0.0000000   0.0000000   0.0000000   0.0000000   0.0000000   0.0000000   0.0000000   0.0000000   0.0000000   0.0000000
 AtZNuc=   6.0000000   6.0000000   6.0000000   6.0000000   6.0000000   6.0000000   6.0000000   6.0000000   6.0000000   6.0000000

  Atom        61          62          63          64          65          66          67          68          69          70
 IAtWgt=          12          12          12          12          12          12           1           1           1           1
 AtmWgt=  12.0000000  12.0000000  12.0000000  12.0000000  12.0000000  12.0000000   1.0078250   1.0078250   1.0078250   1.0078250
 NucSpn=           0           0           0           0           0           0           1           1           1           1
 AtZEff=  -0.0000000  -0.0000000  -0.0000000  -0.0000000  -0.0000000  -0.0000000  -0.0000000  -0.0000000  -0.0000000  -0.0000000
 NQMom=    0.0000000   0.0000000   0.0000000   0.0000000   0.0000000   0.0000000   0.0000000   0.0000000   0.0000000   0.0000000
 NMagM=    0.0000000   0.0000000   0.0000000   0.0000000   0.0000000   0.0000000   2.7928460   2.7928460   2.7928460   2.7928460
 AtZNuc=   6.0000000   6.0000000   6.0000000   6.0000000   6.0000000   6.0000000   1.0000000   1.0000000   1.0000000   1.0000000

  Atom        71          72          73          74          75          76          77          78          79          80
 IAtWgt=           1           1           1           1           1           1           1           1           1           1
 AtmWgt=   1.0078250   1.0078250   1.0078250   1.0078250   1.0078250   1.0078250   1.0078250   1.0078250   1.0078250   1.0078250
 NucSpn=           1           1           1           1           1           1           1           1           1           1
 AtZEff=  -0.0000000  -0.0000000  -0.0000000  -0.0000000  -0.0000000  -0.0000000  -0.0000000  -0.0000000  -0.0000000  -0.0000000
 NQMom=    0.0000000   0.0000000   0.0000000   0.0000000   0.0000000   0.0000000   0.0000000   0.0000000   0.0000000   0.0000000
 NMagM=    2.7928460   2.7928460   2.7928460   2.7928460   2.7928460   2.7928460   2.7928460   2.7928460   2.7928460   2.7928460
 AtZNuc=   1.0000000   1.0000000   1.0000000   1.0000000   1.0000000   1.0000000   1.0000000   1.0000000   1.0000000   1.0000000

  Atom        81          82          83          84          85          86          87          88          89          90
 IAtWgt=           1           1           1           1           1           1           1           1           1           1
 AtmWgt=   1.0078250   1.0078250   1.0078250   1.0078250   1.0078250   1.0078250   1.0078250   1.0078250   1.0078250   1.0078250
 NucSpn=           1           1           1           1           1           1           1           1           1           1
 AtZEff=  -0.0000000  -0.0000000  -0.0000000  -0.0000000  -0.0000000  -0.0000000  -0.0000000  -0.0000000  -0.0000000  -0.0000000
 NQMom=    0.0000000   0.0000000   0.0000000   0.0000000   0.0000000   0.0000000   0.0000000   0.0000000   0.0000000   0.0000000
 NMagM=    2.7928460   2.7928460   2.7928460   2.7928460   2.7928460   2.7928460   2.7928460   2.7928460   2.7928460   2.7928460
 AtZNuc=   1.0000000   1.0000000   1.0000000   1.0000000   1.0000000   1.0000000   1.0000000   1.0000000   1.0000000   1.0000000

  Atom        91          92          93          94          95          96          97          98          99         100
 IAtWgt=           1           1           1           1           1           1           1           1           1           1
 AtmWgt=   1.0078250   1.0078250   1.0078250   1.0078250   1.0078250   1.0078250   1.0078250   1.0078250   1.0078250   1.0078250
 NucSpn=           1           1           1           1           1           1           1           1           1           1
 AtZEff=  -0.0000000  -0.0000000  -0.0000000  -0.0000000  -0.0000000  -0.0000000  -0.0000000  -0.0000000  -0.0000000  -0.0000000
 NQMom=    0.0000000   0.0000000   0.0000000   0.0000000   0.0000000   0.0000000   0.0000000   0.0000000   0.0000000   0.0000000
 NMagM=    2.7928460   2.7928460   2.7928460   2.7928460   2.7928460   2.7928460   2.7928460   2.7928460   2.7928460   2.7928460
 AtZNuc=   1.0000000   1.0000000   1.0000000   1.0000000   1.0000000   1.0000000   1.0000000   1.0000000   1.0000000   1.0000000

  Atom       101         102         103         104         105         106         107         108         109         110
 IAtWgt=           1           1           1           1           1           1           1           1           1           1
 AtmWgt=   1.0078250   1.0078250   1.0078250   1.0078250   1.0078250   1.0078250   1.0078250   1.0078250   1.0078250   1.0078250
 NucSpn=           1           1           1           1           1           1           1           1           1           1
 AtZEff=  -0.0000000  -0.0000000  -0.0000000  -0.0000000  -0.0000000  -0.0000000  -0.0000000  -0.0000000  -0.0000000  -0.0000000
 NQMom=    0.0000000   0.0000000   0.0000000   0.0000000   0.0000000   0.0000000   0.0000000   0.0000000   0.0000000   0.0000000
 NMagM=    2.7928460   2.7928460   2.7928460   2.7928460   2.7928460   2.7928460   2.7928460   2.7928460   2.7928460   2.7928460
 AtZNuc=   1.0000000   1.0000000   1.0000000   1.0000000   1.0000000   1.0000000   1.0000000   1.0000000   1.0000000   1.0000000

  Atom       111         112         113         114         115         116         117         118         119         120
 IAtWgt=           1           1           1           1           1           1           1           1           1           1
 AtmWgt=   1.0078250   1.0078250   1.0078250   1.0078250   1.0078250   1.0078250   1.0078250   1.0078250   1.0078250   1.0078250
 NucSpn=           1           1           1           1           1           1           1           1           1           1
 AtZEff=  -0.0000000  -0.0000000  -0.0000000  -0.0000000  -0.0000000  -0.0000000  -0.0000000  -0.0000000  -0.0000000  -0.0000000
 NQMom=    0.0000000   0.0000000   0.0000000   0.0000000   0.0000000   0.0000000   0.0000000   0.0000000   0.0000000   0.0000000
 NMagM=    2.7928460   2.7928460   2.7928460   2.7928460   2.7928460   2.7928460   2.7928460   2.7928460   2.7928460   2.7928460
 AtZNuc=   1.0000000   1.0000000   1.0000000   1.0000000   1.0000000   1.0000000   1.0000000   1.0000000   1.0000000   1.0000000

  Atom       121         122         123         124         125         126         127         128         129         130
 IAtWgt=           1           1           1           1           1           1           1           1           1           1
 AtmWgt=   1.0078250   1.0078250   1.0078250   1.0078250   1.0078250   1.0078250   1.0078250   1.0078250   1.0078250   1.0078250
 NucSpn=           1           1           1           1           1           1           1           1           1           1
 AtZEff=  -0.0000000  -0.0000000  -0.0000000  -0.0000000  -0.0000000  -0.0000000  -0.0000000  -0.0000000  -0.0000000  -0.0000000
 NQMom=    0.0000000   0.0000000   0.0000000   0.0000000   0.0000000   0.0000000   0.0000000   0.0000000   0.0000000   0.0000000
 NMagM=    2.7928460   2.7928460   2.7928460   2.7928460   2.7928460   2.7928460   2.7928460   2.7928460   2.7928460   2.7928460
 AtZNuc=   1.0000000   1.0000000   1.0000000   1.0000000   1.0000000   1.0000000   1.0000000   1.0000000   1.0000000   1.0000000

  Atom       131         132         133         134         135         136         137         138         139         140
 IAtWgt=           1           1           1           1           1           1           1           1           1           1
 AtmWgt=   1.0078250   1.0078250   1.0078250   1.0078250   1.0078250   1.0078250   1.0078250   1.0078250   1.0078250   1.0078250
 NucSpn=           1           1           1           1           1           1           1           1           1           1
 AtZEff=  -0.0000000  -0.0000000  -0.0000000  -0.0000000  -0.0000000  -0.0000000  -0.0000000  -0.0000000  -0.0000000  -0.0000000
 NQMom=    0.0000000   0.0000000   0.0000000   0.0000000   0.0000000   0.0000000   0.0000000   0.0000000   0.0000000   0.0000000
 NMagM=    2.7928460   2.7928460   2.7928460   2.7928460   2.7928460   2.7928460   2.7928460   2.7928460   2.7928460   2.7928460
 AtZNuc=   1.0000000   1.0000000   1.0000000   1.0000000   1.0000000   1.0000000   1.0000000   1.0000000   1.0000000   1.0000000
 Leave Link  101 at Thu Apr 28 21:46:05 2022, MaxMem= 10066329600 cpu:               3.1 elap:               0.1
 (Enter /sw/apps/gaussian-16.0/g16/l202.exe)
 Stoichiometry    C55H74MgN4O6
 Framework group  C1[X(C55H74MgN4O6)]
 Deg. of freedom   414
 Full point group                 C1      NOp   1
 Largest Abelian subgroup         C1      NOp   1
 Largest concise Abelian subgroup C1      NOp   1
                         Standard orientation:                         
 ---------------------------------------------------------------------
 Center     Atomic      Atomic             Coordinates (Angstroms)
 Number     Number       Type             X           Y           Z
 ---------------------------------------------------------------------
      1         12           0        6.295031    0.574059   -0.033966
      2          6           0        4.045677   -2.141817   -0.291682
      3          6           0        3.588241    2.660469   -1.072897
      4          6           0        8.347291    3.062066    0.167557
      5          6           0        8.969806   -1.659384    0.149565
      6          7           0        4.046484    0.272508   -0.613007
      7          6           0        3.357787   -0.920707   -0.470952
      8          6           0        1.880550   -0.769764   -0.809537
      9          6           0        1.835675    0.668454   -1.227212
     10          6           0        3.251848    1.274124   -1.016169
     11          6           0        1.293096    0.887115   -2.620064
     12          6           0        0.870416   -1.212058    0.333998
     13          6           0       -0.476271   -0.540616    0.425458
     14          6           0       -1.694526   -1.409330    0.825825
     15          8           0       -1.769305   -2.202646    1.802037
     16          8           0       -2.748452   -1.176542   -0.073329
     17          7           0        6.054561    2.552832   -0.437418
     18          6           0        4.867949    3.218624   -0.855172
     19          6           0        5.184208    4.660697   -0.982170
     20          6           0        6.513898    4.828898   -0.384300
     21          6           0        7.033178    3.475742   -0.195652
     22          6           0        4.267547    5.769911   -1.466261
     23          6           0        7.345996    6.110327   -0.087920
     24          8           0        8.408032    6.006965    0.500299
     25          6           0        6.886422    7.409019   -0.499823
     26          7           0        8.357710    0.605905    0.116428
     27          6           0        8.998362    1.810956    0.185969
     28          6           0       10.500523    1.688193    0.245171
     29          6           0       10.735637    0.157871    0.422931
     30          6           0        9.314257   -0.350454    0.109210
     31          6           0       11.187737    2.226551   -1.059669
     32          6           0       11.212357   -0.442649    1.792407
     33          6           0       12.148654   -1.691973    1.720782
     34          7           0        6.553715   -1.462616   -0.073267
     35          6           0        7.695918   -2.225750    0.114423
     36          6           0        7.333604   -3.595077    0.281471
     37          6           0        5.914873   -3.647040    0.053052
     38          6           0        5.495143   -2.309249   -0.168192
     39          6           0        8.363270   -4.698814    0.546382
     40          6           0        4.755974   -4.503028    0.048415
     41          8           0        4.648358   -5.732659    0.222794
     42          6           0        3.483973   -3.564279   -0.153135
     43          6           0        2.648009   -3.764118    1.114935
     44          8           0        2.685096   -2.973348    2.099729
     45          8           0        1.686307   -4.794487    0.897345
     46          6           0        0.686886   -4.782458    1.959882
     47          6           0       -3.919714   -1.926571    0.241000
     48          6           0       -4.994474   -1.556361   -0.697590
     49          6           0       -6.264182   -1.966476   -0.889916
     50          6           0       -6.966175   -3.017470   -0.073704
     51          6           0       -7.058964   -1.219636   -1.956678
     52          6           0       -8.282281   -0.470579   -1.400776
     53          6           0       -9.544683   -0.616444   -2.363095
     54          6           0      -10.527997   -1.727720   -1.947157
     55          6           0      -10.189311   -2.994151   -2.619923
     56          6           0      -11.965327   -1.180152   -2.089812
     57          6           0      -12.439502   -0.519700   -0.823735
     58          6           0      -13.937708   -0.513580   -0.452031
     59          6           0      -14.574475    0.902958   -0.501393
     60          6           0      -15.416444    1.064730   -1.808699
     61          6           0      -15.409112    1.354122    0.753497
     62          6           0      -14.939958    2.686438    1.361987
     63          6           0      -14.004350    2.379582    2.526365
     64          6           0      -13.104342    3.559472    3.154763
     65          6           0      -11.938006    3.876848    2.278603
     66          6           0      -12.780984    3.337889    4.629352
     67          1           0        2.828488    3.427206   -1.234206
     68          1           0        9.089027    3.863555    0.170581
     69          1           0        9.761981   -2.403569    0.250565
     70          1           0        1.716501   -1.449267   -1.645750
     71          1           0        1.273691    1.282454   -0.523060
     72          1           0        0.237458    1.152918   -2.691355
     73          1           0        1.442529   -0.004407   -3.228613
     74          1           0        1.783040    1.770911   -3.028275
     75          1           0        1.381260   -0.831142    1.217569
     76          1           0        0.734665   -2.293843    0.352945
     77          1           0       -0.545134   -0.085576   -0.562293
     78          1           0       -0.457423    0.263521    1.160377
     79          1           0        4.709556    6.266022   -2.329560
     80          1           0        4.172282    6.478979   -0.643889
     81          1           0        3.256216    5.481215   -1.753229
     82          1           0        6.433382    7.251818   -1.478433
     83          1           0        7.812112    7.951571   -0.691318
     84          1           0        6.151507    7.810512    0.198307
     85          1           0       10.926972    2.255958    1.071878
     86          1           0       11.411188   -0.258755   -0.324013
     87          1           0       10.502768    2.352864   -1.897802
     88          1           0       12.013627    1.600330   -1.397896
     89          1           0       11.579635    3.203691   -0.776908
     90          1           0       10.335920   -0.827889    2.314156
     91          1           0       11.704065    0.257735    2.468849
     92          1           0       13.172189   -1.505529    2.045914
     93          1           0       12.277912   -1.952196    0.669810
     94          1           0       11.726611   -2.540854    2.258887
     95          1           0        8.992519   -4.369979    1.373767
     96          1           0        9.130600   -4.777312   -0.223379
     97          1           0        7.912244   -5.643388    0.851213
     98          1           0        2.794582   -3.769057   -0.971819
     99          1           0        1.083432   -5.225780    2.873272
    100          1           0       -0.162663   -5.368119    1.608966
    101          1           0        0.329044   -3.829998    2.352466
    102          1           0       -4.238549   -1.689823    1.255165
    103          1           0       -3.764209   -2.988154    0.047638
    104          1           0       -4.621441   -0.717589   -1.285753
    105          1           0       -7.852616   -2.617239    0.418387
    106          1           0       -6.246727   -3.376543    0.661590
    107          1           0       -7.414114   -3.761932   -0.731938
    108          1           0       -7.377196   -1.968962   -2.681292
    109          1           0       -6.407602   -0.432811   -2.336840
    110          1           0       -7.953200    0.567516   -1.452656
    111          1           0       -8.542492   -0.763790   -0.383855
    112          1           0       -9.261452   -0.807756   -3.397582
    113          1           0       -9.972087    0.385053   -2.313781
    114          1           0      -10.410787   -1.842321   -0.870467
    115          1           0       -9.775415   -3.695528   -1.895010
    116          1           0       -9.432104   -2.982798   -3.402731
    117          1           0      -11.038916   -3.507684   -3.069832
    118          1           0      -12.608124   -2.002819   -2.404194
    119          1           0      -12.070539   -0.472275   -2.912342
    120          1           0      -11.974210    0.459913   -0.711257
    121          1           0      -12.017528   -1.042203    0.034403
    122          1           0      -14.011032   -0.933544    0.551124
    123          1           0      -14.351209   -1.248626   -1.143347
    124          1           0      -13.770684    1.635171   -0.579357
    125          1           0      -14.906464    1.715546   -2.519756
    126          1           0      -16.385974    1.534356   -1.642775
    127          1           0      -15.669541    0.100112   -2.249103
    128          1           0      -15.331875    0.616465    1.552456
    129          1           0      -16.478748    1.397613    0.549287
    130          1           0      -15.788277    3.168892    1.848394
    131          1           0      -14.461048    3.404613    0.696673
    132          1           0      -13.453725    1.521060    2.140295
    133          1           0      -14.575858    2.057004    3.396409
    134          1           0      -13.625999    4.510535    3.054213
    135          1           0      -12.163452    3.734116    1.222067
    136          1           0      -11.044133    3.303023    2.521291
    137          1           0      -11.674113    4.930749    2.369519
    138          1           0      -11.795291    3.696833    4.924858
    139          1           0      -12.916771    2.269151    4.794049
    140          1           0      -13.552099    3.820795    5.229659
 ---------------------------------------------------------------------
 Rotational constants (GHZ):           0.0512131           0.0078427           0.0071369
 Leave Link  202 at Thu Apr 28 21:46:05 2022, MaxMem= 10066329600 cpu:               0.2 elap:               0.0
 (Enter /sw/apps/gaussian-16.0/g16/l301.exe)
 Standard basis: def2SVP (5D, 7F)
 Ernie: Thresh=  0.10000D-02 Tol=  0.10000D-05 Strict=F.
 There are  1364 symmetry adapted cartesian basis functions of A   symmetry.
 There are  1298 symmetry adapted basis functions of A   symmetry.
  1298 basis functions,  2180 primitive gaussians,  1364 cartesian basis functions
   246 alpha electrons      246 beta electrons
       nuclear repulsion energy      9278.8611122477 Hartrees.
 IExCor= 1009 DFT=T Ex+Corr=PBE1PBE ExCW=0 ScaHFX=  0.250000
 ScaDFX=  0.750000  0.750000  1.000000  1.000000 ScalE2=  1.000000  1.000000
 IRadAn=      5 IRanWt=     -1 IRanGd=            0 ICorTp=0 IEmpDi=  4
 NAtoms=  140 NActive=  140 NUniq=  140 SFac= 1.00D+00 NAtFMM=   60 NAOKFM=T Big=T
 Integral buffers will be    131072 words long.
 Regular integral format.
 Two-electron integral symmetry is turned on.
 Leave Link  301 at Thu Apr 28 21:46:05 2022, MaxMem= 10066329600 cpu:               1.3 elap:               0.1
 (Enter /sw/apps/gaussian-16.0/g16/l302.exe)
 NPDir=0 NMtPBC=     1 NCelOv=     1 NCel=       1 NClECP=     1 NCelD=      1
         NCelK=      1 NCelE2=     1 NClLst=     1 CellRange=     0.0.
 One-electron integrals computed using PRISM.
 One-electron integral symmetry used in STVInt
   1 Symmetry operations used in ECPInt.
 ECPInt:  NShTT=  192510 NPrTT=  683786 LenC2=   88430 LenP2D=  196972.
 LDataN:  DoStor=T MaxTD1= 4 Len=   56
 NBasis=  1298 RedAO= T EigKep=  2.81D-04  NBF=  1298
 NBsUse=  1298 1.00D-06 EigRej= -1.00D+00 NBFU=  1298
 Precomputing XC quadrature grid using
 IXCGrd= 4 IRadAn=           5 IRanWt=          -1 IRanGd=           0 AccXCQ= 0.00D+00.
 Generated NRdTot=       0 NPtTot=           0 NUsed=           0 NTot=          32
 NSgBfM=  1031  1031  1031  1031  1031 MxSgAt=   140 MxSgA2=   140.
 Leave Link  302 at Thu Apr 28 21:46:09 2022, MaxMem= 10066329600 cpu:              74.3 elap:               3.1
 (Enter /sw/apps/gaussian-16.0/g16/l303.exe)
 DipDrv:  MaxL=1.
 Leave Link  303 at Thu Apr 28 21:46:09 2022, MaxMem= 10066329600 cpu:               6.2 elap:               0.3
 (Enter /sw/apps/gaussian-16.0/g16/l308.exe)
 Leave Link  308 at Thu Apr 28 21:46:09 2022, MaxMem= 10066329600 cpu:               8.7 elap:               0.4
 (Enter /sw/apps/gaussian-16.0/g16/l401.exe)
 ExpMin= 3.36D-02 ExpMax= 4.95D+03 ExpMxC= 7.45D+02 IAcc=3 IRadAn=         5 AccDes= 0.00D+00
 Harris functional with IExCor= 1009 and IRadAn=       5 diagonalized for initial guess.
 HarFok:  IExCor= 1009 AccDes= 0.00D+00 IRadAn=         5 IDoV= 1 UseB2=F ITyADJ=14
 ICtDFT=  3500011 ScaDFX=  1.000000  1.000000  1.000000  1.000000
 FoFCou: FMM=F IPFlag=           0 FMFlag=      100000 FMFlg1=        2001
         NFxFlg=           0 DoJE=T BraDBF=F KetDBF=T FulRan=T
         wScrn=  0.000000 ICntrl=       500 IOpCl=  0 I1Cent=   200000004 NGrid=           0
         NMat0=    1 NMatS0=      1 NMatT0=    0 NMatD0=    1 NMtDS0=    0 NMtDT0=    0
 Petite list used in FoFCou.
 Harris En= -3006.16064799219    
 JPrj=0 DoOrth=F DoCkMO=F.
 Leave Link  401 at Thu Apr 28 21:46:15 2022, MaxMem= 10066329600 cpu:             125.9 elap:               5.3
 (Enter /sw/apps/gaussian-16.0/g16/l502.exe)
 Integral symmetry usage will be decided dynamically.
 Closed shell SCF:
 Using DIIS extrapolation, IDIIS=  1040.
 NGot= 10066329600 LenX= 10062561258 LenY= 10060699398
 Requested convergence on RMS density matrix=1.00D-08 within 128 cycles.
 Requested convergence on MAX density matrix=1.00D-06.
 Requested convergence on             energy=1.00D-06.
 No special actions if energy rises.
 Fock matrices will be formed incrementally for  20 cycles.

 Cycle   1  Pass 1  IDiag  1:
 FoFJK:  IHMeth= 1 ICntrl=       0 DoSepK=F KAlg= 0 I1Cent=           0 FoldK=F
 IRaf= 490000000 NMat=       1 IRICut=       1 DoRegI=T DoRafI=F ISym2E= 0 IDoP0=0 IntGTp=1.
 FoFCou: FMM=T IPFlag=           0 FMFlag=      100000 FMFlg1=        2001
         NFxFlg=           0 DoJE=F BraDBF=F KetDBF=F FulRan=T
         wScrn=  0.000000 ICntrl=         0 IOpCl=  0 I1Cent=           0 NGrid=           0
         NMat0=    1 NMatS0=      1 NMatT0=    0 NMatD0=    1 NMtDS0=    0 NMtDT0=    0
 Symmetry not used in FoFCou.
 FMM levels:  10  Number of levels for PrismC:   9
 E= -3003.79874466851    
 DIIS: error= 2.71D-02 at cycle   1 NSaved=   1.
 NSaved= 1 IEnMin= 1 EnMin= -3003.79874466851     IErMin= 1 ErrMin= 2.71D-02
 ErrMax= 2.71D-02  0.00D+00 EMaxC= 1.00D-01 BMatC= 1.48D+00 BMatP= 1.48D+00
 IDIUse=3 WtCom= 7.29D-01 WtEn= 2.71D-01
 Coeff-Com:  0.100D+01
 Coeff-En:   0.100D+01
 Coeff:      0.100D+01
 Gap=     0.066 Goal=   None    Shift=    0.000
 GapD=    0.066 DampG=0.500 DampE=0.500 DampFc=0.2500 IDamp=-1.
 Damping current iteration by 2.50D-01
 RMSDP=2.74D-03 MaxDP=5.89D-01              OVMax= 3.88D-01

 Cycle   2  Pass 1  IDiag  1:
 RMSU=  6.79D-04    CP:  9.89D-01
 E= -3004.35182284723     Delta-E=       -0.553078178720 Rises=F Damp=T
 DIIS: error= 1.32D-02 at cycle   2 NSaved=   2.
 NSaved= 2 IEnMin= 2 EnMin= -3004.35182284723     IErMin= 2 ErrMin= 1.32D-02
 ErrMax= 1.32D-02  0.00D+00 EMaxC= 1.00D-01 BMatC= 3.63D-01 BMatP= 1.48D+00
 IDIUse=3 WtCom= 8.68D-01 WtEn= 1.32D-01
 Coeff-Com: -0.733D+00 0.173D+01
 Coeff-En:   0.000D+00 0.100D+01
 Coeff:     -0.636D+00 0.164D+01
 Gap=     0.157 Goal=   None    Shift=    0.000
 RMSDP=1.02D-03 MaxDP=7.10D-02 DE=-5.53D-01 OVMax= 3.99D-01

 Cycle   3  Pass 1  IDiag  1:
 RMSU=  8.89D-04    CP:  9.64D-01  1.65D+00
 E= -3005.13258358008     Delta-E=       -0.780760732849 Rises=F Damp=F
 DIIS: error= 1.04D-02 at cycle   3 NSaved=   3.
 NSaved= 3 IEnMin= 3 EnMin= -3005.13258358008     IErMin= 3 ErrMin= 1.04D-02
 ErrMax= 1.04D-02  0.00D+00 EMaxC= 1.00D-01 BMatC= 2.19D-01 BMatP= 3.63D-01
 IDIUse=3 WtCom= 8.96D-01 WtEn= 1.04D-01
 Coeff-Com: -0.488D+00 0.107D+01 0.421D+00
 Coeff-En:   0.000D+00 0.000D+00 0.100D+01
 Coeff:     -0.437D+00 0.955D+00 0.482D+00
 Gap=     0.071 Goal=   None    Shift=    0.000
 RMSDP=6.91D-04 MaxDP=8.88D-02 DE=-7.81D-01 OVMax= 3.62D-01

 Cycle   4  Pass 1  IDiag  1:
 RMSU=  4.53D-04    CP:  9.69D-01  1.91D+00  4.50D-01
 E= -3005.28783200636     Delta-E=       -0.155248426285 Rises=F Damp=F
 DIIS: error= 5.83D-03 at cycle   4 NSaved=   4.
 NSaved= 4 IEnMin= 4 EnMin= -3005.28783200636     IErMin= 4 ErrMin= 5.83D-03
 ErrMax= 5.83D-03  0.00D+00 EMaxC= 1.00D-01 BMatC= 5.49D-02 BMatP= 2.19D-01
 IDIUse=3 WtCom= 9.42D-01 WtEn= 5.83D-02
 Coeff-Com: -0.142D+00 0.318D+00 0.328D+00 0.496D+00
 Coeff-En:   0.000D+00 0.000D+00 0.280D+00 0.720D+00
 Coeff:     -0.134D+00 0.299D+00 0.325D+00 0.509D+00
 Gap=     0.073 Goal=   None    Shift=    0.000
 RMSDP=3.95D-04 MaxDP=3.31D-02 DE=-1.55D-01 OVMax= 2.75D-01

 Cycle   5  Pass 1  IDiag  1:
 RMSU=  2.06D-04    CP:  9.69D-01  1.79D+00  6.72D-01  4.28D-01
 E= -3005.33333117294     Delta-E=       -0.045499166581 Rises=F Damp=F
 DIIS: error= 3.10D-03 at cycle   5 NSaved=   5.
 NSaved= 5 IEnMin= 5 EnMin= -3005.33333117294     IErMin= 5 ErrMin= 3.10D-03
 ErrMax= 3.10D-03  0.00D+00 EMaxC= 1.00D-01 BMatC= 1.57D-02 BMatP= 5.49D-02
 IDIUse=3 WtCom= 9.69D-01 WtEn= 3.10D-02
 Coeff-Com: -0.319D-01 0.760D-01 0.190D+00 0.407D+00 0.359D+00
 Coeff-En:   0.000D+00 0.000D+00 0.000D+00 0.289D+00 0.711D+00
 Coeff:     -0.309D-01 0.736D-01 0.184D+00 0.403D+00 0.370D+00
 Gap=     0.074 Goal=   None    Shift=    0.000
 RMSDP=1.88D-04 MaxDP=1.93D-02 DE=-4.55D-02 OVMax= 1.36D-01

 Cycle   6  Pass 1  IDiag  1:
 RMSU=  6.74D-05    CP:  9.68D-01  1.80D+00  6.23D-01  6.31D-01  3.11D-01
 E= -3005.35445297732     Delta-E=       -0.021121804382 Rises=F Damp=F
 DIIS: error= 7.28D-04 at cycle   6 NSaved=   6.
 NSaved= 6 IEnMin= 6 EnMin= -3005.35445297732     IErMin= 6 ErrMin= 7.28D-04
 ErrMax= 7.28D-04  0.00D+00 EMaxC= 1.00D-01 BMatC= 9.45D-04 BMatP= 1.57D-02
 IDIUse=3 WtCom= 9.93D-01 WtEn= 7.28D-03
 Coeff-Com:  0.164D-02-0.105D-02 0.580D-01 0.161D+00 0.230D+00 0.551D+00
 Coeff-En:   0.000D+00 0.000D+00 0.000D+00 0.000D+00 0.410D-01 0.959D+00
 Coeff:      0.162D-02-0.104D-02 0.576D-01 0.160D+00 0.229D+00 0.554D+00
 Gap=     0.076 Goal=   None    Shift=    0.000
 RMSDP=4.78D-05 MaxDP=5.28D-03 DE=-2.11D-02 OVMax= 3.15D-02

 Cycle   7  Pass 1  IDiag  1:
 RMSU=  3.10D-05    CP:  9.68D-01  1.80D+00  6.31D-01  6.12D-01  4.32D-01
                    CP:  6.39D-01
 E= -3005.35533659688     Delta-E=       -0.000883619559 Rises=F Damp=F
 DIIS: error= 3.54D-04 at cycle   7 NSaved=   7.
 NSaved= 7 IEnMin= 7 EnMin= -3005.35533659688     IErMin= 7 ErrMin= 3.54D-04
 ErrMax= 3.54D-04  0.00D+00 EMaxC= 1.00D-01 BMatC= 2.06D-04 BMatP= 9.45D-04
 IDIUse=3 WtCom= 9.96D-01 WtEn= 3.54D-03
 Coeff-Com:  0.392D-02-0.791D-02 0.117D-01 0.452D-01 0.966D-01 0.376D+00
 Coeff-Com:  0.474D+00
 Coeff-En:   0.000D+00 0.000D+00 0.000D+00 0.000D+00 0.000D+00 0.202D+00
 Coeff-En:   0.798D+00
 Coeff:      0.390D-02-0.788D-02 0.117D-01 0.450D-01 0.962D-01 0.376D+00
 Coeff:      0.475D+00
 Gap=     0.076 Goal=   None    Shift=    0.000
 RMSDP=2.27D-05 MaxDP=2.75D-03 DE=-8.84D-04 OVMax= 1.26D-02

 Cycle   8  Pass 1  IDiag  1:
 RMSU=  1.24D-05    CP:  9.68D-01  1.80D+00  6.31D-01  6.15D-01  4.14D-01
                    CP:  7.47D-01  4.47D-01
 E= -3005.35553879057     Delta-E=       -0.000202193682 Rises=F Damp=F
 DIIS: error= 1.65D-04 at cycle   8 NSaved=   8.
 NSaved= 8 IEnMin= 8 EnMin= -3005.35553879057     IErMin= 8 ErrMin= 1.65D-04
 ErrMax= 1.65D-04  0.00D+00 EMaxC= 1.00D-01 BMatC= 3.56D-05 BMatP= 2.06D-04
 IDIUse=3 WtCom= 9.98D-01 WtEn= 1.65D-03
 Coeff-Com:  0.207D-02-0.448D-02 0.154D-04 0.762D-02 0.329D-01 0.180D+00
 Coeff-Com:  0.335D+00 0.446D+00
 Coeff-En:   0.000D+00 0.000D+00 0.000D+00 0.000D+00 0.000D+00 0.000D+00
 Coeff-En:   0.187D+00 0.813D+00
 Coeff:      0.207D-02-0.447D-02 0.153D-04 0.761D-02 0.329D-01 0.180D+00
 Coeff:      0.335D+00 0.447D+00
 Gap=     0.076 Goal=   None    Shift=    0.000
 RMSDP=9.24D-06 MaxDP=8.90D-04 DE=-2.02D-04 OVMax= 5.22D-03

 Cycle   9  Pass 1  IDiag  1:
 RMSU=  4.18D-06    CP:  9.68D-01  1.80D+00  6.31D-01  6.16D-01  4.20D-01
                    CP:  7.32D-01  5.93D-01  4.64D-01
 E= -3005.35558200352     Delta-E=       -0.000043212951 Rises=F Damp=F
 DIIS: error= 5.86D-05 at cycle   9 NSaved=   9.
 NSaved= 9 IEnMin= 9 EnMin= -3005.35558200352     IErMin= 9 ErrMin= 5.86D-05
 ErrMax= 5.86D-05  0.00D+00 EMaxC= 1.00D-01 BMatC= 4.18D-06 BMatP= 3.56D-05
 IDIUse=1 WtCom= 1.00D+00 WtEn= 0.00D+00
 Coeff-Com:  0.723D-03-0.161D-02-0.153D-02-0.141D-02 0.854D-02 0.694D-01
 Coeff-Com:  0.162D+00 0.299D+00 0.465D+00
 Coeff:      0.723D-03-0.161D-02-0.153D-02-0.141D-02 0.854D-02 0.694D-01
 Coeff:      0.162D+00 0.299D+00 0.465D+00
 Gap=     0.076 Goal=   None    Shift=    0.000
 RMSDP=2.75D-06 MaxDP=3.32D-04 DE=-4.32D-05 OVMax= 1.35D-03

 Cycle  10  Pass 1  IDiag  1:
 RMSU=  1.74D-06    CP:  9.68D-01  1.80D+00  6.31D-01  6.16D-01  4.20D-01
                    CP:  7.44D-01  5.80D-01  5.54D-01  6.53D-01
 E= -3005.35558631489     Delta-E=       -0.000004311374 Rises=F Damp=F
 DIIS: error= 1.47D-05 at cycle  10 NSaved=  10.
 NSaved=10 IEnMin=10 EnMin= -3005.35558631489     IErMin=10 ErrMin= 1.47D-05
 ErrMax= 1.47D-05  0.00D+00 EMaxC= 1.00D-01 BMatC= 4.23D-07 BMatP= 4.18D-06
 IDIUse=1 WtCom= 1.00D+00 WtEn= 0.00D+00
 Coeff-Com:  0.675D-04-0.156D-03-0.858D-03-0.211D-02-0.201D-03 0.132D-01
 Coeff-Com:  0.456D-01 0.114D+00 0.281D+00 0.550D+00
 Coeff:      0.675D-04-0.156D-03-0.858D-03-0.211D-02-0.201D-03 0.132D-01
 Coeff:      0.456D-01 0.114D+00 0.281D+00 0.550D+00
 Gap=     0.076 Goal=   None    Shift=    0.000
 RMSDP=8.69D-07 MaxDP=9.26D-05 DE=-4.31D-06 OVMax= 3.23D-04

 Cycle  11  Pass 1  IDiag  1:
 RMSU=  5.79D-07    CP:  9.68D-01  1.80D+00  6.31D-01  6.16D-01  4.20D-01
                    CP:  7.43D-01  5.85D-01  5.52D-01  7.48D-01  7.32D-01
 E= -3005.35558671529     Delta-E=       -0.000000400396 Rises=F Damp=F
 DIIS: error= 5.71D-06 at cycle  11 NSaved=  11.
 NSaved=11 IEnMin=11 EnMin= -3005.35558671529     IErMin=11 ErrMin= 5.71D-06
 ErrMax= 5.71D-06  0.00D+00 EMaxC= 1.00D-01 BMatC= 7.67D-08 BMatP= 4.23D-07
 IDIUse=1 WtCom= 1.00D+00 WtEn= 0.00D+00
 Coeff-Com: -0.435D-04 0.990D-04-0.363D-03-0.123D-02-0.151D-02-0.184D-02
 Coeff-Com:  0.543D-02 0.310D-01 0.109D+00 0.352D+00 0.508D+00
 Coeff:     -0.435D-04 0.990D-04-0.363D-03-0.123D-02-0.151D-02-0.184D-02
 Coeff:      0.543D-02 0.310D-01 0.109D+00 0.352D+00 0.508D+00
 Gap=     0.076 Goal=   None    Shift=    0.000
 RMSDP=3.36D-07 MaxDP=3.15D-05 DE=-4.00D-07 OVMax= 8.62D-05

 Cycle  12  Pass 1  IDiag  1:
 RMSU=  2.14D-07    CP:  9.68D-01  1.80D+00  6.31D-01  6.15D-01  4.20D-01
                    CP:  7.44D-01  5.88D-01  5.61D-01  7.48D-01  8.14D-01
                    CP:  7.82D-01
 E= -3005.35558678970     Delta-E=       -0.000000074409 Rises=F Damp=F
 DIIS: error= 2.18D-06 at cycle  12 NSaved=  12.
 NSaved=12 IEnMin=12 EnMin= -3005.35558678970     IErMin=12 ErrMin= 2.18D-06
 ErrMax= 2.18D-06  0.00D+00 EMaxC= 1.00D-01 BMatC= 5.52D-09 BMatP= 7.67D-08
 IDIUse=1 WtCom= 1.00D+00 WtEn= 0.00D+00
 Coeff-Com: -0.231D-04 0.577D-04-0.602D-04-0.283D-03-0.746D-03-0.269D-02
 Coeff-Com: -0.385D-02 0.956D-04 0.107D-01 0.980D-01 0.244D+00 0.654D+00
 Coeff:     -0.231D-04 0.577D-04-0.602D-04-0.283D-03-0.746D-03-0.269D-02
 Coeff:     -0.385D-02 0.956D-04 0.107D-01 0.980D-01 0.244D+00 0.654D+00
 Gap=     0.076 Goal=   None    Shift=    0.000
 RMSDP=1.22D-07 MaxDP=8.47D-06 DE=-7.44D-08 OVMax= 4.40D-05

 Cycle  13  Pass 1  IDiag  1:
 RMSU=  8.87D-08    CP:  9.68D-01  1.80D+00  6.31D-01  6.15D-01  4.20D-01
                    CP:  7.44D-01  5.87D-01  5.63D-01  7.60D-01  8.29D-01
                    CP:  8.63D-01  8.33D-01
 E= -3005.35558679528     Delta-E=       -0.000000005584 Rises=F Damp=F
 DIIS: error= 8.46D-07 at cycle  13 NSaved=  13.
 NSaved=13 IEnMin=13 EnMin= -3005.35558679528     IErMin=13 ErrMin= 8.46D-07
 ErrMax= 8.46D-07  0.00D+00 EMaxC= 1.00D-01 BMatC= 1.64D-09 BMatP= 5.52D-09
 IDIUse=1 WtCom= 1.00D+00 WtEn= 0.00D+00
 Coeff-Com: -0.610D-05 0.173D-04 0.191D-04 0.291D-04-0.268D-03-0.151D-02
 Coeff-Com: -0.378D-02-0.550D-02-0.139D-01 0.810D-03 0.587D-01 0.400D+00
 Coeff-Com:  0.565D+00
 Coeff:     -0.610D-05 0.173D-04 0.191D-04 0.291D-04-0.268D-03-0.151D-02
 Coeff:     -0.378D-02-0.550D-02-0.139D-01 0.810D-03 0.587D-01 0.400D+00
 Coeff:      0.565D+00
 Gap=     0.076 Goal=   None    Shift=    0.000
 RMSDP=5.52D-08 MaxDP=4.61D-06 DE=-5.58D-09 OVMax= 1.94D-05

 Cycle  14  Pass 1  IDiag  1:
 RMSU=  3.58D-08    CP:  9.68D-01  1.80D+00  6.31D-01  6.15D-01  4.20D-01
                    CP:  7.45D-01  5.88D-01  5.63D-01  7.62D-01  8.41D-01
                    CP:  8.76D-01  9.28D-01  7.65D-01
 E= -3005.35558679693     Delta-E=       -0.000000001653 Rises=F Damp=F
 DIIS: error= 4.76D-07 at cycle  14 NSaved=  14.
 NSaved=14 IEnMin=14 EnMin= -3005.35558679693     IErMin=14 ErrMin= 4.76D-07
 ErrMax= 4.76D-07  0.00D+00 EMaxC= 1.00D-01 BMatC= 2.97D-10 BMatP= 1.64D-09
 IDIUse=1 WtCom= 1.00D+00 WtEn= 0.00D+00
 Coeff-Com: -0.158D-07 0.168D-05 0.204D-04 0.629D-04-0.736D-04-0.559D-03
 Coeff-Com: -0.190D-02-0.331D-02-0.106D-01-0.126D-01 0.284D-02 0.164D+00
 Coeff-Com:  0.362D+00 0.500D+00
 Coeff:     -0.158D-07 0.168D-05 0.204D-04 0.629D-04-0.736D-04-0.559D-03
 Coeff:     -0.190D-02-0.331D-02-0.106D-01-0.126D-01 0.284D-02 0.164D+00
 Coeff:      0.362D+00 0.500D+00
 Gap=     0.076 Goal=   None    Shift=    0.000
 RMSDP=2.03D-08 MaxDP=2.27D-06 DE=-1.65D-09 OVMax= 7.13D-06

 Cycle  15  Pass 1  IDiag  1:
 RMSU=  1.52D-08    CP:  9.68D-01  1.80D+00  6.31D-01  6.15D-01  4.20D-01
                    CP:  7.45D-01  5.88D-01  5.64D-01  7.62D-01  8.43D-01
                    CP:  8.88D-01  9.50D-01  8.44D-01  8.37D-01
 E= -3005.35558679734     Delta-E=       -0.000000000406 Rises=F Damp=F
 DIIS: error= 1.28D-07 at cycle  15 NSaved=  15.
 NSaved=15 IEnMin=15 EnMin= -3005.35558679734     IErMin=15 ErrMin= 1.28D-07
 ErrMax= 1.28D-07  0.00D+00 EMaxC= 1.00D-01 BMatC= 3.66D-11 BMatP= 2.97D-10
 IDIUse=1 WtCom= 1.00D+00 WtEn= 0.00D+00
 Coeff-Com:  0.668D-06-0.127D-05 0.764D-05 0.301D-04-0.344D-05-0.336D-04
 Coeff-Com: -0.431D-03-0.706D-03-0.348D-02-0.627D-02-0.729D-02 0.218D-01
 Coeff-Com:  0.104D+00 0.271D+00 0.621D+00
 Coeff:      0.668D-06-0.127D-05 0.764D-05 0.301D-04-0.344D-05-0.336D-04
 Coeff:     -0.431D-03-0.706D-03-0.348D-02-0.627D-02-0.729D-02 0.218D-01
 Coeff:      0.104D+00 0.271D+00 0.621D+00
 Gap=     0.076 Goal=   None    Shift=    0.000
 RMSDP=8.47D-09 MaxDP=6.83D-07 DE=-4.06D-10 OVMax= 3.47D-06

 SCF Done:  E(RPBE1PBE) =  -3005.35558680     A.U. after   15 cycles
            NFock= 15  Conv=0.85D-08     -V/T= 2.0103
 KE= 2.974685047983D+03 PE=-2.554856814486D+04 EE= 1.028966639783D+04
 Leave Link  502 at Thu Apr 28 21:50:24 2022, MaxMem= 10066329600 cpu:            5934.5 elap:             248.9
 (Enter /sw/apps/gaussian-16.0/g16/l801.exe)
 DoSCS=F DFT=T ScalE2(SS,OS)=  1.000000  1.000000
 ExpMin= 3.36D-02 ExpMax= 4.95D+03 ExpMxC= 7.45D+02 IAcc=3 IRadAn=         5 AccDes= 0.00D+00
 HarFok:  IExCor=  205 AccDes= 0.00D+00 IRadAn=         5 IDoV=-2 UseB2=F ITyADJ=14
 ICtDFT= 12500011 ScaDFX=  1.000000  1.000000  1.000000  1.000000
 GSVD:  LWork=       -5460 too small for GESVD, short by       25550 words or       25550 for optimal perf.
 Largest valence mixing into a core orbital is  1.77D-04
 Largest core mixing into a valence orbital is  5.64D-05
 Range of M.O.s used for correlation:    71  1298
 NBasis=  1298 NAE=   246 NBE=   246 NFC=    70 NFV=     0
 NROrb=   1228 NOA=   176 NOB=   176 NVA=  1052 NVB=  1052

 **** Warning!!: The smallest alpha delta epsilon is  0.76451522D-01

 Leave Link  801 at Thu Apr 28 21:50:24 2022, MaxMem= 10066329600 cpu:               6.9 elap:               0.3
 (Enter /sw/apps/gaussian-16.0/g16/l914.exe)
 RHF ground state
 Two-electron integrals replicated using symmetry.
 MDV= 10066329600 DFT=T DoStab=F Mixed=T DoRPA=T DoScal=F NonHer=T
 Making orbital integer symmetry assigments:
 Orbital symmetries:
       Occupied  (A) (A) (A) (A) (A) (A) (A) (A) (A) (A) (A) (A)
                 (A) (A) (A) (A) (A) (A) (A) (A) (A) (A) (A) (A)
                 (A) (A) (A) (A) (A) (A) (A) (A) (A) (A) (A) (A)
                 (A) (A) (A) (A) (A) (A) (A) (A) (A) (A) (A) (A)
                 (A) (A) (A) (A) (A) (A) (A) (A) (A) (A) (A) (A)
                 (A) (A) (A) (A) (A) (A) (A) (A) (A) (A) (A) (A)
                 (A) (A) (A) (A) (A) (A) (A) (A) (A) (A) (A) (A)
                 (A) (A) (A) (A) (A) (A) (A) (A) (A) (A) (A) (A)
                 (A) (A) (A) (A) (A) (A) (A) (A) (A) (A) (A) (A)
                 (A) (A) (A) (A) (A) (A) (A) (A) (A) (A) (A) (A)
                 (A) (A) (A) (A) (A) (A) (A) (A) (A) (A) (A) (A)
                 (A) (A) (A) (A) (A) (A) (A) (A) (A) (A) (A) (A)
                 (A) (A) (A) (A) (A) (A) (A) (A) (A) (A) (A) (A)
                 (A) (A) (A) (A) (A) (A) (A) (A) (A) (A) (A) (A)
                 (A) (A) (A) (A) (A) (A) (A) (A) (A) (A) (A) (A)
                 (A) (A) (A) (A) (A) (A) (A) (A) (A) (A) (A) (A)
                 (A) (A) (A) (A) (A) (A) (A) (A) (A) (A) (A) (A)
                 (A) (A) (A) (A) (A) (A) (A) (A) (A) (A) (A) (A)
                 (A) (A) (A) (A) (A) (A) (A) (A) (A) (A) (A) (A)
                 (A) (A) (A) (A) (A) (A) (A) (A) (A) (A) (A) (A)
                 (A) (A) (A) (A) (A) (A)
       Virtual   (A) (A) (A) (A) (A) (A) (A) (A) (A) (A) (A) (A)
                 (A) (A) (A) (A) (A) (A) (A) (A) (A) (A) (A) (A)
                 (A) (A) (A) (A) (A) (A) (A) (A) (A) (A) (A) (A)
                 (A) (A) (A) (A) (A) (A) (A) (A) (A) (A) (A) (A)
                 (A) (A) (A) (A) (A) (A) (A) (A) (A) (A) (A) (A)
                 (A) (A) (A) (A) (A) (A) (A) (A) (A) (A) (A) (A)
                 (A) (A) (A) (A) (A) (A) (A) (A) (A) (A) (A) (A)
                 (A) (A) (A) (A) (A) (A) (A) (A) (A) (A) (A) (A)
                 (A) (A) (A) (A) (A) (A) (A) (A) (A) (A) (A) (A)
                 (A) (A) (A) (A) (A) (A) (A) (A) (A) (A) (A) (A)
                 (A) (A) (A) (A) (A) (A) (A) (A) (A) (A) (A) (A)
                 (A) (A) (A) (A) (A) (A) (A) (A) (A) (A) (A) (A)
                 (A) (A) (A) (A) (A) (A) (A) (A) (A) (A) (A) (A)
                 (A) (A) (A) (A) (A) (A) (A) (A) (A) (A) (A) (A)
                 (A) (A) (A) (A) (A) (A) (A) (A) (A) (A) (A) (A)
                 (A) (A) (A) (A) (A) (A) (A) (A) (A) (A) (A) (A)
                 (A) (A) (A) (A) (A) (A) (A) (A) (A) (A) (A) (A)
                 (A) (A) (A) (A) (A) (A) (A) (A) (A) (A) (A) (A)
                 (A) (A) (A) (A) (A) (A) (A) (A) (A) (A) (A) (A)
                 (A) (A) (A) (A) (A) (A) (A) (A) (A) (A) (A) (A)
                 (A) (A) (A) (A) (A) (A) (A) (A) (A) (A) (A) (A)
                 (A) (A) (A) (A) (A) (A) (A) (A) (A) (A) (A) (A)
                 (A) (A) (A) (A) (A) (A) (A) (A) (A) (A) (A) (A)
                 (A) (A) (A) (A) (A) (A) (A) (A) (A) (A) (A) (A)
                 (A) (A) (A) (A) (A) (A) (A) (A) (A) (A) (A) (A)
                 (A) (A) (A) (A) (A) (A) (A) (A) (A) (A) (A) (A)
                 (A) (A) (A) (A) (A) (A) (A) (A) (A) (A) (A) (A)
                 (A) (A) (A) (A) (A) (A) (A) (A) (A) (A) (A) (A)
                 (A) (A) (A) (A) (A) (A) (A) (A) (A) (A) (A) (A)
                 (A) (A) (A) (A) (A) (A) (A) (A) (A) (A) (A) (A)
                 (A) (A) (A) (A) (A) (A) (A) (A) (A) (A) (A) (A)
                 (A) (A) (A) (A) (A) (A) (A) (A) (A) (A) (A) (A)
                 (A) (A) (A) (A) (A) (A) (A) (A) (A) (A) (A) (A)
                 (A) (A) (A) (A) (A) (A) (A) (A) (A) (A) (A) (A)
                 (A) (A) (A) (A) (A) (A) (A) (A) (A) (A) (A) (A)
                 (A) (A) (A) (A) (A) (A) (A) (A) (A) (A) (A) (A)
                 (A) (A) (A) (A) (A) (A) (A) (A) (A) (A) (A) (A)
                 (A) (A) (A) (A) (A) (A) (A) (A) (A) (A) (A) (A)
                 (A) (A) (A) (A) (A) (A) (A) (A) (A) (A) (A) (A)
                 (A) (A) (A) (A) (A) (A) (A) (A) (A) (A) (A) (A)
                 (A) (A) (A) (A) (A) (A) (A) (A) (A) (A) (A) (A)
                 (A) (A) (A) (A) (A) (A) (A) (A) (A) (A) (A) (A)
                 (A) (A) (A) (A) (A) (A) (A) (A) (A) (A) (A) (A)
                 (A) (A) (A) (A) (A) (A) (A) (A) (A) (A) (A) (A)
                 (A) (A) (A) (A) (A) (A) (A) (A) (A) (A) (A) (A)
                 (A) (A) (A) (A) (A) (A) (A) (A) (A) (A) (A) (A)
                 (A) (A) (A) (A) (A) (A) (A) (A) (A) (A) (A) (A)
                 (A) (A) (A) (A) (A) (A) (A) (A) (A) (A) (A) (A)
                 (A) (A) (A) (A) (A) (A) (A) (A) (A) (A) (A) (A)
                 (A) (A) (A) (A) (A) (A) (A) (A) (A) (A) (A) (A)
                 (A) (A) (A) (A) (A) (A) (A) (A) (A) (A) (A) (A)
                 (A) (A) (A) (A) (A) (A) (A) (A) (A) (A) (A) (A)
                 (A) (A) (A) (A) (A) (A) (A) (A) (A) (A) (A) (A)
                 (A) (A) (A) (A) (A) (A) (A) (A) (A) (A) (A) (A)
                 (A) (A) (A) (A) (A) (A) (A) (A) (A) (A) (A) (A)
                 (A) (A) (A) (A) (A) (A) (A) (A) (A) (A) (A) (A)
                 (A) (A) (A) (A) (A) (A) (A) (A) (A) (A) (A) (A)
                 (A) (A) (A) (A) (A) (A) (A) (A) (A) (A) (A) (A)
                 (A) (A) (A) (A) (A) (A) (A) (A) (A) (A) (A) (A)
                 (A) (A) (A) (A) (A) (A) (A) (A) (A) (A) (A) (A)
                 (A) (A) (A) (A) (A) (A) (A) (A) (A) (A) (A) (A)
                 (A) (A) (A) (A) (A) (A) (A) (A) (A) (A) (A) (A)
                 (A) (A) (A) (A) (A) (A) (A) (A) (A) (A) (A) (A)
                 (A) (A) (A) (A) (A) (A) (A) (A) (A) (A) (A) (A)
                 (A) (A) (A) (A) (A) (A) (A) (A) (A) (A) (A) (A)
                 (A) (A) (A) (A) (A) (A) (A) (A) (A) (A) (A) (A)
                 (A) (A) (A) (A) (A) (A) (A) (A) (A) (A) (A) (A)
                 (A) (A) (A) (A) (A) (A) (A) (A) (A) (A) (A) (A)
                 (A) (A) (A) (A) (A) (A) (A) (A) (A) (A) (A) (A)
                 (A) (A) (A) (A) (A) (A) (A) (A) (A) (A) (A) (A)
                 (A) (A) (A) (A) (A) (A) (A) (A) (A) (A) (A) (A)
                 (A) (A) (A) (A) (A) (A) (A) (A) (A) (A) (A) (A)
                 (A) (A) (A) (A) (A) (A) (A) (A) (A) (A) (A) (A)
                 (A) (A) (A) (A) (A) (A) (A) (A) (A) (A) (A) (A)
                 (A) (A) (A) (A) (A) (A) (A) (A) (A) (A) (A) (A)
                 (A) (A) (A) (A) (A) (A) (A) (A) (A) (A) (A) (A)
                 (A) (A) (A) (A) (A) (A) (A) (A) (A) (A) (A) (A)
                 (A) (A) (A) (A) (A) (A) (A) (A) (A) (A) (A) (A)
                 (A) (A) (A) (A) (A) (A) (A) (A) (A) (A) (A) (A)
                 (A) (A) (A) (A) (A) (A) (A) (A) (A) (A) (A) (A)
                 (A) (A) (A) (A) (A) (A) (A) (A) (A) (A) (A) (A)
                 (A) (A) (A) (A) (A) (A) (A) (A) (A) (A) (A) (A)
                 (A) (A) (A) (A) (A) (A) (A) (A) (A) (A) (A) (A)
                 (A) (A) (A) (A) (A) (A) (A) (A) (A) (A) (A) (A)
                 (A) (A) (A) (A) (A) (A) (A) (A) (A) (A) (A) (A)
                 (A) (A) (A) (A) (A) (A) (A) (A) (A) (A) (A) (A)
                 (A) (A) (A) (A) (A) (A) (A) (A) (A) (A) (A) (A)
                 (A) (A) (A) (A) (A) (A) (A) (A)
    20 initial guesses have been made.
 Convergence on wavefunction:    0.001000000000000
 Davidson Disk Diagonalization:  ConvIn= 1.00D-03 SkipCon=T Conv= 1.00D-03.
 Max sub-space:  2000 roots to seek:    20 dimension of matrix:       370304
 Iteration     1 Dimension    20 NMult     0 NNew     20
 CISAX will form    20 AO SS matrices at one time.
 NMat=    20 NSing=    20 JSym2X= 0.
 FoFJK:  IHMeth= 1 ICntrl=       0 DoSepK=F KAlg= 0 I1Cent=           0 FoldK=F
 IRaf= 490000000 NMat=      40 IRICut=       1 DoRegI=T DoRafI=F ISym2E= 0 IDoP0=3 IntGTp=3.
 FoFCou: FMM=T IPFlag=           0 FMFlag=      100000 FMFlg1=        2001
         NFxFlg=           0 DoJE=F BraDBF=F KetDBF=F FulRan=T
         wScrn=  0.000000 ICntrl=         0 IOpCl=  0 I1Cent=           0 NGrid=           0
         NMat0=   40 NMatS0=     20 NMatT0=    0 NMatD0=   40 NMtDS0=    0 NMtDT0=    0
 Symmetry not used in FoFCou.
 FMM levels:  10  Number of levels for PrismC:   9
 New state      3 was old state      6
 New state      5 was old state      9
 Excitation Energies [eV] at current iteration:
 Root      1 :     2.222794178446669
 Root      2 :     2.525620068949570
 Root      3 :     3.037019836389517
 Root      4 :     3.233008249755993
 Root      5 :     3.275009193556628
 Root      6 :     3.348248059207921
 Root      7 :     3.468010137072912
 Root      8 :     3.657606636395011
 Root      9 :     3.884885252782647
 Root     10 :     3.899021024986947
 Root     11 :     4.033292839399392
 Root     12 :     4.086488582490746
 Root     13 :     4.242317780735358
 Root     14 :     4.365565100115180
 Root     15 :     4.420382165878833
 Root     16 :     4.471123709699446
 Root     17 :     4.584900857535088
 Root     18 :     4.693979766512062
 Root     19 :     4.728395188390906
 Root     20 :     4.863123632100033
 Iteration     2 Dimension    30 NMult    20 NNew     10
 CISAX will form    10 AO SS matrices at one time.
 NMat=    10 NSing=    10 JSym2X= 0.
 Root      1 not converged, maximum delta is    0.058118315004001
 Root      2 not converged, maximum delta is    0.063647648906675
 Root      3 not converged, maximum delta is    0.125348568818013
 Root      4 not converged, maximum delta is    0.127039591581872
 Root      5 not converged, maximum delta is    0.258706942817956
 Excitation Energies [eV] at current iteration:
 Root      1 :     1.894017235566546   Change is   -0.328776942880123
 Root      2 :     2.233252486367730   Change is   -0.292367582581840
 Root      3 :     2.908178237358490   Change is   -0.128841599031027
 Root      4 :     2.999547439765129   Change is   -0.233460809990864
 Root      5 :     3.136146112764137   Change is   -0.138863080792491
 Iteration     3 Dimension    40 NMult    30 NNew     10
 CISAX will form    10 AO SS matrices at one time.
 NMat=    10 NSing=    10 JSym2X= 0.
 Root      1 not converged, maximum delta is    0.025691093418247
 Root      2 not converged, maximum delta is    0.025065153178516
 Root      3 not converged, maximum delta is    0.020513426635413
 Root      4 not converged, maximum delta is    0.022963735870827
 Root      5 not converged, maximum delta is    0.142141062854124
 Excitation Energies [eV] at current iteration:
 Root      1 :     1.862216488527082   Change is   -0.031800747039464
 Root      2 :     2.213592152514682   Change is   -0.019660333853049
 Root      3 :     2.896633378182370   Change is   -0.011544859176120
 Root      4 :     2.986728720351484   Change is   -0.012818719413645
 Root      5 :     3.107965844019160   Change is   -0.028180268744976
 Iteration     4 Dimension    50 NMult    40 NNew     10
 CISAX will form    10 AO SS matrices at one time.
 NMat=    10 NSing=    10 JSym2X= 0.
 Root      1 not converged, maximum delta is    0.003844125716604
 Root      2 not converged, maximum delta is    0.008080759979687
 Root      3 not converged, maximum delta is    0.003819634738438
 Root      4 not converged, maximum delta is    0.003117829515681
 Root      5 not converged, maximum delta is    0.067133184029539
 Excitation Energies [eV] at current iteration:
 Root      1 :     1.858644259420966   Change is   -0.003572229106116
 Root      2 :     2.210350379716131   Change is   -0.003241772798551
 Root      3 :     2.895364344271700   Change is   -0.001269033910670
 Root      4 :     2.984968994650946   Change is   -0.001759725700538
 Root      5 :     3.100476873689059   Change is   -0.007488970330101
 Iteration     5 Dimension    60 NMult    50 NNew     10
 CISAX will form    10 AO SS matrices at one time.
 NMat=    10 NSing=    10 JSym2X= 0.
 Root      1 not converged, maximum delta is    0.001096554194940
 Root      2 has converged.
 Root      3 has converged.
 Root      4 not converged, maximum delta is    0.001112431586770
 Root      5 not converged, maximum delta is    0.025210592743475
 Excitation Energies [eV] at current iteration:
 Root      1 :     1.858197292471304   Change is   -0.000446966949662
 Root      2 :     2.210060240173207   Change is   -0.000290139542923
 Root      3 :     2.895236566453889   Change is   -0.000127777817810
 Root      4 :     2.984750283168893   Change is   -0.000218711482053
 Root      5 :     3.098803784436902   Change is   -0.001673089252157
 Iteration     6 Dimension    66 NMult    60 NNew      6
 CISAX will form     6 AO SS matrices at one time.
 NMat=     6 NSing=     6 JSym2X= 0.
 Root      1 has converged.
 Root      2 has converged.
 Root      3 has converged.
 Root      4 has converged.
 Root      5 not converged, maximum delta is    0.010523796128897
 Excitation Energies [eV] at current iteration:
 Root      1 :     1.858156179565684   Change is   -0.000041112905620
 Root      2 :     2.210059841471003   Change is   -0.000000398702204
 Root      3 :     2.895236114342419   Change is   -0.000000452111470
 Root      4 :     2.984732980419542   Change is   -0.000017302749351
 Root      5 :     3.098476505037980   Change is   -0.000327279398923
 Iteration     7 Dimension    68 NMult    66 NNew      2
 CISAX will form     2 AO SS matrices at one time.
 NMat=     2 NSing=     2 JSym2X= 0.
 Root      1 has converged.
 Root      2 has converged.
 Root      3 has converged.
 Root      4 has converged.
 Root      5 not converged, maximum delta is    0.004128376463769
 Excitation Energies [eV] at current iteration:
 Root      1 :     1.858156171585368   Change is   -0.000000007980316
 Root      2 :     2.210059711547511   Change is   -0.000000129923493
 Root      3 :     2.895235995115293   Change is   -0.000000119227126
 Root      4 :     2.984732926131974   Change is   -0.000000054287567
 Root      5 :     3.098418546370409   Change is   -0.000057958667570
 Iteration     8 Dimension    70 NMult    68 NNew      2
 CISAX will form     2 AO SS matrices at one time.
 NMat=     2 NSing=     2 JSym2X= 0.
 Root      1 has converged.
 Root      2 has converged.
 Root      3 has converged.
 Root      4 has converged.
 Root      5 not converged, maximum delta is    0.001162828300546
 Excitation Energies [eV] at current iteration:
 Root      1 :     1.858156077688559   Change is   -0.000000093896808
 Root      2 :     2.210058997456632   Change is   -0.000000714090878
 Root      3 :     2.895235763065336   Change is   -0.000000232049957
 Root      4 :     2.984732818416086   Change is   -0.000000107715889
 Root      5 :     3.098408239885523   Change is   -0.000010306484886
 Iteration     9 Dimension    72 NMult    70 NNew      2
 CISAX will form     2 AO SS matrices at one time.
 NMat=     2 NSing=     2 JSym2X= 0.
 Root      1 has converged.
 Root      2 has converged.
 Root      3 has converged.
 Root      4 has converged.
 Root      5 has converged.
 Excitation Energies [eV] at current iteration:
 Root      1 :     1.858155993140053   Change is   -0.000000084548506
 Root      2 :     2.210058976319971   Change is   -0.000000021136662
 Root      3 :     2.895235652447277   Change is   -0.000000110618059
 Root      4 :     2.984732801582170   Change is   -0.000000016833916
 Root      5 :     3.098406639819407   Change is   -0.000001600066117
 Convergence achieved on expansion vectors.
 ***********************************************************************
 Excited states from <AA,BB:AA,BB> singles matrix:
 ***********************************************************************
 
 1PDM for each excited state written to RWF  633
 Ground to excited state transition densities written to RWF  633
 Ground to excited state transition electric dipole moments (Au):
       state          X           Y           Z        Dip. S.      Osc.
         1        -0.4362      2.7369     -0.3898      7.8328      0.3566
         2        -1.4467     -0.4810     -0.1830      2.3578      0.1277
         3         0.1182     -0.0216     -0.0141      0.0146      0.0010
         4         0.1443      0.0629      0.0015      0.0248      0.0018
         5         0.3175      0.1371      0.0977      0.1292      0.0098
 Ground to excited state transition velocity dipole moments (Au):
       state          X           Y           Z        Dip. S.      Osc.
         1         0.0280     -0.1811      0.0262      0.0343      0.3345
         2         0.1115      0.0376      0.0127      0.0140      0.1150
         3        -0.0125      0.0016     -0.0007      0.0002      0.0010
         4        -0.0180     -0.0064      0.0006      0.0004      0.0022
         5        -0.0358     -0.0129     -0.0098      0.0015      0.0091
 Ground to excited state transition magnetic dipole moments (Au):
       state          X           Y           Z
         1        -0.1045     -0.2982     -2.1708
         2         0.2064     -0.2391     -0.1091
         3         0.1825      0.4259     -0.4688
         4         0.1352     -0.2855     -0.8126
         5        -0.3490      0.1429      0.0682
 Ground to excited state transition velocity quadrupole moments (Au):
       state          XX          YY          ZZ          XY          XZ          YZ
         1         0.7921     -0.4393     -0.0322     -2.1402      0.2552      0.0922
         2         2.4473      0.0127     -0.0253      0.4512      0.1387      0.0507
         3        -0.2679      0.0669      0.0077      0.1327     -0.0282      0.0161
         4        -0.4263      0.1466     -0.0176      0.2079      0.0085      0.0769
         5        -0.7522     -0.1162      0.0241     -0.1826     -0.1201     -0.1108
 <0|del|b> * <b|rxdel|0> + <0|del|b> * <b|delr+rdel|0>
 Rotatory Strengths (R) in cgs (10**-40 erg-esu-cm/Gauss)
       state          XX          YY          ZZ    R(velocity)    E-M Angle
         1       -65.2930     -5.9164     11.7984    -19.8037       90.81
         2       -42.8611     93.7411     59.1317     36.6706       71.37
         3         3.1940     -6.7780     -4.8143     -2.7994       98.75
         4         4.9625    -14.2454      2.3801     -2.3009       93.68
         5        -7.0582     43.5847     25.6041     20.7102       48.42
 1/2[<0|r|b>*<b|rxdel|0> + (<0|rxdel|b>*<b|r|0>)*]
 Rotatory Strengths (R) in cgs (10**-40 erg-esu-cm/Gauss)
       state          XX          YY          ZZ     R(length)
         1       -32.2271    577.1079   -598.3589    -17.8261
         2       211.1711    -81.3509    -14.1208     38.5665
         3       -15.2506      6.5027     -4.6840     -4.4773
         4       -13.7908     12.6969      0.8549     -0.0797
         5        78.3792    -13.8579     -4.7112     19.9367
  1/2[<0|del|b>*<b|r|0> + (<0|r|b>*<b|del|0>)*] (Au)
       state          X           Y           Z        Dip. S.   Osc.(frdel)
         1        -0.0122     -0.4956     -0.0102      0.5180      0.3454
         2        -0.1613     -0.0181     -0.0023      0.1817      0.1211
         3        -0.0015     -0.0000      0.0000      0.0015      0.0010
         4        -0.0026     -0.0004      0.0000      0.0030      0.0020
         5        -0.0114     -0.0018     -0.0010      0.0141      0.0094

 Excitation energies and oscillator strengths:
 
 Excited State   1:      Singlet-A      1.8582 eV  667.24 nm  f=0.3566  <S**2>=0.000
     245 -> 248       -0.17967
     246 -> 247        0.69108
     246 <- 247       -0.10475
 This state for optimization and/or second-order correction.
 Total Energy, E(TD-HF/TD-DFT) =  -3005.28730082    
 Copying the excited state density for this state as the 1-particle RhoCI density.
 
 Excited State   2:      Singlet-A      2.2101 eV  561.00 nm  f=0.1277  <S**2>=0.000
     245 -> 247        0.65606
     246 -> 248        0.25108
 
 Excited State   3:      Singlet-A      2.8952 eV  428.24 nm  f=0.0010  <S**2>=0.000
     242 -> 247        0.48296
     242 -> 249        0.14211
     243 -> 247        0.47671
 
 Excited State   4:      Singlet-A      2.9847 eV  415.39 nm  f=0.0018  <S**2>=0.000
     241 -> 247       -0.21526
     242 -> 247       -0.45160
     243 -> 247        0.48239
 
 Excited State   5:      Singlet-A      3.0984 eV  400.15 nm  f=0.0098  <S**2>=0.000
     240 -> 247       -0.23885
     241 -> 247        0.62255
     242 -> 247       -0.12080
     243 -> 247        0.15024
 SavETr:  write IOETrn=   770 NScale= 10 NData=  16 NLR=1 NState=    5 LETran=     100.
 Leave Link  914 at Thu Apr 28 22:05:37 2022, MaxMem= 10066329600 cpu:           21886.2 elap:             913.6
 (Enter /sw/apps/gaussian-16.0/g16/l601.exe)
 Copying SCF densities to generalized density rwf, IOpCl= 0 IROHF=0.
 Hyperfine terms turned off by default for NAtoms > 100.

 **********************************************************************

            Population analysis using the SCF density.

 **********************************************************************

 Orbital symmetries:
       Occupied  (A) (A) (A) (A) (A) (A) (A) (A) (A) (A) (A) (A)
                 (A) (A) (A) (A) (A) (A) (A) (A) (A) (A) (A) (A)
                 (A) (A) (A) (A) (A) (A) (A) (A) (A) (A) (A) (A)
                 (A) (A) (A) (A) (A) (A) (A) (A) (A) (A) (A) (A)
                 (A) (A) (A) (A) (A) (A) (A) (A) (A) (A) (A) (A)
                 (A) (A) (A) (A) (A) (A) (A) (A) (A) (A) (A) (A)
                 (A) (A) (A) (A) (A) (A) (A) (A) (A) (A) (A) (A)
                 (A) (A) (A) (A) (A) (A) (A) (A) (A) (A) (A) (A)
                 (A) (A) (A) (A) (A) (A) (A) (A) (A) (A) (A) (A)
                 (A) (A) (A) (A) (A) (A) (A) (A) (A) (A) (A) (A)
                 (A) (A) (A) (A) (A) (A) (A) (A) (A) (A) (A) (A)
                 (A) (A) (A) (A) (A) (A) (A) (A) (A) (A) (A) (A)
                 (A) (A) (A) (A) (A) (A) (A) (A) (A) (A) (A) (A)
                 (A) (A) (A) (A) (A) (A) (A) (A) (A) (A) (A) (A)
                 (A) (A) (A) (A) (A) (A) (A) (A) (A) (A) (A) (A)
                 (A) (A) (A) (A) (A) (A) (A) (A) (A) (A) (A) (A)
                 (A) (A) (A) (A) (A) (A) (A) (A) (A) (A) (A) (A)
                 (A) (A) (A) (A) (A) (A) (A) (A) (A) (A) (A) (A)
                 (A) (A) (A) (A) (A) (A) (A) (A) (A) (A) (A) (A)
                 (A) (A) (A) (A) (A) (A) (A) (A) (A) (A) (A) (A)
                 (A) (A) (A) (A) (A) (A)
       Virtual   (A) (A) (A) (A) (A) (A) (A) (A) (A) (A) (A) (A)
                 (A) (A) (A) (A) (A) (A) (A) (A) (A) (A) (A) (A)
                 (A) (A) (A) (A) (A) (A) (A) (A) (A) (A) (A) (A)
                 (A) (A) (A) (A) (A) (A) (A) (A) (A) (A) (A) (A)
                 (A) (A) (A) (A) (A) (A) (A) (A) (A) (A) (A) (A)
                 (A) (A) (A) (A) (A) (A) (A) (A) (A) (A) (A) (A)
                 (A) (A) (A) (A) (A) (A) (A) (A) (A) (A) (A) (A)
                 (A) (A) (A) (A) (A) (A) (A) (A) (A) (A) (A) (A)
                 (A) (A) (A) (A) (A) (A) (A) (A) (A) (A) (A) (A)
                 (A) (A) (A) (A) (A) (A) (A) (A) (A) (A) (A) (A)
                 (A) (A) (A) (A) (A) (A) (A) (A) (A) (A) (A) (A)
                 (A) (A) (A) (A) (A) (A) (A) (A) (A) (A) (A) (A)
                 (A) (A) (A) (A) (A) (A) (A) (A) (A) (A) (A) (A)
                 (A) (A) (A) (A) (A) (A) (A) (A) (A) (A) (A) (A)
                 (A) (A) (A) (A) (A) (A) (A) (A) (A) (A) (A) (A)
                 (A) (A) (A) (A) (A) (A) (A) (A) (A) (A) (A) (A)
                 (A) (A) (A) (A) (A) (A) (A) (A) (A) (A) (A) (A)
                 (A) (A) (A) (A) (A) (A) (A) (A) (A) (A) (A) (A)
                 (A) (A) (A) (A) (A) (A) (A) (A) (A) (A) (A) (A)
                 (A) (A) (A) (A) (A) (A) (A) (A) (A) (A) (A) (A)
                 (A) (A) (A) (A) (A) (A) (A) (A) (A) (A) (A) (A)
                 (A) (A) (A) (A) (A) (A) (A) (A) (A) (A) (A) (A)
                 (A) (A) (A) (A) (A) (A) (A) (A) (A) (A) (A) (A)
                 (A) (A) (A) (A) (A) (A) (A) (A) (A) (A) (A) (A)
                 (A) (A) (A) (A) (A) (A) (A) (A) (A) (A) (A) (A)
                 (A) (A) (A) (A) (A) (A) (A) (A) (A) (A) (A) (A)
                 (A) (A) (A) (A) (A) (A) (A) (A) (A) (A) (A) (A)
                 (A) (A) (A) (A) (A) (A) (A) (A) (A) (A) (A) (A)
[...]
 Alpha virt. eigenvalues --    1.39055   1.39268   1.39812   1.40460   1.40845
 Alpha virt. eigenvalues --    1.41323   1.41547   1.41824   1.41982   1.42635
 Alpha virt. eigenvalues --    1.42680   1.42885   1.43160   1.43560   1.43943
 Alpha virt. eigenvalues --    1.44287   1.44605   1.45265   1.45845   1.46786
 Alpha virt. eigenvalues --    1.47309   1.47679   1.48095   1.48342   1.48609
 Alpha virt. eigenvalues --    1.49198   1.49472   1.49880   1.50791   1.51084
 Alpha virt. eigenvalues --    1.51177   1.51634   1.51958   1.52322   1.52939
 Alpha virt. eigenvalues --    1.53063   1.53163   1.53464   1.53708   1.54150
 Alpha virt. eigenvalues --    1.54581   1.54668   1.54825   1.55104   1.55281
 Alpha virt. eigenvalues --    1.55351   1.55602   1.55692   1.55746   1.56256
 Alpha virt. eigenvalues --    1.56558   1.57145   1.57253   1.57537   1.57633
 Alpha virt. eigenvalues --    1.57855   1.58448   1.58509   1.58958   1.59141
 Alpha virt. eigenvalues --    1.59239   1.60079   1.60159   1.60246   1.60964
 Alpha virt. eigenvalues --    1.61665   1.61977   1.62127   1.62421   1.62606
 Alpha virt. eigenvalues --    1.63495   1.63964   1.64170   1.64373   1.65235
 Alpha virt. eigenvalues --    1.65684   1.65739   1.66364   1.67122   1.67748
 Alpha virt. eigenvalues --    1.68457   1.69076   1.69629   1.69802   1.70164
 Alpha virt. eigenvalues --    1.70501   1.70779   1.70996   1.71219   1.71532
 Alpha virt. eigenvalues --    1.72064   1.72109   1.72296   1.72620   1.72810
 Alpha virt. eigenvalues --    1.72876   1.73371   1.73506   1.73885   1.74200
 Alpha virt. eigenvalues --    1.74662   1.74841   1.75109   1.75177   1.75685
 Alpha virt. eigenvalues --    1.75767   1.76092   1.76150   1.76805   1.76974
 Alpha virt. eigenvalues --    1.77061   1.77269   1.77607   1.77705   1.77795
 Alpha virt. eigenvalues --    1.78119   1.78267   1.78757   1.78827   1.79041
 Alpha virt. eigenvalues --    1.79347   1.79545   1.79767   1.79900   1.80038
 Alpha virt. eigenvalues --    1.80338   1.80411   1.80729   1.80845   1.81006
 Alpha virt. eigenvalues --    1.81190   1.81222   1.81399   1.81627   1.81865
 Alpha virt. eigenvalues --    1.81956   1.82347   1.82387   1.82490   1.82739
 Alpha virt. eigenvalues --    1.82979   1.83081   1.83296   1.83375   1.83644
 Alpha virt. eigenvalues --    1.83852   1.83960   1.84183   1.84486   1.84517
 Alpha virt. eigenvalues --    1.84815   1.85096   1.85518   1.85854   1.85955
 Alpha virt. eigenvalues --    1.86067   1.86157   1.86712   1.86946   1.87179
 Alpha virt. eigenvalues --    1.87219   1.87581   1.87772   1.87949   1.88081
 Alpha virt. eigenvalues --    1.88417   1.88428   1.88666   1.88798   1.88956
 Alpha virt. eigenvalues --    1.89097   1.89231   1.89498   1.89669   1.89922
 Alpha virt. eigenvalues --    1.90351   1.90613   1.91127   1.91320   1.91631
 Alpha virt. eigenvalues --    1.91820   1.91906   1.92001   1.92389   1.92516
 Alpha virt. eigenvalues --    1.92831   1.93078   1.93153   1.93429   1.93966
 Alpha virt. eigenvalues --    1.94381   1.94856   1.94893   1.95239   1.95440
 Alpha virt. eigenvalues --    1.95773   1.96039   1.96237   1.96778   1.97057
 Alpha virt. eigenvalues --    1.97215   1.97376   1.97518   1.97951   1.98085
 Alpha virt. eigenvalues --    1.98420   1.98563   1.98888   1.98937   1.99290
 Alpha virt. eigenvalues --    1.99879   1.99987   2.00077   2.00346   2.00397
 Alpha virt. eigenvalues --    2.00820   2.01349   2.01591   2.02016   2.02497
 Alpha virt. eigenvalues --    2.02599   2.03241   2.03453   2.03702   2.04210
 Alpha virt. eigenvalues --    2.04313   2.04538   2.04855   2.04858   2.05535
 Alpha virt. eigenvalues --    2.06006   2.06323   2.06485   2.07411   2.07540
 Alpha virt. eigenvalues --    2.07712   2.07907   2.08534   2.08755   2.08852
 Alpha virt. eigenvalues --    2.09155   2.09787   2.10187   2.10284   2.10537
 Alpha virt. eigenvalues --    2.10625   2.10962   2.11751   2.11816   2.12049
 Alpha virt. eigenvalues --    2.12633   2.12919   2.13189   2.13194   2.13647
 Alpha virt. eigenvalues --    2.14272   2.14369   2.14584   2.14758   2.15062
 Alpha virt. eigenvalues --    2.15156   2.16098   2.16338   2.16653   2.17128
 Alpha virt. eigenvalues --    2.17203   2.18013   2.18151   2.19053   2.19700
 Alpha virt. eigenvalues --    2.19951   2.20311   2.20443   2.20894   2.21061
 Alpha virt. eigenvalues --    2.21250   2.21858   2.22302   2.23373   2.23593
 Alpha virt. eigenvalues --    2.23896   2.24166   2.24444   2.24743   2.25170
 Alpha virt. eigenvalues --    2.25651   2.25726   2.25912   2.26578   2.26686
 Alpha virt. eigenvalues --    2.26792   2.27675   2.27966   2.28681   2.28940
 Alpha virt. eigenvalues --    2.29234   2.29531   2.30502   2.30609   2.30708
 Alpha virt. eigenvalues --    2.30858   2.31204   2.31567   2.32193   2.32355
 Alpha virt. eigenvalues --    2.33064   2.33463   2.33724   2.34186   2.34305
 Alpha virt. eigenvalues --    2.34526   2.34889   2.35016   2.35476   2.36194
 Alpha virt. eigenvalues --    2.36402   2.36802   2.37612   2.37979   2.38313
 Alpha virt. eigenvalues --    2.38757   2.39162   2.39323   2.39657   2.40098
 Alpha virt. eigenvalues --    2.40331   2.40714   2.40954   2.41185   2.41377
 Alpha virt. eigenvalues --    2.41851   2.42027   2.42547   2.42819   2.42996
 Alpha virt. eigenvalues --    2.43456   2.43892   2.44325   2.44695   2.44716
 Alpha virt. eigenvalues --    2.45019   2.45294   2.45897   2.47445   2.47598
 Alpha virt. eigenvalues --    2.47902   2.48214   2.48858   2.49044   2.49357
 Alpha virt. eigenvalues --    2.49634   2.50234   2.50869   2.51057   2.51476
 Alpha virt. eigenvalues --    2.51860   2.52525   2.53814   2.54085   2.54513
 Alpha virt. eigenvalues --    2.54780   2.55220   2.55252   2.55809   2.56526
 Alpha virt. eigenvalues --    2.56970   2.57480   2.58214   2.58531   2.59151
 Alpha virt. eigenvalues --    2.59583   2.59680   2.59803   2.60009   2.60764
 Alpha virt. eigenvalues --    2.60927   2.61000   2.61618   2.61951   2.62627
 Alpha virt. eigenvalues --    2.62649   2.63047   2.63290   2.63455   2.63839
 Alpha virt. eigenvalues --    2.63873   2.64318   2.64448   2.64876   2.66192
 Alpha virt. eigenvalues --    2.66396   2.67082   2.67465   2.67577   2.68205
 Alpha virt. eigenvalues --    2.68441   2.68885   2.69435   2.69534   2.69885
 Alpha virt. eigenvalues --    2.70457   2.70903   2.71086   2.71402   2.71955
 Alpha virt. eigenvalues --    2.72350   2.73106   2.73194   2.73465   2.73648
 Alpha virt. eigenvalues --    2.73683   2.74337   2.74435   2.74862   2.75173
 Alpha virt. eigenvalues --    2.75348   2.75885   2.76501   2.76869   2.77016
 Alpha virt. eigenvalues --    2.77769   2.78243   2.78595   2.80089   2.80842
 Alpha virt. eigenvalues --    2.81501   2.82482   2.83093   2.83148   2.83599
 Alpha virt. eigenvalues --    2.84612   2.84972   2.85120   2.86119   2.86422
 Alpha virt. eigenvalues --    2.86620   2.87507   2.88350   2.88713   2.88817
 Alpha virt. eigenvalues --    2.89049   2.89674   2.89824   2.89991   2.91051
 Alpha virt. eigenvalues --    2.91358   2.91557   2.92151   2.92791   2.92954
 Alpha virt. eigenvalues --    2.93251   2.93509   2.93650   2.93987   2.94125
 Alpha virt. eigenvalues --    2.94424   2.94783   2.95134   2.95679   2.95881
 Alpha virt. eigenvalues --    2.96529   2.96589   2.96748   2.96961   2.97305
 Alpha virt. eigenvalues --    2.97587   2.97704   2.98154   2.98309   2.98687
 Alpha virt. eigenvalues --    2.98754   2.99088   2.99270   2.99433   2.99870
 Alpha virt. eigenvalues --    3.00269   3.00737   3.00855   3.01494   3.01716
 Alpha virt. eigenvalues --    3.02029   3.02282   3.02512   3.02555   3.03093
 Alpha virt. eigenvalues --    3.03212   3.03865   3.04297   3.04682   3.05031
 Alpha virt. eigenvalues --    3.05304   3.05707   3.05907   3.06283   3.06322
 Alpha virt. eigenvalues --    3.06576   3.06883   3.07700   3.08250   3.08811
 Alpha virt. eigenvalues --    3.08959   3.09460   3.10119   3.11581   3.11975
 Alpha virt. eigenvalues --    3.12496   3.13220   3.13347   3.14045   3.14696
 Alpha virt. eigenvalues --    3.15154   3.16136   3.16224   3.16535   3.16810
 Alpha virt. eigenvalues --    3.17708   3.17869   3.17942   3.19360   3.22245
 Alpha virt. eigenvalues --    3.24649   3.25828   3.32727   3.37211   3.37891
 Alpha virt. eigenvalues --    3.40595   3.43552   3.45804   3.47169   3.50800
 Alpha virt. eigenvalues --    3.54829   3.57672   3.58222   3.59985   3.62674
 Alpha virt. eigenvalues --    3.65515   3.65917
          Condensed to atoms (all electrons):
 Mulliken charges:
               1
     1  Mg   0.994885
     2  C    0.012472
     3  C   -0.078643
     4  C   -0.033330
     5  C   -0.104888
     6  N   -0.349201
     7  C    0.037898
     8  C   -0.103436
     9  C   -0.152525
    10  C    0.101875
    11  C    0.027502
    12  C    0.007306
    13  C   -0.003419
    14  C    0.255212
    15  O   -0.286851
    16  O   -0.365360
    17  N   -0.537566
    18  C    0.175464
    19  C   -0.185342
    20  C   -0.097056
    21  C    0.155884
    22  C    0.031475
    23  C    0.038851
    24  O   -0.241573
    25  C    0.010121
    26  N   -0.409806
    27  C    0.085657
    28  C   -0.119136
    29  C   -0.062560
    30  C    0.090256
    31  C    0.001654
    32  C   -0.034126
    33  C   -0.091061
    34  N   -0.494865
    35  C    0.146702
    36  C   -0.168676
    37  C   -0.032111
    38  C    0.145020
    39  C    0.076608
    40  C    0.142723
    41  O   -0.235523
    42  C   -0.138398
    43  C    0.309193
    44  O   -0.278821
    45  O   -0.371706
    46  C    0.120336
    47  C    0.267714
    48  C   -0.204475
    49  C   -0.224745
    50  C    0.045775
    51  C    0.042222
    52  C   -0.067228
    53  C   -0.030900
    54  C   -0.202981
    55  C    0.017246
    56  C    0.031008
    57  C   -0.089573
    58  C    0.037197
    59  C   -0.200366
    60  C   -0.011097
    61  C    0.003082
    62  C   -0.042668
    63  C   -0.072456
    64  C   -0.211615
    65  C   -0.019925
    66  C   -0.003898
    67  H    0.009137
    68  H    0.025921
    69  H   -0.012800
    70  H    0.047024
    71  H    0.046917
    72  H    0.042296
    73  H    0.046889
    74  H    0.033249
    75  H    0.052055
    76  H    0.077379
    77  H    0.053989
    78  H    0.071160
    79  H    0.070245
    80  H    0.061564
    81  H    0.041223
    82  H    0.036480
    83  H    0.062972
    84  H    0.085364
    85  H    0.055178
    86  H    0.041363
    87  H    0.055751
    88  H    0.044436
    89  H    0.051452
    90  H    0.055702
    91  H    0.044733
    92  H    0.046377
    93  H    0.034152
    94  H    0.053758
    95  H    0.030980
    96  H    0.051344
    97  H    0.068519
    98  H    0.075117
    99  H    0.044913
   100  H    0.053551
   101  H    0.070127
   102  H    0.061934
   103  H    0.058497
   104  H    0.029502
   105  H    0.039937
   106  H    0.044616
   107  H    0.045749
   108  H    0.039021
   109  H    0.028769
   110  H    0.030683
   111  H    0.039899
   112  H    0.030008
   113  H    0.025403
   114  H    0.026349
   115  H    0.027612
   116  H    0.031613
   117  H    0.026152
   118  H    0.008190
   119  H    0.027120
   120  H    0.021764
   121  H    0.015742
   122  H    0.024344
   123  H    0.025282
   124  H    0.041156
   125  H    0.036055
   126  H    0.025575
   127  H    0.032478
   128  H    0.018880
   129  H    0.023224
   130  H    0.022717
   131  H    0.034767
   132  H    0.031855
   133  H    0.027161
   134  H    0.025878
   135  H    0.024767
   136  H    0.026980
   137  H    0.027799
   138  H    0.038697
   139  H    0.035053
   140  H    0.036819
 Sum of Mulliken charges =  -0.00000
 Mulliken charges with hydrogens summed into heavy atoms:
               1
     1  Mg   0.994885
     2  C    0.012472
     3  C   -0.069506
     4  C   -0.007409
     5  C   -0.117687
     6  N   -0.349201
     7  C    0.037898
     8  C   -0.056412
     9  C   -0.105608
    10  C    0.101875
    11  C    0.149937
    12  C    0.136740
    13  C    0.121730
    14  C    0.255212
    15  O   -0.286851
    16  O   -0.365360
    17  N   -0.537566
    18  C    0.175464
    19  C   -0.185342
    20  C   -0.097056
    21  C    0.155884
    22  C    0.204507
    23  C    0.038851
    24  O   -0.241573
    25  C    0.194937
    26  N   -0.409806
    27  C    0.085657
    28  C   -0.063958
    29  C   -0.021197
    30  C    0.090256
    31  C    0.153293
    32  C    0.066309
    33  C    0.043227
    34  N   -0.494865
    35  C    0.146702
    36  C   -0.168676
    37  C   -0.032111
    38  C    0.145020
    39  C    0.227452
    40  C    0.142723
    41  O   -0.235523
    42  C   -0.063281
    43  C    0.309193
    44  O   -0.278821
    45  O   -0.371706
    46  C    0.288926
    47  C    0.388145
    48  C   -0.174974
    49  C   -0.224745
    50  C    0.176078
    51  C    0.110013
    52  C    0.003354
    53  C    0.024511
    54  C   -0.176632
    55  C    0.102623
    56  C    0.066318
    57  C   -0.052068
    58  C    0.086822
    59  C   -0.159210
    60  C    0.083011
    61  C    0.045186
    62  C    0.014817
    63  C   -0.013440
    64  C   -0.185737
    65  C    0.059621
    66  C    0.106671
 Electronic spatial extent (au):  <R**2>=         145501.6962
 Charge=             -0.0000 electrons
 Dipole moment (field-independent basis, Debye):
    X=             -1.8251    Y=              5.9367    Z=             -2.7456  Tot=              6.7907
 Quadrupole moment (field-independent basis, Debye-Ang):
   XX=           -350.2680   YY=           -417.7798   ZZ=           -407.3536
   XY=             13.3678   XZ=             -6.0105   YZ=             -5.6254
 Traceless Quadrupole moment (field-independent basis, Debye-Ang):
   XX=             41.5325   YY=            -25.9793   ZZ=            -15.5531
   XY=             13.3678   XZ=             -6.0105   YZ=             -5.6254
 Octapole moment (field-independent basis, Debye-Ang**2):
  XXX=            444.5548  YYY=            262.1514  ZZZ=             12.4723  XYY=           -169.1810
  XXY=           -169.7401  XXZ=             36.0438  XZZ=              6.0698  YZZ=             -0.1025
  YYZ=            -49.9629  XYZ=            -83.6316
 Hexadecapole moment (field-independent basis, Debye-Ang**3):
 XXXX=        -163745.8125 YYYY=         -22120.3283 ZZZZ=          -5498.1903 XXXY=          -1705.9414
 XXXZ=           -337.1277 YYYX=           1007.6278 YYYZ=           -493.0904 ZZZX=             45.0435
 ZZZY=            -40.2368 XXYY=         -33434.3081 XXZZ=         -29941.1815 YYZZ=          -4446.8568
 XXYZ=           -408.9927 YYXZ=           -449.0353 ZZXY=             15.1735
 N-N= 9.278861112248D+03 E-N=-2.554856815122D+04  KE= 2.974685047983D+03
 Leave Link  601 at Thu Apr 28 22:05:38 2022, MaxMem= 10066329600 cpu:              11.7 elap:               0.6
 (Enter /sw/apps/gaussian-16.0/g16/l9999.exe)
 1\1\GINC-BP1-COMPUTE070\SP\RPBE1PBE TD-FC\def2SVP\C55H74Mg1N4O6\OF1564
 1\28-Apr-2022\0\\#p PBE1PBE/Def2SVP td=(nstates=5)\\step_1751_chromoph
 ore_22 TDDFT with PBE1PBE functional\\0,1\Mg,0,8.891,47.291,25.473\C,0
 ,6.739,47.566,28.265\C,0,11.598,47.713,27.765\C,0,10.869,47.072,22.927
 \C,0,6.169,47.724,23.333\N,0,9.126,47.6,27.782\C,0,8.085,47.509,28.691
 \C,0,8.572,47.63,30.129\C,0,10.035,47.867,29.909\C,0,10.312,47.775,28.
 382\C,0,10.552,49.141,30.535\C,0,8.181,46.423,31.085\C,0,9.086,46.077,
 32.24\C,0,8.428,45.624,33.567\O,0,7.535,44.746,33.707\O,0,8.99,46.343,
 34.635\N,0,10.915,47.425,25.326\C,0,11.855,47.602,26.38\C,0,13.209,47.
 6,25.778\C,0,13.024,47.167,24.388\C,0,11.582,47.208,24.153\C,0,14.535,
 47.826,26.482\C,0,14.06,46.835,23.275\O,0,13.666,46.408,22.204\C,0,15.
 469,47.028,23.487\N,0,8.492,47.411,23.447\C,0,9.524,47.286,22.56\C,0,9
 .099,47.44,21.121\C,0,7.543,47.475,21.201\C,0,7.376,47.656,22.723\C,0,
 9.67,48.752,20.475\C,0,6.672,46.26,20.723\C,0,5.285,46.6,20.088\N,0,6.
 87,47.602,25.661\C,0,5.877,47.657,24.695\C,0,4.597,47.605,25.322\C,0,4
 .86,47.649,26.735\C,0,6.272,47.655,26.88\C,0,3.285,47.609,24.53\C,0,4.
 26,47.601,28.044\O,0,3.064,47.559,28.393\C,0,5.451,47.522,29.1\C,0,5.2
 43,46.187,29.822\O,0,5.863,45.13,29.514\O,0,4.465,46.395,30.999\C,0,4.
 524,45.216,31.856\C,0,8.45,45.967,35.9\C,0,9.155,46.706,36.963\C,0,9.0
 36,46.776,38.304\C,0,8.04,46.003,39.125\C,0,10.069,47.634,39.028\C,0,1
 0.959,46.838,39.998\C,0,11.204,47.636,41.356\C,0,10.262,47.227,42.505\
 C,0,9.062,48.082,42.517\C,0,11.098,47.114,43.799\C,0,11.653,45.728,43.
 986\C,0,11.903,45.164,45.401\C,0,13.41,44.963,45.722\C,0,13.919,46.12,
 46.642\C,0,13.835,43.565,46.305\C,0,14.948,42.872,45.501\C,0,14.3,41.8
 85,44.536\C,0,15.177,41.247,43.344\C,0,15.378,42.226,42.235\C,0,14.689
 ,39.864,42.923\H,0,12.515,47.682,28.356\H,0,11.499,47.073,22.035\H,0,5
 .276,47.816,22.712\H,0,8.064,48.511,30.521\H,0,10.642,47.028,30.25\H,0
 ,11.029,49.041,31.511\H,0,9.744,49.864,30.644\H,0,11.37,49.504,29.913\
 H,0,8.324,45.576,30.415\H,0,7.156,46.513,31.446\H,0,9.681,46.987,32.31
 3\H,0,9.758,45.262,31.973\H,0,15.051,48.676,26.037\H,0,15.125,46.921,2
 6.337\H,0,14.496,48.009,27.556\H,0,15.545,47.95,24.063\H,0,15.839,47.2
 75,22.492\H,0,15.905,46.197,24.042\H,0,9.448,46.616,20.499\H,0,7.111,4
 8.348,20.712\H,0,10.047,49.472,21.201\H,0,8.947,49.267,19.842\H,0,10.5
 ,48.411,19.856\H,0,6.398,45.676,21.602\H,0,7.158,45.577,20.025\H,0,5.2
 17,46.393,19.02\H,0,5.156,47.682,20.128\H,0,4.469,46.114,20.623\H,0,3.
 362,46.839,23.762\H,0,3.166,48.477,23.882\H,0,2.415,47.36,25.138\H,0,5
 .505,48.261,29.899\H,0,3.886,44.421,31.47\H,0,4.174,45.518,32.843\H,0,
 5.463,44.671,31.959\H,0,8.599,44.899,36.053\H,0,7.417,46.302,35.996\H,
 0,9.978,47.236,36.483\H,0,8.534,45.355,39.849\H,0,7.445,45.416,38.426\
 H,0,7.5,46.679,39.788\H,0,9.508,48.393,39.573\H,0,10.757,48.002,38.267
 \H,0,11.908,46.811,39.462\H,0,10.582,45.837,40.207\H,0,11.109,48.714,4
 1.23\H,0,12.253,47.414,41.552\H,0,9.975,46.196,42.303\H,0,8.197,47.505
 ,42.189\H,0,9.034,48.951,41.861\H,0,8.796,48.473,43.499\H,0,10.472,47.
 435,44.632\H,0,11.922,47.827,43.836\H,0,12.495,45.564,43.313\H,0,10.94
 1,45.,43.598\H,0,11.368,44.216,45.457\H,0,11.37,45.876,46.032\H,0,13.9
 72,45.06,44.793\H,0,14.55,46.811,46.082\H,0,14.543,45.774,47.466\H,0,1
 3.096,46.633,47.14\H,0,12.991,42.875,46.304\H,0,14.118,43.62,47.356\H,
 0,15.515,42.225,46.171\H,0,15.644,43.506,44.952\H,0,13.413,42.438,44.2
 25\H,0,13.977,40.991,45.069\H,0,16.217,41.166,43.658\H,0,15.434,43.253
 ,42.595\H,0,14.61,42.172,41.464\H,0,16.335,42.048,41.744\H,0,14.8,39.6
 61,41.858\H,0,13.656,39.809,43.266\H,0,15.225,39.115,43.506\\Version=E
 S64L-G16RevA.03\State=1-A\HF=-3005.3555868\RMSD=8.466e-09\PG=C01 [X(C5
 5H74Mg1N4O6)]\\@


 I WOULD TAKE COUNSEL OF MYSELF.
 I WOULD STOP AND LOOK WITHIN
 AND LOOKING WITHIN, LOOK BACK, ALSO
 THAT I MAY LOOK AHEAD WITH CLEARER UNDERSTANDING
 OF THE WAY I HAVE BEEN MOVING, AND IN WHAT DIRECTION.
 I NEED TO KNOW IF I AM GOING FORWARD OR RETREATING,
 WHETHER I HAVE BEEN WASTING, OR ENJOYING
 THE PRECIOUS MOMENTS OF LIFE.  THERE HAVE BEEN FRICTIONS,
 ANNOYANCES AND SOMETIMES WRATH,
 BUT WERE THEY BECAUSE I WAS RIGHT AND OTHERS WRONG.....
 HAVE I HAD MY THOUGHTS TOO SHARPLY FOCUSED
 ON THAT WHICH PLEASED ME, SERVED MY SELF-ESTEEM,
 UNDERGIRDED MY SECURITY,
 OF WHICH I DID NOT INQUIRE WHETHER IT SERVED OR HAMPERED OTHERS.....
 HAVE I BEEN TRYING TO STOP THE CLOCK
 TO HOLD THE WORLD
 IN PERPETUATION OF WHAT WAS AN IS ALREADY SLIPPING AWAY.....
 HAVE I BEEN CRITICAL OF OTHERS FOR WHAT REALLY NEEDED CHANGING IN ME...
 LET ME INDEED TAKE COUNSEL OF MYSELF
 AND SET MY DIRECTIONS STRAIGHT.

                          R.T. WESTON AS ADAPTED BY D. OSBORN 1967
 Job cpu time:       0 days  7 hours 47 minutes 47.8 seconds.
 Elapsed time:       0 days  0 hours 19 minutes 33.1 seconds.
 File lengths (MBytes):  RWF=   8929 Int=      0 D2E=      0 Chk=    390 Scr=      1
 Normal termination of Gaussian 16 at Thu Apr 28 22:05:39 2022.
