 Entering Gaussian System, Link 0=g16
 Initial command:
 /sw/apps/gaussian-16.0/g16/l1.exe "/tmp/Gau-52531.inp" -scrdir="/tmp/"
 Entering Link 1 = /sw/apps/gaussian-16.0/g16/l1.exe PID=     52532.
  
 Copyright (c) 1988,1990,1992,1993,1995,1998,2003,2009,2016,
            Gaussian, Inc.  All Rights Reserved.
  
 This is part of the Gaussian(R) 16 program.  It is based on
 the Gaussian(R) 09 system (copyright 2009, Gaussian, Inc.),
 the Gaussian(R) 03 system (copyright 2003, Gaussian, Inc.),
 the Gaussian(R) 98 system (copyright 1998, Gaussian, Inc.),
 the Gaussian(R) 94 system (copyright 1995, Gaussian, Inc.),
 the Gaussian 92(TM) system (copyright 1992, Gaussian, Inc.),
 the Gaussian 90(TM) system (copyright 1990, Gaussian, Inc.),
 the Gaussian 88(TM) system (copyright 1988, Gaussian, Inc.),
 the Gaussian 86(TM) system (copyright 1986, Carnegie Mellon
 University), and the Gaussian 82(TM) system (copyright 1983,
 Carnegie Mellon University). Gaussian is a federally registered
 trademark of Gaussian, Inc.
  
 This software contains proprietary and confidential information,
 including trade secrets, belonging to Gaussian, Inc.
  
 This software is provided under written license and may be
 used, copied, transmitted, or stored only in accord with that
 written license.
  
 The following legend is applicable only to US Government
 contracts under FAR:
  
                    RESTRICTED RIGHTS LEGEND
  
 Use, reproduction and disclosure by the US Government is
 subject to restrictions as set forth in subparagraphs (a)
 and (c) of the Commercial Computer Software - Restricted
 Rights clause in FAR 52.227-19.
  
 Gaussian, Inc.
 340 Quinnipiac St., Bldg. 40, Wallingford CT 06492
  
  
 ---------------------------------------------------------------
 Warning -- This program may not be used in any manner that
 competes with the business of Gaussian, Inc. or will provide
 assistance to any competitor of Gaussian, Inc.  The licensee
 of this program is prohibited from giving any competitor of
 Gaussian, Inc. access to this program.  By using this program,
 the user acknowledges that Gaussian, Inc. is engaged in the
 business of creating and licensing software in the field of
 computational chemistry and represents and warrants to the
 licensee that it is not a competitor of Gaussian, Inc. and that
 it will not use this program in any manner prohibited above.
 ---------------------------------------------------------------
  

 Cite this work as:
 Gaussian 16, Revision A.03,
 M. J. Frisch, G. W. Trucks, H. B. Schlegel, G. E. Scuseria, 
 M. A. Robb, J. R. Cheeseman, G. Scalmani, V. Barone, 
 G. A. Petersson, H. Nakatsuji, X. Li, M. Caricato, A. V. Marenich, 
 J. Bloino, B. G. Janesko, R. Gomperts, B. Mennucci, H. P. Hratchian, 
 J. V. Ortiz, A. F. Izmaylov, J. L. Sonnenberg, D. Williams-Young, 
 F. Ding, F. Lipparini, F. Egidi, J. Goings, B. Peng, A. Petrone, 
 T. Henderson, D. Ranasinghe, V. G. Zakrzewski, J. Gao, N. Rega, 
 G. Zheng, W. Liang, M. Hada, M. Ehara, K. Toyota, R. Fukuda, 
 J. Hasegawa, M. Ishida, T. Nakajima, Y. Honda, O. Kitao, H. Nakai, 
 T. Vreven, K. Throssell, J. A. Montgomery, Jr., J. E. Peralta, 
 F. Ogliaro, M. J. Bearpark, J. J. Heyd, E. N. Brothers, K. N. Kudin, 
 V. N. Staroverov, T. A. Keith, R. Kobayashi, J. Normand, 
 K. Raghavachari, A. P. Rendell, J. C. Burant, S. S. Iyengar, 
 J. Tomasi, M. Cossi, J. M. Millam, M. Klene, C. Adamo, R. Cammi, 
 J. W. Ochterski, R. L. Martin, K. Morokuma, O. Farkas, 
 J. B. Foresman, and D. J. Fox, Gaussian, Inc., Wallingford CT, 2016.
 
 ******************************************
 Gaussian 16:  ES64L-G16RevA.03 25-Dec-2016
                27-Apr-2022 
 ******************************************
 %nproc=24
 Will use up to   24 processors via shared memory.
 %mem=75GB
 -----------------------------------
 #p cam-b3lyp/Def2SVP td=(nstates=5)
 -----------------------------------
 1/38=1,172=1/1;
 2/12=2,17=6,18=5,40=1/2;
 3/5=43,7=101,11=9,25=1,30=1,74=-40/1,2,3,8;
 4//1;
 5/5=2,38=5/2;
 8/6=1,10=1,108=5/1;
 9/41=5,42=1,70=2/14;
 6/7=2,8=2,9=2,10=2/1;
 99/5=1,9=1/99;
 Leave Link    1 at Wed Apr 27 14:51:53 2022, MaxMem= 10066329600 cpu:               0.9 elap:               0.0
 (Enter /sw/apps/gaussian-16.0/g16/l101.exe)
 --------------------------------------------------------
 step_1251_chromophore_10 TDDFT with cam-b3lyp functional
 --------------------------------------------------------
 Symbolic Z-matrix:
 Charge =  0 Multiplicity = 1
 Mg                    40.915    8.165     29.691 
 C                     42.681    9.646     32.282 
 C                     38.741    6.823     31.972 
 C                     39.436    6.466     27.148 
 C                     43.362    9.286     27.349 
 N                     40.752    8.292     31.921 
 C                     41.518    8.997     32.74 
 C                     41.042    8.991     34.178 
 C                     39.879    7.909     34.105 
 C                     39.754    7.625     32.595 
 C                     40.098    6.683     35.061 
 C                     40.485    10.377    34.593 
 C                     41.084    10.894    35.889 
 C                     39.997    11.185    36.934 
 O                     38.781    11.426    36.769 
 O                     40.539    11.244    38.158 
 N                     39.206    6.944     29.543 
 C                     38.464    6.454     30.635 
 C                     37.363    5.637     30.103 
 C                     37.538    5.637     28.693 
 C                     38.8      6.337     28.407 
 C                     36.358    4.911     30.979 
 C                     36.718    4.819     27.608 
 O                     37.008    4.864     26.416 
 C                     35.475    4.084     28.022 
 N                     41.348    7.846     27.56 
 C                     40.567    7.205     26.742 
 C                     41.096    7.106     25.342 
 C                     42.268    8.098     25.414 
 C                     42.334    8.49      26.851 
 C                     41.411    5.602     25.002 
 C                     42.232    9.239     24.447 
 C                     41.137    10.201    24.655 
 N                     42.553    9.328     29.71 
 C                     43.406    9.76      28.692 
 C                     44.45     10.543    29.259 
 C                     44.166    10.482    30.662 
 C                     43.082    9.71      30.912 
 C                     45.59     11.329    28.562 
 C                     44.594    11.005    31.9 
 O                     45.583    11.712    32.052 
 C                     43.722    10.522    32.962 
 C                     44.584    9.767     33.939 
 O                     44.751    8.605     33.901 
 O                     44.926    10.5      35.016 
 C                     45.134    9.887     36.306 
 C                     39.977    12.106    39.221 
 C                     38.872    11.32     39.929 
 C                     38.575    11.401    41.263 
 C                     39.168    12.323    42.359 
 C                     37.581    10.423    41.842 
 C                     36.29     10.958    42.377 
 C                     36.027    10.598    43.77 
 C                     34.986    11.452    44.451 
 C                     35.064    11.338    45.97 
 C                     33.633    11.059    43.937 
 C                     32.703    12.329    43.673 
 C                     32.384    12.525    42.173 
 C                     30.92     12.53     41.903 
 C                     30.603    12.748    40.396 
 C                     30.309    13.765    42.682 
 C                     29.046    13.491    43.461 
 C                     29.069    13.476    44.981 
 C                     28.008    14.492    45.604 
 C                     28.524    15.036    46.886 
 C                     26.591    13.903    45.697 
 H                     38.195    6.383     32.809 
 H                     39.063    5.87      26.312 
 H                     44.152    9.697     26.717 
 H                     41.876    8.566     34.736 
 H                     38.985    8.437     34.436 
 H                     40.516    5.843     34.507 
 H                     39.163    6.418     35.555 
 H                     40.856    6.919     35.808 
 H                     39.397    10.444    34.581 
 H                     40.706    11.123    33.83 
 H                     41.673    11.8      35.739 
 H                     41.754    10.144    36.309 
 H                     35.368    5.215     30.638 
 H                     36.355    5.106     32.052 
 H                     36.402    3.848     30.742 
 H                     35.771    3.199     28.585 
 H                     34.863    3.863     27.148 
 H                     34.781    4.67      28.625 
 H                     40.352    7.475     24.636 
 H                     43.192    7.553     25.217 
 H                     41.333    5.03      25.926 
 H                     42.447    5.524     24.672 
 H                     40.683    5.041     24.416 
 H                     42.084    8.96      23.404 
 H                     43.194    9.741     24.544 
 H                     40.396    10.096    23.863 
 H                     41.415    11.249    24.77 
 H                     40.692    10.17     25.65 
 H                     45.754    12.175    29.229 
 H                     45.276    11.621    27.56 
 H                     46.461    10.678    28.494 
 H                     43.369    11.363    33.558 
 H                     44.989    8.81      36.394 
 H                     44.371    10.317    36.955 
 H                     46.154    9.986     36.675 
 H                     39.668    13.057    38.789 
 H                     40.765    12.296    39.951 
 H                     38.494    10.489    39.334 
 H                     38.356    12.681    42.991 
 H                     39.691    13.182    41.94 
 H                     39.939    11.798    42.923 
 H                     38.134    9.801     42.547 
 H                     37.271    9.783     41.017 
 H                     35.405    10.798    41.761 
 H                     36.392    12.038    42.488 
 H                     37.005    10.731    44.231 
 H                     35.804    9.538     43.888 
 H                     35.257    12.473    44.182 
 H                     34.08     11.49     46.414 
 H                     35.846    11.969    46.392 
 H                     35.447    10.352    46.233 
 H                     33.106    10.48     44.696 
 H                     33.721    10.349    43.115 
 H                     33.188    13.186    44.14 
 H                     31.783    12.02     44.168 
 H                     32.764    11.747    41.51 
 H                     32.724    13.464    41.737 
 H                     30.44     11.596    42.195 
 H                     31.324    12.21     39.781 
 H                     30.9      13.722    40.006 
 H                     29.612    12.47     40.036 
 H                     30.037    14.434    41.866 
 H                     30.992    14.298    43.343 
 H                     28.731    12.51     43.104 
 H                     28.282    14.16     43.067 
 H                     30.07     13.699    45.351 
 H                     28.747    12.454    45.183 
 H                     27.988    15.335    44.915 
 H                     28.49     16.116    46.744 
 H                     29.521    14.681    47.149 
 H                     27.962    14.824    47.796 
 H                     25.886    14.518    45.139 
 H                     26.374    13.753    46.755 
 H                     26.564    12.927    45.212 
 
 ITRead=  0  0  0  0  0  0  0  0  0  0  0  0  0  0  0  0  0  0  0  0
 ITRead=  0  0  0  0  0  0  0  0  0  0  0  0  0  0  0  0  0  0  0  0
 ITRead=  0  0  0  0  0  0  0  0  0  0  0  0  0  0  0  0  0  0  0  0
 ITRead=  0  0  0  0  0  0  0  0  0  0  0  0  0  0  0  0  0  0  0  0
 ITRead=  0  0  0  0  0  0  0  0  0  0  0  0  0  0  0  0  0  0  0  0
 ITRead=  0  0  0  0  0  0  0  0  0  0  0  0  0  0  0  0  0  0  0  0
 ITRead=  0  0  0  0  0  0  0  0  0  0  0  0  0  0  0  0  0  0  0  0
 MicOpt= -1 -1 -1 -1 -1 -1 -1 -1 -1 -1 -1 -1 -1 -1 -1 -1 -1 -1 -1 -1
 MicOpt= -1 -1 -1 -1 -1 -1 -1 -1 -1 -1 -1 -1 -1 -1 -1 -1 -1 -1 -1 -1
 MicOpt= -1 -1 -1 -1 -1 -1 -1 -1 -1 -1 -1 -1 -1 -1 -1 -1 -1 -1 -1 -1
 MicOpt= -1 -1 -1 -1 -1 -1 -1 -1 -1 -1 -1 -1 -1 -1 -1 -1 -1 -1 -1 -1
 MicOpt= -1 -1 -1 -1 -1 -1 -1 -1 -1 -1 -1 -1 -1 -1 -1 -1 -1 -1 -1 -1
 MicOpt= -1 -1 -1 -1 -1 -1 -1 -1 -1 -1 -1 -1 -1 -1 -1 -1 -1 -1 -1 -1
 MicOpt= -1 -1 -1 -1 -1 -1 -1 -1 -1 -1 -1 -1 -1 -1 -1 -1 -1 -1 -1 -1
 NAtoms=    140 NQM=      140 NQMF=       0 NMMI=      0 NMMIF=      0
                NMic=       0 NMicF=      0.
                    Isotopes and Nuclear Properties:
 (Nuclear quadrupole moments (NQMom) in fm**2, nuclear magnetic moments (NMagM)
  in nuclear magnetons)

  Atom         1           2           3           4           5           6           7           8           9          10
 IAtWgt=          24          12          12          12          12          14          12          12          12          12
 AtmWgt=  23.9850450  12.0000000  12.0000000  12.0000000  12.0000000  14.0030740  12.0000000  12.0000000  12.0000000  12.0000000
 NucSpn=           0           0           0           0           0           2           0           0           0           0
 AtZEff=  -0.0000000  -0.0000000  -0.0000000  -0.0000000  -0.0000000  -0.0000000  -0.0000000  -0.0000000  -0.0000000  -0.0000000
 NQMom=    0.0000000   0.0000000   0.0000000   0.0000000   0.0000000   2.0440000   0.0000000   0.0000000   0.0000000   0.0000000
 NMagM=    0.0000000   0.0000000   0.0000000   0.0000000   0.0000000   0.4037610   0.0000000   0.0000000   0.0000000   0.0000000
 AtZNuc=  12.0000000   6.0000000   6.0000000   6.0000000   6.0000000   7.0000000   6.0000000   6.0000000   6.0000000   6.0000000

  Atom        11          12          13          14          15          16          17          18          19          20
 IAtWgt=          12          12          12          12          16          16          14          12          12          12
 AtmWgt=  12.0000000  12.0000000  12.0000000  12.0000000  15.9949146  15.9949146  14.0030740  12.0000000  12.0000000  12.0000000
 NucSpn=           0           0           0           0           0           0           2           0           0           0
 AtZEff=  -0.0000000  -0.0000000  -0.0000000  -0.0000000  -0.0000000  -0.0000000  -0.0000000  -0.0000000  -0.0000000  -0.0000000
 NQMom=    0.0000000   0.0000000   0.0000000   0.0000000   0.0000000   0.0000000   2.0440000   0.0000000   0.0000000   0.0000000
 NMagM=    0.0000000   0.0000000   0.0000000   0.0000000   0.0000000   0.0000000   0.4037610   0.0000000   0.0000000   0.0000000
 AtZNuc=   6.0000000   6.0000000   6.0000000   6.0000000   8.0000000   8.0000000   7.0000000   6.0000000   6.0000000   6.0000000

  Atom        21          22          23          24          25          26          27          28          29          30
 IAtWgt=          12          12          12          16          12          14          12          12          12          12
 AtmWgt=  12.0000000  12.0000000  12.0000000  15.9949146  12.0000000  14.0030740  12.0000000  12.0000000  12.0000000  12.0000000
 NucSpn=           0           0           0           0           0           2           0           0           0           0
 AtZEff=  -0.0000000  -0.0000000  -0.0000000  -0.0000000  -0.0000000  -0.0000000  -0.0000000  -0.0000000  -0.0000000  -0.0000000
 NQMom=    0.0000000   0.0000000   0.0000000   0.0000000   0.0000000   2.0440000   0.0000000   0.0000000   0.0000000   0.0000000
 NMagM=    0.0000000   0.0000000   0.0000000   0.0000000   0.0000000   0.4037610   0.0000000   0.0000000   0.0000000   0.0000000
 AtZNuc=   6.0000000   6.0000000   6.0000000   8.0000000   6.0000000   7.0000000   6.0000000   6.0000000   6.0000000   6.0000000

  Atom        31          32          33          34          35          36          37          38          39          40
 IAtWgt=          12          12          12          14          12          12          12          12          12          12
 AtmWgt=  12.0000000  12.0000000  12.0000000  14.0030740  12.0000000  12.0000000  12.0000000  12.0000000  12.0000000  12.0000000
 NucSpn=           0           0           0           2           0           0           0           0           0           0
 AtZEff=  -0.0000000  -0.0000000  -0.0000000  -0.0000000  -0.0000000  -0.0000000  -0.0000000  -0.0000000  -0.0000000  -0.0000000
 NQMom=    0.0000000   0.0000000   0.0000000   2.0440000   0.0000000   0.0000000   0.0000000   0.0000000   0.0000000   0.0000000
 NMagM=    0.0000000   0.0000000   0.0000000   0.4037610   0.0000000   0.0000000   0.0000000   0.0000000   0.0000000   0.0000000
 AtZNuc=   6.0000000   6.0000000   6.0000000   7.0000000   6.0000000   6.0000000   6.0000000   6.0000000   6.0000000   6.0000000

  Atom        41          42          43          44          45          46          47          48          49          50
 IAtWgt=          16          12          12          16          16          12          12          12          12          12
 AtmWgt=  15.9949146  12.0000000  12.0000000  15.9949146  15.9949146  12.0000000  12.0000000  12.0000000  12.0000000  12.0000000
 NucSpn=           0           0           0           0           0           0           0           0           0           0
 AtZEff=  -0.0000000  -0.0000000  -0.0000000  -0.0000000  -0.0000000  -0.0000000  -0.0000000  -0.0000000  -0.0000000  -0.0000000
 NQMom=    0.0000000   0.0000000   0.0000000   0.0000000   0.0000000   0.0000000   0.0000000   0.0000000   0.0000000   0.0000000
 NMagM=    0.0000000   0.0000000   0.0000000   0.0000000   0.0000000   0.0000000   0.0000000   0.0000000   0.0000000   0.0000000
 AtZNuc=   8.0000000   6.0000000   6.0000000   8.0000000   8.0000000   6.0000000   6.0000000   6.0000000   6.0000000   6.0000000

  Atom        51          52          53          54          55          56          57          58          59          60
 IAtWgt=          12          12          12          12          12          12          12          12          12          12
 AtmWgt=  12.0000000  12.0000000  12.0000000  12.0000000  12.0000000  12.0000000  12.0000000  12.0000000  12.0000000  12.0000000
 NucSpn=           0           0           0           0           0           0           0           0           0           0
 AtZEff=  -0.0000000  -0.0000000  -0.0000000  -0.0000000  -0.0000000  -0.0000000  -0.0000000  -0.0000000  -0.0000000  -0.0000000
 NQMom=    0.0000000   0.0000000   0.0000000   0.0000000   0.0000000   0.0000000   0.0000000   0.0000000   0.0000000   0.0000000
 NMagM=    0.0000000   0.0000000   0.0000000   0.0000000   0.0000000   0.0000000   0.0000000   0.0000000   0.0000000   0.0000000
 AtZNuc=   6.0000000   6.0000000   6.0000000   6.0000000   6.0000000   6.0000000   6.0000000   6.0000000   6.0000000   6.0000000

  Atom        61          62          63          64          65          66          67          68          69          70
 IAtWgt=          12          12          12          12          12          12           1           1           1           1
 AtmWgt=  12.0000000  12.0000000  12.0000000  12.0000000  12.0000000  12.0000000   1.0078250   1.0078250   1.0078250   1.0078250
 NucSpn=           0           0           0           0           0           0           1           1           1           1
 AtZEff=  -0.0000000  -0.0000000  -0.0000000  -0.0000000  -0.0000000  -0.0000000  -0.0000000  -0.0000000  -0.0000000  -0.0000000
 NQMom=    0.0000000   0.0000000   0.0000000   0.0000000   0.0000000   0.0000000   0.0000000   0.0000000   0.0000000   0.0000000
 NMagM=    0.0000000   0.0000000   0.0000000   0.0000000   0.0000000   0.0000000   2.7928460   2.7928460   2.7928460   2.7928460
 AtZNuc=   6.0000000   6.0000000   6.0000000   6.0000000   6.0000000   6.0000000   1.0000000   1.0000000   1.0000000   1.0000000

  Atom        71          72          73          74          75          76          77          78          79          80
 IAtWgt=           1           1           1           1           1           1           1           1           1           1
 AtmWgt=   1.0078250   1.0078250   1.0078250   1.0078250   1.0078250   1.0078250   1.0078250   1.0078250   1.0078250   1.0078250
 NucSpn=           1           1           1           1           1           1           1           1           1           1
 AtZEff=  -0.0000000  -0.0000000  -0.0000000  -0.0000000  -0.0000000  -0.0000000  -0.0000000  -0.0000000  -0.0000000  -0.0000000
 NQMom=    0.0000000   0.0000000   0.0000000   0.0000000   0.0000000   0.0000000   0.0000000   0.0000000   0.0000000   0.0000000
 NMagM=    2.7928460   2.7928460   2.7928460   2.7928460   2.7928460   2.7928460   2.7928460   2.7928460   2.7928460   2.7928460
 AtZNuc=   1.0000000   1.0000000   1.0000000   1.0000000   1.0000000   1.0000000   1.0000000   1.0000000   1.0000000   1.0000000

  Atom        81          82          83          84          85          86          87          88          89          90
 IAtWgt=           1           1           1           1           1           1           1           1           1           1
 AtmWgt=   1.0078250   1.0078250   1.0078250   1.0078250   1.0078250   1.0078250   1.0078250   1.0078250   1.0078250   1.0078250
 NucSpn=           1           1           1           1           1           1           1           1           1           1
 AtZEff=  -0.0000000  -0.0000000  -0.0000000  -0.0000000  -0.0000000  -0.0000000  -0.0000000  -0.0000000  -0.0000000  -0.0000000
 NQMom=    0.0000000   0.0000000   0.0000000   0.0000000   0.0000000   0.0000000   0.0000000   0.0000000   0.0000000   0.0000000
 NMagM=    2.7928460   2.7928460   2.7928460   2.7928460   2.7928460   2.7928460   2.7928460   2.7928460   2.7928460   2.7928460
 AtZNuc=   1.0000000   1.0000000   1.0000000   1.0000000   1.0000000   1.0000000   1.0000000   1.0000000   1.0000000   1.0000000

  Atom        91          92          93          94          95          96          97          98          99         100
 IAtWgt=           1           1           1           1           1           1           1           1           1           1
 AtmWgt=   1.0078250   1.0078250   1.0078250   1.0078250   1.0078250   1.0078250   1.0078250   1.0078250   1.0078250   1.0078250
 NucSpn=           1           1           1           1           1           1           1           1           1           1
 AtZEff=  -0.0000000  -0.0000000  -0.0000000  -0.0000000  -0.0000000  -0.0000000  -0.0000000  -0.0000000  -0.0000000  -0.0000000
 NQMom=    0.0000000   0.0000000   0.0000000   0.0000000   0.0000000   0.0000000   0.0000000   0.0000000   0.0000000   0.0000000
 NMagM=    2.7928460   2.7928460   2.7928460   2.7928460   2.7928460   2.7928460   2.7928460   2.7928460   2.7928460   2.7928460
 AtZNuc=   1.0000000   1.0000000   1.0000000   1.0000000   1.0000000   1.0000000   1.0000000   1.0000000   1.0000000   1.0000000

  Atom       101         102         103         104         105         106         107         108         109         110
 IAtWgt=           1           1           1           1           1           1           1           1           1           1
 AtmWgt=   1.0078250   1.0078250   1.0078250   1.0078250   1.0078250   1.0078250   1.0078250   1.0078250   1.0078250   1.0078250
 NucSpn=           1           1           1           1           1           1           1           1           1           1
 AtZEff=  -0.0000000  -0.0000000  -0.0000000  -0.0000000  -0.0000000  -0.0000000  -0.0000000  -0.0000000  -0.0000000  -0.0000000
 NQMom=    0.0000000   0.0000000   0.0000000   0.0000000   0.0000000   0.0000000   0.0000000   0.0000000   0.0000000   0.0000000
 NMagM=    2.7928460   2.7928460   2.7928460   2.7928460   2.7928460   2.7928460   2.7928460   2.7928460   2.7928460   2.7928460
 AtZNuc=   1.0000000   1.0000000   1.0000000   1.0000000   1.0000000   1.0000000   1.0000000   1.0000000   1.0000000   1.0000000

  Atom       111         112         113         114         115         116         117         118         119         120
 IAtWgt=           1           1           1           1           1           1           1           1           1           1
 AtmWgt=   1.0078250   1.0078250   1.0078250   1.0078250   1.0078250   1.0078250   1.0078250   1.0078250   1.0078250   1.0078250
 NucSpn=           1           1           1           1           1           1           1           1           1           1
 AtZEff=  -0.0000000  -0.0000000  -0.0000000  -0.0000000  -0.0000000  -0.0000000  -0.0000000  -0.0000000  -0.0000000  -0.0000000
 NQMom=    0.0000000   0.0000000   0.0000000   0.0000000   0.0000000   0.0000000   0.0000000   0.0000000   0.0000000   0.0000000
 NMagM=    2.7928460   2.7928460   2.7928460   2.7928460   2.7928460   2.7928460   2.7928460   2.7928460   2.7928460   2.7928460
 AtZNuc=   1.0000000   1.0000000   1.0000000   1.0000000   1.0000000   1.0000000   1.0000000   1.0000000   1.0000000   1.0000000

  Atom       121         122         123         124         125         126         127         128         129         130
 IAtWgt=           1           1           1           1           1           1           1           1           1           1
 AtmWgt=   1.0078250   1.0078250   1.0078250   1.0078250   1.0078250   1.0078250   1.0078250   1.0078250   1.0078250   1.0078250
 NucSpn=           1           1           1           1           1           1           1           1           1           1
 AtZEff=  -0.0000000  -0.0000000  -0.0000000  -0.0000000  -0.0000000  -0.0000000  -0.0000000  -0.0000000  -0.0000000  -0.0000000
 NQMom=    0.0000000   0.0000000   0.0000000   0.0000000   0.0000000   0.0000000   0.0000000   0.0000000   0.0000000   0.0000000
 NMagM=    2.7928460   2.7928460   2.7928460   2.7928460   2.7928460   2.7928460   2.7928460   2.7928460   2.7928460   2.7928460
 AtZNuc=   1.0000000   1.0000000   1.0000000   1.0000000   1.0000000   1.0000000   1.0000000   1.0000000   1.0000000   1.0000000

  Atom       131         132         133         134         135         136         137         138         139         140
 IAtWgt=           1           1           1           1           1           1           1           1           1           1
 AtmWgt=   1.0078250   1.0078250   1.0078250   1.0078250   1.0078250   1.0078250   1.0078250   1.0078250   1.0078250   1.0078250
 NucSpn=           1           1           1           1           1           1           1           1           1           1
 AtZEff=  -0.0000000  -0.0000000  -0.0000000  -0.0000000  -0.0000000  -0.0000000  -0.0000000  -0.0000000  -0.0000000  -0.0000000
 NQMom=    0.0000000   0.0000000   0.0000000   0.0000000   0.0000000   0.0000000   0.0000000   0.0000000   0.0000000   0.0000000
 NMagM=    2.7928460   2.7928460   2.7928460   2.7928460   2.7928460   2.7928460   2.7928460   2.7928460   2.7928460   2.7928460
 AtZNuc=   1.0000000   1.0000000   1.0000000   1.0000000   1.0000000   1.0000000   1.0000000   1.0000000   1.0000000   1.0000000
 Leave Link  101 at Wed Apr 27 14:51:53 2022, MaxMem= 10066329600 cpu:               3.5 elap:               0.2
 (Enter /sw/apps/gaussian-16.0/g16/l202.exe)
 Stoichiometry    C55H74MgN4O6
 Framework group  C1[X(C55H74MgN4O6)]
 Deg. of freedom   414
 Full point group                 C1      NOp   1
 Largest Abelian subgroup         C1      NOp   1
 Largest concise Abelian subgroup C1      NOp   1
                         Standard orientation:                         
 ---------------------------------------------------------------------
 Center     Atomic      Atomic             Coordinates (Angstroms)
 Number     Number       Type             X           Y           Z
 ---------------------------------------------------------------------
      1         12           0        5.718107    0.718668    0.077874
      2          6           0        4.105479   -2.350331    0.155780
      3          6           0        3.066137    2.041446   -1.638959
      4          6           0        7.490506    3.596520   -0.264859
      5          6           0        8.613519   -0.736664    1.570526
      6          7           0        3.762437   -0.121555   -0.618528
      7          6           0        3.299185   -1.345347   -0.412929
      8          6           0        1.872043   -1.544529   -0.879887
      9          6           0        1.611647   -0.174084   -1.643233
     10          6           0        2.865788    0.659106   -1.312618
     11          6           0        1.237083   -0.357184   -3.156887
     12          6           0        0.903522   -1.703836    0.320137
     13          6           0        0.008388   -2.924776    0.202887
     14          6           0       -1.477289   -2.539917    0.256937
     15          8           0       -2.016632   -1.521461    0.742549
     16          8           0       -2.228254   -3.531672   -0.240952
     17          7           0        5.277598    2.628163   -0.692327
     18          6           0        4.121506    2.958538   -1.425424
     19          6           0        4.205855    4.382039   -1.784931
     20          6           0        5.458919    4.826027   -1.283503
     21          6           0        6.160661    3.648306   -0.749675
     22          6           0        3.153472    5.103227   -2.607643
     23          6           0        6.142519    6.244368   -1.482874
     24          8           0        7.262632    6.484747   -1.041793
     25          6           0        5.353372    7.363796   -2.099963
     26          7           0        7.776374    1.352151    0.516792
     27          6           0        8.215332    2.567146    0.371645
     28          6           0        9.663972    2.740104    0.719741
     29          6           0        9.952070    1.392089    1.399951
     30          6           0        8.701553    0.603905    1.205113
     31          6           0       10.477256    3.111445   -0.575448
     32          6           0       10.449478    1.453002    2.809611
     33          6           0        9.484581    1.975202    3.791454
     34          7           0        6.243576   -1.057522    0.855694
     35          6           0        7.409154   -1.493762    1.489475
     36          6           0        7.275465   -2.872556    1.814386
     37          6           0        5.988105   -3.201335    1.278293
     38          6           0        5.424097   -2.135355    0.662564
     39          6           0        8.233513   -3.802832    2.601747
     40          6           0        5.052779   -4.255264    1.217019
     41          8           0        5.252805   -5.388283    1.638128
     42          6           0        3.853888   -3.804642    0.523393
     43          6           0        3.670828   -4.695435   -0.676846
     44          8           0        4.074943   -4.438276   -1.749291
     45          8           0        2.772831   -5.678146   -0.471753
     46          6           0        1.964851   -6.193935   -1.550763
     47          6           0       -3.604509   -3.786354    0.238543
     48          6           0       -4.553916   -2.890301   -0.558827
     49          6           0       -5.826090   -3.225850   -0.937385
     50          6           0       -6.659528   -4.491042   -0.609329
     51          6           0       -6.565135   -2.306326   -1.879748
     52          6           0       -7.793457   -1.615102   -1.377188
     53          6           0       -8.987776   -1.859033   -2.185469
     54          6           0      -10.289165   -1.545554   -1.489140
     55          6           0      -11.475845   -2.211774   -2.177895
     56          6           0      -10.452451   -0.056020   -1.426840
     57          6           0      -11.020366    0.423423   -0.014359
     58          6           0       -9.991766    1.258516    0.782372
     59          6           0      -10.511471    2.608493    1.134069
     60          6           0       -9.481533    3.437592    1.953144
     61          6           0      -11.770501    2.391729    2.068544
     62          6           0      -12.985529    3.223093    1.737445
     63          6           0      -14.225439    2.570388    1.147740
     64          6           0      -15.529232    2.871815    2.016861
     65          6           0      -16.461535    1.718069    1.943401
     66          6           0      -16.177612    4.225135    1.682814
     67          1           0        2.207499    2.296651   -2.263376
     68          1           0        8.139802    4.459172   -0.430648
     69          1           0        9.433625   -1.274773    2.050433
     70          1           0        1.938996   -2.344331   -1.617029
     71          1           0        0.754593    0.269311   -1.136833
     72          1           0        2.114601   -0.201656   -3.783795
     73          1           0        0.421303    0.313454   -3.427504
     74          1           0        0.945544   -1.389617   -3.350167
     75          1           0        0.345801   -0.800613    0.568151
     76          1           0        1.460569   -1.815939    1.250007
     77          1           0        0.205890   -3.658171    0.986073
     78          1           0        0.186843   -3.420957   -0.750925
     79          1           0        2.858313    5.983691   -2.036275
     80          1           0        2.217469    4.591073   -2.833383
     81          1           0        3.635087    5.515388   -3.494348
     82          1           0        5.257798    7.168339   -3.167892
     83          1           0        5.820014    8.321126   -1.869692
     84          1           0        4.358596    7.504737   -1.676646
     85          1           0        9.778712    3.544355    1.446479
     86          1           0       10.717871    0.872654    0.822589
     87          1           0        9.816522    2.977731   -1.431366
     88          1           0       11.293808    2.399416   -0.696024
     89          1           0       10.731623    4.157874   -0.743925
     90          1           0       11.305063    2.107924    2.972844
     91          1           0       10.732088    0.433385    3.069168
     92          1           0        9.789406    2.969033    4.118182
     93          1           0        9.270516    1.346852    4.656419
     94          1           0        8.445187    1.944027    3.463279
     95          1           0        7.555941   -4.500038    3.093987
     96          1           0        8.829570   -3.212655    3.297643
     97          1           0        8.892225   -4.296712    1.888131
     98          1           0        2.974356   -4.033111    1.124502
     99          1           0        2.085820   -5.753763   -2.540871
    100          1           0        0.935827   -5.962602   -1.275329
    101          1           0        2.152144   -7.244170   -1.770513
    102          1           0       -3.640071   -3.656626    1.319474
    103          1           0       -3.855408   -4.821883    0.004719
    104          1           0       -4.047905   -2.047259   -1.028617
    105          1           0       -7.681475   -4.187429   -0.384881
    106          1           0       -6.261646   -5.040203    0.243362
    107          1           0       -6.604639   -5.207165   -1.429279
    108          1           0       -6.713041   -2.865337   -2.804598
    109          1           0       -5.882106   -1.487095   -2.100333
    110          1           0       -7.693269   -0.555268   -1.142678
    111          1           0       -8.101290   -2.103443   -0.452047
    112          1           0       -8.906163   -2.923562   -2.401829
    113          1           0       -8.935301   -1.371080   -3.158301
    114          1           0      -10.182957   -1.997870   -0.503050
    115          1           0      -12.378558   -1.615947   -2.041528
    116          1           0      -11.584784   -3.258059   -1.892958
    117          1           0      -11.254559   -2.321615   -3.239508
    118          1           0      -11.202581    0.261614   -2.151730
    119          1           0       -9.552974    0.448359   -1.779076
    120          1           0      -11.372927   -0.464936    0.509361
    121          1           0      -11.818464    1.095436   -0.327958
    122          1           0       -9.058852    1.471543    0.259358
    123          1           0       -9.692363    0.844944    1.745042
    124          1           0      -10.764096    3.199291    0.253638
    125          1           0       -8.475076    3.263054    1.573551
    126          1           0       -9.250575    3.029557    2.937599
    127          1           0       -9.617182    4.518435    2.001548
    128          1           0      -11.400270    2.744204    3.030880
    129          1           0      -12.102652    1.361087    2.190823
    130          1           0      -12.606964    3.962292    1.030828
    131          1           0      -13.212976    3.814523    2.623431
    132          1           0      -14.079345    1.494991    1.043781
    133          1           0      -14.301897    3.094300    0.194513
    134          1           0      -15.179406    2.900556    3.047670
    135          1           0      -16.629307    1.450982    2.986588
    136          1           0      -16.085768    0.881219    1.353754
    137          1           0      -17.445103    1.881115    1.501928
    138          1           0      -16.226349    4.853294    2.571439
    139          1           0      -17.124053    4.013833    1.184264
    140          1           0      -15.548721    4.772839    0.980640
 ---------------------------------------------------------------------
 Rotational constants (GHZ):           0.0427063           0.0088537           0.0078064
 Leave Link  202 at Wed Apr 27 14:51:53 2022, MaxMem= 10066329600 cpu:               0.2 elap:               0.0
 (Enter /sw/apps/gaussian-16.0/g16/l301.exe)
 Standard basis: def2SVP (5D, 7F)
 Ernie: Thresh=  0.10000D-02 Tol=  0.10000D-05 Strict=F.
 There are  1364 symmetry adapted cartesian basis functions of A   symmetry.
 There are  1298 symmetry adapted basis functions of A   symmetry.
  1298 basis functions,  2180 primitive gaussians,  1364 cartesian basis functions
   246 alpha electrons      246 beta electrons
       nuclear repulsion energy      9394.2506034750 Hartrees.
 IExCor=20419 DFT=T Ex+Corr=CAM-B3LYP ExCW=0 ScaHFX=  1.000000
 ScaDFX=  1.000000  1.000000  1.000000  0.810000 ScalE2=  1.000000  1.000000
 IRadAn=      5 IRanWt=     -1 IRanGd=            0 ICorTp=0 IEmpDi=  4
 HFx  wShort=  0.000000 wLong=  0.330000 cFull=  0.190000 cShort=  0.000000 cLong=  0.460000
 DFx  wShort=  0.000000 wLong=  0.330000 cFull=  0.190000 cShort=  0.000000 cLong=  0.460000
 NAtoms=  140 NActive=  140 NUniq=  140 SFac= 1.00D+00 NAtFMM=   60 NAOKFM=T Big=T
 Integral buffers will be    131072 words long.
 Raffenetti 1 integral format.
 Two-electron integral symmetry is turned on.
 Leave Link  301 at Wed Apr 27 14:51:53 2022, MaxMem= 10066329600 cpu:               1.7 elap:               0.1
 (Enter /sw/apps/gaussian-16.0/g16/l302.exe)
 NPDir=0 NMtPBC=     1 NCelOv=     1 NCel=       1 NClECP=     1 NCelD=      1
         NCelK=      1 NCelE2=     1 NClLst=     1 CellRange=     0.0.
 One-electron integrals computed using PRISM.
 One-electron integral symmetry used in STVInt
   1 Symmetry operations used in ECPInt.
 ECPInt:  NShTT=  192510 NPrTT=  683786 LenC2=   89823 LenP2D=  199047.
 LDataN:  DoStor=T MaxTD1= 4 Len=   56
 NBasis=  1298 RedAO= T EigKep=  2.57D-04  NBF=  1298
 NBsUse=  1298 1.00D-06 EigRej= -1.00D+00 NBFU=  1298
 Precomputing XC quadrature grid using
 IXCGrd= 4 IRadAn=           5 IRanWt=          -1 IRanGd=           0 AccXCQ= 0.00D+00.
 Generated NRdTot=       0 NPtTot=           0 NUsed=           0 NTot=          32
 NSgBfM=  1003   999   999   999  1003 MxSgAt=   140 MxSgA2=   139.
 Leave Link  302 at Wed Apr 27 14:51:56 2022, MaxMem= 10066329600 cpu:              71.7 elap:               3.0
 (Enter /sw/apps/gaussian-16.0/g16/l303.exe)
 DipDrv:  MaxL=1.
 Leave Link  303 at Wed Apr 27 14:51:56 2022, MaxMem= 10066329600 cpu:               5.6 elap:               0.3
 (Enter /sw/apps/gaussian-16.0/g16/l308.exe)
 Leave Link  308 at Wed Apr 27 14:51:57 2022, MaxMem= 10066329600 cpu:               9.7 elap:               0.5
 (Enter /sw/apps/gaussian-16.0/g16/l401.exe)
 ExpMin= 3.36D-02 ExpMax= 4.95D+03 ExpMxC= 7.45D+02 IAcc=3 IRadAn=         5 AccDes= 0.00D+00
 Harris functional with IExCor=20419 and IRadAn=       5 diagonalized for initial guess.
 HarFok:  IExCor=20419 AccDes= 0.00D+00 IRadAn=         5 IDoV= 1 UseB2=F ITyADJ=14
 ICtDFT=  3500011 ScaDFX=  1.000000  1.000000  1.000000  1.000000
 FoFCou: FMM=F IPFlag=           0 FMFlag=      100000 FMFlg1=        2001
         NFxFlg=           0 DoJE=T BraDBF=F KetDBF=T FulRan=T
         wScrn=  0.000000 ICntrl=       500 IOpCl=  0 I1Cent=   200000004 NGrid=           0
         NMat0=    1 NMatS0=      1 NMatT0=    0 NMatD0=    1 NMtDS0=    0 NMtDT0=    0
 Petite list used in FoFCou.
 Harris En= -2890.80747387266    
 JPrj=0 DoOrth=F DoCkMO=F.
 Leave Link  401 at Wed Apr 27 14:52:03 2022, MaxMem= 10066329600 cpu:             136.2 elap:               5.7
 (Enter /sw/apps/gaussian-16.0/g16/l502.exe)
 Integral symmetry usage will be decided dynamically.
 Closed shell SCF:
 Using DIIS extrapolation, IDIIS=  1040.
 NGot= 10066329600 LenX= 10062561258 LenY= 10060699398
 Requested convergence on RMS density matrix=1.00D-08 within 128 cycles.
 Requested convergence on MAX density matrix=1.00D-06.
 Requested convergence on             energy=1.00D-06.
 No special actions if energy rises.
 Fock matrices will be formed incrementally for  20 cycles.

 Cycle   1  Pass 1  IDiag  1:
 FoFJK:  IHMeth= 1 ICntrl=       0 DoSepK=T KAlg= 0 I1Cent=           0 FoldK=F
 IRaf=         1 NMat=       1 IRICut=       1 DoRegI=T DoRafI=F ISym2E= 0 IDoP0=0 IntGTp=1.
 FoFCou: FMM=T IPFlag=           0 FMFlag=      100000 FMFlg1=        2001
         NFxFlg=           0 DoJE=T BraDBF=F KetDBF=F FulRan=T
         wScrn=  0.000000 ICntrl=       500 IOpCl=  0 I1Cent=           0 NGrid=           0
         NMat0=    1 NMatS0=      1 NMatT0=    0 NMatD0=    1 NMtDS0=    0 NMtDT0=    0
 Symmetry not used in FoFCou.
 FMM levels:  10  Number of levels for PrismC:   9
 E= -3006.51618713277    
 DIIS: error= 3.00D-02 at cycle   1 NSaved=   1.
 NSaved= 1 IEnMin= 1 EnMin= -3006.51618713277     IErMin= 1 ErrMin= 3.00D-02
 ErrMax= 3.00D-02  0.00D+00 EMaxC= 1.00D-01 BMatC= 1.24D+00 BMatP= 1.24D+00
 IDIUse=3 WtCom= 7.00D-01 WtEn= 3.00D-01
 Coeff-Com:  0.100D+01
 Coeff-En:   0.100D+01
 Coeff:      0.100D+01
 Gap=     0.122 Goal=   None    Shift=    0.000
 GapD=    0.122 DampG=1.000 DampE=0.500 DampFc=0.5000 IDamp=-1.
 Damping current iteration by 5.00D-01
 RMSDP=1.56D-03 MaxDP=1.52D-01              OVMax= 2.23D-01

 Cycle   2  Pass 1  IDiag  1:
 RMSU=  7.67D-04    CP:  9.84D-01
 E= -3006.82328667433     Delta-E=       -0.307099541564 Rises=F Damp=T
 DIIS: error= 1.19D-02 at cycle   2 NSaved=   2.
 NSaved= 2 IEnMin= 2 EnMin= -3006.82328667433     IErMin= 2 ErrMin= 1.19D-02
 ErrMax= 1.19D-02  0.00D+00 EMaxC= 1.00D-01 BMatC= 2.27D-01 BMatP= 1.24D+00
 IDIUse=3 WtCom= 8.81D-01 WtEn= 1.19D-01
 Coeff-Com: -0.255D+00 0.125D+01
 Coeff-En:   0.000D+00 0.100D+01
 Coeff:     -0.224D+00 0.122D+01
 Gap=     0.146 Goal=   None    Shift=    0.000
 RMSDP=7.22D-04 MaxDP=6.83D-02 DE=-3.07D-01 OVMax= 2.15D-01

 Cycle   3  Pass 1  IDiag  1:
 RMSU=  6.98D-04    CP:  9.73D-01  1.20D+00
 E= -3007.05526310000     Delta-E=       -0.231976425674 Rises=F Damp=F
 DIIS: error= 1.21D-02 at cycle   3 NSaved=   3.
 NSaved= 3 IEnMin= 3 EnMin= -3007.05526310000     IErMin= 2 ErrMin= 1.19D-02
 ErrMax= 1.21D-02  0.00D+00 EMaxC= 1.00D-01 BMatC= 1.26D-01 BMatP= 2.27D-01
 IDIUse=3 WtCom= 8.79D-01 WtEn= 1.21D-01
 Coeff-Com: -0.268D+00 0.642D+00 0.627D+00
 Coeff-En:   0.000D+00 0.000D+00 0.100D+01
 Coeff:     -0.236D+00 0.565D+00 0.672D+00
 Gap=     0.128 Goal=   None    Shift=    0.000
 RMSDP=4.86D-04 MaxDP=5.89D-02 DE=-2.32D-01 OVMax= 1.68D-01

 Cycle   4  Pass 1  IDiag  1:
 RMSU=  2.75D-04    CP:  9.69D-01  1.52D+00  5.43D-01
 E= -3007.14246806909     Delta-E=       -0.087204969086 Rises=F Damp=F
 DIIS: error= 4.90D-03 at cycle   4 NSaved=   4.
 NSaved= 4 IEnMin= 4 EnMin= -3007.14246806909     IErMin= 4 ErrMin= 4.90D-03
 ErrMax= 4.90D-03  0.00D+00 EMaxC= 1.00D-01 BMatC= 2.93D-02 BMatP= 1.26D-01
 IDIUse=3 WtCom= 9.51D-01 WtEn= 4.90D-02
 Coeff-Com: -0.115D+00 0.235D+00 0.403D+00 0.477D+00
 Coeff-En:   0.000D+00 0.000D+00 0.205D+00 0.795D+00
 Coeff:     -0.109D+00 0.224D+00 0.393D+00 0.492D+00
 Gap=     0.129 Goal=   None    Shift=    0.000
 RMSDP=1.88D-04 MaxDP=1.56D-02 DE=-8.72D-02 OVMax= 7.80D-02

 Cycle   5  Pass 1  IDiag  1:
 RMSU=  7.09D-05    CP:  9.69D-01  1.46D+00  7.06D-01  5.47D-01
 E= -3007.17006873909     Delta-E=       -0.027600669999 Rises=F Damp=F
 DIIS: error= 6.29D-04 at cycle   5 NSaved=   5.
 NSaved= 5 IEnMin= 5 EnMin= -3007.17006873909     IErMin= 5 ErrMin= 6.29D-04
 ErrMax= 6.29D-04  0.00D+00 EMaxC= 1.00D-01 BMatC= 6.77D-04 BMatP= 2.93D-02
 IDIUse=3 WtCom= 9.94D-01 WtEn= 6.29D-03
 Coeff-Com: -0.429D-01 0.845D-01 0.170D+00 0.246D+00 0.543D+00
 Coeff-En:   0.000D+00 0.000D+00 0.000D+00 0.000D+00 0.100D+01
 Coeff:     -0.427D-01 0.840D-01 0.169D+00 0.244D+00 0.546D+00
 Gap=     0.127 Goal=   None    Shift=    0.000
 RMSDP=4.09D-05 MaxDP=7.19D-03 DE=-2.76D-02 OVMax= 1.81D-02

 Cycle   6  Pass 1  IDiag  1:
 RMSU=  2.96D-05    CP:  9.69D-01  1.47D+00  6.97D-01  6.17D-01  7.36D-01
 E= -3007.17069389662     Delta-E=       -0.000625157532 Rises=F Damp=F
 DIIS: error= 2.56D-04 at cycle   6 NSaved=   6.
 NSaved= 6 IEnMin= 6 EnMin= -3007.17069389662     IErMin= 6 ErrMin= 2.56D-04
 ErrMax= 2.56D-04  0.00D+00 EMaxC= 1.00D-01 BMatC= 1.04D-04 BMatP= 6.77D-04
 IDIUse=3 WtCom= 9.97D-01 WtEn= 2.56D-03
 Coeff-Com:  0.180D-02-0.536D-02 0.669D-02 0.285D-01 0.297D+00 0.672D+00
 Coeff-En:   0.000D+00 0.000D+00 0.000D+00 0.000D+00 0.123D+00 0.877D+00
 Coeff:      0.179D-02-0.534D-02 0.667D-02 0.285D-01 0.296D+00 0.672D+00
 Gap=     0.128 Goal=   None    Shift=    0.000
 RMSDP=1.59D-05 MaxDP=1.19D-03 DE=-6.25D-04 OVMax= 9.90D-03

 Cycle   7  Pass 1  IDiag  1:
 RMSU=  9.86D-06    CP:  9.69D-01  1.47D+00  7.05D-01  6.12D-01  8.54D-01
                    CP:  7.50D-01
 E= -3007.17081980467     Delta-E=       -0.000125908053 Rises=F Damp=F
 DIIS: error= 9.46D-05 at cycle   7 NSaved=   7.
 NSaved= 7 IEnMin= 7 EnMin= -3007.17081980467     IErMin= 7 ErrMin= 9.46D-05
 ErrMax= 9.46D-05  0.00D+00 EMaxC= 1.00D-01 BMatC= 1.41D-05 BMatP= 1.04D-04
 IDIUse=1 WtCom= 1.00D+00 WtEn= 0.00D+00
 Coeff-Com:  0.454D-02-0.978D-02-0.106D-01-0.729D-02 0.973D-01 0.358D+00
 Coeff-Com:  0.568D+00
 Coeff:      0.454D-02-0.978D-02-0.106D-01-0.729D-02 0.973D-01 0.358D+00
 Coeff:      0.568D+00
 Gap=     0.128 Goal=   None    Shift=    0.000
 RMSDP=5.53D-06 MaxDP=1.34D-03 DE=-1.26D-04 OVMax= 1.94D-03

 Cycle   8  Pass 1  IDiag  1:
 RMSU=  3.75D-06    CP:  9.69D-01  1.47D+00  7.05D-01  6.17D-01  8.61D-01
                    CP:  8.68D-01  8.89D-01
 E= -3007.17083673799     Delta-E=       -0.000016933318 Rises=F Damp=F
 DIIS: error= 4.31D-05 at cycle   8 NSaved=   8.
 NSaved= 8 IEnMin= 8 EnMin= -3007.17083673799     IErMin= 8 ErrMin= 4.31D-05
 ErrMax= 4.31D-05  0.00D+00 EMaxC= 1.00D-01 BMatC= 1.63D-06 BMatP= 1.41D-05
 IDIUse=1 WtCom= 1.00D+00 WtEn= 0.00D+00
 Coeff-Com:  0.213D-02-0.417D-02-0.738D-02-0.109D-01-0.199D-01 0.469D-01
 Coeff-Com:  0.254D+00 0.739D+00
 Coeff:      0.213D-02-0.417D-02-0.738D-02-0.109D-01-0.199D-01 0.469D-01
 Coeff:      0.254D+00 0.739D+00
 Gap=     0.129 Goal=   None    Shift=    0.000
 RMSDP=2.86D-06 MaxDP=2.52D-04 DE=-1.69D-05 OVMax= 1.86D-03

 Cycle   9  Pass 1  IDiag  1:
 RMSU=  1.83D-06    CP:  9.69D-01  1.47D+00  7.06D-01  6.18D-01  8.75D-01
                    CP:  8.96D-01  1.06D+00  1.06D+00
 E= -3007.17084052600     Delta-E=       -0.000003788007 Rises=F Damp=F
 DIIS: error= 1.91D-05 at cycle   9 NSaved=   9.
 NSaved= 9 IEnMin= 9 EnMin= -3007.17084052600     IErMin= 9 ErrMin= 1.91D-05
 ErrMax= 1.91D-05  0.00D+00 EMaxC= 1.00D-01 BMatC= 4.73D-07 BMatP= 1.63D-06
 IDIUse=1 WtCom= 1.00D+00 WtEn= 0.00D+00
 Coeff-Com:  0.371D-03-0.615D-03-0.203D-02-0.411D-02-0.254D-01-0.215D-01
 Coeff-Com:  0.229D-01 0.378D+00 0.653D+00
 Coeff:      0.371D-03-0.615D-03-0.203D-02-0.411D-02-0.254D-01-0.215D-01
 Coeff:      0.229D-01 0.378D+00 0.653D+00
 Gap=     0.129 Goal=   None    Shift=    0.000
 RMSDP=1.43D-06 MaxDP=1.26D-04 DE=-3.79D-06 OVMax= 7.58D-04

 Cycle  10  Pass 1  IDiag  1:
 RMSU=  8.70D-07    CP:  9.69D-01  1.47D+00  7.06D-01  6.18D-01  8.78D-01
                    CP:  9.11D-01  1.12D+00  1.27D+00  1.21D+00
 E= -3007.17084181043     Delta-E=       -0.000001284434 Rises=F Damp=F
 DIIS: error= 1.23D-05 at cycle  10 NSaved=  10.
 NSaved=10 IEnMin=10 EnMin= -3007.17084181043     IErMin=10 ErrMin= 1.23D-05
 ErrMax= 1.23D-05  0.00D+00 EMaxC= 1.00D-01 BMatC= 1.26D-07 BMatP= 4.73D-07
 IDIUse=1 WtCom= 1.00D+00 WtEn= 0.00D+00
 Coeff-Com: -0.622D-03 0.126D-02 0.176D-02 0.232D-02-0.620D-02-0.211D-01
 Coeff-Com: -0.104D+00-0.739D-01 0.239D+00 0.962D+00
 Coeff:     -0.622D-03 0.126D-02 0.176D-02 0.232D-02-0.620D-02-0.211D-01
 Coeff:     -0.104D+00-0.739D-01 0.239D+00 0.962D+00
 Gap=     0.129 Goal=   None    Shift=    0.000
 RMSDP=1.48D-06 MaxDP=1.06D-04 DE=-1.28D-06 OVMax= 9.54D-04

 Cycle  11  Pass 1  IDiag  1:
 RMSU=  5.60D-07    CP:  9.69D-01  1.47D+00  7.06D-01  6.18D-01  8.80D-01
                    CP:  9.23D-01  1.18D+00  1.45D+00  1.68D+00  1.52D+00
 E= -3007.17084258445     Delta-E=       -0.000000774013 Rises=F Damp=F
 DIIS: error= 7.06D-06 at cycle  11 NSaved=  11.
 NSaved=11 IEnMin=11 EnMin= -3007.17084258445     IErMin=11 ErrMin= 7.06D-06
 ErrMax= 7.06D-06  0.00D+00 EMaxC= 1.00D-01 BMatC= 4.98D-08 BMatP= 1.26D-07
 IDIUse=1 WtCom= 1.00D+00 WtEn= 0.00D+00
 Coeff-Com: -0.414D-03 0.805D-03 0.140D-02 0.240D-02 0.324D-02-0.101D-02
 Coeff-Com: -0.667D-01-0.129D+00-0.852D-01 0.486D+00 0.788D+00
 Coeff:     -0.414D-03 0.805D-03 0.140D-02 0.240D-02 0.324D-02-0.101D-02
 Coeff:     -0.667D-01-0.129D+00-0.852D-01 0.486D+00 0.788D+00
 Gap=     0.129 Goal=   None    Shift=    0.000
 RMSDP=8.77D-07 MaxDP=6.91D-05 DE=-7.74D-07 OVMax= 5.75D-04

 Cycle  12  Pass 1  IDiag  1:
 RMSU=  2.60D-07    CP:  9.69D-01  1.47D+00  7.06D-01  6.18D-01  8.81D-01
                    CP:  9.26D-01  1.20D+00  1.56D+00  1.94D+00  2.03D+00
                    CP:  1.27D+00
 E= -3007.17084283698     Delta-E=       -0.000000252532 Rises=F Damp=F
 DIIS: error= 4.57D-06 at cycle  12 NSaved=  12.
 NSaved=12 IEnMin=12 EnMin= -3007.17084283698     IErMin=12 ErrMin= 4.57D-06
 ErrMax= 4.57D-06  0.00D+00 EMaxC= 1.00D-01 BMatC= 1.25D-08 BMatP= 4.98D-08
 IDIUse=1 WtCom= 1.00D+00 WtEn= 0.00D+00
 Coeff-Com:  0.248D-04-0.648D-04-0.109D-04 0.335D-03 0.280D-02 0.860D-02
 Coeff-Com:  0.148D-02-0.200D-01-0.112D+00-0.110D+00 0.290D+00 0.939D+00
 Coeff:      0.248D-04-0.648D-04-0.109D-04 0.335D-03 0.280D-02 0.860D-02
 Coeff:      0.148D-02-0.200D-01-0.112D+00-0.110D+00 0.290D+00 0.939D+00
 Gap=     0.129 Goal=   None    Shift=    0.000
 RMSDP=5.75D-07 MaxDP=6.45D-05 DE=-2.53D-07 OVMax= 3.56D-04

 Cycle  13  Pass 1  IDiag  1:
 RMSU=  1.70D-07    CP:  9.69D-01  1.47D+00  7.06D-01  6.18D-01  8.81D-01
                    CP:  9.27D-01  1.21D+00  1.60D+00  2.11D+00  2.34D+00
                    CP:  1.76D+00  1.27D+00
 E= -3007.17084291630     Delta-E=       -0.000000079321 Rises=F Damp=F
 DIIS: error= 1.85D-06 at cycle  13 NSaved=  13.
 NSaved=13 IEnMin=13 EnMin= -3007.17084291630     IErMin=13 ErrMin= 1.85D-06
 ErrMax= 1.85D-06  0.00D+00 EMaxC= 1.00D-01 BMatC= 5.07D-09 BMatP= 1.25D-08
 IDIUse=1 WtCom= 1.00D+00 WtEn= 0.00D+00
 Coeff-Com:  0.141D-03-0.285D-03-0.453D-03-0.523D-03 0.405D-03 0.577D-02
 Coeff-Com:  0.199D-01 0.304D-01-0.390D-01-0.231D+00-0.911D-01 0.587D+00
 Coeff-Com:  0.718D+00
 Coeff:      0.141D-03-0.285D-03-0.453D-03-0.523D-03 0.405D-03 0.577D-02
 Coeff:      0.199D-01 0.304D-01-0.390D-01-0.231D+00-0.911D-01 0.587D+00
 Coeff:      0.718D+00
 Gap=     0.129 Goal=   None    Shift=    0.000
 RMSDP=3.06D-07 MaxDP=2.54D-05 DE=-7.93D-08 OVMax= 2.00D-04

 Cycle  14  Pass 1  IDiag  1:
 RMSU=  7.10D-08    CP:  9.69D-01  1.47D+00  7.06D-01  6.18D-01  8.81D-01
                    CP:  9.27D-01  1.22D+00  1.63D+00  2.20D+00  2.53D+00
                    CP:  1.96D+00  1.68D+00  9.77D-01
 E= -3007.17084293511     Delta-E=       -0.000000018810 Rises=F Damp=F
 DIIS: error= 7.30D-07 at cycle  14 NSaved=  14.
 NSaved=14 IEnMin=14 EnMin= -3007.17084293511     IErMin=14 ErrMin= 7.30D-07
 ErrMax= 7.30D-07  0.00D+00 EMaxC= 1.00D-01 BMatC= 7.90D-10 BMatP= 5.07D-09
 IDIUse=1 WtCom= 1.00D+00 WtEn= 0.00D+00
 Coeff-Com:  0.723D-04-0.143D-03-0.254D-03-0.355D-03-0.492D-03 0.142D-02
 Coeff-Com:  0.943D-02 0.216D-01 0.701D-02-0.970D-01-0.108D+00 0.107D+00
 Coeff-Com:  0.378D+00 0.682D+00
 Coeff:      0.723D-04-0.143D-03-0.254D-03-0.355D-03-0.492D-03 0.142D-02
 Coeff:      0.943D-02 0.216D-01 0.701D-02-0.970D-01-0.108D+00 0.107D+00
 Coeff:      0.378D+00 0.682D+00
 Gap=     0.129 Goal=   None    Shift=    0.000
 RMSDP=8.92D-08 MaxDP=1.65D-05 DE=-1.88D-08 OVMax= 5.08D-05

 Cycle  15  Pass 1  IDiag  1:
 RMSU=  3.26D-08    CP:  9.69D-01  1.47D+00  7.06D-01  6.18D-01  8.81D-01
                    CP:  9.27D-01  1.22D+00  1.63D+00  2.21D+00  2.57D+00
                    CP:  2.05D+00  1.77D+00  1.17D+00  1.03D+00
 E= -3007.17084293720     Delta-E=       -0.000000002095 Rises=F Damp=F
 DIIS: error= 2.48D-07 at cycle  15 NSaved=  15.
 NSaved=15 IEnMin=15 EnMin= -3007.17084293720     IErMin=15 ErrMin= 2.48D-07
 ErrMax= 2.48D-07  0.00D+00 EMaxC= 1.00D-01 BMatC= 8.73D-11 BMatP= 7.90D-10
 IDIUse=1 WtCom= 1.00D+00 WtEn= 0.00D+00
 Coeff-Com:  0.294D-07 0.129D-05-0.105D-04-0.291D-04-0.293D-03-0.445D-03
 Coeff-Com: -0.670D-03 0.211D-02 0.987D-02 0.686D-03-0.199D-01-0.601D-01
 Coeff-Com:  0.281D-01 0.219D+00 0.822D+00
 Coeff:      0.294D-07 0.129D-05-0.105D-04-0.291D-04-0.293D-03-0.445D-03
 Coeff:     -0.670D-03 0.211D-02 0.987D-02 0.686D-03-0.199D-01-0.601D-01
 Coeff:      0.281D-01 0.219D+00 0.822D+00
 Gap=     0.129 Goal=   None    Shift=    0.000
 RMSDP=3.41D-08 MaxDP=2.50D-06 DE=-2.10D-09 OVMax= 2.01D-05

 Cycle  16  Pass 1  IDiag  1:
 RMSU=  1.56D-08    CP:  9.69D-01  1.47D+00  7.06D-01  6.18D-01  8.81D-01
                    CP:  9.27D-01  1.22D+00  1.63D+00  2.22D+00  2.58D+00
                    CP:  2.07D+00  1.81D+00  1.23D+00  1.21D+00  1.16D+00
 E= -3007.17084293765     Delta-E=       -0.000000000442 Rises=F Damp=F
 DIIS: error= 1.47D-07 at cycle  16 NSaved=  16.
 NSaved=16 IEnMin=16 EnMin= -3007.17084293765     IErMin=16 ErrMin= 1.47D-07
 ErrMax= 1.47D-07  0.00D+00 EMaxC= 1.00D-01 BMatC= 4.26D-11 BMatP= 8.73D-11
 IDIUse=1 WtCom= 1.00D+00 WtEn= 0.00D+00
 Coeff-Com: -0.146D-04 0.295D-04 0.449D-04 0.561D-04-0.738D-04-0.467D-03
 Coeff-Com: -0.236D-02-0.320D-02 0.480D-02 0.188D-01 0.126D-01-0.560D-01
 Coeff-Com: -0.587D-01-0.552D-01 0.457D+00 0.683D+00
 Coeff:     -0.146D-04 0.295D-04 0.449D-04 0.561D-04-0.738D-04-0.467D-03
 Coeff:     -0.236D-02-0.320D-02 0.480D-02 0.188D-01 0.126D-01-0.560D-01
 Coeff:     -0.587D-01-0.552D-01 0.457D+00 0.683D+00
 Gap=     0.129 Goal=   None    Shift=    0.000
 RMSDP=1.75D-08 MaxDP=2.45D-06 DE=-4.42D-10 OVMax= 1.02D-05

 Cycle  17  Pass 1  IDiag  1:
 RMSU=  7.75D-09    CP:  9.69D-01  1.47D+00  7.06D-01  6.18D-01  8.81D-01
                    CP:  9.27D-01  1.22D+00  1.63D+00  2.22D+00  2.58D+00
                    CP:  2.08D+00  1.83D+00  1.27D+00  1.30D+00  1.41D+00
                    CP:  1.26D+00
 E= -3007.17084293750     Delta-E=        0.000000000144 Rises=F Damp=F
 DIIS: error= 8.07D-08 at cycle  17 NSaved=  17.
 NSaved=17 IEnMin=16 EnMin= -3007.17084293765     IErMin=17 ErrMin= 8.07D-08
 ErrMax= 8.07D-08  0.00D+00 EMaxC= 1.00D-01 BMatC= 7.91D-12 BMatP= 4.26D-11
 IDIUse=1 WtCom= 1.00D+00 WtEn= 0.00D+00
 Coeff-Com: -0.600D-05 0.117D-04 0.209D-04 0.314D-04 0.460D-04-0.119D-04
 Coeff-Com: -0.826D-03-0.192D-02-0.310D-03 0.629D-02 0.116D-01-0.692D-02
 Coeff-Com: -0.267D-01-0.103D+00-0.183D-01 0.210D+00 0.931D+00
 Coeff:     -0.600D-05 0.117D-04 0.209D-04 0.314D-04 0.460D-04-0.119D-04
 Coeff:     -0.826D-03-0.192D-02-0.310D-03 0.629D-02 0.116D-01-0.692D-02
 Coeff:     -0.267D-01-0.103D+00-0.183D-01 0.210D+00 0.931D+00
 Gap=     0.129 Goal=   None    Shift=    0.000
 RMSDP=1.23D-08 MaxDP=1.30D-06 DE= 1.44D-10 OVMax= 7.41D-06

 Cycle  18  Pass 1  IDiag  1:
 RMSU=  3.62D-09    CP:  9.69D-01  1.47D+00  7.06D-01  6.18D-01  8.81D-01
                    CP:  9.27D-01  1.22D+00  1.63D+00  2.22D+00  2.58D+00
                    CP:  2.09D+00  1.83D+00  1.29D+00  1.36D+00  1.59D+00
                    CP:  1.67D+00  1.42D+00
 E= -3007.17084293770     Delta-E=       -0.000000000202 Rises=F Damp=F
 DIIS: error= 4.14D-08 at cycle  18 NSaved=  18.
 NSaved=18 IEnMin=18 EnMin= -3007.17084293770     IErMin=18 ErrMin= 4.14D-08
 ErrMax= 4.14D-08  0.00D+00 EMaxC= 1.00D-01 BMatC= 2.42D-12 BMatP= 7.91D-12
 IDIUse=1 WtCom= 1.00D+00 WtEn= 0.00D+00
 Coeff-Com:  0.232D-05-0.489D-05-0.666D-05-0.530D-05 0.412D-04 0.179D-03
 Coeff-Com:  0.422D-03 0.306D-03-0.168D-02-0.452D-02 0.100D-02 0.173D-01
 Coeff-Com:  0.147D-01-0.280D-01-0.144D+00-0.186D+00 0.382D+00 0.948D+00
 Coeff:      0.232D-05-0.489D-05-0.666D-05-0.530D-05 0.412D-04 0.179D-03
 Coeff:      0.422D-03 0.306D-03-0.168D-02-0.452D-02 0.100D-02 0.173D-01
 Coeff:      0.147D-01-0.280D-01-0.144D+00-0.186D+00 0.382D+00 0.948D+00
 Gap=     0.129 Goal=   None    Shift=    0.000
 RMSDP=7.81D-09 MaxDP=5.49D-07 DE=-2.02D-10 OVMax= 4.51D-06

 SCF Done:  E(RCAM-B3LYP) =  -3007.17084294     A.U. after   18 cycles
            NFock= 18  Conv=0.78D-08     -V/T= 2.0103
 KE= 2.976622927843D+03 PE=-2.578148641904D+04 EE= 1.040344204478D+04
 Leave Link  502 at Wed Apr 27 14:57:58 2022, MaxMem= 10066329600 cpu:            8136.1 elap:             355.4
 (Enter /sw/apps/gaussian-16.0/g16/l801.exe)
 DoSCS=F DFT=T ScalE2(SS,OS)=  1.000000  1.000000
 ExpMin= 3.36D-02 ExpMax= 4.95D+03 ExpMxC= 7.45D+02 IAcc=3 IRadAn=         5 AccDes= 0.00D+00
 HarFok:  IExCor=  205 AccDes= 0.00D+00 IRadAn=         5 IDoV=-2 UseB2=F ITyADJ=14
 ICtDFT= 12500011 ScaDFX=  1.000000  1.000000  1.000000  1.000000
 GSVD:  LWork=       -5460 too small for GESVD, short by       25550 words or       25550 for optimal perf.
 Largest valence mixing into a core orbital is  1.83D-04
 Largest core mixing into a valence orbital is  5.35D-05
 Range of M.O.s used for correlation:    71  1298
 NBasis=  1298 NAE=   246 NBE=   246 NFC=    70 NFV=     0
 NROrb=   1228 NOA=   176 NOB=   176 NVA=  1052 NVB=  1052
 Leave Link  801 at Wed Apr 27 14:57:58 2022, MaxMem= 10066329600 cpu:               6.4 elap:               0.3
 (Enter /sw/apps/gaussian-16.0/g16/l914.exe)
 RHF ground state
 Two-electron integrals replicated using symmetry.
 MDV= 10066329600 DFT=T DoStab=F Mixed=T DoRPA=T DoScal=F NonHer=T
 Making orbital integer symmetry assigments:
 Orbital symmetries:
       Occupied  (A) (A) (A) (A) (A) (A) (A) (A) (A) (A) (A) (A)
                 (A) (A) (A) (A) (A) (A) (A) (A) (A) (A) (A) (A)
                 (A) (A) (A) (A) (A) (A) (A) (A) (A) (A) (A) (A)
                 (A) (A) (A) (A) (A) (A) (A) (A) (A) (A) (A) (A)
                 (A) (A) (A) (A) (A) (A) (A) (A) (A) (A) (A) (A)
                 (A) (A) (A) (A) (A) (A) (A) (A) (A) (A) (A) (A)
                 (A) (A) (A) (A) (A) (A) (A) (A) (A) (A) (A) (A)
                 (A) (A) (A) (A) (A) (A) (A) (A) (A) (A) (A) (A)
                 (A) (A) (A) (A) (A) (A) (A) (A) (A) (A) (A) (A)
                 (A) (A) (A) (A) (A) (A) (A) (A) (A) (A) (A) (A)
                 (A) (A) (A) (A) (A) (A) (A) (A) (A) (A) (A) (A)
                 (A) (A) (A) (A) (A) (A) (A) (A) (A) (A) (A) (A)
                 (A) (A) (A) (A) (A) (A) (A) (A) (A) (A) (A) (A)
                 (A) (A) (A) (A) (A) (A) (A) (A) (A) (A) (A) (A)
                 (A) (A) (A) (A) (A) (A) (A) (A) (A) (A) (A) (A)
                 (A) (A) (A) (A) (A) (A) (A) (A) (A) (A) (A) (A)
                 (A) (A) (A) (A) (A) (A) (A) (A) (A) (A) (A) (A)
                 (A) (A) (A) (A) (A) (A) (A) (A) (A) (A) (A) (A)
                 (A) (A) (A) (A) (A) (A) (A) (A) (A) (A) (A) (A)
                 (A) (A) (A) (A) (A) (A) (A) (A) (A) (A) (A) (A)
                 (A) (A) (A) (A) (A) (A)
       Virtual   (A) (A) (A) (A) (A) (A) (A) (A) (A) (A) (A) (A)
                 (A) (A) (A) (A) (A) (A) (A) (A) (A) (A) (A) (A)
                 (A) (A) (A) (A) (A) (A) (A) (A) (A) (A) (A) (A)
                 (A) (A) (A) (A) (A) (A) (A) (A) (A) (A) (A) (A)
                 (A) (A) (A) (A) (A) (A) (A) (A) (A) (A) (A) (A)
                 (A) (A) (A) (A) (A) (A) (A) (A) (A) (A) (A) (A)
                 (A) (A) (A) (A) (A) (A) (A) (A) (A) (A) (A) (A)
                 (A) (A) (A) (A) (A) (A) (A) (A) (A) (A) (A) (A)
                 (A) (A) (A) (A) (A) (A) (A) (A) (A) (A) (A) (A)
                 (A) (A) (A) (A) (A) (A) (A) (A) (A) (A) (A) (A)
                 (A) (A) (A) (A) (A) (A) (A) (A) (A) (A) (A) (A)
                 (A) (A) (A) (A) (A) (A) (A) (A) (A) (A) (A) (A)
                 (A) (A) (A) (A) (A) (A) (A) (A) (A) (A) (A) (A)
                 (A) (A) (A) (A) (A) (A) (A) (A) (A) (A) (A) (A)
                 (A) (A) (A) (A) (A) (A) (A) (A) (A) (A) (A) (A)
                 (A) (A) (A) (A) (A) (A) (A) (A) (A) (A) (A) (A)
                 (A) (A) (A) (A) (A) (A) (A) (A) (A) (A) (A) (A)
                 (A) (A) (A) (A) (A) (A) (A) (A) (A) (A) (A) (A)
                 (A) (A) (A) (A) (A) (A) (A) (A) (A) (A) (A) (A)
                 (A) (A) (A) (A) (A) (A) (A) (A) (A) (A) (A) (A)
                 (A) (A) (A) (A) (A) (A) (A) (A) (A) (A) (A) (A)
                 (A) (A) (A) (A) (A) (A) (A) (A) (A) (A) (A) (A)
                 (A) (A) (A) (A) (A) (A) (A) (A) (A) (A) (A) (A)
                 (A) (A) (A) (A) (A) (A) (A) (A) (A) (A) (A) (A)
                 (A) (A) (A) (A) (A) (A) (A) (A) (A) (A) (A) (A)
                 (A) (A) (A) (A) (A) (A) (A) (A) (A) (A) (A) (A)
                 (A) (A) (A) (A) (A) (A) (A) (A) (A) (A) (A) (A)
                 (A) (A) (A) (A) (A) (A) (A) (A) (A) (A) (A) (A)
                 (A) (A) (A) (A) (A) (A) (A) (A) (A) (A) (A) (A)
                 (A) (A) (A) (A) (A) (A) (A) (A) (A) (A) (A) (A)
                 (A) (A) (A) (A) (A) (A) (A) (A) (A) (A) (A) (A)
                 (A) (A) (A) (A) (A) (A) (A) (A) (A) (A) (A) (A)
                 (A) (A) (A) (A) (A) (A) (A) (A) (A) (A) (A) (A)
                 (A) (A) (A) (A) (A) (A) (A) (A) (A) (A) (A) (A)
                 (A) (A) (A) (A) (A) (A) (A) (A) (A) (A) (A) (A)
                 (A) (A) (A) (A) (A) (A) (A) (A) (A) (A) (A) (A)
                 (A) (A) (A) (A) (A) (A) (A) (A) (A) (A) (A) (A)
                 (A) (A) (A) (A) (A) (A) (A) (A) (A) (A) (A) (A)
                 (A) (A) (A) (A) (A) (A) (A) (A) (A) (A) (A) (A)
                 (A) (A) (A) (A) (A) (A) (A) (A) (A) (A) (A) (A)
                 (A) (A) (A) (A) (A) (A) (A) (A) (A) (A) (A) (A)
                 (A) (A) (A) (A) (A) (A) (A) (A) (A) (A) (A) (A)
                 (A) (A) (A) (A) (A) (A) (A) (A) (A) (A) (A) (A)
                 (A) (A) (A) (A) (A) (A) (A) (A) (A) (A) (A) (A)
                 (A) (A) (A) (A) (A) (A) (A) (A) (A) (A) (A) (A)
                 (A) (A) (A) (A) (A) (A) (A) (A) (A) (A) (A) (A)
                 (A) (A) (A) (A) (A) (A) (A) (A) (A) (A) (A) (A)
                 (A) (A) (A) (A) (A) (A) (A) (A) (A) (A) (A) (A)
                 (A) (A) (A) (A) (A) (A) (A) (A) (A) (A) (A) (A)
                 (A) (A) (A) (A) (A) (A) (A) (A) (A) (A) (A) (A)
                 (A) (A) (A) (A) (A) (A) (A) (A) (A) (A) (A) (A)
                 (A) (A) (A) (A) (A) (A) (A) (A) (A) (A) (A) (A)
                 (A) (A) (A) (A) (A) (A) (A) (A) (A) (A) (A) (A)
                 (A) (A) (A) (A) (A) (A) (A) (A) (A) (A) (A) (A)
                 (A) (A) (A) (A) (A) (A) (A) (A) (A) (A) (A) (A)
                 (A) (A) (A) (A) (A) (A) (A) (A) (A) (A) (A) (A)
                 (A) (A) (A) (A) (A) (A) (A) (A) (A) (A) (A) (A)
                 (A) (A) (A) (A) (A) (A) (A) (A) (A) (A) (A) (A)
                 (A) (A) (A) (A) (A) (A) (A) (A) (A) (A) (A) (A)
                 (A) (A) (A) (A) (A) (A) (A) (A) (A) (A) (A) (A)
                 (A) (A) (A) (A) (A) (A) (A) (A) (A) (A) (A) (A)
                 (A) (A) (A) (A) (A) (A) (A) (A) (A) (A) (A) (A)
                 (A) (A) (A) (A) (A) (A) (A) (A) (A) (A) (A) (A)
                 (A) (A) (A) (A) (A) (A) (A) (A) (A) (A) (A) (A)
                 (A) (A) (A) (A) (A) (A) (A) (A) (A) (A) (A) (A)
                 (A) (A) (A) (A) (A) (A) (A) (A) (A) (A) (A) (A)
                 (A) (A) (A) (A) (A) (A) (A) (A) (A) (A) (A) (A)
                 (A) (A) (A) (A) (A) (A) (A) (A) (A) (A) (A) (A)
                 (A) (A) (A) (A) (A) (A) (A) (A) (A) (A) (A) (A)
                 (A) (A) (A) (A) (A) (A) (A) (A) (A) (A) (A) (A)
                 (A) (A) (A) (A) (A) (A) (A) (A) (A) (A) (A) (A)
                 (A) (A) (A) (A) (A) (A) (A) (A) (A) (A) (A) (A)
                 (A) (A) (A) (A) (A) (A) (A) (A) (A) (A) (A) (A)
                 (A) (A) (A) (A) (A) (A) (A) (A) (A) (A) (A) (A)
                 (A) (A) (A) (A) (A) (A) (A) (A) (A) (A) (A) (A)
                 (A) (A) (A) (A) (A) (A) (A) (A) (A) (A) (A) (A)
                 (A) (A) (A) (A) (A) (A) (A) (A) (A) (A) (A) (A)
                 (A) (A) (A) (A) (A) (A) (A) (A) (A) (A) (A) (A)
                 (A) (A) (A) (A) (A) (A) (A) (A) (A) (A) (A) (A)
                 (A) (A) (A) (A) (A) (A) (A) (A) (A) (A) (A) (A)
                 (A) (A) (A) (A) (A) (A) (A) (A) (A) (A) (A) (A)
                 (A) (A) (A) (A) (A) (A) (A) (A) (A) (A) (A) (A)
                 (A) (A) (A) (A) (A) (A) (A) (A) (A) (A) (A) (A)
                 (A) (A) (A) (A) (A) (A) (A) (A) (A) (A) (A) (A)
                 (A) (A) (A) (A) (A) (A) (A) (A) (A) (A) (A) (A)
                 (A) (A) (A) (A) (A) (A) (A) (A) (A) (A) (A) (A)
                 (A) (A) (A) (A) (A) (A) (A) (A) (A) (A) (A) (A)
                 (A) (A) (A) (A) (A) (A) (A) (A)
    20 initial guesses have been made.
 Convergence on wavefunction:    0.001000000000000
 Davidson Disk Diagonalization:  ConvIn= 1.00D-03 SkipCon=T Conv= 1.00D-03.
 Max sub-space:  2000 roots to seek:    20 dimension of matrix:       370304
 Iteration     1 Dimension    20 NMult     0 NNew     20
 CISAX will form    20 AO SS matrices at one time.
 NMat=    20 NSing=    20 JSym2X= 0.
 FoFJK:  IHMeth= 1 ICntrl=       0 DoSepK=T KAlg= 0 I1Cent=           0 FoldK=F
 IRaf=         1 NMat=      40 IRICut=       1 DoRegI=T DoRafI=F ISym2E= 0 IDoP0=3 IntGTp=3.
 FoFCou: FMM=T IPFlag=           0 FMFlag=      100000 FMFlg1=        2001
         NFxFlg=           0 DoJE=F BraDBF=F KetDBF=F FulRan=T
         wScrn=  0.000000 ICntrl=       500 IOpCl=  0 I1Cent=           0 NGrid=           0
         NMat0=   20 NMatS0=     20 NMatT0=    0 NMatD0=   20 NMtDS0=    0 NMtDT0=    0
 Symmetry not used in FoFCou.
 FMM levels:  10  Number of levels for PrismC:   9
 New state      3 was old state      4
 New state      4 was old state      5
 New state      5 was old state      6
 Excitation Energies [eV] at current iteration:
 Root      1 :     2.261477996958647
 Root      2 :     2.660975755918300
 Root      3 :     3.558223757513077
 Root      4 :     3.905781470145231
 Root      5 :     3.989741896455118
 Root      6 :     4.278605471333673
 Root      7 :     4.357070344301904
 Root      8 :     4.466650625276714
 Root      9 :     4.603287364425281
 Root     10 :     4.659904575577794
 Root     11 :     4.711931488573739
 Root     12 :     4.753374133765277
 Root     13 :     4.993774548044065
 Root     14 :     5.066742769526946
 Root     15 :     5.123043011608565
 Root     16 :     5.265597306290126
 Root     17 :     5.436804443940444
 Root     18 :     5.655970162804714
 Root     19 :     5.914365248081666
 Root     20 :     6.415885494086108
 Iteration     2 Dimension    30 NMult    20 NNew     10
 CISAX will form    10 AO SS matrices at one time.
 NMat=    10 NSing=    10 JSym2X= 0.
 Root      1 not converged, maximum delta is    0.065751532196675
 Root      2 not converged, maximum delta is    0.063450923523925
 Root      3 not converged, maximum delta is    0.066003967032137
 Root      4 not converged, maximum delta is    0.159392123596918
 Root      5 not converged, maximum delta is    0.171899664585456
 Excitation Energies [eV] at current iteration:
 Root      1 :     1.823118264033688   Change is   -0.438359732924959
 Root      2 :     2.253185359856634   Change is   -0.407790396061666
 Root      3 :     3.277710454996365   Change is   -0.280513302516711
 Root      4 :     3.531138794028910   Change is   -0.374642676116321
 Root      5 :     3.629855841135714   Change is   -0.359886055319403
 Iteration     3 Dimension    40 NMult    30 NNew     10
 CISAX will form    10 AO SS matrices at one time.
 NMat=    10 NSing=    10 JSym2X= 0.
 Root      1 not converged, maximum delta is    0.016834533854174
 Root      2 not converged, maximum delta is    0.018890490590175
 Root      3 not converged, maximum delta is    0.030615163363641
 Root      4 not converged, maximum delta is    0.221259143547794
 Root      5 not converged, maximum delta is    0.297461512812744
 Excitation Energies [eV] at current iteration:
 Root      1 :     1.791053365327007   Change is   -0.032064898706681
 Root      2 :     2.229652355604137   Change is   -0.023533004252498
 Root      3 :     3.263518403949294   Change is   -0.014192051047071
 Root      4 :     3.484920765725247   Change is   -0.046218028303662
 Root      5 :     3.537846587223529   Change is   -0.092009253912186
 Iteration     4 Dimension    50 NMult    40 NNew     10
 CISAX will form    10 AO SS matrices at one time.
 NMat=    10 NSing=    10 JSym2X= 0.
 Root      1 not converged, maximum delta is    0.002530210776912
 Root      2 not converged, maximum delta is    0.002191367365911
 Root      3 not converged, maximum delta is    0.006739022766868
 Root      4 not converged, maximum delta is    0.036512840306660
 Root      5 not converged, maximum delta is    0.035884963149929
 Excitation Energies [eV] at current iteration:
 Root      1 :     1.787397915106363   Change is   -0.003655450220644
 Root      2 :     2.227097836781888   Change is   -0.002554518822249
 Root      3 :     3.260502727861725   Change is   -0.003015676087569
 Root      4 :     3.475201464968224   Change is   -0.009719300757024
 Root      5 :     3.529334033425758   Change is   -0.008512553797771
 Iteration     5 Dimension    60 NMult    50 NNew     10
 CISAX will form    10 AO SS matrices at one time.
 NMat=    10 NSing=    10 JSym2X= 0.
 Root      1 not converged, maximum delta is    0.001146005038655
 Root      2 has converged.
 Root      3 not converged, maximum delta is    0.001641848780542
 Root      4 not converged, maximum delta is    0.008257155700033
 Root      5 not converged, maximum delta is    0.005382985560252
 Excitation Energies [eV] at current iteration:
 Root      1 :     1.787078933360074   Change is   -0.000318981746289
 Root      2 :     2.226899841566012   Change is   -0.000197995215875
 Root      3 :     3.260230868853145   Change is   -0.000271859008580
 Root      4 :     3.473948252560233   Change is   -0.001253212407991
 Root      5 :     3.528316228532218   Change is   -0.001017804893540
 Iteration     6 Dimension    68 NMult    60 NNew      8
 CISAX will form     8 AO SS matrices at one time.
 NMat=     8 NSing=     8 JSym2X= 0.
 Root      1 has converged.
 Root      2 has converged.
 Root      3 has converged.
 Root      4 not converged, maximum delta is    0.004757313516687
 Root      5 not converged, maximum delta is    0.003639665887054
 Excitation Energies [eV] at current iteration:
 Root      1 :     1.787050231456299   Change is   -0.000028701903774
 Root      2 :     2.226899517312228   Change is   -0.000000324253784
 Root      3 :     3.260202695689868   Change is   -0.000028173163276
 Root      4 :     3.473689309461661   Change is   -0.000258943098572
 Root      5 :     3.528093680514848   Change is   -0.000222548017370
 Iteration     7 Dimension    72 NMult    68 NNew      4
 CISAX will form     4 AO SS matrices at one time.
 NMat=     4 NSing=     4 JSym2X= 0.
 Root      1 has converged.
 Root      2 has converged.
 Root      3 has converged.
 Root      4 not converged, maximum delta is    0.001653553561370
 Root      5 not converged, maximum delta is    0.004592327188404
 Excitation Energies [eV] at current iteration:
 Root      1 :     1.787050211850335   Change is   -0.000000019605965
 Root      2 :     2.226898228638939   Change is   -0.000001288673289
 Root      3 :     3.260201625741150   Change is   -0.000001069948719
 Root      4 :     3.473648664673784   Change is   -0.000040644787877
 Root      5 :     3.527983082404774   Change is   -0.000110598110074
 Iteration     8 Dimension    76 NMult    72 NNew      4
 CISAX will form     4 AO SS matrices at one time.
 NMat=     4 NSing=     4 JSym2X= 0.
 Root      1 has converged.
 Root      2 has converged.
 Root      3 has converged.
 Root      4 not converged, maximum delta is    0.001137797655498
 Root      5 not converged, maximum delta is    0.004249932861174
 Excitation Energies [eV] at current iteration:
 Root      1 :     1.787050193098486   Change is   -0.000000018751849
 Root      2 :     2.226897492682765   Change is   -0.000000735956174
 Root      3 :     3.260201163129887   Change is   -0.000000462611263
 Root      4 :     3.473638145391186   Change is   -0.000010519282599
 Root      5 :     3.527921143020460   Change is   -0.000061939384315
 Iteration     9 Dimension    80 NMult    76 NNew      4
 CISAX will form     4 AO SS matrices at one time.
 NMat=     4 NSing=     4 JSym2X= 0.
 Root      1 has converged.
 Root      2 has converged.
 Root      3 has converged.
 Root      4 has converged.
 Root      5 not converged, maximum delta is    0.001961481374833
 Excitation Energies [eV] at current iteration:
 Root      1 :     1.787050152043677   Change is   -0.000000041054808
 Root      2 :     2.226896875470806   Change is   -0.000000617211959
 Root      3 :     3.260200797952950   Change is   -0.000000365176937
 Root      4 :     3.473635401741077   Change is   -0.000002743650108
 Root      5 :     3.527898938625377   Change is   -0.000022204395083
 Iteration    10 Dimension    82 NMult    80 NNew      2
 CISAX will form     2 AO SS matrices at one time.
 NMat=     2 NSing=     2 JSym2X= 0.
 Root      1 has converged.
 Root      2 has converged.
 Root      3 has converged.
 Root      4 has converged.
 Root      5 has converged.
 Excitation Energies [eV] at current iteration:
 Root      1 :     1.787050111343220   Change is   -0.000000040700457
 Root      2 :     2.226896794618755   Change is   -0.000000080852050
 Root      3 :     3.260200765351861   Change is   -0.000000032601089
 Root      4 :     3.473635007609638   Change is   -0.000000394131439
 Root      5 :     3.527893279367318   Change is   -0.000005659258059
 Convergence achieved on expansion vectors.
 ***********************************************************************
 Excited states from <AA,BB:AA,BB> singles matrix:
 ***********************************************************************
 
 1PDM for each excited state written to RWF  633
 Ground to excited state transition densities written to RWF  633
 Ground to excited state transition electric dipole moments (Au):
       state          X           Y           Z        Dip. S.      Osc.
         1        -0.6177      2.5887     -1.1227      8.3435      0.3653
         2         1.3535      0.7663      0.3273      2.5263      0.1378
         3        -0.2781     -0.1825     -0.0659      0.1150      0.0092
         4         0.3129     -0.0627      0.1380      0.1209      0.0103
         5         0.8699      0.1483      0.2417      0.8371      0.0724
 Ground to excited state transition velocity dipole moments (Au):
       state          X           Y           Z        Dip. S.      Osc.
         1         0.0385     -0.1643      0.0720      0.0337      0.3417
         2        -0.1056     -0.0591     -0.0254      0.0153      0.1247
         3         0.0356      0.0208      0.0093      0.0018      0.0099
         4        -0.0388      0.0071     -0.0134      0.0017      0.0091
         5        -0.1077     -0.0202     -0.0305      0.0129      0.0665
 Ground to excited state transition magnetic dipole moments (Au):
       state          X           Y           Z
         1         0.0141     -0.7828     -1.7449
         2        -0.2606      0.4427      0.0603
         3        -0.2942     -0.0902      0.8308
         4         0.3344     -0.5599     -0.2983
         5         0.2048      0.5370     -0.6669
 Ground to excited state transition velocity quadrupole moments (Au):
       state          XX          YY          ZZ          XY          XZ          YZ
         1         0.8910     -0.4697      0.0051     -1.7386      0.8164      0.1344
         2        -2.1529      0.0212     -0.0014     -0.6779     -0.2803     -0.0023
         3         0.7916     -0.2497      0.0724     -0.0097      0.1905     -0.0564
         4        -0.8446      0.3013      0.0190      0.0638     -0.1288     -0.0436
         5        -2.1789      0.2443     -0.0256     -0.3322     -0.3458     -0.0886
 <0|del|b> * <b|rxdel|0> + <0|del|b> * <b|delr+rdel|0>
 Rotatory Strengths (R) in cgs (10**-40 erg-esu-cm/Gauss)
       state          XX          YY          ZZ    R(velocity)    E-M Angle
         1        65.2082     28.3063    -54.5831     12.9771       89.41
         2      -117.0705     39.1164     76.4127     -0.5138       90.16
         3         5.3280    -13.7307    -18.8282     -9.0770       97.07
         4         0.1548    -17.8074    -54.2278    -23.9601      115.76
         5        34.4494     -6.3248    -96.7240    -22.8665       97.21
 1/2[<0|r|b>*<b|rxdel|0> + (<0|rxdel|b>*<b|r|0>)*]
 Rotatory Strengths (R) in cgs (10**-40 erg-esu-cm/Gauss)
       state          XX          YY          ZZ     R(length)
         1         6.1491   1433.1053  -1385.3610     17.9645
         2       249.4656   -239.9232    -13.9638     -1.4738
         3       -57.8582    -11.6335     38.7354    -10.2521
         4       -73.9876    -24.8370     29.1173    -23.2358
         5      -125.9856    -56.3015    113.9601    -22.7757
  1/2[<0|del|b>*<b|r|0> + (<0|r|b>*<b|del|0>)*] (Au)
       state          X           Y           Z        Dip. S.   Osc.(frdel)
         1        -0.0238     -0.4254     -0.0808      0.5299      0.3533
         2        -0.1430     -0.0453     -0.0083      0.1966      0.1311
         3        -0.0099     -0.0038     -0.0006      0.0143      0.0095
         4        -0.0121     -0.0004     -0.0018      0.0144      0.0096
         5        -0.0937     -0.0030     -0.0074      0.1041      0.0694

 Excitation energies and oscillator strengths:
 
 Excited State   1:      Singlet-A      1.7871 eV  693.79 nm  f=0.3653  <S**2>=0.000
     245 -> 248        0.19524
     246 -> 247        0.68134
     245 <- 248        0.10963
 This state for optimization and/or second-order correction.
 Total Energy, E(TD-HF/TD-DFT) =  -3007.10517005    
 Copying the excited state density for this state as the 1-particle RhoCI density.
 
 Excited State   2:      Singlet-A      2.2269 eV  556.76 nm  f=0.1378  <S**2>=0.000
     245 -> 247        0.64683
     246 -> 248       -0.27188
 
 Excited State   3:      Singlet-A      3.2602 eV  380.30 nm  f=0.0092  <S**2>=0.000
     242 -> 247       -0.13647
     244 -> 247        0.67553
 
[...]
 Alpha virt. eigenvalues --    1.20245   1.20684   1.21079   1.21561   1.22350
 Alpha virt. eigenvalues --    1.22899   1.23118   1.23742   1.24012   1.24608
 Alpha virt. eigenvalues --    1.25658   1.25755   1.26156   1.26255   1.26600
 Alpha virt. eigenvalues --    1.26979   1.28215   1.28764   1.29078   1.29237
 Alpha virt. eigenvalues --    1.30097   1.30614   1.30832   1.31090   1.31802
 Alpha virt. eigenvalues --    1.32229   1.32514   1.32921   1.33190   1.33826
 Alpha virt. eigenvalues --    1.33979   1.34894   1.35756   1.36019   1.36315
 Alpha virt. eigenvalues --    1.37037   1.37238   1.37627   1.37780   1.38503
 Alpha virt. eigenvalues --    1.39229   1.39349   1.39669   1.40107   1.40208
 Alpha virt. eigenvalues --    1.40523   1.40708   1.41874   1.42051   1.42460
 Alpha virt. eigenvalues --    1.42853   1.43042   1.43117   1.43393   1.43500
 Alpha virt. eigenvalues --    1.44171   1.44975   1.45066   1.45251   1.45389
 Alpha virt. eigenvalues --    1.46088   1.46449   1.46723   1.46984   1.48038
 Alpha virt. eigenvalues --    1.48111   1.48686   1.49701   1.50144   1.50275
 Alpha virt. eigenvalues --    1.50653   1.50855   1.52197   1.53224   1.53362
 Alpha virt. eigenvalues --    1.53600   1.53665   1.54299   1.55567   1.55601
 Alpha virt. eigenvalues --    1.56225   1.56449   1.57238   1.57494   1.57667
 Alpha virt. eigenvalues --    1.57880   1.58275   1.58393   1.58962   1.59126
 Alpha virt. eigenvalues --    1.59208   1.59399   1.59521   1.59726   1.59865
 Alpha virt. eigenvalues --    1.60060   1.60697   1.60734   1.60861   1.61185
 Alpha virt. eigenvalues --    1.61536   1.61782   1.62117   1.62589   1.62632
 Alpha virt. eigenvalues --    1.62803   1.63203   1.63296   1.63642   1.63870
 Alpha virt. eigenvalues --    1.63912   1.64079   1.64526   1.64798   1.65290
 Alpha virt. eigenvalues --    1.65445   1.65815   1.65838   1.66009   1.66457
 Alpha virt. eigenvalues --    1.67241   1.68097   1.68391   1.68926   1.69363
 Alpha virt. eigenvalues --    1.70283   1.70793   1.71246   1.71551   1.72210
 Alpha virt. eigenvalues --    1.72970   1.73121   1.73845   1.74177   1.74251
 Alpha virt. eigenvalues --    1.74502   1.74740   1.74787   1.75494   1.75946
 Alpha virt. eigenvalues --    1.76062   1.76253   1.77480   1.77617   1.77788
 Alpha virt. eigenvalues --    1.78008   1.78708   1.78819   1.79085   1.79306
 Alpha virt. eigenvalues --    1.79687   1.79732   1.80075   1.80226   1.80296
 Alpha virt. eigenvalues --    1.80745   1.81254   1.81343   1.81660   1.81853
 Alpha virt. eigenvalues --    1.81999   1.82034   1.82437   1.82452   1.83153
 Alpha virt. eigenvalues --    1.83192   1.83518   1.83635   1.83702   1.84099
 Alpha virt. eigenvalues --    1.84230   1.84255   1.84389   1.84704   1.84925
 Alpha virt. eigenvalues --    1.84993   1.85281   1.85608   1.86117   1.86147
 Alpha virt. eigenvalues --    1.86281   1.86443   1.86487   1.86638   1.87036
 Alpha virt. eigenvalues --    1.87103   1.87195   1.87307   1.87629   1.87830
 Alpha virt. eigenvalues --    1.88101   1.88124   1.88336   1.88987   1.89246
 Alpha virt. eigenvalues --    1.89331   1.89376   1.89666   1.89803   1.90147
 Alpha virt. eigenvalues --    1.90385   1.90663   1.90744   1.90889   1.90958
 Alpha virt. eigenvalues --    1.91243   1.91445   1.91582   1.91796   1.91932
 Alpha virt. eigenvalues --    1.92225   1.92447   1.92619   1.92757   1.93426
 Alpha virt. eigenvalues --    1.93469   1.93933   1.93982   1.94069   1.94258
 Alpha virt. eigenvalues --    1.94785   1.95103   1.95306   1.95378   1.95473
 Alpha virt. eigenvalues --    1.95784   1.95854   1.96046   1.96458   1.96871
 Alpha virt. eigenvalues --    1.97021   1.97412   1.97575   1.98172   1.98381
 Alpha virt. eigenvalues --    1.98840   1.98998   1.99138   1.99325   1.99523
 Alpha virt. eigenvalues --    1.99694   1.99727   2.00475   2.00713   2.00741
 Alpha virt. eigenvalues --    2.01110   2.01510   2.01733   2.01878   2.01935
 Alpha virt. eigenvalues --    2.02733   2.02753   2.03241   2.03286   2.03697
 Alpha virt. eigenvalues --    2.03800   2.03852   2.04158   2.04207   2.04539
 Alpha virt. eigenvalues --    2.04849   2.05346   2.05462   2.05618   2.05793
 Alpha virt. eigenvalues --    2.05961   2.06539   2.07130   2.07346   2.07699
 Alpha virt. eigenvalues --    2.08130   2.08430   2.08882   2.09044   2.09306
 Alpha virt. eigenvalues --    2.09654   2.10028   2.10184   2.10308   2.10707
 Alpha virt. eigenvalues --    2.10863   2.11496   2.11716   2.11987   2.12174
 Alpha virt. eigenvalues --    2.12442   2.12974   2.13121   2.13405   2.14018
 Alpha virt. eigenvalues --    2.14068   2.14271   2.14621   2.14732   2.14875
 Alpha virt. eigenvalues --    2.15171   2.15487   2.15634   2.16001   2.16190
 Alpha virt. eigenvalues --    2.16215   2.16734   2.17262   2.17890   2.18076
 Alpha virt. eigenvalues --    2.18194   2.18410   2.19073   2.19499   2.20013
 Alpha virt. eigenvalues --    2.20637   2.20734   2.21326   2.21902   2.21987
 Alpha virt. eigenvalues --    2.22115   2.22255   2.23166   2.23558   2.23666
 Alpha virt. eigenvalues --    2.23926   2.24139   2.24623   2.24809   2.25289
 Alpha virt. eigenvalues --    2.25410   2.25959   2.26393   2.26800   2.27136
 Alpha virt. eigenvalues --    2.27526   2.27990   2.29067   2.29483   2.30035
 Alpha virt. eigenvalues --    2.30293   2.31127   2.31208   2.31591   2.32414
 Alpha virt. eigenvalues --    2.32708   2.33132   2.33470   2.34225   2.34491
 Alpha virt. eigenvalues --    2.34982   2.35130   2.35230   2.35326   2.35988
 Alpha virt. eigenvalues --    2.36322   2.36613   2.36761   2.36981   2.37289
 Alpha virt. eigenvalues --    2.37663   2.38608   2.38653   2.38806   2.39436
 Alpha virt. eigenvalues --    2.39646   2.39869   2.39910   2.40598   2.40970
 Alpha virt. eigenvalues --    2.41199   2.41279   2.41585   2.42223   2.42324
 Alpha virt. eigenvalues --    2.42666   2.42819   2.43243   2.43503   2.43588
 Alpha virt. eigenvalues --    2.44001   2.45033   2.45641   2.46036   2.46122
 Alpha virt. eigenvalues --    2.46271   2.46517   2.46925   2.47535   2.47773
 Alpha virt. eigenvalues --    2.48237   2.48290   2.48843   2.49209   2.50246
 Alpha virt. eigenvalues --    2.50551   2.51535   2.51906   2.52019   2.52058
 Alpha virt. eigenvalues --    2.52162   2.53092   2.53262   2.53405   2.53815
 Alpha virt. eigenvalues --    2.54079   2.54782   2.55084   2.55112   2.55987
 Alpha virt. eigenvalues --    2.56621   2.57221   2.57489   2.57739   2.57914
 Alpha virt. eigenvalues --    2.58388   2.58723   2.59217   2.59385   2.60744
 Alpha virt. eigenvalues --    2.60835   2.61127   2.61658   2.62523   2.62813
 Alpha virt. eigenvalues --    2.62965   2.63422   2.63755   2.64340   2.65202
 Alpha virt. eigenvalues --    2.65639   2.65999   2.66114   2.66284   2.66470
 Alpha virt. eigenvalues --    2.66691   2.67613   2.67704   2.67900   2.68812
 Alpha virt. eigenvalues --    2.69304   2.69503   2.69900   2.70436   2.70574
 Alpha virt. eigenvalues --    2.71391   2.71489   2.71835   2.72325   2.72519
 Alpha virt. eigenvalues --    2.72878   2.73027   2.73316   2.73828   2.74144
 Alpha virt. eigenvalues --    2.74186   2.75755   2.76165   2.76515   2.76884
 Alpha virt. eigenvalues --    2.77333   2.77807   2.78912   2.78998   2.79909
 Alpha virt. eigenvalues --    2.79946   2.80149   2.80432   2.80774   2.81121
 Alpha virt. eigenvalues --    2.81252   2.81719   2.82187   2.82309   2.82724
 Alpha virt. eigenvalues --    2.83574   2.83659   2.83996   2.84233   2.84342
 Alpha virt. eigenvalues --    2.84700   2.85369   2.86129   2.86772   2.87204
 Alpha virt. eigenvalues --    2.87536   2.87906   2.88461   2.88505   2.88988
 Alpha virt. eigenvalues --    2.89185   2.89720   2.90244   2.90503   2.91644
 Alpha virt. eigenvalues --    2.92138   2.93238   2.93674   2.94248   2.95007
 Alpha virt. eigenvalues --    2.95373   2.95859   2.96355   2.96656   2.97235
 Alpha virt. eigenvalues --    2.97753   2.98149   2.98392   2.98417   2.98486
 Alpha virt. eigenvalues --    2.98733   2.99245   2.99492   2.99824   3.00691
 Alpha virt. eigenvalues --    3.00709   3.00851   3.01389   3.01520   3.01750
 Alpha virt. eigenvalues --    3.01809   3.01990   3.02280   3.02511   3.02710
 Alpha virt. eigenvalues --    3.03108   3.03339   3.03514   3.03944   3.04449
 Alpha virt. eigenvalues --    3.04563   3.05089   3.05286   3.05478   3.05806
 Alpha virt. eigenvalues --    3.06208   3.06219   3.06605   3.06717   3.07139
 Alpha virt. eigenvalues --    3.07501   3.07894   3.08577   3.08911   3.09330
 Alpha virt. eigenvalues --    3.09842   3.10258   3.10538   3.10936   3.11085
 Alpha virt. eigenvalues --    3.11176   3.12634   3.12809   3.12946   3.13580
 Alpha virt. eigenvalues --    3.13888   3.13933   3.14776   3.15154   3.15367
 Alpha virt. eigenvalues --    3.15533   3.15765   3.15950   3.18031   3.19359
 Alpha virt. eigenvalues --    3.19892   3.19948   3.21070   3.21373   3.21851
 Alpha virt. eigenvalues --    3.22615   3.24044   3.24201   3.24316   3.26639
 Alpha virt. eigenvalues --    3.26718   3.27830   3.29530   3.29880   3.31184
 Alpha virt. eigenvalues --    3.34251   3.35572   3.44134   3.46397   3.48736
 Alpha virt. eigenvalues --    3.50233   3.50930   3.52161   3.56501   3.58292
 Alpha virt. eigenvalues --    3.64196   3.65882   3.68183   3.68758   3.72543
 Alpha virt. eigenvalues --    3.75438   3.78749
          Condensed to atoms (all electrons):
 Mulliken charges:
               1
     1  Mg   0.820646
     2  C    0.009984
     3  C   -0.064112
     4  C   -0.059306
     5  C   -0.088656
     6  N   -0.250465
     7  C   -0.079859
     8  C   -0.047424
     9  C   -0.048092
    10  C   -0.009304
    11  C    0.067969
    12  C    0.089071
    13  C    0.031622
    14  C    0.152754
    15  O   -0.258084
    16  O   -0.332429
    17  N   -0.387574
    18  C    0.185282
    19  C   -0.136298
    20  C   -0.063475
    21  C    0.148607
    22  C    0.129641
    23  C    0.036442
    24  O   -0.200431
    25  C    0.040042
    26  N   -0.230242
    27  C   -0.026073
    28  C   -0.019315
    29  C    0.022882
    30  C    0.049607
    31  C    0.065707
    32  C    0.060995
    33  C   -0.015792
    34  N   -0.418721
    35  C    0.101755
    36  C   -0.198611
    37  C    0.040916
    38  C    0.129583
    39  C    0.133720
    40  C   -0.048773
    41  O   -0.189919
    42  C    0.043527
    43  C    0.152338
    44  O   -0.167576
    45  O   -0.315369
    46  C    0.171511
    47  C    0.277484
    48  C   -0.106865
    49  C   -0.178399
    50  C    0.076765
    51  C    0.111516
    52  C    0.034503
    53  C   -0.003029
    54  C   -0.119759
    55  C    0.083944
    56  C    0.051184
    57  C    0.033274
    58  C    0.054226
    59  C   -0.139562
    60  C    0.046802
    61  C    0.045683
    62  C    0.015136
    63  C    0.050960
    64  C   -0.168037
    65  C    0.051575
    66  C    0.072845
    67  H   -0.035817
    68  H   -0.010282
    69  H   -0.023067
    70  H    0.022728
    71  H    0.018024
    72  H    0.022778
    73  H    0.024806
    74  H    0.014237
    75  H    0.030564
    76  H    0.006535
    77  H    0.055026
    78  H    0.032529
    79  H    0.017556
    80  H    0.028153
    81  H    0.026969
    82  H    0.041199
    83  H    0.031418
    84  H    0.031271
    85  H    0.011738
    86  H   -0.001954
    87  H    0.015060
    88  H    0.016336
    89  H    0.030456
    90  H    0.004922
    91  H   -0.000857
    92  H    0.019537
    93  H    0.004126
    94  H    0.009369
    95  H    0.044261
    96  H    0.011245
    97  H    0.032091
    98  H    0.029357
    99  H    0.029004
   100  H    0.033537
   101  H    0.042199
   102  H    0.039568
   103  H    0.026129
   104  H    0.017882
   105  H    0.025828
   106  H    0.006287
   107  H    0.030435
   108  H    0.007296
   109  H   -0.015555
   110  H    0.002547
   111  H   -0.016559
   112  H   -0.027010
   113  H   -0.010566
   114  H   -0.013460
   115  H    0.010280
   116  H   -0.000939
   117  H   -0.004630
   118  H   -0.020377
   119  H   -0.004396
   120  H    0.013826
   121  H    0.010008
   122  H   -0.008445
   123  H   -0.010796
   124  H   -0.005914
   125  H   -0.017629
   126  H   -0.001324
   127  H    0.018431
   128  H   -0.016390
   129  H   -0.004699
   130  H   -0.025266
   131  H   -0.012938
   132  H    0.001592
   133  H   -0.003777
   134  H   -0.002069
   135  H    0.007830
   136  H    0.002435
   137  H   -0.003291
   138  H    0.013738
   139  H    0.009927
   140  H   -0.002004
 Sum of Mulliken charges =  -0.00000
 Mulliken charges with hydrogens summed into heavy atoms:
               1
     1  Mg   0.820646
     2  C    0.009984
     3  C   -0.099929
     4  C   -0.069588
     5  C   -0.111723
     6  N   -0.250465
     7  C   -0.079859
     8  C   -0.024696
     9  C   -0.030069
    10  C   -0.009304
    11  C    0.129790
    12  C    0.126170
    13  C    0.119177
    14  C    0.152754
    15  O   -0.258084
    16  O   -0.332429
    17  N   -0.387574
    18  C    0.185282
    19  C   -0.136298
    20  C   -0.063475
    21  C    0.148607
    22  C    0.202319
    23  C    0.036442
    24  O   -0.200431
    25  C    0.143930
    26  N   -0.230242
    27  C   -0.026073
    28  C   -0.007577
    29  C    0.020928
    30  C    0.049607
    31  C    0.127560
    32  C    0.065060
    33  C    0.017239
    34  N   -0.418721
    35  C    0.101755
    36  C   -0.198611
    37  C    0.040916
    38  C    0.129583
    39  C    0.221317
    40  C   -0.048773
    41  O   -0.189919
    42  C    0.072883
    43  C    0.152338
    44  O   -0.167576
    45  O   -0.315369
    46  C    0.276252
    47  C    0.343180
    48  C   -0.088984
    49  C   -0.178399
    50  C    0.139315
    51  C    0.103257
    52  C    0.020490
    53  C   -0.040605
    54  C   -0.133219
    55  C    0.088655
    56  C    0.026411
    57  C    0.057108
    58  C    0.034985
    59  C   -0.145477
    60  C    0.046280
    61  C    0.024593
    62  C   -0.023068
    63  C    0.048775
    64  C   -0.170106
    65  C    0.058549
    66  C    0.094506
 Electronic spatial extent (au):  <R**2>=         134139.1788
 Charge=             -0.0000 electrons
 Dipole moment (field-independent basis, Debye):
    X=             -4.3730    Y=              2.3905    Z=             -2.4531  Tot=              5.5548
 Quadrupole moment (field-independent basis, Debye-Ang):
   XX=           -404.8811   YY=           -411.1220   ZZ=           -398.4839
   XY=             30.7634   XZ=              6.8275   YZ=             -0.4867
 Traceless Quadrupole moment (field-independent basis, Debye-Ang):
   XX=             -0.0521   YY=             -6.2930   ZZ=              6.3451
   XY=             30.7634   XZ=              6.8275   YZ=             -0.4867
 Octapole moment (field-independent basis, Debye-Ang**2):
  XXX=            272.7535  YYY=             26.9201  ZZZ=            -12.4059  XYY=           -290.0418
  XXY=            -33.2501  XXZ=             89.3174  XZZ=             33.6517  YZZ=             24.4240
  YYZ=           -129.3844  XYZ=             10.0406
 Hexadecapole moment (field-independent basis, Debye-Ang**3):
 XXXX=        -152694.4546 YYYY=         -26092.9920 ZZZZ=          -6384.9438 XXXY=            373.0342
 XXXZ=           1349.3299 YYYX=            814.8917 YYYZ=            214.5923 ZZZX=           -120.9265
 ZZZY=            -59.5198 XXYY=         -31855.0052 XXZZ=         -26549.6280 YYZZ=          -5231.6830
 XXYZ=            125.0832 YYXZ=           -393.1097 ZZXY=            201.0109
 N-N= 9.394250603475D+03 E-N=-2.578148641128D+04  KE= 2.976622927843D+03
 Leave Link  601 at Wed Apr 27 15:15:50 2022, MaxMem= 10066329600 cpu:              15.4 elap:               0.7
 (Enter /sw/apps/gaussian-16.0/g16/l9999.exe)
 1\1\GINC-BP1-COMPUTE142\SP\RCAM-B3LYP TD-FC\def2SVP\C55H74Mg1N4O6\OF15
 641\27-Apr-2022\0\\#p cam-b3lyp/Def2SVP td=(nstates=5)\\step_1251_chro
 mophore_10 TDDFT with cam-b3lyp functional\\0,1\Mg,0,40.915,8.165,29.6
 91\C,0,42.681,9.646,32.282\C,0,38.741,6.823,31.972\C,0,39.436,6.466,27
 .148\C,0,43.362,9.286,27.349\N,0,40.752,8.292,31.921\C,0,41.518,8.997,
 32.74\C,0,41.042,8.991,34.178\C,0,39.879,7.909,34.105\C,0,39.754,7.625
 ,32.595\C,0,40.098,6.683,35.061\C,0,40.485,10.377,34.593\C,0,41.084,10
 .894,35.889\C,0,39.997,11.185,36.934\O,0,38.781,11.426,36.769\O,0,40.5
 39,11.244,38.158\N,0,39.206,6.944,29.543\C,0,38.464,6.454,30.635\C,0,3
 7.363,5.637,30.103\C,0,37.538,5.637,28.693\C,0,38.8,6.337,28.407\C,0,3
 6.358,4.911,30.979\C,0,36.718,4.819,27.608\O,0,37.008,4.864,26.416\C,0
 ,35.475,4.084,28.022\N,0,41.348,7.846,27.56\C,0,40.567,7.205,26.742\C,
 0,41.096,7.106,25.342\C,0,42.268,8.098,25.414\C,0,42.334,8.49,26.851\C
 ,0,41.411,5.602,25.002\C,0,42.232,9.239,24.447\C,0,41.137,10.201,24.65
 5\N,0,42.553,9.328,29.71\C,0,43.406,9.76,28.692\C,0,44.45,10.543,29.25
 9\C,0,44.166,10.482,30.662\C,0,43.082,9.71,30.912\C,0,45.59,11.329,28.
 562\C,0,44.594,11.005,31.9\O,0,45.583,11.712,32.052\C,0,43.722,10.522,
 32.962\C,0,44.584,9.767,33.939\O,0,44.751,8.605,33.901\O,0,44.926,10.5
 ,35.016\C,0,45.134,9.887,36.306\C,0,39.977,12.106,39.221\C,0,38.872,11
 .32,39.929\C,0,38.575,11.401,41.263\C,0,39.168,12.323,42.359\C,0,37.58
 1,10.423,41.842\C,0,36.29,10.958,42.377\C,0,36.027,10.598,43.77\C,0,34
 .986,11.452,44.451\C,0,35.064,11.338,45.97\C,0,33.633,11.059,43.937\C,
 0,32.703,12.329,43.673\C,0,32.384,12.525,42.173\C,0,30.92,12.53,41.903
 \C,0,30.603,12.748,40.396\C,0,30.309,13.765,42.682\C,0,29.046,13.491,4
 3.461\C,0,29.069,13.476,44.981\C,0,28.008,14.492,45.604\C,0,28.524,15.
 036,46.886\C,0,26.591,13.903,45.697\H,0,38.195,6.383,32.809\H,0,39.063
 ,5.87,26.312\H,0,44.152,9.697,26.717\H,0,41.876,8.566,34.736\H,0,38.98
 5,8.437,34.436\H,0,40.516,5.843,34.507\H,0,39.163,6.418,35.555\H,0,40.
 856,6.919,35.808\H,0,39.397,10.444,34.581\H,0,40.706,11.123,33.83\H,0,
 41.673,11.8,35.739\H,0,41.754,10.144,36.309\H,0,35.368,5.215,30.638\H,
 0,36.355,5.106,32.052\H,0,36.402,3.848,30.742\H,0,35.771,3.199,28.585\
 H,0,34.863,3.863,27.148\H,0,34.781,4.67,28.625\H,0,40.352,7.475,24.636
 \H,0,43.192,7.553,25.217\H,0,41.333,5.03,25.926\H,0,42.447,5.524,24.67
 2\H,0,40.683,5.041,24.416\H,0,42.084,8.96,23.404\H,0,43.194,9.741,24.5
 44\H,0,40.396,10.096,23.863\H,0,41.415,11.249,24.77\H,0,40.692,10.17,2
 5.65\H,0,45.754,12.175,29.229\H,0,45.276,11.621,27.56\H,0,46.461,10.67
 8,28.494\H,0,43.369,11.363,33.558\H,0,44.989,8.81,36.394\H,0,44.371,10
 .317,36.955\H,0,46.154,9.986,36.675\H,0,39.668,13.057,38.789\H,0,40.76
 5,12.296,39.951\H,0,38.494,10.489,39.334\H,0,38.356,12.681,42.991\H,0,
 39.691,13.182,41.94\H,0,39.939,11.798,42.923\H,0,38.134,9.801,42.547\H
 ,0,37.271,9.783,41.017\H,0,35.405,10.798,41.761\H,0,36.392,12.038,42.4
 88\H,0,37.005,10.731,44.231\H,0,35.804,9.538,43.888\H,0,35.257,12.473,
 44.182\H,0,34.08,11.49,46.414\H,0,35.846,11.969,46.392\H,0,35.447,10.3
 52,46.233\H,0,33.106,10.48,44.696\H,0,33.721,10.349,43.115\H,0,33.188,
 13.186,44.14\H,0,31.783,12.02,44.168\H,0,32.764,11.747,41.51\H,0,32.72
 4,13.464,41.737\H,0,30.44,11.596,42.195\H,0,31.324,12.21,39.781\H,0,30
 .9,13.722,40.006\H,0,29.612,12.47,40.036\H,0,30.037,14.434,41.866\H,0,
 30.992,14.298,43.343\H,0,28.731,12.51,43.104\H,0,28.282,14.16,43.067\H
 ,0,30.07,13.699,45.351\H,0,28.747,12.454,45.183\H,0,27.988,15.335,44.9
 15\H,0,28.49,16.116,46.744\H,0,29.521,14.681,47.149\H,0,27.962,14.824,
 47.796\H,0,25.886,14.518,45.139\H,0,26.374,13.753,46.755\H,0,26.564,12
 .927,45.212\\Version=ES64L-G16RevA.03\State=1-A\HF=-3007.1708429\RMSD=
 7.807e-09\PG=C01 [X(C55H74Mg1N4O6)]\\@


 YOU KNOW YOU'RE A TEACHER WHEN YOU SAY 2, WRITE 3, AND MEAN 4.
 -- RONALD ANSTROM, HIGH SCHOOL TEACHER, UNDERWOOD, N.D. 1974
 Job cpu time:       0 days  9 hours 24 minutes  4.6 seconds.
 Elapsed time:       0 days  0 hours 23 minutes 58.0 seconds.
 File lengths (MBytes):  RWF=   8929 Int=      0 D2E=      0 Chk=    390 Scr=      1
 Normal termination of Gaussian 16 at Wed Apr 27 15:15:51 2022.
