 Entering Gaussian System, Link 0=g16
 Initial command:
 /sw/apps/gaussian-16.0/g16/l1.exe "/tmp/Gau-18571.inp" -scrdir="/tmp/"
 Entering Link 1 = /sw/apps/gaussian-16.0/g16/l1.exe PID=     18572.
  
 Copyright (c) 1988,1990,1992,1993,1995,1998,2003,2009,2016,
            Gaussian, Inc.  All Rights Reserved.
  
 This is part of the Gaussian(R) 16 program.  It is based on
 the Gaussian(R) 09 system (copyright 2009, Gaussian, Inc.),
 the Gaussian(R) 03 system (copyright 2003, Gaussian, Inc.),
 the Gaussian(R) 98 system (copyright 1998, Gaussian, Inc.),
 the Gaussian(R) 94 system (copyright 1995, Gaussian, Inc.),
 the Gaussian 92(TM) system (copyright 1992, Gaussian, Inc.),
 the Gaussian 90(TM) system (copyright 1990, Gaussian, Inc.),
 the Gaussian 88(TM) system (copyright 1988, Gaussian, Inc.),
 the Gaussian 86(TM) system (copyright 1986, Carnegie Mellon
 University), and the Gaussian 82(TM) system (copyright 1983,
 Carnegie Mellon University). Gaussian is a federally registered
 trademark of Gaussian, Inc.
  
 This software contains proprietary and confidential information,
 including trade secrets, belonging to Gaussian, Inc.
  
 This software is provided under written license and may be
 used, copied, transmitted, or stored only in accord with that
 written license.
  
 The following legend is applicable only to US Government
 contracts under FAR:
  
                    RESTRICTED RIGHTS LEGEND
  
 Use, reproduction and disclosure by the US Government is
 subject to restrictions as set forth in subparagraphs (a)
 and (c) of the Commercial Computer Software - Restricted
 Rights clause in FAR 52.227-19.
  
 Gaussian, Inc.
 340 Quinnipiac St., Bldg. 40, Wallingford CT 06492
  
  
 ---------------------------------------------------------------
 Warning -- This program may not be used in any manner that
 competes with the business of Gaussian, Inc. or will provide
 assistance to any competitor of Gaussian, Inc.  The licensee
 of this program is prohibited from giving any competitor of
 Gaussian, Inc. access to this program.  By using this program,
 the user acknowledges that Gaussian, Inc. is engaged in the
 business of creating and licensing software in the field of
 computational chemistry and represents and warrants to the
 licensee that it is not a competitor of Gaussian, Inc. and that
 it will not use this program in any manner prohibited above.
 ---------------------------------------------------------------
  

 Cite this work as:
 Gaussian 16, Revision A.03,
 M. J. Frisch, G. W. Trucks, H. B. Schlegel, G. E. Scuseria, 
 M. A. Robb, J. R. Cheeseman, G. Scalmani, V. Barone, 
 G. A. Petersson, H. Nakatsuji, X. Li, M. Caricato, A. V. Marenich, 
 J. Bloino, B. G. Janesko, R. Gomperts, B. Mennucci, H. P. Hratchian, 
 J. V. Ortiz, A. F. Izmaylov, J. L. Sonnenberg, D. Williams-Young, 
 F. Ding, F. Lipparini, F. Egidi, J. Goings, B. Peng, A. Petrone, 
 T. Henderson, D. Ranasinghe, V. G. Zakrzewski, J. Gao, N. Rega, 
 G. Zheng, W. Liang, M. Hada, M. Ehara, K. Toyota, R. Fukuda, 
 J. Hasegawa, M. Ishida, T. Nakajima, Y. Honda, O. Kitao, H. Nakai, 
 T. Vreven, K. Throssell, J. A. Montgomery, Jr., J. E. Peralta, 
 F. Ogliaro, M. J. Bearpark, J. J. Heyd, E. N. Brothers, K. N. Kudin, 
 V. N. Staroverov, T. A. Keith, R. Kobayashi, J. Normand, 
 K. Raghavachari, A. P. Rendell, J. C. Burant, S. S. Iyengar, 
 J. Tomasi, M. Cossi, J. M. Millam, M. Klene, C. Adamo, R. Cammi, 
 J. W. Ochterski, R. L. Martin, K. Morokuma, O. Farkas, 
 J. B. Foresman, and D. J. Fox, Gaussian, Inc., Wallingford CT, 2016.
 
 ******************************************
 Gaussian 16:  ES64L-G16RevA.03 25-Dec-2016
                 4-May-2022 
 ******************************************
 %nproc=24
 Will use up to   24 processors via shared memory.
 %mem=75GB
 -----------------------------------
 #p cam-b3lyp/Def2SVP td=(nstates=5)
 -----------------------------------
 1/38=1,172=1/1;
 2/12=2,17=6,18=5,40=1/2;
 3/5=43,7=101,11=9,25=1,30=1,74=-40/1,2,3,8;
 4//1;
 5/5=2,38=5/2;
 8/6=1,10=1,108=5/1;
 9/41=5,42=1,70=2/14;
 6/7=2,8=2,9=2,10=2/1;
 99/5=1,9=1/99;
 Leave Link    1 at Wed May  4 04:58:37 2022, MaxMem= 10066329600 cpu:               0.5 elap:               0.0
 (Enter /sw/apps/gaussian-16.0/g16/l101.exe)
 --------------------------------------------------------
 step_1401_chromophore_24 TDDFT with cam-b3lyp functional
 --------------------------------------------------------
 Symbolic Z-matrix:
 Charge =  0 Multiplicity = 1
 Mg                    0.177     43.474    25.517 
 C                     2.374     43.055    28.226 
 C                    -2.514     42.911    27.703 
 C                    -2.016     43.361    22.988 
 C                     2.819     43.929    23.403 
 N                     0.035     43.093    27.644 
 C                     0.985     43.1      28.569 
 C                     0.437     42.977    30.007 
 C                    -0.995     42.549    29.767 
 C                    -1.191     42.94     28.309 
 C                    -1.318     41.028    30.013 
 C                     0.446     44.295    30.875 
 C                    -0.141     44.228    32.32 
 C                    -0.145     42.749    32.933 
 O                     0.85      42.118    33.292 
 O                    -1.464     42.279    33.062 
 N                    -1.983     43.078    25.357 
 C                    -2.884     42.876    26.379 
 C                    -4.255     42.786    25.863 
 C                    -4.129     42.87     24.446 
 C                    -2.693     43.096    24.184 
 C                    -5.432     42.479    26.721 
 C                    -5.221     42.756    23.438 
 O                    -5.004     43.006    22.266 
 C                    -6.635     42.416    23.86 
 N                     0.375     43.545    23.503 
 C                    -0.7       43.522    22.664 
 C                    -0.125     43.556    21.264 
 C                     1.313     43.975    21.382 
 C                     1.538     43.735    22.839 
 C                    -0.364     42.121    20.648 
 C                     1.631     45.42     20.939 
 C                     1.018     46.588    21.717 
 N                     2.213     43.448    25.729 
 C                     3.204     43.702    24.782 
 C                     4.557     43.462    25.403 
 C                     4.218     43.294    26.763 
 C                     2.793     43.361    26.902 
 C                     5.899     43.314    24.792 
 C                     4.764     42.993    28.028 
 O                     5.941     42.713    28.377 
 C                     3.661     43.043    29.052 
 C                     3.656     41.869    29.893 
 O                     3.596     40.712    29.519 
 O                     3.933     42.345    31.157 
 C                     4.237     41.274    32.099 
 C                    -1.541     40.988    33.886 
 C                    -2.774     41.147    34.769 
 C                    -2.838     41.882    35.922 
 C                    -1.7       42.868    36.27 
 C                    -4.181     42.163    36.571 
 C                    -4.946     43.4      36.037 
 C                    -6.282     43.012    35.37 
 C                    -7.521     43.095    36.324 
 C                    -8.192     44.481    36.192 
 C                    -8.589     42.023    36.092 
 C                    -8.839     41.11     37.27 
 C                    -9.815     41.794    38.228 
 C                    -11.297    41.147    38.261 
 C                    -12.338    42.29     38.213 
 C                    -11.452    40.302    39.535 
 C                    -11.962    38.873    39.295 
 C                    -13.32     38.566    40.025 
 C                    -14.567    38.754    39.132 
 C                    -15.863    38.775    39.988 
 C                    -14.652    37.552    38.069 
 H                    -3.267     42.749    28.477 
 H                    -2.618     43.234    22.086 
 H                     3.649     44.132    22.723 
 H                     0.97      42.202    30.558 
 H                    -1.716     43.203    30.258 
 H                    -1.536     40.505    29.082 
 H                    -2.147     40.897    30.708 
 H                    -0.383     40.597    30.372 
 H                    -0.031     45.107    30.326 
 H                     1.444     44.723    30.962 
 H                    -1.098     44.744    32.397 
 H                     0.425     44.855    33.009 
 H                    -5.924     43.35     27.154 
 H                    -4.972     41.907    27.526 
 H                    -6.036     41.671    26.307 
 H                    -7.044     43.019    24.671 
 H                    -6.606     41.382    24.205 
 H                    -7.3       42.522    23.003 
 H                    -0.735     44.271    20.713 
 H                     1.998     43.28     20.897 
 H                     0.575     41.572    20.577 
 H                    -0.82      42.241    19.665 
 H                    -0.978     41.591    21.376 
 H                     1.275     45.397    19.909 
 H                     2.714     45.533    20.988 
 H                     1.832     47.309    21.783 
 H                     0.509     46.397    22.662 
 H                     0.353     47.128    21.044 
 H                     5.808     42.811    23.829 
 H                     6.566     42.818    25.497 
 H                     6.282     44.318    24.61 
 H                     3.701     44.003    29.566 
 H                     4.642     41.73     33.002 
 H                     4.946     40.612    31.603 
 H                     3.31      40.742    32.315 
 H                    -0.698     40.678    34.504 
 H                    -1.785     40.136    33.252 
 H                    -3.711     40.733    34.395 
 H                    -1.008     42.435    36.992 
 H                    -2.269     43.6      36.843 
 H                    -1.22      43.362    35.425 
 H                    -4.039     42.118    37.65 
 H                    -4.747     41.247    36.401 
 H                    -4.396     44.053    35.36 
 H                    -5.113     44.063    36.886 
 H                    -6.322     41.965    35.072 
 H                    -6.449     43.633    34.49 
 H                    -7.155     43.099    37.35 
 H                    -8.595     44.862    37.131 
 H                    -9.06      44.471    35.533 
 H                    -7.568     45.244    35.727 
 H                    -8.447     41.479    35.158 
 H                    -9.505     42.519    35.771 
 H                    -7.941     40.907    37.853 
 H                    -9.193     40.099    37.065 
 H                    -9.865     42.873    38.081 
 H                    -9.255     41.654    39.152 
 H                    -11.334    40.506    37.38 
 H                    -13.283    42.14     38.735 
 H                    -12.337    42.722    37.212 
 H                    -11.904    43.143    38.734 
 H                    -12.164    40.774    40.212 
 H                    -10.491    40.197    40.039 
 H                    -11.181    38.213    39.673 
 H                    -12.057    38.564    38.255 
 H                    -13.356    39.203    40.909 
 H                    -13.316    37.517    40.321 
 H                    -14.57     39.692    38.576 
 H                    -16.314    39.763    40.082 
 H                    -15.699    38.526    41.036 
 H                    -16.616    38.183    39.467 
 H                    -13.725    36.991    38.191 
 H                    -14.673    38.014    37.082 
 H                    -15.48     36.857    38.208 
 
 ITRead=  0  0  0  0  0  0  0  0  0  0  0  0  0  0  0  0  0  0  0  0
 ITRead=  0  0  0  0  0  0  0  0  0  0  0  0  0  0  0  0  0  0  0  0
 ITRead=  0  0  0  0  0  0  0  0  0  0  0  0  0  0  0  0  0  0  0  0
 ITRead=  0  0  0  0  0  0  0  0  0  0  0  0  0  0  0  0  0  0  0  0
 ITRead=  0  0  0  0  0  0  0  0  0  0  0  0  0  0  0  0  0  0  0  0
 ITRead=  0  0  0  0  0  0  0  0  0  0  0  0  0  0  0  0  0  0  0  0
 ITRead=  0  0  0  0  0  0  0  0  0  0  0  0  0  0  0  0  0  0  0  0
 MicOpt= -1 -1 -1 -1 -1 -1 -1 -1 -1 -1 -1 -1 -1 -1 -1 -1 -1 -1 -1 -1
 MicOpt= -1 -1 -1 -1 -1 -1 -1 -1 -1 -1 -1 -1 -1 -1 -1 -1 -1 -1 -1 -1
 MicOpt= -1 -1 -1 -1 -1 -1 -1 -1 -1 -1 -1 -1 -1 -1 -1 -1 -1 -1 -1 -1
 MicOpt= -1 -1 -1 -1 -1 -1 -1 -1 -1 -1 -1 -1 -1 -1 -1 -1 -1 -1 -1 -1
 MicOpt= -1 -1 -1 -1 -1 -1 -1 -1 -1 -1 -1 -1 -1 -1 -1 -1 -1 -1 -1 -1
 MicOpt= -1 -1 -1 -1 -1 -1 -1 -1 -1 -1 -1 -1 -1 -1 -1 -1 -1 -1 -1 -1
 MicOpt= -1 -1 -1 -1 -1 -1 -1 -1 -1 -1 -1 -1 -1 -1 -1 -1 -1 -1 -1 -1
 NAtoms=    140 NQM=      140 NQMF=       0 NMMI=      0 NMMIF=      0
                NMic=       0 NMicF=      0.
                    Isotopes and Nuclear Properties:
 (Nuclear quadrupole moments (NQMom) in fm**2, nuclear magnetic moments (NMagM)
  in nuclear magnetons)

  Atom         1           2           3           4           5           6           7           8           9          10
 IAtWgt=          24          12          12          12          12          14          12          12          12          12
 AtmWgt=  23.9850450  12.0000000  12.0000000  12.0000000  12.0000000  14.0030740  12.0000000  12.0000000  12.0000000  12.0000000
 NucSpn=           0           0           0           0           0           2           0           0           0           0
 AtZEff=  -0.0000000  -0.0000000  -0.0000000  -0.0000000  -0.0000000  -0.0000000  -0.0000000  -0.0000000  -0.0000000  -0.0000000
 NQMom=    0.0000000   0.0000000   0.0000000   0.0000000   0.0000000   2.0440000   0.0000000   0.0000000   0.0000000   0.0000000
 NMagM=    0.0000000   0.0000000   0.0000000   0.0000000   0.0000000   0.4037610   0.0000000   0.0000000   0.0000000   0.0000000
 AtZNuc=  12.0000000   6.0000000   6.0000000   6.0000000   6.0000000   7.0000000   6.0000000   6.0000000   6.0000000   6.0000000

  Atom        11          12          13          14          15          16          17          18          19          20
 IAtWgt=          12          12          12          12          16          16          14          12          12          12
 AtmWgt=  12.0000000  12.0000000  12.0000000  12.0000000  15.9949146  15.9949146  14.0030740  12.0000000  12.0000000  12.0000000
 NucSpn=           0           0           0           0           0           0           2           0           0           0
 AtZEff=  -0.0000000  -0.0000000  -0.0000000  -0.0000000  -0.0000000  -0.0000000  -0.0000000  -0.0000000  -0.0000000  -0.0000000
 NQMom=    0.0000000   0.0000000   0.0000000   0.0000000   0.0000000   0.0000000   2.0440000   0.0000000   0.0000000   0.0000000
 NMagM=    0.0000000   0.0000000   0.0000000   0.0000000   0.0000000   0.0000000   0.4037610   0.0000000   0.0000000   0.0000000
 AtZNuc=   6.0000000   6.0000000   6.0000000   6.0000000   8.0000000   8.0000000   7.0000000   6.0000000   6.0000000   6.0000000

  Atom        21          22          23          24          25          26          27          28          29          30
 IAtWgt=          12          12          12          16          12          14          12          12          12          12
 AtmWgt=  12.0000000  12.0000000  12.0000000  15.9949146  12.0000000  14.0030740  12.0000000  12.0000000  12.0000000  12.0000000
 NucSpn=           0           0           0           0           0           2           0           0           0           0
 AtZEff=  -0.0000000  -0.0000000  -0.0000000  -0.0000000  -0.0000000  -0.0000000  -0.0000000  -0.0000000  -0.0000000  -0.0000000
 NQMom=    0.0000000   0.0000000   0.0000000   0.0000000   0.0000000   2.0440000   0.0000000   0.0000000   0.0000000   0.0000000
 NMagM=    0.0000000   0.0000000   0.0000000   0.0000000   0.0000000   0.4037610   0.0000000   0.0000000   0.0000000   0.0000000
 AtZNuc=   6.0000000   6.0000000   6.0000000   8.0000000   6.0000000   7.0000000   6.0000000   6.0000000   6.0000000   6.0000000

  Atom        31          32          33          34          35          36          37          38          39          40
 IAtWgt=          12          12          12          14          12          12          12          12          12          12
 AtmWgt=  12.0000000  12.0000000  12.0000000  14.0030740  12.0000000  12.0000000  12.0000000  12.0000000  12.0000000  12.0000000
 NucSpn=           0           0           0           2           0           0           0           0           0           0
 AtZEff=  -0.0000000  -0.0000000  -0.0000000  -0.0000000  -0.0000000  -0.0000000  -0.0000000  -0.0000000  -0.0000000  -0.0000000
 NQMom=    0.0000000   0.0000000   0.0000000   2.0440000   0.0000000   0.0000000   0.0000000   0.0000000   0.0000000   0.0000000
 NMagM=    0.0000000   0.0000000   0.0000000   0.4037610   0.0000000   0.0000000   0.0000000   0.0000000   0.0000000   0.0000000
 AtZNuc=   6.0000000   6.0000000   6.0000000   7.0000000   6.0000000   6.0000000   6.0000000   6.0000000   6.0000000   6.0000000

  Atom        41          42          43          44          45          46          47          48          49          50
 IAtWgt=          16          12          12          16          16          12          12          12          12          12
 AtmWgt=  15.9949146  12.0000000  12.0000000  15.9949146  15.9949146  12.0000000  12.0000000  12.0000000  12.0000000  12.0000000
 NucSpn=           0           0           0           0           0           0           0           0           0           0
 AtZEff=  -0.0000000  -0.0000000  -0.0000000  -0.0000000  -0.0000000  -0.0000000  -0.0000000  -0.0000000  -0.0000000  -0.0000000
 NQMom=    0.0000000   0.0000000   0.0000000   0.0000000   0.0000000   0.0000000   0.0000000   0.0000000   0.0000000   0.0000000
 NMagM=    0.0000000   0.0000000   0.0000000   0.0000000   0.0000000   0.0000000   0.0000000   0.0000000   0.0000000   0.0000000
 AtZNuc=   8.0000000   6.0000000   6.0000000   8.0000000   8.0000000   6.0000000   6.0000000   6.0000000   6.0000000   6.0000000

  Atom        51          52          53          54          55          56          57          58          59          60
 IAtWgt=          12          12          12          12          12          12          12          12          12          12
 AtmWgt=  12.0000000  12.0000000  12.0000000  12.0000000  12.0000000  12.0000000  12.0000000  12.0000000  12.0000000  12.0000000
 NucSpn=           0           0           0           0           0           0           0           0           0           0
 AtZEff=  -0.0000000  -0.0000000  -0.0000000  -0.0000000  -0.0000000  -0.0000000  -0.0000000  -0.0000000  -0.0000000  -0.0000000
 NQMom=    0.0000000   0.0000000   0.0000000   0.0000000   0.0000000   0.0000000   0.0000000   0.0000000   0.0000000   0.0000000
 NMagM=    0.0000000   0.0000000   0.0000000   0.0000000   0.0000000   0.0000000   0.0000000   0.0000000   0.0000000   0.0000000
 AtZNuc=   6.0000000   6.0000000   6.0000000   6.0000000   6.0000000   6.0000000   6.0000000   6.0000000   6.0000000   6.0000000

  Atom        61          62          63          64          65          66          67          68          69          70
 IAtWgt=          12          12          12          12          12          12           1           1           1           1
 AtmWgt=  12.0000000  12.0000000  12.0000000  12.0000000  12.0000000  12.0000000   1.0078250   1.0078250   1.0078250   1.0078250
 NucSpn=           0           0           0           0           0           0           1           1           1           1
 AtZEff=  -0.0000000  -0.0000000  -0.0000000  -0.0000000  -0.0000000  -0.0000000  -0.0000000  -0.0000000  -0.0000000  -0.0000000
 NQMom=    0.0000000   0.0000000   0.0000000   0.0000000   0.0000000   0.0000000   0.0000000   0.0000000   0.0000000   0.0000000
 NMagM=    0.0000000   0.0000000   0.0000000   0.0000000   0.0000000   0.0000000   2.7928460   2.7928460   2.7928460   2.7928460
 AtZNuc=   6.0000000   6.0000000   6.0000000   6.0000000   6.0000000   6.0000000   1.0000000   1.0000000   1.0000000   1.0000000

  Atom        71          72          73          74          75          76          77          78          79          80
 IAtWgt=           1           1           1           1           1           1           1           1           1           1
 AtmWgt=   1.0078250   1.0078250   1.0078250   1.0078250   1.0078250   1.0078250   1.0078250   1.0078250   1.0078250   1.0078250
 NucSpn=           1           1           1           1           1           1           1           1           1           1
 AtZEff=  -0.0000000  -0.0000000  -0.0000000  -0.0000000  -0.0000000  -0.0000000  -0.0000000  -0.0000000  -0.0000000  -0.0000000
 NQMom=    0.0000000   0.0000000   0.0000000   0.0000000   0.0000000   0.0000000   0.0000000   0.0000000   0.0000000   0.0000000
 NMagM=    2.7928460   2.7928460   2.7928460   2.7928460   2.7928460   2.7928460   2.7928460   2.7928460   2.7928460   2.7928460
 AtZNuc=   1.0000000   1.0000000   1.0000000   1.0000000   1.0000000   1.0000000   1.0000000   1.0000000   1.0000000   1.0000000

  Atom        81          82          83          84          85          86          87          88          89          90
 IAtWgt=           1           1           1           1           1           1           1           1           1           1
 AtmWgt=   1.0078250   1.0078250   1.0078250   1.0078250   1.0078250   1.0078250   1.0078250   1.0078250   1.0078250   1.0078250
 NucSpn=           1           1           1           1           1           1           1           1           1           1
 AtZEff=  -0.0000000  -0.0000000  -0.0000000  -0.0000000  -0.0000000  -0.0000000  -0.0000000  -0.0000000  -0.0000000  -0.0000000
 NQMom=    0.0000000   0.0000000   0.0000000   0.0000000   0.0000000   0.0000000   0.0000000   0.0000000   0.0000000   0.0000000
 NMagM=    2.7928460   2.7928460   2.7928460   2.7928460   2.7928460   2.7928460   2.7928460   2.7928460   2.7928460   2.7928460
 AtZNuc=   1.0000000   1.0000000   1.0000000   1.0000000   1.0000000   1.0000000   1.0000000   1.0000000   1.0000000   1.0000000

  Atom        91          92          93          94          95          96          97          98          99         100
 IAtWgt=           1           1           1           1           1           1           1           1           1           1
 AtmWgt=   1.0078250   1.0078250   1.0078250   1.0078250   1.0078250   1.0078250   1.0078250   1.0078250   1.0078250   1.0078250
 NucSpn=           1           1           1           1           1           1           1           1           1           1
 AtZEff=  -0.0000000  -0.0000000  -0.0000000  -0.0000000  -0.0000000  -0.0000000  -0.0000000  -0.0000000  -0.0000000  -0.0000000
 NQMom=    0.0000000   0.0000000   0.0000000   0.0000000   0.0000000   0.0000000   0.0000000   0.0000000   0.0000000   0.0000000
 NMagM=    2.7928460   2.7928460   2.7928460   2.7928460   2.7928460   2.7928460   2.7928460   2.7928460   2.7928460   2.7928460
 AtZNuc=   1.0000000   1.0000000   1.0000000   1.0000000   1.0000000   1.0000000   1.0000000   1.0000000   1.0000000   1.0000000

  Atom       101         102         103         104         105         106         107         108         109         110
 IAtWgt=           1           1           1           1           1           1           1           1           1           1
 AtmWgt=   1.0078250   1.0078250   1.0078250   1.0078250   1.0078250   1.0078250   1.0078250   1.0078250   1.0078250   1.0078250
 NucSpn=           1           1           1           1           1           1           1           1           1           1
 AtZEff=  -0.0000000  -0.0000000  -0.0000000  -0.0000000  -0.0000000  -0.0000000  -0.0000000  -0.0000000  -0.0000000  -0.0000000
 NQMom=    0.0000000   0.0000000   0.0000000   0.0000000   0.0000000   0.0000000   0.0000000   0.0000000   0.0000000   0.0000000
 NMagM=    2.7928460   2.7928460   2.7928460   2.7928460   2.7928460   2.7928460   2.7928460   2.7928460   2.7928460   2.7928460
 AtZNuc=   1.0000000   1.0000000   1.0000000   1.0000000   1.0000000   1.0000000   1.0000000   1.0000000   1.0000000   1.0000000

  Atom       111         112         113         114         115         116         117         118         119         120
 IAtWgt=           1           1           1           1           1           1           1           1           1           1
 AtmWgt=   1.0078250   1.0078250   1.0078250   1.0078250   1.0078250   1.0078250   1.0078250   1.0078250   1.0078250   1.0078250
 NucSpn=           1           1           1           1           1           1           1           1           1           1
 AtZEff=  -0.0000000  -0.0000000  -0.0000000  -0.0000000  -0.0000000  -0.0000000  -0.0000000  -0.0000000  -0.0000000  -0.0000000
 NQMom=    0.0000000   0.0000000   0.0000000   0.0000000   0.0000000   0.0000000   0.0000000   0.0000000   0.0000000   0.0000000
 NMagM=    2.7928460   2.7928460   2.7928460   2.7928460   2.7928460   2.7928460   2.7928460   2.7928460   2.7928460   2.7928460
 AtZNuc=   1.0000000   1.0000000   1.0000000   1.0000000   1.0000000   1.0000000   1.0000000   1.0000000   1.0000000   1.0000000

  Atom       121         122         123         124         125         126         127         128         129         130
 IAtWgt=           1           1           1           1           1           1           1           1           1           1
 AtmWgt=   1.0078250   1.0078250   1.0078250   1.0078250   1.0078250   1.0078250   1.0078250   1.0078250   1.0078250   1.0078250
 NucSpn=           1           1           1           1           1           1           1           1           1           1
 AtZEff=  -0.0000000  -0.0000000  -0.0000000  -0.0000000  -0.0000000  -0.0000000  -0.0000000  -0.0000000  -0.0000000  -0.0000000
 NQMom=    0.0000000   0.0000000   0.0000000   0.0000000   0.0000000   0.0000000   0.0000000   0.0000000   0.0000000   0.0000000
 NMagM=    2.7928460   2.7928460   2.7928460   2.7928460   2.7928460   2.7928460   2.7928460   2.7928460   2.7928460   2.7928460
 AtZNuc=   1.0000000   1.0000000   1.0000000   1.0000000   1.0000000   1.0000000   1.0000000   1.0000000   1.0000000   1.0000000

  Atom       131         132         133         134         135         136         137         138         139         140
 IAtWgt=           1           1           1           1           1           1           1           1           1           1
 AtmWgt=   1.0078250   1.0078250   1.0078250   1.0078250   1.0078250   1.0078250   1.0078250   1.0078250   1.0078250   1.0078250
 NucSpn=           1           1           1           1           1           1           1           1           1           1
 AtZEff=  -0.0000000  -0.0000000  -0.0000000  -0.0000000  -0.0000000  -0.0000000  -0.0000000  -0.0000000  -0.0000000  -0.0000000
 NQMom=    0.0000000   0.0000000   0.0000000   0.0000000   0.0000000   0.0000000   0.0000000   0.0000000   0.0000000   0.0000000
 NMagM=    2.7928460   2.7928460   2.7928460   2.7928460   2.7928460   2.7928460   2.7928460   2.7928460   2.7928460   2.7928460
 AtZNuc=   1.0000000   1.0000000   1.0000000   1.0000000   1.0000000   1.0000000   1.0000000   1.0000000   1.0000000   1.0000000
 Leave Link  101 at Wed May  4 04:58:37 2022, MaxMem= 10066329600 cpu:               3.5 elap:               0.2
 (Enter /sw/apps/gaussian-16.0/g16/l202.exe)
 Stoichiometry    C55H74MgN4O6
 Framework group  C1[X(C55H74MgN4O6)]
 Deg. of freedom   414
 Full point group                 C1      NOp   1
 Largest Abelian subgroup         C1      NOp   1
 Largest concise Abelian subgroup C1      NOp   1
                         Standard orientation:                         
 ---------------------------------------------------------------------
 Center     Atomic      Atomic             Coordinates (Angstroms)
 Number     Number       Type             X           Y           Z
 ---------------------------------------------------------------------
      1         12           0        5.329466    1.072343    0.173297
      2          6           0        4.769466   -2.382394   -0.130418
      3          6           0        1.852227    1.567371    0.145050
      4          6           0        5.678893    4.397331   -0.027234
      5          6           0        8.704844    0.563624    0.108347
      6          7           0        3.630952   -0.266767    0.067054
      7          6           0        3.596896   -1.592057    0.091942
      8          6           0        2.166665   -2.163520    0.197511
      9          6           0        1.315148   -0.951214   -0.113359
     10          6           0        2.303070    0.183776    0.116571
     11          6           0        0.684090   -0.894192   -1.554470
     12          6           0        1.747069   -2.745584    1.603132
     13          6           0        0.294320   -3.292567    1.768699
     14          6           0       -0.382963   -3.718377    0.381904
     15          8           0       -0.074964   -4.699498   -0.296039
     16          8           0       -1.433200   -2.839445    0.062871
     17          7           0        3.937128    2.766507   -0.024735
     18          6           0        2.560176    2.735728   -0.012589
     19          6           0        2.002367    4.093145   -0.028808
     20          6           0        3.128590    4.960573   -0.128873
     21          6           0        4.315899    4.083324   -0.078396
     22          6           0        0.543287    4.375531   -0.112994
     23          6           0        3.111168    6.445560   -0.255491
     24          8           0        4.146243    7.081687   -0.171019
     25          6           0        1.804741    7.197235   -0.401477
     26          7           0        6.935342    2.290860   -0.018589
     27          6           0        6.820735    3.649762   -0.036632
     28          6           0        8.227652    4.174803   -0.228198
     29          6           0        9.170367    3.040597    0.058499
     30          6           0        8.226035    1.886345   -0.025240
     31          6           0        8.292049    4.754419   -1.696428
     32          6           0        9.929306    3.119926    1.401301
     33          6           0        9.135077    3.055125    2.709077
     34          7           0        6.535484   -0.569694   -0.027083
     35          6           0        7.926347   -0.655440    0.012321
     36          6           0        8.344647   -2.073764   -0.283031
     37          6           0        7.104076   -2.746636   -0.251862
     38          6           0        6.058913   -1.791486   -0.028797
     39          6           0        9.664318   -2.649023   -0.634792
     40          6           0        6.504719   -4.007681   -0.450550
     41          8           0        6.996382   -5.112705   -0.800864
     42          6           0        5.030103   -3.888827   -0.169363
     43          6           0        4.233955   -4.465436   -1.227310
     44          8           0        4.285718   -4.178807   -2.409380
     45          8           0        3.575710   -5.520640   -0.632115
     46          6           0        2.929227   -6.392063   -1.606539
     47          6           0       -2.283399   -3.352646   -1.105620
     48          6           0       -3.725819   -3.041652   -0.720955
     49          6           0       -4.491722   -3.768364    0.150258
     50          6           0       -3.828968   -4.832261    1.054262
     51          6           0       -5.819009   -3.216862    0.638076
     52          6           0       -5.751815   -2.280889    1.870954
     53          6           0       -6.222799   -0.849759    1.538732
     54          6           0       -7.732582   -0.583125    1.857462
     55          6           0       -7.871151    0.012887    3.276697
     56          6           0       -8.446008    0.349925    0.875590
     57          6           0       -9.610448   -0.272133    0.140148
     58          6           0      -10.853665   -0.196167    1.027187
     59          6           0      -11.970873    0.866068    0.537774
     60          6           0      -12.456016    1.675231    1.763468
     61          6           0      -13.130815    0.109736   -0.128276
     62          6           0      -13.520022    0.634265   -1.518645
     63          6           0      -15.007428    1.136507   -1.600446
     64          6           0      -15.165308    2.660500   -1.399644
     65          6           0      -16.651749    3.034854   -1.148356
     66          6           0      -14.637048    3.431591   -2.706685
     67          1           0        0.760687    1.595958    0.152287
     68          1           0        5.910759    5.449848   -0.202117
     69          1           0        9.786085    0.415112    0.145359
     70          1           0        2.003412   -2.935990   -0.554123
     71          1           0        0.577159   -0.746999    0.662725
     72          1           0        1.132801   -0.108296   -2.161793
     73          1           0       -0.396197   -0.755903   -1.518650
     74          1           0        0.982935   -1.829303   -2.028945
     75          1           0        1.952129   -2.015334    2.386050
     76          1           0        2.418920   -3.534928    1.938258
     77          1           0       -0.322617   -2.635668    2.381811
     78          1           0        0.270583   -4.169741    2.415389
     79          1           0        0.034501    4.452511    0.847945
     80          1           0        0.178227    3.486696   -0.626328
     81          1           0        0.313819    5.092802   -0.901627
     82          1           0        1.035526    6.954727    0.332083
     83          1           0        1.413207    6.932718   -1.384204
     84          1           0        1.997894    8.267808   -0.334577
     85          1           0        8.330009    5.003379    0.471738
     86          1           0        9.873519    2.858431   -0.753823
     87          1           0        8.887448    4.106398   -2.339646
     88          1           0        8.718868    5.756630   -1.651427
     89          1           0        7.269909    4.708447   -2.071925
     90          1           0       10.435046    4.079042    1.289546
     91          1           0       10.636799    2.290836    1.412322
     92          1           0        9.744383    2.418121    3.349206
     93          1           0        8.078348    2.788113    2.684265
     94          1           0        9.262001    4.005150    3.226858
     95          1           0       10.224446   -1.934734   -1.238701
     96          1           0        9.522330   -3.621777   -1.105450
     97          1           0       10.208863   -2.798327    0.297414
     98          1           0        4.832723   -4.257353    0.836930
     99          1           0        2.615722   -7.297234   -1.087164
    100          1           0        3.661565   -6.584137   -2.389948
    101          1           0        2.068814   -5.861076   -2.014891
    102          1           0       -2.215448   -4.394287   -1.420327
    103          1           0       -2.118799   -2.751752   -1.999617
    104          1           0       -4.146263   -2.102756   -1.082814
    105          1           0       -3.956773   -5.834337    0.645426
    106          1           0       -4.512556   -4.794694    1.902325
    107          1           0       -2.817242   -4.608801    1.393285
    108          1           0       -6.514243   -4.052304    0.709605
    109          1           0       -6.216933   -2.693755   -0.231595
    110          1           0       -4.790488   -2.221208    2.380392
    111          1           0       -6.377185   -2.726652    2.644561
    112          1           0       -6.195743   -0.628282    0.472510
    113          1           0       -5.599393   -0.125306    2.062623
    114          1           0       -8.231668   -1.547068    1.948983
    115          1           0       -8.763733   -0.322758    3.805782
    116          1           0       -7.975749    1.097713    3.272817
    117          1           0       -6.997093   -0.124400    3.913051
    118          1           0       -7.757205    0.872738    0.211758
    119          1           0       -8.749624    1.245930    1.416982
    120          1           0       -9.463633   -1.329558   -0.078484
    121          1           0       -9.855681    0.117781   -0.848432
    122          1           0      -10.612968   -0.049834    2.080278
    123          1           0      -11.171081   -1.235150    0.945096
    124          1           0      -11.455522    1.483821   -0.197892
    125          1           0      -13.491361    2.015834    1.771093
    126          1           0      -11.661547    2.356224    2.069564
    127          1           0      -12.411135    1.011034    2.626159
    128          1           0      -14.026063    0.179709    0.489537
    129          1           0      -12.869228   -0.939654   -0.265809
    130          1           0      -13.373683   -0.202509   -2.201901
    131          1           0      -12.876560    1.405431   -1.939794
    132          1           0      -15.574483    0.570406   -0.861191
    133          1           0      -15.382463    0.923424   -2.601434
    134          1           0      -14.618065    3.047849   -0.539716
    135          1           0      -16.868788    3.312266   -0.116698
    136          1           0      -17.341400    2.202318   -1.284244
    137          1           0      -16.869828    3.936221   -1.721849
    138          1           0      -14.191672    2.661619   -3.337334
    139          1           0      -13.862826    4.119573   -2.367105
    140          1           0      -15.400533    3.940345   -3.295065
 ---------------------------------------------------------------------
 Rotational constants (GHZ):           0.0441931           0.0099664           0.0084578
 Leave Link  202 at Wed May  4 04:58:37 2022, MaxMem= 10066329600 cpu:               0.2 elap:               0.0
 (Enter /sw/apps/gaussian-16.0/g16/l301.exe)
 Standard basis: def2SVP (5D, 7F)
 Ernie: Thresh=  0.10000D-02 Tol=  0.10000D-05 Strict=F.
 There are  1364 symmetry adapted cartesian basis functions of A   symmetry.
 There are  1298 symmetry adapted basis functions of A   symmetry.
  1298 basis functions,  2180 primitive gaussians,  1364 cartesian basis functions
   246 alpha electrons      246 beta electrons
       nuclear repulsion energy      9622.2509790222 Hartrees.
 IExCor=20419 DFT=T Ex+Corr=CAM-B3LYP ExCW=0 ScaHFX=  1.000000
 ScaDFX=  1.000000  1.000000  1.000000  0.810000 ScalE2=  1.000000  1.000000
 IRadAn=      5 IRanWt=     -1 IRanGd=            0 ICorTp=0 IEmpDi=  4
 HFx  wShort=  0.000000 wLong=  0.330000 cFull=  0.190000 cShort=  0.000000 cLong=  0.460000
 DFx  wShort=  0.000000 wLong=  0.330000 cFull=  0.190000 cShort=  0.000000 cLong=  0.460000
 NAtoms=  140 NActive=  140 NUniq=  140 SFac= 1.00D+00 NAtFMM=   60 NAOKFM=T Big=T
 Integral buffers will be    131072 words long.
 Raffenetti 1 integral format.
 Two-electron integral symmetry is turned on.
 Leave Link  301 at Wed May  4 04:58:37 2022, MaxMem= 10066329600 cpu:               1.3 elap:               0.1
 (Enter /sw/apps/gaussian-16.0/g16/l302.exe)
 NPDir=0 NMtPBC=     1 NCelOv=     1 NCel=       1 NClECP=     1 NCelD=      1
         NCelK=      1 NCelE2=     1 NClLst=     1 CellRange=     0.0.
 One-electron integrals computed using PRISM.
 One-electron integral symmetry used in STVInt
   1 Symmetry operations used in ECPInt.
 ECPInt:  NShTT=  192510 NPrTT=  683786 LenC2=   94935 LenP2D=  209128.
 LDataN:  DoStor=T MaxTD1= 4 Len=   56
 NBasis=  1298 RedAO= T EigKep=  3.22D-04  NBF=  1298
 NBsUse=  1298 1.00D-06 EigRej= -1.00D+00 NBFU=  1298
 Precomputing XC quadrature grid using
 IXCGrd= 4 IRadAn=           5 IRanWt=          -1 IRanGd=           0 AccXCQ= 0.00D+00.
 Generated NRdTot=       0 NPtTot=           0 NUsed=           0 NTot=          32
 NSgBfM=  1099  1099  1099  1099  1099 MxSgAt=   140 MxSgA2=   139.
 Leave Link  302 at Wed May  4 04:58:40 2022, MaxMem= 10066329600 cpu:              78.8 elap:               3.3
 (Enter /sw/apps/gaussian-16.0/g16/l303.exe)
 DipDrv:  MaxL=1.
 Leave Link  303 at Wed May  4 04:58:41 2022, MaxMem= 10066329600 cpu:               5.8 elap:               0.3
 (Enter /sw/apps/gaussian-16.0/g16/l308.exe)
 Leave Link  308 at Wed May  4 04:58:41 2022, MaxMem= 10066329600 cpu:              10.3 elap:               0.5
 (Enter /sw/apps/gaussian-16.0/g16/l401.exe)
 ExpMin= 3.36D-02 ExpMax= 4.95D+03 ExpMxC= 7.45D+02 IAcc=3 IRadAn=         5 AccDes= 0.00D+00
 Harris functional with IExCor=20419 and IRadAn=       5 diagonalized for initial guess.
 HarFok:  IExCor=20419 AccDes= 0.00D+00 IRadAn=         5 IDoV= 1 UseB2=F ITyADJ=14
 ICtDFT=  3500011 ScaDFX=  1.000000  1.000000  1.000000  1.000000
 FoFCou: FMM=F IPFlag=           0 FMFlag=      100000 FMFlg1=        2001
         NFxFlg=           0 DoJE=T BraDBF=F KetDBF=T FulRan=T
         wScrn=  0.000000 ICntrl=       500 IOpCl=  0 I1Cent=   200000004 NGrid=           0
         NMat0=    1 NMatS0=      1 NMatT0=    0 NMatD0=    1 NMtDS0=    0 NMtDT0=    0
 Petite list used in FoFCou.
 Harris En= -2890.86613851266    
 JPrj=0 DoOrth=F DoCkMO=F.
 Leave Link  401 at Wed May  4 04:58:47 2022, MaxMem= 10066329600 cpu:             131.6 elap:               5.5
 (Enter /sw/apps/gaussian-16.0/g16/l502.exe)
 Integral symmetry usage will be decided dynamically.
 Closed shell SCF:
 Using DIIS extrapolation, IDIIS=  1040.
 NGot= 10066329600 LenX= 10062561258 LenY= 10060699398
 Requested convergence on RMS density matrix=1.00D-08 within 128 cycles.
 Requested convergence on MAX density matrix=1.00D-06.
 Requested convergence on             energy=1.00D-06.
 No special actions if energy rises.
 Fock matrices will be formed incrementally for  20 cycles.

 Cycle   1  Pass 1  IDiag  1:
 FoFJK:  IHMeth= 1 ICntrl=       0 DoSepK=T KAlg= 0 I1Cent=           0 FoldK=F
 IRaf=         1 NMat=       1 IRICut=       1 DoRegI=T DoRafI=F ISym2E= 0 IDoP0=0 IntGTp=1.
 FoFCou: FMM=T IPFlag=           0 FMFlag=      100000 FMFlg1=        2001
         NFxFlg=           0 DoJE=T BraDBF=F KetDBF=F FulRan=T
         wScrn=  0.000000 ICntrl=       500 IOpCl=  0 I1Cent=           0 NGrid=           0
         NMat0=    1 NMatS0=      1 NMatT0=    0 NMatD0=    1 NMtDS0=    0 NMtDT0=    0
 Symmetry not used in FoFCou.
 FMM levels:  10  Number of levels for PrismC:   9
 E= -3006.49931089815    
 DIIS: error= 3.41D-02 at cycle   1 NSaved=   1.
 NSaved= 1 IEnMin= 1 EnMin= -3006.49931089815     IErMin= 1 ErrMin= 3.41D-02
 ErrMax= 3.41D-02  0.00D+00 EMaxC= 1.00D-01 BMatC= 1.27D+00 BMatP= 1.27D+00
 IDIUse=3 WtCom= 6.59D-01 WtEn= 3.41D-01
 Coeff-Com:  0.100D+01
 Coeff-En:   0.100D+01
 Coeff:      0.100D+01
 Gap=     0.125 Goal=   None    Shift=    0.000
 GapD=    0.125 DampG=1.000 DampE=0.500 DampFc=0.5000 IDamp=-1.
 Damping current iteration by 5.00D-01
 RMSDP=1.57D-03 MaxDP=1.81D-01              OVMax= 1.80D-01

 Cycle   2  Pass 1  IDiag  1:
 RMSU=  7.69D-04    CP:  9.83D-01
 E= -3006.80830317219     Delta-E=       -0.308992274042 Rises=F Damp=T
 DIIS: error= 1.36D-02 at cycle   2 NSaved=   2.
 NSaved= 2 IEnMin= 2 EnMin= -3006.80830317219     IErMin= 2 ErrMin= 1.36D-02
 ErrMax= 1.36D-02  0.00D+00 EMaxC= 1.00D-01 BMatC= 2.31D-01 BMatP= 1.27D+00
 IDIUse=3 WtCom= 8.64D-01 WtEn= 1.36D-01
 Coeff-Com: -0.227D+00 0.123D+01
 Coeff-En:   0.000D+00 0.100D+01
 Coeff:     -0.196D+00 0.120D+01
 Gap=     0.137 Goal=   None    Shift=    0.000
 RMSDP=7.11D-04 MaxDP=1.08D-01 DE=-3.09D-01 OVMax= 1.77D-01

 Cycle   3  Pass 1  IDiag  1:
 RMSU=  6.84D-04    CP:  9.72D-01  1.21D+00
 E= -3007.04416937978     Delta-E=       -0.235866207589 Rises=F Damp=F
 DIIS: error= 1.36D-02 at cycle   3 NSaved=   3.
 NSaved= 3 IEnMin= 3 EnMin= -3007.04416937978     IErMin= 2 ErrMin= 1.36D-02
 ErrMax= 1.36D-02  0.00D+00 EMaxC= 1.00D-01 BMatC= 1.41D-01 BMatP= 2.31D-01
 IDIUse=3 WtCom= 8.64D-01 WtEn= 1.36D-01
 Coeff-Com: -0.263D+00 0.644D+00 0.619D+00
 Coeff-En:   0.000D+00 0.000D+00 0.100D+01
 Coeff:     -0.227D+00 0.556D+00 0.671D+00
 Gap=     0.126 Goal=   None    Shift=    0.000
 RMSDP=4.70D-04 MaxDP=5.01D-02 DE=-2.36D-01 OVMax= 1.10D-01

 Cycle   4  Pass 1  IDiag  1:
 RMSU=  2.70D-04    CP:  9.69D-01  1.51D+00  5.47D-01
 E= -3007.13608150726     Delta-E=       -0.091912127480 Rises=F Damp=F
 DIIS: error= 7.79D-03 at cycle   4 NSaved=   4.
 NSaved= 4 IEnMin= 4 EnMin= -3007.13608150726     IErMin= 4 ErrMin= 7.79D-03
 ErrMax= 7.79D-03  0.00D+00 EMaxC= 1.00D-01 BMatC= 3.55D-02 BMatP= 1.41D-01
 IDIUse=3 WtCom= 9.22D-01 WtEn= 7.79D-02
 Coeff-Com: -0.108D+00 0.222D+00 0.405D+00 0.481D+00
 Coeff-En:   0.000D+00 0.000D+00 0.214D+00 0.786D+00
 Coeff:     -0.997D-01 0.204D+00 0.390D+00 0.505D+00
 Gap=     0.122 Goal=   None    Shift=    0.000
 RMSDP=1.77D-04 MaxDP=2.19D-02 DE=-9.19D-02 OVMax= 4.28D-02

 Cycle   5  Pass 1  IDiag  1:
 RMSU=  6.73D-05    CP:  9.69D-01  1.47D+00  7.06D-01  5.65D-01
 E= -3007.16593258994     Delta-E=       -0.029851082674 Rises=F Damp=F
 DIIS: error= 8.31D-04 at cycle   5 NSaved=   5.
 NSaved= 5 IEnMin= 5 EnMin= -3007.16593258994     IErMin= 5 ErrMin= 8.31D-04
 ErrMax= 8.31D-04  0.00D+00 EMaxC= 1.00D-01 BMatC= 7.64D-04 BMatP= 3.55D-02
 IDIUse=3 WtCom= 9.92D-01 WtEn= 8.31D-03
 Coeff-Com: -0.380D-01 0.743D-01 0.167D+00 0.250D+00 0.547D+00
 Coeff-En:   0.000D+00 0.000D+00 0.000D+00 0.000D+00 0.100D+01
 Coeff:     -0.376D-01 0.737D-01 0.165D+00 0.248D+00 0.551D+00
 Gap=     0.121 Goal=   None    Shift=    0.000
 RMSDP=3.30D-05 MaxDP=4.10D-03 DE=-2.99D-02 OVMax= 1.13D-02

 Cycle   6  Pass 1  IDiag  1:
 RMSU=  2.63D-05    CP:  9.68D-01  1.47D+00  7.05D-01  6.17D-01  7.91D-01
 E= -3007.16653531282     Delta-E=       -0.000602722879 Rises=F Damp=F
 DIIS: error= 3.18D-04 at cycle   6 NSaved=   6.
 NSaved= 6 IEnMin= 6 EnMin= -3007.16653531282     IErMin= 6 ErrMin= 3.18D-04
 ErrMax= 3.18D-04  0.00D+00 EMaxC= 1.00D-01 BMatC= 1.01D-04 BMatP= 7.64D-04
 IDIUse=3 WtCom= 9.97D-01 WtEn= 3.18D-03
 Coeff-Com:  0.258D-02-0.701D-02 0.592D-02 0.287D-01 0.288D+00 0.682D+00
 Coeff-En:   0.000D+00 0.000D+00 0.000D+00 0.000D+00 0.791D-01 0.921D+00
 Coeff:      0.257D-02-0.699D-02 0.590D-02 0.286D-01 0.287D+00 0.683D+00
 Gap=     0.122 Goal=   None    Shift=    0.000
 RMSDP=1.38D-05 MaxDP=1.11D-03 DE=-6.03D-04 OVMax= 6.56D-03

 Cycle   7  Pass 1  IDiag  1:
 RMSU=  9.67D-06    CP:  9.68D-01  1.47D+00  7.09D-01  6.22D-01  8.87D-01
                    CP:  7.58D-01
 E= -3007.16663367644     Delta-E=       -0.000098363624 Rises=F Damp=F
 DIIS: error= 7.72D-05 at cycle   7 NSaved=   7.
 NSaved= 7 IEnMin= 7 EnMin= -3007.16663367644     IErMin= 7 ErrMin= 7.72D-05
 ErrMax= 7.72D-05  0.00D+00 EMaxC= 1.00D-01 BMatC= 1.28D-05 BMatP= 1.01D-04
 IDIUse=1 WtCom= 1.00D+00 WtEn= 0.00D+00
 Coeff-Com:  0.444D-02-0.957D-02-0.102D-01-0.720D-02 0.973D-01 0.353D+00
 Coeff-Com:  0.572D+00
 Coeff:      0.444D-02-0.957D-02-0.102D-01-0.720D-02 0.973D-01 0.353D+00
 Coeff:      0.572D+00
 Gap=     0.122 Goal=   None    Shift=    0.000
 RMSDP=6.20D-06 MaxDP=1.41D-03 DE=-9.84D-05 OVMax= 2.93D-03

 Cycle   8  Pass 1  IDiag  1:
 RMSU=  4.22D-06    CP:  9.68D-01  1.47D+00  7.10D-01  6.25D-01  8.98D-01
                    CP:  8.91D-01  7.46D-01
 E= -3007.16664787238     Delta-E=       -0.000014195943 Rises=F Damp=F
 DIIS: error= 3.79D-05 at cycle   8 NSaved=   8.
 NSaved= 8 IEnMin= 8 EnMin= -3007.16664787238     IErMin= 8 ErrMin= 3.79D-05
 ErrMax= 3.79D-05  0.00D+00 EMaxC= 1.00D-01 BMatC= 2.33D-06 BMatP= 1.28D-05
 IDIUse=1 WtCom= 1.00D+00 WtEn= 0.00D+00
 Coeff-Com:  0.213D-02-0.421D-02-0.750D-02-0.117D-01-0.948D-02 0.526D-01
 Coeff-Com:  0.321D+00 0.657D+00
 Coeff:      0.213D-02-0.421D-02-0.750D-02-0.117D-01-0.948D-02 0.526D-01
 Coeff:      0.321D+00 0.657D+00
 Gap=     0.122 Goal=   None    Shift=    0.000
 RMSDP=2.66D-06 MaxDP=2.37D-04 DE=-1.42D-05 OVMax= 1.39D-03

 Cycle   9  Pass 1  IDiag  1:
 RMSU=  1.51D-06    CP:  9.68D-01  1.47D+00  7.11D-01  6.26D-01  9.14D-01
                    CP:  9.01D-01  9.23D-01  8.33D-01
 E= -3007.16665102812     Delta-E=       -0.000003155739 Rises=F Damp=F
 DIIS: error= 1.40D-05 at cycle   9 NSaved=   9.
 NSaved= 9 IEnMin= 9 EnMin= -3007.16665102812     IErMin= 9 ErrMin= 1.40D-05
 ErrMax= 1.40D-05  0.00D+00 EMaxC= 1.00D-01 BMatC= 3.31D-07 BMatP= 2.33D-06
 IDIUse=1 WtCom= 1.00D+00 WtEn= 0.00D+00
 Coeff-Com:  0.555D-03-0.999D-03-0.261D-02-0.546D-02-0.180D-01-0.188D-01
 Coeff-Com:  0.970D-01 0.352D+00 0.596D+00
 Coeff:      0.555D-03-0.999D-03-0.261D-02-0.546D-02-0.180D-01-0.188D-01
 Coeff:      0.970D-01 0.352D+00 0.596D+00
 Gap=     0.122 Goal=   None    Shift=    0.000
 RMSDP=9.86D-07 MaxDP=1.70D-04 DE=-3.16D-06 OVMax= 4.02D-04

 Cycle  10  Pass 1  IDiag  1:
 RMSU=  6.30D-07    CP:  9.68D-01  1.47D+00  7.11D-01  6.26D-01  9.16D-01
                    CP:  9.16D-01  9.38D-01  9.62D-01  8.74D-01
 E= -3007.16665146917     Delta-E=       -0.000000441049 Rises=F Damp=F
 DIIS: error= 5.45D-06 at cycle  10 NSaved=  10.
 NSaved=10 IEnMin=10 EnMin= -3007.16665146917     IErMin=10 ErrMin= 5.45D-06
 ErrMax= 5.45D-06  0.00D+00 EMaxC= 1.00D-01 BMatC= 3.69D-08 BMatP= 3.31D-07
 IDIUse=1 WtCom= 1.00D+00 WtEn= 0.00D+00
 Coeff-Com: -0.200D-03 0.432D-03 0.442D-03-0.612D-04-0.601D-02-0.205D-01
 Coeff-Com: -0.253D-01 0.228D-01 0.240D+00 0.789D+00
 Coeff:     -0.200D-03 0.432D-03 0.442D-03-0.612D-04-0.601D-02-0.205D-01
 Coeff:     -0.253D-01 0.228D-01 0.240D+00 0.789D+00
 Gap=     0.122 Goal=   None    Shift=    0.000
 RMSDP=4.74D-07 MaxDP=6.67D-05 DE=-4.41D-07 OVMax= 1.94D-04

 Cycle  11  Pass 1  IDiag  1:
 RMSU=  2.79D-07    CP:  9.68D-01  1.47D+00  7.11D-01  6.26D-01  9.18D-01
                    CP:  9.20D-01  9.60D-01  9.89D-01  1.02D+00  9.73D-01
 E= -3007.16665153990     Delta-E=       -0.000000070726 Rises=F Damp=F
 DIIS: error= 3.70D-06 at cycle  11 NSaved=  11.
 NSaved=11 IEnMin=11 EnMin= -3007.16665153990     IErMin=11 ErrMin= 3.70D-06
 ErrMax= 3.70D-06  0.00D+00 EMaxC= 1.00D-01 BMatC= 1.32D-08 BMatP= 3.69D-08
 IDIUse=1 WtCom= 1.00D+00 WtEn= 0.00D+00
 Coeff-Com: -0.204D-03 0.409D-03 0.696D-03 0.891D-03-0.888D-04-0.816D-02
 Coeff-Com: -0.314D-01-0.480D-01 0.160D-01 0.453D+00 0.617D+00
 Coeff:     -0.204D-03 0.409D-03 0.696D-03 0.891D-03-0.888D-04-0.816D-02
 Coeff:     -0.314D-01-0.480D-01 0.160D-01 0.453D+00 0.617D+00
 Gap=     0.122 Goal=   None    Shift=    0.000
 RMSDP=2.26D-07 MaxDP=5.29D-05 DE=-7.07D-08 OVMax= 8.31D-05

 Cycle  12  Pass 1  IDiag  1:
 RMSU=  1.12D-07    CP:  9.68D-01  1.47D+00  7.11D-01  6.26D-01  9.19D-01
                    CP:  9.22D-01  9.66D-01  1.01D+00  1.06D+00  1.15D+00
                    CP:  8.28D-01
 E= -3007.16665155691     Delta-E=       -0.000000017015 Rises=F Damp=F
 DIIS: error= 8.70D-07 at cycle  12 NSaved=  12.
 NSaved=12 IEnMin=12 EnMin= -3007.16665155691     IErMin=12 ErrMin= 8.70D-07
 ErrMax= 8.70D-07  0.00D+00 EMaxC= 1.00D-01 BMatC= 1.34D-09 BMatP= 1.32D-08
 IDIUse=1 WtCom= 1.00D+00 WtEn= 0.00D+00
 Coeff-Com: -0.760D-04 0.149D-03 0.296D-03 0.454D-03 0.768D-03-0.129D-02
 Coeff-Com: -0.123D-01-0.249D-01-0.248D-01 0.136D+00 0.295D+00 0.630D+00
 Coeff:     -0.760D-04 0.149D-03 0.296D-03 0.454D-03 0.768D-03-0.129D-02
 Coeff:     -0.123D-01-0.249D-01-0.248D-01 0.136D+00 0.295D+00 0.630D+00
 Gap=     0.122 Goal=   None    Shift=    0.000
 RMSDP=6.31D-08 MaxDP=1.13D-05 DE=-1.70D-08 OVMax= 2.82D-05

 Cycle  13  Pass 1  IDiag  1:
 RMSU=  4.94D-08    CP:  9.68D-01  1.47D+00  7.11D-01  6.26D-01  9.19D-01
                    CP:  9.22D-01  9.66D-01  1.02D+00  1.07D+00  1.17D+00
                    CP:  9.25D-01  9.07D-01
 E= -3007.16665155878     Delta-E=       -0.000000001872 Rises=F Damp=F
 DIIS: error= 4.76D-07 at cycle  13 NSaved=  13.
 NSaved=13 IEnMin=13 EnMin= -3007.16665155878     IErMin=13 ErrMin= 4.76D-07
 ErrMax= 4.76D-07  0.00D+00 EMaxC= 1.00D-01 BMatC= 3.10D-10 BMatP= 1.34D-09
 IDIUse=1 WtCom= 1.00D+00 WtEn= 0.00D+00
 Coeff-Com:  0.371D-05-0.951D-05 0.580D-05 0.468D-04 0.392D-03 0.111D-02
 Coeff-Com:  0.216D-03-0.141D-02-0.186D-01-0.269D-01 0.338D-02 0.310D+00
 Coeff-Com:  0.732D+00
 Coeff:      0.371D-05-0.951D-05 0.580D-05 0.468D-04 0.392D-03 0.111D-02
 Coeff:      0.216D-03-0.141D-02-0.186D-01-0.269D-01 0.338D-02 0.310D+00
 Coeff:      0.732D+00
 Gap=     0.122 Goal=   None    Shift=    0.000
 RMSDP=4.45D-08 MaxDP=6.76D-06 DE=-1.87D-09 OVMax= 2.09D-05

 Cycle  14  Pass 1  IDiag  1:
 RMSU=  2.55D-08    CP:  9.68D-01  1.47D+00  7.11D-01  6.26D-01  9.19D-01
                    CP:  9.23D-01  9.67D-01  1.02D+00  1.07D+00  1.20D+00
                    CP:  9.66D-01  1.12D+00  1.15D+00
 E= -3007.16665155962     Delta-E=       -0.000000000842 Rises=F Damp=F
 DIIS: error= 2.10D-07 at cycle  14 NSaved=  14.
 NSaved=14 IEnMin=14 EnMin= -3007.16665155962     IErMin=14 ErrMin= 2.10D-07
 ErrMax= 2.10D-07  0.00D+00 EMaxC= 1.00D-01 BMatC= 7.38D-11 BMatP= 3.10D-10
 IDIUse=1 WtCom= 1.00D+00 WtEn= 0.00D+00
 Coeff-Com:  0.195D-04-0.391D-04-0.658D-04-0.816D-04-0.649D-05 0.826D-03
 Coeff-Com:  0.269D-02 0.582D-02-0.415D-02-0.367D-01-0.655D-01 0.117D-01
 Coeff-Com:  0.338D+00 0.748D+00
 Coeff:      0.195D-04-0.391D-04-0.658D-04-0.816D-04-0.649D-05 0.826D-03
 Coeff:      0.269D-02 0.582D-02-0.415D-02-0.367D-01-0.655D-01 0.117D-01
 Coeff:      0.338D+00 0.748D+00
 Gap=     0.122 Goal=   None    Shift=    0.000
 RMSDP=2.49D-08 MaxDP=2.96D-06 DE=-8.42D-10 OVMax= 1.48D-05

 Cycle  15  Pass 1  IDiag  1:
 RMSU=  1.32D-08    CP:  9.68D-01  1.47D+00  7.11D-01  6.26D-01  9.19D-01
                    CP:  9.22D-01  9.67D-01  1.02D+00  1.07D+00  1.20D+00
                    CP:  9.96D-01  1.20D+00  1.45D+00  1.27D+00
 E= -3007.16665156004     Delta-E=       -0.000000000418 Rises=F Damp=F
 DIIS: error= 9.90D-08 at cycle  15 NSaved=  15.
 NSaved=15 IEnMin=15 EnMin= -3007.16665156004     IErMin=15 ErrMin= 9.90D-08
 ErrMax= 9.90D-08  0.00D+00 EMaxC= 1.00D-01 BMatC= 2.17D-11 BMatP= 7.38D-11
 IDIUse=1 WtCom= 1.00D+00 WtEn= 0.00D+00
 Coeff-Com:  0.587D-05-0.112D-04-0.246D-04-0.389D-04-0.116D-03 0.303D-04
 Coeff-Com:  0.704D-03 0.285D-02 0.172D-02-0.517D-02-0.283D-01-0.757D-01
 Coeff-Com: -0.895D-01 0.269D+00 0.924D+00
 Coeff:      0.587D-05-0.112D-04-0.246D-04-0.389D-04-0.116D-03 0.303D-04
 Coeff:      0.704D-03 0.285D-02 0.172D-02-0.517D-02-0.283D-01-0.757D-01
 Coeff:     -0.895D-01 0.269D+00 0.924D+00
 Gap=     0.122 Goal=   None    Shift=    0.000
 RMSDP=2.08D-08 MaxDP=1.67D-06 DE=-4.18D-10 OVMax= 1.32D-05

 Cycle  16  Pass 1  IDiag  1:
 RMSU=  6.33D-09    CP:  9.68D-01  1.47D+00  7.11D-01  6.26D-01  9.19D-01
                    CP:  9.22D-01  9.67D-01  1.02D+00  1.07D+00  1.20D+00
                    CP:  1.01D+00  1.28D+00  1.67D+00  1.73D+00  1.43D+00
 E= -3007.16665156014     Delta-E=       -0.000000000096 Rises=F Damp=F
 DIIS: error= 7.43D-08 at cycle  16 NSaved=  16.
 NSaved=16 IEnMin=16 EnMin= -3007.16665156014     IErMin=16 ErrMin= 7.43D-08
 ErrMax= 7.43D-08  0.00D+00 EMaxC= 1.00D-01 BMatC= 9.67D-12 BMatP= 2.17D-11
 IDIUse=1 WtCom= 1.00D+00 WtEn= 0.00D+00
 Coeff-Com: -0.401D-05 0.841D-05 0.111D-04 0.914D-05-0.718D-04-0.275D-03
 Coeff-Com: -0.742D-03-0.353D-03 0.186D-02 0.125D-01 0.828D-02-0.408D-01
 Coeff-Com: -0.177D+00-0.139D+00 0.528D+00 0.807D+00
 Coeff:     -0.401D-05 0.841D-05 0.111D-04 0.914D-05-0.718D-04-0.275D-03
 Coeff:     -0.742D-03-0.353D-03 0.186D-02 0.125D-01 0.828D-02-0.408D-01
 Coeff:     -0.177D+00-0.139D+00 0.528D+00 0.807D+00
 Gap=     0.122 Goal=   None    Shift=    0.000
 RMSDP=1.41D-08 MaxDP=1.07D-06 DE=-9.64D-11 OVMax= 8.19D-06

 Cycle  17  Pass 1  IDiag  1:
 RMSU=  3.52D-09    CP:  9.68D-01  1.47D+00  7.11D-01  6.26D-01  9.19D-01
                    CP:  9.22D-01  9.67D-01  1.02D+00  1.08D+00  1.20D+00
                    CP:  1.02D+00  1.32D+00  1.82D+00  2.03D+00  1.91D+00
                    CP:  1.24D+00
 E= -3007.16665156020     Delta-E=       -0.000000000065 Rises=F Damp=F
 DIIS: error= 2.69D-08 at cycle  17 NSaved=  17.
 NSaved=17 IEnMin=17 EnMin= -3007.16665156020     IErMin=17 ErrMin= 2.69D-08
 ErrMax= 2.69D-08  0.00D+00 EMaxC= 1.00D-01 BMatC= 2.27D-12 BMatP= 9.67D-12
 IDIUse=1 WtCom= 1.00D+00 WtEn= 0.00D+00
 Coeff-Com: -0.408D-05 0.818D-05 0.142D-04 0.173D-04-0.694D-05-0.151D-03
 Coeff-Com: -0.701D-03-0.102D-02 0.307D-03 0.927D-02 0.133D-01 0.278D-02
 Coeff-Com: -0.724D-01-0.177D+00 0.187D-01 0.403D+00 0.804D+00
 Coeff:     -0.408D-05 0.818D-05 0.142D-04 0.173D-04-0.694D-05-0.151D-03
 Coeff:     -0.701D-03-0.102D-02 0.307D-03 0.927D-02 0.133D-01 0.278D-02
 Coeff:     -0.724D-01-0.177D+00 0.187D-01 0.403D+00 0.804D+00
 Gap=     0.122 Goal=   None    Shift=    0.000
 RMSDP=7.87D-09 MaxDP=5.52D-07 DE=-6.55D-11 OVMax= 4.94D-06

 SCF Done:  E(RCAM-B3LYP) =  -3007.16665156     A.U. after   17 cycles
            NFock= 17  Conv=0.79D-08     -V/T= 2.0106
 KE= 2.975484247719D+03 PE=-2.623654584051D+04 EE= 1.063164396221D+04
 Leave Link  502 at Wed May  4 05:05:11 2022, MaxMem= 10066329600 cpu:            8846.9 elap:             384.7
 (Enter /sw/apps/gaussian-16.0/g16/l801.exe)
 DoSCS=F DFT=T ScalE2(SS,OS)=  1.000000  1.000000
 ExpMin= 3.36D-02 ExpMax= 4.95D+03 ExpMxC= 7.45D+02 IAcc=3 IRadAn=         5 AccDes= 0.00D+00
 HarFok:  IExCor=  205 AccDes= 0.00D+00 IRadAn=         5 IDoV=-2 UseB2=F ITyADJ=14
 ICtDFT= 12500011 ScaDFX=  1.000000  1.000000  1.000000  1.000000
 GSVD:  LWork=       -5460 too small for GESVD, short by       25550 words or       25550 for optimal perf.
 Largest valence mixing into a core orbital is  1.70D-04
 Largest core mixing into a valence orbital is  5.16D-05
 Range of M.O.s used for correlation:    71  1298
 NBasis=  1298 NAE=   246 NBE=   246 NFC=    70 NFV=     0
 NROrb=   1228 NOA=   176 NOB=   176 NVA=  1052 NVB=  1052

 **** Warning!!: The largest alpha MO coefficient is  0.11244736D+02

 Leave Link  801 at Wed May  4 05:05:12 2022, MaxMem= 10066329600 cpu:               6.8 elap:               0.3
 (Enter /sw/apps/gaussian-16.0/g16/l914.exe)
 RHF ground state
 Two-electron integrals replicated using symmetry.
 MDV= 10066329600 DFT=T DoStab=F Mixed=T DoRPA=T DoScal=F NonHer=T
 Making orbital integer symmetry assigments:
 Orbital symmetries:
       Occupied  (A) (A) (A) (A) (A) (A) (A) (A) (A) (A) (A) (A)
                 (A) (A) (A) (A) (A) (A) (A) (A) (A) (A) (A) (A)
                 (A) (A) (A) (A) (A) (A) (A) (A) (A) (A) (A) (A)
                 (A) (A) (A) (A) (A) (A) (A) (A) (A) (A) (A) (A)
                 (A) (A) (A) (A) (A) (A) (A) (A) (A) (A) (A) (A)
                 (A) (A) (A) (A) (A) (A) (A) (A) (A) (A) (A) (A)
                 (A) (A) (A) (A) (A) (A) (A) (A) (A) (A) (A) (A)
                 (A) (A) (A) (A) (A) (A) (A) (A) (A) (A) (A) (A)
                 (A) (A) (A) (A) (A) (A) (A) (A) (A) (A) (A) (A)
                 (A) (A) (A) (A) (A) (A) (A) (A) (A) (A) (A) (A)
                 (A) (A) (A) (A) (A) (A) (A) (A) (A) (A) (A) (A)
                 (A) (A) (A) (A) (A) (A) (A) (A) (A) (A) (A) (A)
                 (A) (A) (A) (A) (A) (A) (A) (A) (A) (A) (A) (A)
                 (A) (A) (A) (A) (A) (A) (A) (A) (A) (A) (A) (A)
                 (A) (A) (A) (A) (A) (A) (A) (A) (A) (A) (A) (A)
                 (A) (A) (A) (A) (A) (A) (A) (A) (A) (A) (A) (A)
                 (A) (A) (A) (A) (A) (A) (A) (A) (A) (A) (A) (A)
                 (A) (A) (A) (A) (A) (A) (A) (A) (A) (A) (A) (A)
                 (A) (A) (A) (A) (A) (A) (A) (A) (A) (A) (A) (A)
                 (A) (A) (A) (A) (A) (A) (A) (A) (A) (A) (A) (A)
                 (A) (A) (A) (A) (A) (A)
       Virtual   (A) (A) (A) (A) (A) (A) (A) (A) (A) (A) (A) (A)
                 (A) (A) (A) (A) (A) (A) (A) (A) (A) (A) (A) (A)
                 (A) (A) (A) (A) (A) (A) (A) (A) (A) (A) (A) (A)
                 (A) (A) (A) (A) (A) (A) (A) (A) (A) (A) (A) (A)
                 (A) (A) (A) (A) (A) (A) (A) (A) (A) (A) (A) (A)
                 (A) (A) (A) (A) (A) (A) (A) (A) (A) (A) (A) (A)
                 (A) (A) (A) (A) (A) (A) (A) (A) (A) (A) (A) (A)
                 (A) (A) (A) (A) (A) (A) (A) (A) (A) (A) (A) (A)
                 (A) (A) (A) (A) (A) (A) (A) (A) (A) (A) (A) (A)
                 (A) (A) (A) (A) (A) (A) (A) (A) (A) (A) (A) (A)
                 (A) (A) (A) (A) (A) (A) (A) (A) (A) (A) (A) (A)
                 (A) (A) (A) (A) (A) (A) (A) (A) (A) (A) (A) (A)
                 (A) (A) (A) (A) (A) (A) (A) (A) (A) (A) (A) (A)
                 (A) (A) (A) (A) (A) (A) (A) (A) (A) (A) (A) (A)
                 (A) (A) (A) (A) (A) (A) (A) (A) (A) (A) (A) (A)
                 (A) (A) (A) (A) (A) (A) (A) (A) (A) (A) (A) (A)
                 (A) (A) (A) (A) (A) (A) (A) (A) (A) (A) (A) (A)
                 (A) (A) (A) (A) (A) (A) (A) (A) (A) (A) (A) (A)
                 (A) (A) (A) (A) (A) (A) (A) (A) (A) (A) (A) (A)
                 (A) (A) (A) (A) (A) (A) (A) (A) (A) (A) (A) (A)
                 (A) (A) (A) (A) (A) (A) (A) (A) (A) (A) (A) (A)
                 (A) (A) (A) (A) (A) (A) (A) (A) (A) (A) (A) (A)
                 (A) (A) (A) (A) (A) (A) (A) (A) (A) (A) (A) (A)
                 (A) (A) (A) (A) (A) (A) (A) (A) (A) (A) (A) (A)
                 (A) (A) (A) (A) (A) (A) (A) (A) (A) (A) (A) (A)
                 (A) (A) (A) (A) (A) (A) (A) (A) (A) (A) (A) (A)
                 (A) (A) (A) (A) (A) (A) (A) (A) (A) (A) (A) (A)
                 (A) (A) (A) (A) (A) (A) (A) (A) (A) (A) (A) (A)
                 (A) (A) (A) (A) (A) (A) (A) (A) (A) (A) (A) (A)
                 (A) (A) (A) (A) (A) (A) (A) (A) (A) (A) (A) (A)
                 (A) (A) (A) (A) (A) (A) (A) (A) (A) (A) (A) (A)
                 (A) (A) (A) (A) (A) (A) (A) (A) (A) (A) (A) (A)
                 (A) (A) (A) (A) (A) (A) (A) (A) (A) (A) (A) (A)
                 (A) (A) (A) (A) (A) (A) (A) (A) (A) (A) (A) (A)
                 (A) (A) (A) (A) (A) (A) (A) (A) (A) (A) (A) (A)
                 (A) (A) (A) (A) (A) (A) (A) (A) (A) (A) (A) (A)
                 (A) (A) (A) (A) (A) (A) (A) (A) (A) (A) (A) (A)
                 (A) (A) (A) (A) (A) (A) (A) (A) (A) (A) (A) (A)
                 (A) (A) (A) (A) (A) (A) (A) (A) (A) (A) (A) (A)
                 (A) (A) (A) (A) (A) (A) (A) (A) (A) (A) (A) (A)
                 (A) (A) (A) (A) (A) (A) (A) (A) (A) (A) (A) (A)
                 (A) (A) (A) (A) (A) (A) (A) (A) (A) (A) (A) (A)
                 (A) (A) (A) (A) (A) (A) (A) (A) (A) (A) (A) (A)
                 (A) (A) (A) (A) (A) (A) (A) (A) (A) (A) (A) (A)
                 (A) (A) (A) (A) (A) (A) (A) (A) (A) (A) (A) (A)
                 (A) (A) (A) (A) (A) (A) (A) (A) (A) (A) (A) (A)
                 (A) (A) (A) (A) (A) (A) (A) (A) (A) (A) (A) (A)
                 (A) (A) (A) (A) (A) (A) (A) (A) (A) (A) (A) (A)
                 (A) (A) (A) (A) (A) (A) (A) (A) (A) (A) (A) (A)
                 (A) (A) (A) (A) (A) (A) (A) (A) (A) (A) (A) (A)
                 (A) (A) (A) (A) (A) (A) (A) (A) (A) (A) (A) (A)
                 (A) (A) (A) (A) (A) (A) (A) (A) (A) (A) (A) (A)
                 (A) (A) (A) (A) (A) (A) (A) (A) (A) (A) (A) (A)
                 (A) (A) (A) (A) (A) (A) (A) (A) (A) (A) (A) (A)
                 (A) (A) (A) (A) (A) (A) (A) (A) (A) (A) (A) (A)
                 (A) (A) (A) (A) (A) (A) (A) (A) (A) (A) (A) (A)
                 (A) (A) (A) (A) (A) (A) (A) (A) (A) (A) (A) (A)
                 (A) (A) (A) (A) (A) (A) (A) (A) (A) (A) (A) (A)
                 (A) (A) (A) (A) (A) (A) (A) (A) (A) (A) (A) (A)
                 (A) (A) (A) (A) (A) (A) (A) (A) (A) (A) (A) (A)
                 (A) (A) (A) (A) (A) (A) (A) (A) (A) (A) (A) (A)
                 (A) (A) (A) (A) (A) (A) (A) (A) (A) (A) (A) (A)
                 (A) (A) (A) (A) (A) (A) (A) (A) (A) (A) (A) (A)
                 (A) (A) (A) (A) (A) (A) (A) (A) (A) (A) (A) (A)
                 (A) (A) (A) (A) (A) (A) (A) (A) (A) (A) (A) (A)
                 (A) (A) (A) (A) (A) (A) (A) (A) (A) (A) (A) (A)
                 (A) (A) (A) (A) (A) (A) (A) (A) (A) (A) (A) (A)
                 (A) (A) (A) (A) (A) (A) (A) (A) (A) (A) (A) (A)
                 (A) (A) (A) (A) (A) (A) (A) (A) (A) (A) (A) (A)
                 (A) (A) (A) (A) (A) (A) (A) (A) (A) (A) (A) (A)
                 (A) (A) (A) (A) (A) (A) (A) (A) (A) (A) (A) (A)
                 (A) (A) (A) (A) (A) (A) (A) (A) (A) (A) (A) (A)
                 (A) (A) (A) (A) (A) (A) (A) (A) (A) (A) (A) (A)
                 (A) (A) (A) (A) (A) (A) (A) (A) (A) (A) (A) (A)
                 (A) (A) (A) (A) (A) (A) (A) (A) (A) (A) (A) (A)
                 (A) (A) (A) (A) (A) (A) (A) (A) (A) (A) (A) (A)
                 (A) (A) (A) (A) (A) (A) (A) (A) (A) (A) (A) (A)
                 (A) (A) (A) (A) (A) (A) (A) (A) (A) (A) (A) (A)
                 (A) (A) (A) (A) (A) (A) (A) (A) (A) (A) (A) (A)
                 (A) (A) (A) (A) (A) (A) (A) (A) (A) (A) (A) (A)
                 (A) (A) (A) (A) (A) (A) (A) (A) (A) (A) (A) (A)
                 (A) (A) (A) (A) (A) (A) (A) (A) (A) (A) (A) (A)
                 (A) (A) (A) (A) (A) (A) (A) (A) (A) (A) (A) (A)
                 (A) (A) (A) (A) (A) (A) (A) (A) (A) (A) (A) (A)
                 (A) (A) (A) (A) (A) (A) (A) (A) (A) (A) (A) (A)
                 (A) (A) (A) (A) (A) (A) (A) (A) (A) (A) (A) (A)
                 (A) (A) (A) (A) (A) (A) (A) (A) (A) (A) (A) (A)
                 (A) (A) (A) (A) (A) (A) (A) (A)
    20 initial guesses have been made.
 Convergence on wavefunction:    0.001000000000000
 Davidson Disk Diagonalization:  ConvIn= 1.00D-03 SkipCon=T Conv= 1.00D-03.
 Max sub-space:  2000 roots to seek:    20 dimension of matrix:       370304
 Iteration     1 Dimension    20 NMult     0 NNew     20
 CISAX will form    20 AO SS matrices at one time.
 NMat=    20 NSing=    20 JSym2X= 0.
 FoFJK:  IHMeth= 1 ICntrl=       0 DoSepK=T KAlg= 0 I1Cent=           0 FoldK=F
 IRaf=         1 NMat=      40 IRICut=       1 DoRegI=T DoRafI=F ISym2E= 0 IDoP0=3 IntGTp=3.
 FoFCou: FMM=T IPFlag=           0 FMFlag=      100000 FMFlg1=        2001
         NFxFlg=           0 DoJE=F BraDBF=F KetDBF=F FulRan=T
         wScrn=  0.000000 ICntrl=       500 IOpCl=  0 I1Cent=           0 NGrid=           0
         NMat0=   20 NMatS0=     20 NMatT0=    0 NMatD0=   20 NMtDS0=    0 NMtDT0=    0
 Symmetry not used in FoFCou.
 FMM levels:  10  Number of levels for PrismC:   9
 New state      3 was old state      5
 New state      4 was old state      6
 New state      5 was old state      7
 Excitation Energies [eV] at current iteration:
 Root      1 :     2.174633898938456
 Root      2 :     2.589003075488455
 Root      3 :     3.830286585787350
 Root      4 :     3.968068919559335
 Root      5 :     3.994050683389515
 Root      6 :     4.132626964183186
 Root      7 :     4.274618560669396
 Root      8 :     4.322905057731907
 Root      9 :     4.335445650460745
 Root     10 :     4.443836202816218
 Root     11 :     4.638472041485542
 Root     12 :     4.789686103034668
 Root     13 :     4.945032135467190
 Root     14 :     5.059349990498199
 Root     15 :     5.085697676825697
 Root     16 :     5.187271698431979
 Root     17 :     5.303318865765874
 Root     18 :     5.326296739736970
 Root     19 :     5.567503307582861
 Root     20 :     6.441573075075072
 Iteration     2 Dimension    30 NMult    20 NNew     10
 CISAX will form    10 AO SS matrices at one time.
 NMat=    10 NSing=    10 JSym2X= 0.
 Root      1 not converged, maximum delta is    0.072380814554990
 Root      2 not converged, maximum delta is    0.055086465322465
 New state      3 was old state      5
 Root      3 not converged, maximum delta is    0.382882517094856
 New state      4 was old state      3
 Root      4 not converged, maximum delta is    0.330993746839095
 New state      5 was old state      4
 Root      5 not converged, maximum delta is    0.354983931474394
 Excitation Energies [eV] at current iteration:
 Root      1 :     1.701177714279415   Change is   -0.473456184659042
 Root      2 :     2.233781407537536   Change is   -0.355221667950919
 Root      3 :     3.471662127704216   Change is   -0.522388555685299
 Root      4 :     3.496354850158048   Change is   -0.333931735629303
 Root      5 :     3.520343618717888   Change is   -0.447725300841447
 Iteration     3 Dimension    40 NMult    30 NNew     10
 CISAX will form    10 AO SS matrices at one time.
 NMat=    10 NSing=    10 JSym2X= 0.
 Root      1 not converged, maximum delta is    0.017375447389512
 Root      2 not converged, maximum delta is    0.010181289900399
 Root      3 not converged, maximum delta is    0.242921996967238
 Root      4 not converged, maximum delta is    0.325596575769105
 Root      5 not converged, maximum delta is    0.271846340232651
 Excitation Energies [eV] at current iteration:
 Root      1 :     1.665717565548454   Change is   -0.035460148730961
 Root      2 :     2.214735405837731   Change is   -0.019046001699805
 Root      3 :     3.358638385263890   Change is   -0.113023742440326
 Root      4 :     3.422949397895859   Change is   -0.073405452262189
 Root      5 :     3.486014098718879   Change is   -0.034329519999009
 Iteration     4 Dimension    50 NMult    40 NNew     10
 CISAX will form    10 AO SS matrices at one time.
 NMat=    10 NSing=    10 JSym2X= 0.
 Root      1 not converged, maximum delta is    0.002728963244981
 Root      2 not converged, maximum delta is    0.003572292064923
 Root      3 not converged, maximum delta is    0.013916958655470
 Root      4 not converged, maximum delta is    0.041951030885269
 Root      5 not converged, maximum delta is    0.030468784137922
 Excitation Energies [eV] at current iteration:
 Root      1 :     1.661494424070542   Change is   -0.004223141477912
 Root      2 :     2.211775943494804   Change is   -0.002959462342926
 Root      3 :     3.349832497023398   Change is   -0.008805888240492
 Root      4 :     3.405359822056147   Change is   -0.017589575839712
 Root      5 :     3.480199259033199   Change is   -0.005814839685680
 Iteration     5 Dimension    60 NMult    50 NNew     10
 CISAX will form    10 AO SS matrices at one time.
 NMat=    10 NSing=    10 JSym2X= 0.
 Root      1 not converged, maximum delta is    0.001349148279222
 Root      2 has converged.
 Root      3 not converged, maximum delta is    0.008786017942256
 Root      4 not converged, maximum delta is    0.008493780491177
 Root      5 not converged, maximum delta is    0.006892700910018
 Excitation Energies [eV] at current iteration:
 Root      1 :     1.661139808495525   Change is   -0.000354615575017
 Root      2 :     2.211552786644798   Change is   -0.000223156850006
 Root      3 :     3.348556861892150   Change is   -0.001275635131247
 Root      4 :     3.402949694693474   Change is   -0.002410127362673
 Root      5 :     3.479509000110256   Change is   -0.000690258922944
 Iteration     6 Dimension    68 NMult    60 NNew      8
 CISAX will form     8 AO SS matrices at one time.
 NMat=     8 NSing=     8 JSym2X= 0.
 Root      1 has converged.
 Root      2 has converged.
 Root      3 not converged, maximum delta is    0.003833557934741
 Root      4 not converged, maximum delta is    0.003610631362639
 Root      5 not converged, maximum delta is    0.002623828785692
 Excitation Energies [eV] at current iteration:
 Root      1 :     1.661105711647788   Change is   -0.000034096847737
 Root      2 :     2.211550785053819   Change is   -0.000002001590979
 Root      3 :     3.348338290398526   Change is   -0.000218571493625
 Root      4 :     3.402533712780274   Change is   -0.000415981913200
 Root      5 :     3.479355823557704   Change is   -0.000153176552552
 Iteration     7 Dimension    74 NMult    68 NNew      6
 CISAX will form     6 AO SS matrices at one time.
 NMat=     6 NSing=     6 JSym2X= 0.
 Root      1 has converged.
 Root      2 has converged.
 Root      3 not converged, maximum delta is    0.001236721815739
 Root      4 not converged, maximum delta is    0.001482157543154
 Root      5 not converged, maximum delta is    0.004107169491560
 Excitation Energies [eV] at current iteration:
 Root      1 :     1.661105563531539   Change is   -0.000000148116249
 Root      2 :     2.211548334174832   Change is   -0.000002450878987
 Root      3 :     3.348303312743771   Change is   -0.000034977654755
 Root      4 :     3.402456481538552   Change is   -0.000077231241722
 Root      5 :     3.479266276772527   Change is   -0.000089546785177
 Iteration     8 Dimension    80 NMult    74 NNew      6
 CISAX will form     6 AO SS matrices at one time.
 NMat=     6 NSing=     6 JSym2X= 0.
 Root      1 has converged.
 Root      2 has converged.
 Root      3 has converged.
 Root      4 has converged.
 Root      5 not converged, maximum delta is    0.002420969967761
 Excitation Energies [eV] at current iteration:
 Root      1 :     1.661105293378313   Change is   -0.000000270153226
 Root      2 :     2.211547786282549   Change is   -0.000000547892283
 Root      3 :     3.348298289971746   Change is   -0.000005022772024
 Root      4 :     3.402443465522984   Change is   -0.000013016015568
 Root      5 :     3.479227172096442   Change is   -0.000039104676085
 Iteration     9 Dimension    82 NMult    80 NNew      2
 CISAX will form     2 AO SS matrices at one time.
 NMat=     2 NSing=     2 JSym2X= 0.
 Root      1 has converged.
 Root      2 has converged.
 Root      3 has converged.
 Root      4 has converged.
 Root      5 has converged.
 Excitation Energies [eV] at current iteration:
 Root      1 :     1.661105289607795   Change is   -0.000000003770517
 Root      2 :     2.211547736752020   Change is   -0.000000049530529
 Root      3 :     3.348298288169333   Change is   -0.000000001802413
 Root      4 :     3.402443251927317   Change is   -0.000000213595667
 Root      5 :     3.479220125475100   Change is   -0.000007046621341
 Convergence achieved on expansion vectors.
 ***********************************************************************
 Excited states from <AA,BB:AA,BB> singles matrix:
 ***********************************************************************
 
 1PDM for each excited state written to RWF  633
 Ground to excited state transition densities written to RWF  633
 Ground to excited state transition electric dipole moments (Au):
       state          X           Y           Z        Dip. S.      Osc.
         1        -1.9812      2.3402     -0.0053      9.4017      0.3826
         2        -0.7750     -0.8984     -0.0419      1.4096      0.0764
         3        -0.2951     -0.3509     -0.0285      0.2110      0.0173
         4         1.9140      1.9494     -0.0028      7.4634      0.6221
         5        -0.0407     -0.1776      0.0141      0.0334      0.0028
 Ground to excited state transition velocity dipole moments (Au):
       state          X           Y           Z        Dip. S.      Osc.
         1         0.1174     -0.1397      0.0014      0.0333      0.3636
         2         0.0597      0.0697      0.0026      0.0084      0.0691
         3         0.0360      0.0424      0.0022      0.0031      0.0168
         4        -0.2305     -0.2371      0.0007      0.1094      0.5831
         5         0.0039      0.0224     -0.0019      0.0005      0.0027
 Ground to excited state transition magnetic dipole moments (Au):
       state          X           Y           Z
         1         0.0696     -0.0305     -1.6124
         2        -0.0412     -0.0660      0.4455
         3        -0.2558      0.6261      0.5156
         4        -0.0202      0.1745     -2.1265
         5        -0.0417     -0.1138     -0.7299
 Ground to excited state transition velocity quadrupole moments (Au):
       state          XX          YY          ZZ          XY          XZ          YZ
         1         2.2497     -0.5381      0.0113     -1.1224     -0.0081      0.0977
         2         1.1953      0.1066     -0.0060      0.7439      0.0581     -0.0432
         3         0.6716      0.0322     -0.0018      0.4119      0.0232     -0.0333
         4        -3.9776     -0.4871     -0.0076     -2.7120     -0.1060      0.0079
         5        -0.1498      0.5247     -0.0145      0.1613      0.0570      0.0458
 <0|del|b> * <b|rxdel|0> + <0|del|b> * <b|delr+rdel|0>
 Rotatory Strengths (R) in cgs (10**-40 erg-esu-cm/Gauss)
       state          XX          YY          ZZ    R(velocity)    E-M Angle
         1        -4.7591    109.6655     12.1076     39.0047       88.03
         2       -24.1764    -25.2883     -1.8842    -17.1163       98.17
         3        79.1728    -29.2922     56.0005     35.2937       67.10
         4      -198.0643      9.2759    -27.6034    -72.1306       93.11
         5        -7.5590      4.7616     -4.4640     -2.4205       94.46
 1/2[<0|r|b>*<b|rxdel|0> + (<0|rxdel|b>*<b|r|0>)*]
 Rotatory Strengths (R) in cgs (10**-40 erg-esu-cm/Gauss)
       state          XX          YY          ZZ     R(length)
         1        97.5362     50.5401     -6.0193     47.3523
         2       -22.5862    -41.9087     13.2128    -17.0940
         3       -53.3877    155.3634     10.4024     37.4593
         4        27.3979   -240.5437     -4.1888    -72.4449
         5        -1.2000    -14.2861      7.2594     -2.7422
  1/2[<0|del|b>*<b|r|0> + (<0|r|b>*<b|del|0>)*] (Au)
       state          X           Y           Z        Dip. S.   Osc.(frdel)
         1        -0.2325     -0.3269     -0.0000      0.5595      0.3730
         2        -0.0463     -0.0626     -0.0001      0.1090      0.0727
         3        -0.0106     -0.0149     -0.0001      0.0256      0.0170
         4        -0.4412     -0.4622     -0.0000      0.9035      0.6023
         5        -0.0002     -0.0040     -0.0000      0.0042      0.0028

 Excitation energies and oscillator strengths:
 
 Excited State   1:      Singlet-A      1.6611 eV  746.40 nm  f=0.3826  <S**2>=0.000
     245 -> 248       -0.18404
     246 -> 247        0.68552
     245 <- 248       -0.11050
 This state for optimization and/or second-order correction.
 Total Energy, E(TD-HF/TD-DFT) =  -3007.10560706    
 Copying the excited state density for this state as the 1-particle RhoCI density.
 
 Excited State   2:      Singlet-A      2.2115 eV  560.62 nm  f=0.0764  <S**2>=0.000
     245 -> 247        0.62355
     246 -> 248        0.32496
 
 Excited State   3:      Singlet-A      3.3483 eV  370.29 nm  f=0.0173  <S**2>=0.000
     242 -> 247        0.52658
     242 -> 249       -0.29810
     242 -> 250       -0.20894
     243 -> 247       -0.15424
     244 -> 247        0.13804
 
 Excited State   4:      Singlet-A      3.4024 eV  364.40 nm  f=0.6221  <S**2>=0.000
     243 -> 247       -0.19109
     245 -> 247       -0.29692
     246 -> 248        0.59878
     245 <- 247        0.10976
 
 Excited State   5:      Singlet-A      3.4792 eV  356.36 nm  f=0.0028  <S**2>=0.000
     242 -> 247       -0.14733
     244 -> 247        0.67472
 SavETr:  write IOETrn=   770 NScale= 10 NData=  16 NLR=1 NState=    5 LETran=     100.
 Leave Link  914 at Wed May  4 05:24:15 2022, MaxMem= 10066329600 cpu:           27173.2 elap:            1142.7
 (Enter /sw/apps/gaussian-16.0/g16/l601.exe)
 Copying SCF densities to generalized density rwf, IOpCl= 0 IROHF=0.
 Hyperfine terms turned off by default for NAtoms > 100.

 **********************************************************************

            Population analysis using the SCF density.

 **********************************************************************

 Orbital symmetries:
       Occupied  (A) (A) (A) (A) (A) (A) (A) (A) (A) (A) (A) (A)
                 (A) (A) (A) (A) (A) (A) (A) (A) (A) (A) (A) (A)
                 (A) (A) (A) (A) (A) (A) (A) (A) (A) (A) (A) (A)
                 (A) (A) (A) (A) (A) (A) (A) (A) (A) (A) (A) (A)
                 (A) (A) (A) (A) (A) (A) (A) (A) (A) (A) (A) (A)
                 (A) (A) (A) (A) (A) (A) (A) (A) (A) (A) (A) (A)
                 (A) (A) (A) (A) (A) (A) (A) (A) (A) (A) (A) (A)
                 (A) (A) (A) (A) (A) (A) (A) (A) (A) (A) (A) (A)
                 (A) (A) (A) (A) (A) (A) (A) (A) (A) (A) (A) (A)
[...]
 Alpha virt. eigenvalues --    1.21984   1.22409   1.23194   1.23745   1.23962
 Alpha virt. eigenvalues --    1.24450   1.24816   1.25077   1.25271   1.25868
 Alpha virt. eigenvalues --    1.26098   1.26869   1.27091   1.28052   1.29012
 Alpha virt. eigenvalues --    1.29756   1.29884   1.30467   1.30896   1.31566
 Alpha virt. eigenvalues --    1.31999   1.32595   1.33008   1.33180   1.33732
 Alpha virt. eigenvalues --    1.33991   1.34441   1.35007   1.35349   1.35697
 Alpha virt. eigenvalues --    1.36235   1.37391   1.37949   1.38435   1.38580
 Alpha virt. eigenvalues --    1.38859   1.39756   1.40823   1.41030   1.41606
 Alpha virt. eigenvalues --    1.41889   1.41937   1.42107   1.42667   1.42788
 Alpha virt. eigenvalues --    1.43088   1.43332   1.43888   1.44010   1.44538
 Alpha virt. eigenvalues --    1.44832   1.45010   1.45758   1.46158   1.46220
 Alpha virt. eigenvalues --    1.46909   1.47134   1.48311   1.48403   1.49064
 Alpha virt. eigenvalues --    1.49110   1.49452   1.50101   1.50644   1.50791
 Alpha virt. eigenvalues --    1.51146   1.51495   1.51661   1.51783   1.52416
 Alpha virt. eigenvalues --    1.52464   1.52796   1.53300   1.53374   1.54262
 Alpha virt. eigenvalues --    1.54805   1.55261   1.55554   1.56245   1.57142
 Alpha virt. eigenvalues --    1.57418   1.57641   1.57873   1.58522   1.58584
 Alpha virt. eigenvalues --    1.59041   1.59252   1.59411   1.59598   1.59913
 Alpha virt. eigenvalues --    1.60614   1.60890   1.61062   1.61147   1.61380
 Alpha virt. eigenvalues --    1.61579   1.61827   1.61866   1.62095   1.62257
 Alpha virt. eigenvalues --    1.62673   1.62873   1.63302   1.63631   1.64008
 Alpha virt. eigenvalues --    1.64300   1.64543   1.64618   1.64910   1.65078
 Alpha virt. eigenvalues --    1.65360   1.65711   1.66036   1.66610   1.66865
 Alpha virt. eigenvalues --    1.67561   1.67760   1.68292   1.68596   1.69541
 Alpha virt. eigenvalues --    1.70195   1.70530   1.70803   1.70899   1.71382
 Alpha virt. eigenvalues --    1.71803   1.72169   1.72579   1.72897   1.73229
 Alpha virt. eigenvalues --    1.73692   1.74065   1.74878   1.75191   1.75985
 Alpha virt. eigenvalues --    1.76086   1.77105   1.77601   1.77815   1.77921
 Alpha virt. eigenvalues --    1.78083   1.78431   1.78492   1.78710   1.78846
 Alpha virt. eigenvalues --    1.79019   1.79385   1.79539   1.79741   1.79949
 Alpha virt. eigenvalues --    1.80453   1.80724   1.81100   1.81255   1.81468
 Alpha virt. eigenvalues --    1.81575   1.82078   1.82218   1.82511   1.82661
 Alpha virt. eigenvalues --    1.82745   1.83314   1.83350   1.83645   1.83907
 Alpha virt. eigenvalues --    1.84077   1.84206   1.84418   1.84512   1.84937
 Alpha virt. eigenvalues --    1.85035   1.85265   1.85350   1.85493   1.85551
 Alpha virt. eigenvalues --    1.85658   1.85864   1.86134   1.86298   1.86588
 Alpha virt. eigenvalues --    1.86905   1.87165   1.87318   1.87422   1.87716
 Alpha virt. eigenvalues --    1.87884   1.88045   1.88246   1.88503   1.88765
 Alpha virt. eigenvalues --    1.88935   1.89108   1.89418   1.89518   1.89565
 Alpha virt. eigenvalues --    1.89834   1.90024   1.90251   1.90479   1.90727
 Alpha virt. eigenvalues --    1.90914   1.91177   1.91420   1.91626   1.91730
 Alpha virt. eigenvalues --    1.91892   1.92332   1.92424   1.92671   1.93265
 Alpha virt. eigenvalues --    1.93567   1.93773   1.93921   1.94001   1.94324
 Alpha virt. eigenvalues --    1.94741   1.95029   1.95200   1.95472   1.95789
 Alpha virt. eigenvalues --    1.95841   1.95909   1.96095   1.96421   1.96895
 Alpha virt. eigenvalues --    1.96964   1.97211   1.97337   1.97642   1.97829
 Alpha virt. eigenvalues --    1.97877   1.98499   1.99044   1.99195   1.99379
 Alpha virt. eigenvalues --    1.99469   1.99815   2.00101   2.00325   2.00473
 Alpha virt. eigenvalues --    2.00632   2.00837   2.01254   2.01366   2.01700
 Alpha virt. eigenvalues --    2.01984   2.02531   2.02792   2.03098   2.03297
 Alpha virt. eigenvalues --    2.03577   2.03751   2.03892   2.04131   2.04544
 Alpha virt. eigenvalues --    2.04647   2.04977   2.05111   2.05336   2.05555
 Alpha virt. eigenvalues --    2.05791   2.06144   2.06372   2.06590   2.06993
 Alpha virt. eigenvalues --    2.07297   2.07611   2.08129   2.08369   2.08707
 Alpha virt. eigenvalues --    2.09259   2.09535   2.09763   2.09913   2.10367
 Alpha virt. eigenvalues --    2.10776   2.11054   2.11246   2.11267   2.11568
 Alpha virt. eigenvalues --    2.12134   2.12472   2.12750   2.12952   2.12997
 Alpha virt. eigenvalues --    2.13312   2.13576   2.14123   2.14940   2.14990
 Alpha virt. eigenvalues --    2.15143   2.15223   2.15578   2.16169   2.16471
 Alpha virt. eigenvalues --    2.16640   2.16749   2.17105   2.17276   2.17884
 Alpha virt. eigenvalues --    2.18137   2.18245   2.18665   2.19403   2.19678
 Alpha virt. eigenvalues --    2.19749   2.19924   2.20357   2.20458   2.20806
 Alpha virt. eigenvalues --    2.20931   2.21598   2.21917   2.22425   2.22553
 Alpha virt. eigenvalues --    2.23019   2.23219   2.23420   2.24022   2.24189
 Alpha virt. eigenvalues --    2.24525   2.25095   2.25565   2.25699   2.25997
 Alpha virt. eigenvalues --    2.26278   2.27176   2.27364   2.27596   2.28271
 Alpha virt. eigenvalues --    2.28714   2.28910   2.30098   2.30417   2.30871
 Alpha virt. eigenvalues --    2.30909   2.32133   2.32322   2.32808   2.33090
 Alpha virt. eigenvalues --    2.33741   2.33991   2.34246   2.35031   2.35196
 Alpha virt. eigenvalues --    2.35694   2.35819   2.36697   2.36976   2.37054
 Alpha virt. eigenvalues --    2.37634   2.38079   2.38242   2.38850   2.39171
 Alpha virt. eigenvalues --    2.39235   2.39401   2.39675   2.40096   2.40138
 Alpha virt. eigenvalues --    2.40661   2.41010   2.41250   2.41594   2.42109
 Alpha virt. eigenvalues --    2.42179   2.42504   2.42961   2.43289   2.43587
 Alpha virt. eigenvalues --    2.43949   2.44372   2.44681   2.44918   2.45248
 Alpha virt. eigenvalues --    2.46056   2.46711   2.46971   2.47415   2.48015
 Alpha virt. eigenvalues --    2.48240   2.48764   2.49059   2.49773   2.50049
 Alpha virt. eigenvalues --    2.50192   2.50481   2.50874   2.51212   2.51457
 Alpha virt. eigenvalues --    2.51990   2.52275   2.53197   2.53575   2.54267
 Alpha virt. eigenvalues --    2.54454   2.54600   2.55615   2.56156   2.56247
 Alpha virt. eigenvalues --    2.56635   2.56775   2.56937   2.57059   2.57169
 Alpha virt. eigenvalues --    2.57802   2.58330   2.59141   2.59613   2.59980
 Alpha virt. eigenvalues --    2.60481   2.60594   2.60976   2.61298   2.61906
 Alpha virt. eigenvalues --    2.62290   2.62895   2.63429   2.63821   2.64130
 Alpha virt. eigenvalues --    2.64281   2.64429   2.64622   2.65282   2.65778
 Alpha virt. eigenvalues --    2.66279   2.66444   2.68035   2.68225   2.68331
 Alpha virt. eigenvalues --    2.68490   2.69107   2.69567   2.69595   2.70237
 Alpha virt. eigenvalues --    2.70699   2.70941   2.71494   2.71859   2.72311
 Alpha virt. eigenvalues --    2.72980   2.73313   2.73578   2.73702   2.73988
 Alpha virt. eigenvalues --    2.74275   2.75151   2.75576   2.76062   2.76555
 Alpha virt. eigenvalues --    2.76660   2.76912   2.77198   2.77723   2.77826
 Alpha virt. eigenvalues --    2.78522   2.78813   2.79386   2.79457   2.79636
 Alpha virt. eigenvalues --    2.80253   2.80530   2.81105   2.81783   2.82678
 Alpha virt. eigenvalues --    2.83045   2.83106   2.83637   2.83663   2.84422
 Alpha virt. eigenvalues --    2.84682   2.84828   2.84987   2.86236   2.87042
 Alpha virt. eigenvalues --    2.87415   2.88114   2.88615   2.89490   2.89709
 Alpha virt. eigenvalues --    2.90090   2.90433   2.90795   2.91548   2.92130
 Alpha virt. eigenvalues --    2.92648   2.93080   2.93636   2.93733   2.93935
 Alpha virt. eigenvalues --    2.94429   2.94967   2.95693   2.96436   2.96510
 Alpha virt. eigenvalues --    2.96603   2.97035   2.97513   2.97753   2.98242
 Alpha virt. eigenvalues --    2.98374   2.98587   2.98608   2.99020   2.99418
 Alpha virt. eigenvalues --    2.99469   2.99852   2.99979   3.00356   3.00656
 Alpha virt. eigenvalues --    3.00902   3.01119   3.01233   3.01450   3.01667
 Alpha virt. eigenvalues --    3.01856   3.02096   3.02653   3.02881   3.03354
 Alpha virt. eigenvalues --    3.03674   3.04049   3.04322   3.04439   3.04792
 Alpha virt. eigenvalues --    3.04990   3.05166   3.05330   3.05995   3.06217
 Alpha virt. eigenvalues --    3.06748   3.06913   3.07185   3.07562   3.08602
 Alpha virt. eigenvalues --    3.08782   3.09482   3.09891   3.10215   3.10371
 Alpha virt. eigenvalues --    3.10634   3.10953   3.11393   3.11814   3.12671
 Alpha virt. eigenvalues --    3.13990   3.14387   3.14621   3.14936   3.15234
 Alpha virt. eigenvalues --    3.16016   3.16368   3.16485   3.16851   3.17592
 Alpha virt. eigenvalues --    3.17659   3.18518   3.18833   3.19439   3.20207
 Alpha virt. eigenvalues --    3.21743   3.23247   3.23537   3.23643   3.24739
 Alpha virt. eigenvalues --    3.24991   3.26386   3.26516   3.27475   3.28876
 Alpha virt. eigenvalues --    3.31860   3.33779   3.38300   3.44082   3.45873
 Alpha virt. eigenvalues --    3.47148   3.47912   3.50483   3.56258   3.58305
 Alpha virt. eigenvalues --    3.60721   3.61414   3.69051   3.70916   3.71818
 Alpha virt. eigenvalues --    3.73607   3.76987
          Condensed to atoms (all electrons):
 Mulliken charges:
               1
     1  Mg   0.834776
     2  C   -0.115638
     3  C   -0.082284
     4  C   -0.060177
     5  C   -0.088819
     6  N   -0.271198
     7  C    0.025910
     8  C   -0.058991
     9  C   -0.068926
    10  C   -0.014820
    11  C    0.095000
    12  C    0.066200
    13  C    0.073390
    14  C    0.175894
    15  O   -0.231110
    16  O   -0.360462
    17  N   -0.333121
    18  C    0.156631
    19  C   -0.156936
    20  C    0.008655
    21  C    0.107512
    22  C    0.120052
    23  C   -0.024364
    24  O   -0.196414
    25  C    0.038724
    26  N   -0.335434
    27  C    0.027598
    28  C   -0.061162
    29  C    0.017575
    30  C    0.045338
    31  C    0.083800
    32  C    0.027980
    33  C    0.015934
    34  N   -0.355771
    35  C    0.097560
    36  C   -0.161400
    37  C    0.005087
    38  C    0.117864
    39  C    0.133079
    40  C    0.020329
    41  O   -0.220588
    42  C    0.106172
    43  C    0.187780
    44  O   -0.208885
    45  O   -0.340686
    46  C    0.186836
    47  C    0.284817
    48  C   -0.144226
    49  C   -0.178596
    50  C    0.081343
    51  C    0.066037
    52  C    0.054689
    53  C    0.058303
    54  C   -0.129357
    55  C    0.030171
    56  C    0.079054
    57  C    0.033858
    58  C    0.006619
    59  C   -0.106981
    60  C    0.055645
    61  C    0.086533
    62  C    0.005992
    63  C    0.027050
    64  C   -0.157911
    65  C    0.049832
    66  C    0.026946
    67  H   -0.031821
    68  H   -0.009097
    69  H   -0.026883
    70  H    0.037811
    71  H    0.010921
    72  H    0.022339
    73  H    0.028430
    74  H    0.018245
    75  H    0.000207
    76  H    0.010278
    77  H    0.019189
    78  H    0.028298
    79  H    0.045746
    80  H    0.008021
    81  H    0.018322
    82  H    0.039185
    83  H    0.036198
    84  H    0.026741
    85  H    0.004356
    86  H   -0.003008
    87  H    0.008008
    88  H    0.028580
    89  H    0.028179
    90  H    0.011234
    91  H    0.008123
    92  H    0.008066
    93  H    0.043571
    94  H    0.005386
    95  H    0.021369
    96  H    0.046179
    97  H    0.024632
    98  H    0.051696
    99  H    0.034443
   100  H    0.040567
   101  H    0.034210
   102  H    0.053948
   103  H    0.020914
   104  H   -0.004603
   105  H    0.029767
   106  H    0.000855
   107  H    0.030856
   108  H   -0.000909
   109  H    0.000883
   110  H    0.005079
   111  H    0.000147
   112  H   -0.003653
   113  H   -0.005768
   114  H   -0.005067
   115  H    0.013683
   116  H   -0.003166
   117  H   -0.003840
   118  H   -0.023582
   119  H   -0.017676
   120  H   -0.011394
   121  H   -0.010295
   122  H   -0.011046
   123  H   -0.013023
   124  H   -0.000154
   125  H    0.019632
   126  H    0.003023
   127  H   -0.007608
   128  H   -0.009355
   129  H   -0.004579
   130  H   -0.013212
   131  H   -0.008478
   132  H   -0.001970
   133  H   -0.003774
   134  H    0.001669
   135  H   -0.004567
   136  H    0.008001
   137  H    0.004779
   138  H    0.007991
   139  H    0.013941
   140  H    0.016522
 Sum of Mulliken charges =  -0.00000
 Mulliken charges with hydrogens summed into heavy atoms:
               1
     1  Mg   0.834776
     2  C   -0.115638
     3  C   -0.114105
     4  C   -0.069274
     5  C   -0.115701
     6  N   -0.271198
     7  C    0.025910
     8  C   -0.021181
     9  C   -0.058005
    10  C   -0.014820
    11  C    0.164014
    12  C    0.076685
    13  C    0.120878
    14  C    0.175894
    15  O   -0.231110
    16  O   -0.360462
    17  N   -0.333121
    18  C    0.156631
    19  C   -0.156936
    20  C    0.008655
    21  C    0.107512
    22  C    0.192141
    23  C   -0.024364
    24  O   -0.196414
    25  C    0.140847
    26  N   -0.335434
    27  C    0.027598
    28  C   -0.056806
    29  C    0.014566
    30  C    0.045338
    31  C    0.148568
    32  C    0.047337
    33  C    0.072956
    34  N   -0.355771
    35  C    0.097560
    36  C   -0.161400
    37  C    0.005087
    38  C    0.117864
    39  C    0.225260
    40  C    0.020329
    41  O   -0.220588
    42  C    0.157869
    43  C    0.187780
    44  O   -0.208885
    45  O   -0.340686
    46  C    0.296057
    47  C    0.359680
    48  C   -0.148829
    49  C   -0.178596
    50  C    0.142822
    51  C    0.066010
    52  C    0.059915
    53  C    0.048882
    54  C   -0.134425
    55  C    0.036848
    56  C    0.037796
    57  C    0.012169
    58  C   -0.017449
    59  C   -0.107135
    60  C    0.070692
    61  C    0.072600
    62  C   -0.015698
    63  C    0.021306
    64  C   -0.156241
    65  C    0.058044
    66  C    0.065400
 Electronic spatial extent (au):  <R**2>=         122400.3346
 Charge=             -0.0000 electrons
 Dipole moment (field-independent basis, Debye):
    X=             -5.3325    Y=              2.3798    Z=              3.6504  Tot=              6.8865
 Quadrupole moment (field-independent basis, Debye-Ang):
   XX=           -393.1182   YY=           -437.9707   ZZ=           -404.2891
   XY=             29.9932   XZ=             14.5867   YZ=            -13.7059
 Traceless Quadrupole moment (field-independent basis, Debye-Ang):
   XX=             18.6745   YY=            -26.1781   ZZ=              7.5036
   XY=             29.9932   XZ=             14.5867   YZ=            -13.7059
 Octapole moment (field-independent basis, Debye-Ang**2):
  XXX=            404.8277  YYY=           -129.6224  ZZZ=             10.2281  XYY=           -293.7238
  XXY=            172.1461  XXZ=            126.1848  XZZ=              2.1529  YZZ=            -16.6536
  YYZ=             24.9633  XYZ=            -52.3412
 Hexadecapole moment (field-independent basis, Debye-Ang**3):
 XXXX=        -135996.7928 YYYY=         -28627.9288 ZZZZ=          -3996.1153 XXXY=           2907.8191
 XXXZ=             41.0364 YYYX=           -118.2020 YYYZ=            -22.0546 ZZZX=             44.5563
 ZZZY=             -6.6153 XXYY=         -29259.4502 XXZZ=         -24012.9603 YYZZ=          -5136.3051
 XXYZ=           -242.9146 YYXZ=            177.2587 ZZXY=            110.2435
 N-N= 9.622250979022D+03 E-N=-2.623654584990D+04  KE= 2.975484247719D+03
 Leave Link  601 at Wed May  4 05:24:15 2022, MaxMem= 10066329600 cpu:              10.0 elap:               0.5
 (Enter /sw/apps/gaussian-16.0/g16/l9999.exe)
 1\1\GINC-BP1-COMPUTE065\SP\RCAM-B3LYP TD-FC\def2SVP\C55H74Mg1N4O6\OF15
 641\04-May-2022\0\\#p cam-b3lyp/Def2SVP td=(nstates=5)\\step_1401_chro
 mophore_24 TDDFT with cam-b3lyp functional\\0,1\Mg,0,0.177,43.474,25.5
 17\C,0,2.374,43.055,28.226\C,0,-2.514,42.911,27.703\C,0,-2.016,43.361,
 22.988\C,0,2.819,43.929,23.403\N,0,0.035,43.093,27.644\C,0,0.985,43.1,
 28.569\C,0,0.437,42.977,30.007\C,0,-0.995,42.549,29.767\C,0,-1.191,42.
 94,28.309\C,0,-1.318,41.028,30.013\C,0,0.446,44.295,30.875\C,0,-0.141,
 44.228,32.32\C,0,-0.145,42.749,32.933\O,0,0.85,42.118,33.292\O,0,-1.46
 4,42.279,33.062\N,0,-1.983,43.078,25.357\C,0,-2.884,42.876,26.379\C,0,
 -4.255,42.786,25.863\C,0,-4.129,42.87,24.446\C,0,-2.693,43.096,24.184\
 C,0,-5.432,42.479,26.721\C,0,-5.221,42.756,23.438\O,0,-5.004,43.006,22
 .266\C,0,-6.635,42.416,23.86\N,0,0.375,43.545,23.503\C,0,-0.7,43.522,2
 2.664\C,0,-0.125,43.556,21.264\C,0,1.313,43.975,21.382\C,0,1.538,43.73
 5,22.839\C,0,-0.364,42.121,20.648\C,0,1.631,45.42,20.939\C,0,1.018,46.
 588,21.717\N,0,2.213,43.448,25.729\C,0,3.204,43.702,24.782\C,0,4.557,4
 3.462,25.403\C,0,4.218,43.294,26.763\C,0,2.793,43.361,26.902\C,0,5.899
 ,43.314,24.792\C,0,4.764,42.993,28.028\O,0,5.941,42.713,28.377\C,0,3.6
 61,43.043,29.052\C,0,3.656,41.869,29.893\O,0,3.596,40.712,29.519\O,0,3
 .933,42.345,31.157\C,0,4.237,41.274,32.099\C,0,-1.541,40.988,33.886\C,
 0,-2.774,41.147,34.769\C,0,-2.838,41.882,35.922\C,0,-1.7,42.868,36.27\
 C,0,-4.181,42.163,36.571\C,0,-4.946,43.4,36.037\C,0,-6.282,43.012,35.3
 7\C,0,-7.521,43.095,36.324\C,0,-8.192,44.481,36.192\C,0,-8.589,42.023,
 36.092\C,0,-8.839,41.11,37.27\C,0,-9.815,41.794,38.228\C,0,-11.297,41.
 147,38.261\C,0,-12.338,42.29,38.213\C,0,-11.452,40.302,39.535\C,0,-11.
 962,38.873,39.295\C,0,-13.32,38.566,40.025\C,0,-14.567,38.754,39.132\C
 ,0,-15.863,38.775,39.988\C,0,-14.652,37.552,38.069\H,0,-3.267,42.749,2
 8.477\H,0,-2.618,43.234,22.086\H,0,3.649,44.132,22.723\H,0,0.97,42.202
 ,30.558\H,0,-1.716,43.203,30.258\H,0,-1.536,40.505,29.082\H,0,-2.147,4
 0.897,30.708\H,0,-0.383,40.597,30.372\H,0,-0.031,45.107,30.326\H,0,1.4
 44,44.723,30.962\H,0,-1.098,44.744,32.397\H,0,0.425,44.855,33.009\H,0,
 -5.924,43.35,27.154\H,0,-4.972,41.907,27.526\H,0,-6.036,41.671,26.307\
 H,0,-7.044,43.019,24.671\H,0,-6.606,41.382,24.205\H,0,-7.3,42.522,23.0
 03\H,0,-0.735,44.271,20.713\H,0,1.998,43.28,20.897\H,0,0.575,41.572,20
 .577\H,0,-0.82,42.241,19.665\H,0,-0.978,41.591,21.376\H,0,1.275,45.397
 ,19.909\H,0,2.714,45.533,20.988\H,0,1.832,47.309,21.783\H,0,0.509,46.3
 97,22.662\H,0,0.353,47.128,21.044\H,0,5.808,42.811,23.829\H,0,6.566,42
 .818,25.497\H,0,6.282,44.318,24.61\H,0,3.701,44.003,29.566\H,0,4.642,4
 1.73,33.002\H,0,4.946,40.612,31.603\H,0,3.31,40.742,32.315\H,0,-0.698,
 40.678,34.504\H,0,-1.785,40.136,33.252\H,0,-3.711,40.733,34.395\H,0,-1
 .008,42.435,36.992\H,0,-2.269,43.6,36.843\H,0,-1.22,43.362,35.425\H,0,
 -4.039,42.118,37.65\H,0,-4.747,41.247,36.401\H,0,-4.396,44.053,35.36\H
 ,0,-5.113,44.063,36.886\H,0,-6.322,41.965,35.072\H,0,-6.449,43.633,34.
 49\H,0,-7.155,43.099,37.35\H,0,-8.595,44.862,37.131\H,0,-9.06,44.471,3
 5.533\H,0,-7.568,45.244,35.727\H,0,-8.447,41.479,35.158\H,0,-9.505,42.
 519,35.771\H,0,-7.941,40.907,37.853\H,0,-9.193,40.099,37.065\H,0,-9.86
 5,42.873,38.081\H,0,-9.255,41.654,39.152\H,0,-11.334,40.506,37.38\H,0,
 -13.283,42.14,38.735\H,0,-12.337,42.722,37.212\H,0,-11.904,43.143,38.7
 34\H,0,-12.164,40.774,40.212\H,0,-10.491,40.197,40.039\H,0,-11.181,38.
 213,39.673\H,0,-12.057,38.564,38.255\H,0,-13.356,39.203,40.909\H,0,-13
 .316,37.517,40.321\H,0,-14.57,39.692,38.576\H,0,-16.314,39.763,40.082\
 H,0,-15.699,38.526,41.036\H,0,-16.616,38.183,39.467\H,0,-13.725,36.991
 ,38.191\H,0,-14.673,38.014,37.082\H,0,-15.48,36.857,38.208\\Version=ES
 64L-G16RevA.03\State=1-A\HF=-3007.1666516\RMSD=7.871e-09\PG=C01 [X(C55
 H74Mg1N4O6)]\\@


 THERE ARE PEOPLE SO ADDICTED TO EXAGERATING THEY
 CAN'T TELL THE TRUTH WITHOUT LYING. -- FORTUNE COOKIE
 Job cpu time:       0 days 10 hours  4 minutes 36.6 seconds.
 Elapsed time:       0 days  0 hours 25 minutes 38.5 seconds.
 File lengths (MBytes):  RWF=   8929 Int=      0 D2E=      0 Chk=    390 Scr=      1
 Normal termination of Gaussian 16 at Wed May  4 05:24:16 2022.
