 Entering Gaussian System, Link 0=g16
 Initial command:
 /sw/apps/gaussian-16.0/g16/l1.exe "/tmp/Gau-23036.inp" -scrdir="/tmp/"
 Entering Link 1 = /sw/apps/gaussian-16.0/g16/l1.exe PID=     23037.
  
 Copyright (c) 1988,1990,1992,1993,1995,1998,2003,2009,2016,
            Gaussian, Inc.  All Rights Reserved.
  
 This is part of the Gaussian(R) 16 program.  It is based on
 the Gaussian(R) 09 system (copyright 2009, Gaussian, Inc.),
 the Gaussian(R) 03 system (copyright 2003, Gaussian, Inc.),
 the Gaussian(R) 98 system (copyright 1998, Gaussian, Inc.),
 the Gaussian(R) 94 system (copyright 1995, Gaussian, Inc.),
 the Gaussian 92(TM) system (copyright 1992, Gaussian, Inc.),
 the Gaussian 90(TM) system (copyright 1990, Gaussian, Inc.),
 the Gaussian 88(TM) system (copyright 1988, Gaussian, Inc.),
 the Gaussian 86(TM) system (copyright 1986, Carnegie Mellon
 University), and the Gaussian 82(TM) system (copyright 1983,
 Carnegie Mellon University). Gaussian is a federally registered
 trademark of Gaussian, Inc.
  
 This software contains proprietary and confidential information,
 including trade secrets, belonging to Gaussian, Inc.
  
 This software is provided under written license and may be
 used, copied, transmitted, or stored only in accord with that
 written license.
  
 The following legend is applicable only to US Government
 contracts under FAR:
  
                    RESTRICTED RIGHTS LEGEND
  
 Use, reproduction and disclosure by the US Government is
 subject to restrictions as set forth in subparagraphs (a)
 and (c) of the Commercial Computer Software - Restricted
 Rights clause in FAR 52.227-19.
  
 Gaussian, Inc.
 340 Quinnipiac St., Bldg. 40, Wallingford CT 06492
  
  
 ---------------------------------------------------------------
 Warning -- This program may not be used in any manner that
 competes with the business of Gaussian, Inc. or will provide
 assistance to any competitor of Gaussian, Inc.  The licensee
 of this program is prohibited from giving any competitor of
 Gaussian, Inc. access to this program.  By using this program,
 the user acknowledges that Gaussian, Inc. is engaged in the
 business of creating and licensing software in the field of
 computational chemistry and represents and warrants to the
 licensee that it is not a competitor of Gaussian, Inc. and that
 it will not use this program in any manner prohibited above.
 ---------------------------------------------------------------
  

 Cite this work as:
 Gaussian 16, Revision A.03,
 M. J. Frisch, G. W. Trucks, H. B. Schlegel, G. E. Scuseria, 
 M. A. Robb, J. R. Cheeseman, G. Scalmani, V. Barone, 
 G. A. Petersson, H. Nakatsuji, X. Li, M. Caricato, A. V. Marenich, 
 J. Bloino, B. G. Janesko, R. Gomperts, B. Mennucci, H. P. Hratchian, 
 J. V. Ortiz, A. F. Izmaylov, J. L. Sonnenberg, D. Williams-Young, 
 F. Ding, F. Lipparini, F. Egidi, J. Goings, B. Peng, A. Petrone, 
 T. Henderson, D. Ranasinghe, V. G. Zakrzewski, J. Gao, N. Rega, 
 G. Zheng, W. Liang, M. Hada, M. Ehara, K. Toyota, R. Fukuda, 
 J. Hasegawa, M. Ishida, T. Nakajima, Y. Honda, O. Kitao, H. Nakai, 
 T. Vreven, K. Throssell, J. A. Montgomery, Jr., J. E. Peralta, 
 F. Ogliaro, M. J. Bearpark, J. J. Heyd, E. N. Brothers, K. N. Kudin, 
 V. N. Staroverov, T. A. Keith, R. Kobayashi, J. Normand, 
 K. Raghavachari, A. P. Rendell, J. C. Burant, S. S. Iyengar, 
 J. Tomasi, M. Cossi, J. M. Millam, M. Klene, C. Adamo, R. Cammi, 
 J. W. Ochterski, R. L. Martin, K. Morokuma, O. Farkas, 
 J. B. Foresman, and D. J. Fox, Gaussian, Inc., Wallingford CT, 2016.
 
 ******************************************
 Gaussian 16:  ES64L-G16RevA.03 25-Dec-2016
                 4-May-2022 
 ******************************************
 %nproc=24
 Will use up to   24 processors via shared memory.
 %mem=75GB
 --------------------------------
 #p wB97XD/Def2SVP td=(nstates=5)
 --------------------------------
 1/38=1,172=1/1;
 2/12=2,17=6,18=5,40=1/2;
 3/5=43,7=101,11=9,25=1,30=1,74=-58/1,2,3,8;
 4//1;
 5/5=2,38=5/2;
 8/6=1,10=1,108=5/1;
 9/41=5,42=1,70=2/14;
 6/7=2,8=2,9=2,10=2/1;
 99/5=1,9=1/99;
 Leave Link    1 at Wed May  4 05:45:23 2022, MaxMem= 10066329600 cpu:               1.5 elap:               0.1
 (Enter /sw/apps/gaussian-16.0/g16/l101.exe)
 -----------------------------------------------------
 step_1401_chromophore_24 TDDFT with wB97XD functional
 -----------------------------------------------------
 Symbolic Z-matrix:
 Charge =  0 Multiplicity = 1
 Mg                    0.177     43.474    25.517 
 C                     2.374     43.055    28.226 
 C                    -2.514     42.911    27.703 
 C                    -2.016     43.361    22.988 
 C                     2.819     43.929    23.403 
 N                     0.035     43.093    27.644 
 C                     0.985     43.1      28.569 
 C                     0.437     42.977    30.007 
 C                    -0.995     42.549    29.767 
 C                    -1.191     42.94     28.309 
 C                    -1.318     41.028    30.013 
 C                     0.446     44.295    30.875 
 C                    -0.141     44.228    32.32 
 C                    -0.145     42.749    32.933 
 O                     0.85      42.118    33.292 
 O                    -1.464     42.279    33.062 
 N                    -1.983     43.078    25.357 
 C                    -2.884     42.876    26.379 
 C                    -4.255     42.786    25.863 
 C                    -4.129     42.87     24.446 
 C                    -2.693     43.096    24.184 
 C                    -5.432     42.479    26.721 
 C                    -5.221     42.756    23.438 
 O                    -5.004     43.006    22.266 
 C                    -6.635     42.416    23.86 
 N                     0.375     43.545    23.503 
 C                    -0.7       43.522    22.664 
 C                    -0.125     43.556    21.264 
 C                     1.313     43.975    21.382 
 C                     1.538     43.735    22.839 
 C                    -0.364     42.121    20.648 
 C                     1.631     45.42     20.939 
 C                     1.018     46.588    21.717 
 N                     2.213     43.448    25.729 
 C                     3.204     43.702    24.782 
 C                     4.557     43.462    25.403 
 C                     4.218     43.294    26.763 
 C                     2.793     43.361    26.902 
 C                     5.899     43.314    24.792 
 C                     4.764     42.993    28.028 
 O                     5.941     42.713    28.377 
 C                     3.661     43.043    29.052 
 C                     3.656     41.869    29.893 
 O                     3.596     40.712    29.519 
 O                     3.933     42.345    31.157 
 C                     4.237     41.274    32.099 
 C                    -1.541     40.988    33.886 
 C                    -2.774     41.147    34.769 
 C                    -2.838     41.882    35.922 
 C                    -1.7       42.868    36.27 
 C                    -4.181     42.163    36.571 
 C                    -4.946     43.4      36.037 
 C                    -6.282     43.012    35.37 
 C                    -7.521     43.095    36.324 
 C                    -8.192     44.481    36.192 
 C                    -8.589     42.023    36.092 
 C                    -8.839     41.11     37.27 
 C                    -9.815     41.794    38.228 
 C                    -11.297    41.147    38.261 
 C                    -12.338    42.29     38.213 
 C                    -11.452    40.302    39.535 
 C                    -11.962    38.873    39.295 
 C                    -13.32     38.566    40.025 
 C                    -14.567    38.754    39.132 
 C                    -15.863    38.775    39.988 
 C                    -14.652    37.552    38.069 
 H                    -3.267     42.749    28.477 
 H                    -2.618     43.234    22.086 
 H                     3.649     44.132    22.723 
 H                     0.97      42.202    30.558 
 H                    -1.716     43.203    30.258 
 H                    -1.536     40.505    29.082 
 H                    -2.147     40.897    30.708 
 H                    -0.383     40.597    30.372 
 H                    -0.031     45.107    30.326 
 H                     1.444     44.723    30.962 
 H                    -1.098     44.744    32.397 
 H                     0.425     44.855    33.009 
 H                    -5.924     43.35     27.154 
 H                    -4.972     41.907    27.526 
 H                    -6.036     41.671    26.307 
 H                    -7.044     43.019    24.671 
 H                    -6.606     41.382    24.205 
 H                    -7.3       42.522    23.003 
 H                    -0.735     44.271    20.713 
 H                     1.998     43.28     20.897 
 H                     0.575     41.572    20.577 
 H                    -0.82      42.241    19.665 
 H                    -0.978     41.591    21.376 
 H                     1.275     45.397    19.909 
 H                     2.714     45.533    20.988 
 H                     1.832     47.309    21.783 
 H                     0.509     46.397    22.662 
 H                     0.353     47.128    21.044 
 H                     5.808     42.811    23.829 
 H                     6.566     42.818    25.497 
 H                     6.282     44.318    24.61 
 H                     3.701     44.003    29.566 
 H                     4.642     41.73     33.002 
 H                     4.946     40.612    31.603 
 H                     3.31      40.742    32.315 
 H                    -0.698     40.678    34.504 
 H                    -1.785     40.136    33.252 
 H                    -3.711     40.733    34.395 
 H                    -1.008     42.435    36.992 
 H                    -2.269     43.6      36.843 
 H                    -1.22      43.362    35.425 
 H                    -4.039     42.118    37.65 
 H                    -4.747     41.247    36.401 
 H                    -4.396     44.053    35.36 
 H                    -5.113     44.063    36.886 
 H                    -6.322     41.965    35.072 
 H                    -6.449     43.633    34.49 
 H                    -7.155     43.099    37.35 
 H                    -8.595     44.862    37.131 
 H                    -9.06      44.471    35.533 
 H                    -7.568     45.244    35.727 
 H                    -8.447     41.479    35.158 
 H                    -9.505     42.519    35.771 
 H                    -7.941     40.907    37.853 
 H                    -9.193     40.099    37.065 
 H                    -9.865     42.873    38.081 
 H                    -9.255     41.654    39.152 
 H                    -11.334    40.506    37.38 
 H                    -13.283    42.14     38.735 
 H                    -12.337    42.722    37.212 
 H                    -11.904    43.143    38.734 
 H                    -12.164    40.774    40.212 
 H                    -10.491    40.197    40.039 
 H                    -11.181    38.213    39.673 
 H                    -12.057    38.564    38.255 
 H                    -13.356    39.203    40.909 
 H                    -13.316    37.517    40.321 
 H                    -14.57     39.692    38.576 
 H                    -16.314    39.763    40.082 
 H                    -15.699    38.526    41.036 
 H                    -16.616    38.183    39.467 
 H                    -13.725    36.991    38.191 
 H                    -14.673    38.014    37.082 
 H                    -15.48     36.857    38.208 
 
 ITRead=  0  0  0  0  0  0  0  0  0  0  0  0  0  0  0  0  0  0  0  0
 ITRead=  0  0  0  0  0  0  0  0  0  0  0  0  0  0  0  0  0  0  0  0
 ITRead=  0  0  0  0  0  0  0  0  0  0  0  0  0  0  0  0  0  0  0  0
 ITRead=  0  0  0  0  0  0  0  0  0  0  0  0  0  0  0  0  0  0  0  0
 ITRead=  0  0  0  0  0  0  0  0  0  0  0  0  0  0  0  0  0  0  0  0
 ITRead=  0  0  0  0  0  0  0  0  0  0  0  0  0  0  0  0  0  0  0  0
 ITRead=  0  0  0  0  0  0  0  0  0  0  0  0  0  0  0  0  0  0  0  0
 MicOpt= -1 -1 -1 -1 -1 -1 -1 -1 -1 -1 -1 -1 -1 -1 -1 -1 -1 -1 -1 -1
 MicOpt= -1 -1 -1 -1 -1 -1 -1 -1 -1 -1 -1 -1 -1 -1 -1 -1 -1 -1 -1 -1
 MicOpt= -1 -1 -1 -1 -1 -1 -1 -1 -1 -1 -1 -1 -1 -1 -1 -1 -1 -1 -1 -1
 MicOpt= -1 -1 -1 -1 -1 -1 -1 -1 -1 -1 -1 -1 -1 -1 -1 -1 -1 -1 -1 -1
 MicOpt= -1 -1 -1 -1 -1 -1 -1 -1 -1 -1 -1 -1 -1 -1 -1 -1 -1 -1 -1 -1
 MicOpt= -1 -1 -1 -1 -1 -1 -1 -1 -1 -1 -1 -1 -1 -1 -1 -1 -1 -1 -1 -1
 MicOpt= -1 -1 -1 -1 -1 -1 -1 -1 -1 -1 -1 -1 -1 -1 -1 -1 -1 -1 -1 -1
 NAtoms=    140 NQM=      140 NQMF=       0 NMMI=      0 NMMIF=      0
                NMic=       0 NMicF=      0.
                    Isotopes and Nuclear Properties:
 (Nuclear quadrupole moments (NQMom) in fm**2, nuclear magnetic moments (NMagM)
  in nuclear magnetons)

  Atom         1           2           3           4           5           6           7           8           9          10
 IAtWgt=          24          12          12          12          12          14          12          12          12          12
 AtmWgt=  23.9850450  12.0000000  12.0000000  12.0000000  12.0000000  14.0030740  12.0000000  12.0000000  12.0000000  12.0000000
 NucSpn=           0           0           0           0           0           2           0           0           0           0
 AtZEff=  -0.0000000  -0.0000000  -0.0000000  -0.0000000  -0.0000000  -0.0000000  -0.0000000  -0.0000000  -0.0000000  -0.0000000
 NQMom=    0.0000000   0.0000000   0.0000000   0.0000000   0.0000000   2.0440000   0.0000000   0.0000000   0.0000000   0.0000000
 NMagM=    0.0000000   0.0000000   0.0000000   0.0000000   0.0000000   0.4037610   0.0000000   0.0000000   0.0000000   0.0000000
 AtZNuc=  12.0000000   6.0000000   6.0000000   6.0000000   6.0000000   7.0000000   6.0000000   6.0000000   6.0000000   6.0000000

  Atom        11          12          13          14          15          16          17          18          19          20
 IAtWgt=          12          12          12          12          16          16          14          12          12          12
 AtmWgt=  12.0000000  12.0000000  12.0000000  12.0000000  15.9949146  15.9949146  14.0030740  12.0000000  12.0000000  12.0000000
 NucSpn=           0           0           0           0           0           0           2           0           0           0
 AtZEff=  -0.0000000  -0.0000000  -0.0000000  -0.0000000  -0.0000000  -0.0000000  -0.0000000  -0.0000000  -0.0000000  -0.0000000
 NQMom=    0.0000000   0.0000000   0.0000000   0.0000000   0.0000000   0.0000000   2.0440000   0.0000000   0.0000000   0.0000000
 NMagM=    0.0000000   0.0000000   0.0000000   0.0000000   0.0000000   0.0000000   0.4037610   0.0000000   0.0000000   0.0000000
 AtZNuc=   6.0000000   6.0000000   6.0000000   6.0000000   8.0000000   8.0000000   7.0000000   6.0000000   6.0000000   6.0000000

  Atom        21          22          23          24          25          26          27          28          29          30
 IAtWgt=          12          12          12          16          12          14          12          12          12          12
 AtmWgt=  12.0000000  12.0000000  12.0000000  15.9949146  12.0000000  14.0030740  12.0000000  12.0000000  12.0000000  12.0000000
 NucSpn=           0           0           0           0           0           2           0           0           0           0
 AtZEff=  -0.0000000  -0.0000000  -0.0000000  -0.0000000  -0.0000000  -0.0000000  -0.0000000  -0.0000000  -0.0000000  -0.0000000
 NQMom=    0.0000000   0.0000000   0.0000000   0.0000000   0.0000000   2.0440000   0.0000000   0.0000000   0.0000000   0.0000000
 NMagM=    0.0000000   0.0000000   0.0000000   0.0000000   0.0000000   0.4037610   0.0000000   0.0000000   0.0000000   0.0000000
 AtZNuc=   6.0000000   6.0000000   6.0000000   8.0000000   6.0000000   7.0000000   6.0000000   6.0000000   6.0000000   6.0000000

  Atom        31          32          33          34          35          36          37          38          39          40
 IAtWgt=          12          12          12          14          12          12          12          12          12          12
 AtmWgt=  12.0000000  12.0000000  12.0000000  14.0030740  12.0000000  12.0000000  12.0000000  12.0000000  12.0000000  12.0000000
 NucSpn=           0           0           0           2           0           0           0           0           0           0
 AtZEff=  -0.0000000  -0.0000000  -0.0000000  -0.0000000  -0.0000000  -0.0000000  -0.0000000  -0.0000000  -0.0000000  -0.0000000
 NQMom=    0.0000000   0.0000000   0.0000000   2.0440000   0.0000000   0.0000000   0.0000000   0.0000000   0.0000000   0.0000000
 NMagM=    0.0000000   0.0000000   0.0000000   0.4037610   0.0000000   0.0000000   0.0000000   0.0000000   0.0000000   0.0000000
 AtZNuc=   6.0000000   6.0000000   6.0000000   7.0000000   6.0000000   6.0000000   6.0000000   6.0000000   6.0000000   6.0000000

  Atom        41          42          43          44          45          46          47          48          49          50
 IAtWgt=          16          12          12          16          16          12          12          12          12          12
 AtmWgt=  15.9949146  12.0000000  12.0000000  15.9949146  15.9949146  12.0000000  12.0000000  12.0000000  12.0000000  12.0000000
 NucSpn=           0           0           0           0           0           0           0           0           0           0
 AtZEff=  -0.0000000  -0.0000000  -0.0000000  -0.0000000  -0.0000000  -0.0000000  -0.0000000  -0.0000000  -0.0000000  -0.0000000
 NQMom=    0.0000000   0.0000000   0.0000000   0.0000000   0.0000000   0.0000000   0.0000000   0.0000000   0.0000000   0.0000000
 NMagM=    0.0000000   0.0000000   0.0000000   0.0000000   0.0000000   0.0000000   0.0000000   0.0000000   0.0000000   0.0000000
 AtZNuc=   8.0000000   6.0000000   6.0000000   8.0000000   8.0000000   6.0000000   6.0000000   6.0000000   6.0000000   6.0000000

  Atom        51          52          53          54          55          56          57          58          59          60
 IAtWgt=          12          12          12          12          12          12          12          12          12          12
 AtmWgt=  12.0000000  12.0000000  12.0000000  12.0000000  12.0000000  12.0000000  12.0000000  12.0000000  12.0000000  12.0000000
 NucSpn=           0           0           0           0           0           0           0           0           0           0
 AtZEff=  -0.0000000  -0.0000000  -0.0000000  -0.0000000  -0.0000000  -0.0000000  -0.0000000  -0.0000000  -0.0000000  -0.0000000
 NQMom=    0.0000000   0.0000000   0.0000000   0.0000000   0.0000000   0.0000000   0.0000000   0.0000000   0.0000000   0.0000000
 NMagM=    0.0000000   0.0000000   0.0000000   0.0000000   0.0000000   0.0000000   0.0000000   0.0000000   0.0000000   0.0000000
 AtZNuc=   6.0000000   6.0000000   6.0000000   6.0000000   6.0000000   6.0000000   6.0000000   6.0000000   6.0000000   6.0000000

  Atom        61          62          63          64          65          66          67          68          69          70
 IAtWgt=          12          12          12          12          12          12           1           1           1           1
 AtmWgt=  12.0000000  12.0000000  12.0000000  12.0000000  12.0000000  12.0000000   1.0078250   1.0078250   1.0078250   1.0078250
 NucSpn=           0           0           0           0           0           0           1           1           1           1
 AtZEff=  -0.0000000  -0.0000000  -0.0000000  -0.0000000  -0.0000000  -0.0000000  -0.0000000  -0.0000000  -0.0000000  -0.0000000
 NQMom=    0.0000000   0.0000000   0.0000000   0.0000000   0.0000000   0.0000000   0.0000000   0.0000000   0.0000000   0.0000000
 NMagM=    0.0000000   0.0000000   0.0000000   0.0000000   0.0000000   0.0000000   2.7928460   2.7928460   2.7928460   2.7928460
 AtZNuc=   6.0000000   6.0000000   6.0000000   6.0000000   6.0000000   6.0000000   1.0000000   1.0000000   1.0000000   1.0000000

  Atom        71          72          73          74          75          76          77          78          79          80
 IAtWgt=           1           1           1           1           1           1           1           1           1           1
 AtmWgt=   1.0078250   1.0078250   1.0078250   1.0078250   1.0078250   1.0078250   1.0078250   1.0078250   1.0078250   1.0078250
 NucSpn=           1           1           1           1           1           1           1           1           1           1
 AtZEff=  -0.0000000  -0.0000000  -0.0000000  -0.0000000  -0.0000000  -0.0000000  -0.0000000  -0.0000000  -0.0000000  -0.0000000
 NQMom=    0.0000000   0.0000000   0.0000000   0.0000000   0.0000000   0.0000000   0.0000000   0.0000000   0.0000000   0.0000000
 NMagM=    2.7928460   2.7928460   2.7928460   2.7928460   2.7928460   2.7928460   2.7928460   2.7928460   2.7928460   2.7928460
 AtZNuc=   1.0000000   1.0000000   1.0000000   1.0000000   1.0000000   1.0000000   1.0000000   1.0000000   1.0000000   1.0000000

  Atom        81          82          83          84          85          86          87          88          89          90
 IAtWgt=           1           1           1           1           1           1           1           1           1           1
 AtmWgt=   1.0078250   1.0078250   1.0078250   1.0078250   1.0078250   1.0078250   1.0078250   1.0078250   1.0078250   1.0078250
 NucSpn=           1           1           1           1           1           1           1           1           1           1
 AtZEff=  -0.0000000  -0.0000000  -0.0000000  -0.0000000  -0.0000000  -0.0000000  -0.0000000  -0.0000000  -0.0000000  -0.0000000
 NQMom=    0.0000000   0.0000000   0.0000000   0.0000000   0.0000000   0.0000000   0.0000000   0.0000000   0.0000000   0.0000000
 NMagM=    2.7928460   2.7928460   2.7928460   2.7928460   2.7928460   2.7928460   2.7928460   2.7928460   2.7928460   2.7928460
 AtZNuc=   1.0000000   1.0000000   1.0000000   1.0000000   1.0000000   1.0000000   1.0000000   1.0000000   1.0000000   1.0000000

  Atom        91          92          93          94          95          96          97          98          99         100
 IAtWgt=           1           1           1           1           1           1           1           1           1           1
 AtmWgt=   1.0078250   1.0078250   1.0078250   1.0078250   1.0078250   1.0078250   1.0078250   1.0078250   1.0078250   1.0078250
 NucSpn=           1           1           1           1           1           1           1           1           1           1
 AtZEff=  -0.0000000  -0.0000000  -0.0000000  -0.0000000  -0.0000000  -0.0000000  -0.0000000  -0.0000000  -0.0000000  -0.0000000
 NQMom=    0.0000000   0.0000000   0.0000000   0.0000000   0.0000000   0.0000000   0.0000000   0.0000000   0.0000000   0.0000000
 NMagM=    2.7928460   2.7928460   2.7928460   2.7928460   2.7928460   2.7928460   2.7928460   2.7928460   2.7928460   2.7928460
 AtZNuc=   1.0000000   1.0000000   1.0000000   1.0000000   1.0000000   1.0000000   1.0000000   1.0000000   1.0000000   1.0000000

  Atom       101         102         103         104         105         106         107         108         109         110
 IAtWgt=           1           1           1           1           1           1           1           1           1           1
 AtmWgt=   1.0078250   1.0078250   1.0078250   1.0078250   1.0078250   1.0078250   1.0078250   1.0078250   1.0078250   1.0078250
 NucSpn=           1           1           1           1           1           1           1           1           1           1
 AtZEff=  -0.0000000  -0.0000000  -0.0000000  -0.0000000  -0.0000000  -0.0000000  -0.0000000  -0.0000000  -0.0000000  -0.0000000
 NQMom=    0.0000000   0.0000000   0.0000000   0.0000000   0.0000000   0.0000000   0.0000000   0.0000000   0.0000000   0.0000000
 NMagM=    2.7928460   2.7928460   2.7928460   2.7928460   2.7928460   2.7928460   2.7928460   2.7928460   2.7928460   2.7928460
 AtZNuc=   1.0000000   1.0000000   1.0000000   1.0000000   1.0000000   1.0000000   1.0000000   1.0000000   1.0000000   1.0000000

  Atom       111         112         113         114         115         116         117         118         119         120
 IAtWgt=           1           1           1           1           1           1           1           1           1           1
 AtmWgt=   1.0078250   1.0078250   1.0078250   1.0078250   1.0078250   1.0078250   1.0078250   1.0078250   1.0078250   1.0078250
 NucSpn=           1           1           1           1           1           1           1           1           1           1
 AtZEff=  -0.0000000  -0.0000000  -0.0000000  -0.0000000  -0.0000000  -0.0000000  -0.0000000  -0.0000000  -0.0000000  -0.0000000
 NQMom=    0.0000000   0.0000000   0.0000000   0.0000000   0.0000000   0.0000000   0.0000000   0.0000000   0.0000000   0.0000000
 NMagM=    2.7928460   2.7928460   2.7928460   2.7928460   2.7928460   2.7928460   2.7928460   2.7928460   2.7928460   2.7928460
 AtZNuc=   1.0000000   1.0000000   1.0000000   1.0000000   1.0000000   1.0000000   1.0000000   1.0000000   1.0000000   1.0000000

  Atom       121         122         123         124         125         126         127         128         129         130
 IAtWgt=           1           1           1           1           1           1           1           1           1           1
 AtmWgt=   1.0078250   1.0078250   1.0078250   1.0078250   1.0078250   1.0078250   1.0078250   1.0078250   1.0078250   1.0078250
 NucSpn=           1           1           1           1           1           1           1           1           1           1
 AtZEff=  -0.0000000  -0.0000000  -0.0000000  -0.0000000  -0.0000000  -0.0000000  -0.0000000  -0.0000000  -0.0000000  -0.0000000
 NQMom=    0.0000000   0.0000000   0.0000000   0.0000000   0.0000000   0.0000000   0.0000000   0.0000000   0.0000000   0.0000000
 NMagM=    2.7928460   2.7928460   2.7928460   2.7928460   2.7928460   2.7928460   2.7928460   2.7928460   2.7928460   2.7928460
 AtZNuc=   1.0000000   1.0000000   1.0000000   1.0000000   1.0000000   1.0000000   1.0000000   1.0000000   1.0000000   1.0000000

  Atom       131         132         133         134         135         136         137         138         139         140
 IAtWgt=           1           1           1           1           1           1           1           1           1           1
 AtmWgt=   1.0078250   1.0078250   1.0078250   1.0078250   1.0078250   1.0078250   1.0078250   1.0078250   1.0078250   1.0078250
 NucSpn=           1           1           1           1           1           1           1           1           1           1
 AtZEff=  -0.0000000  -0.0000000  -0.0000000  -0.0000000  -0.0000000  -0.0000000  -0.0000000  -0.0000000  -0.0000000  -0.0000000
 NQMom=    0.0000000   0.0000000   0.0000000   0.0000000   0.0000000   0.0000000   0.0000000   0.0000000   0.0000000   0.0000000
 NMagM=    2.7928460   2.7928460   2.7928460   2.7928460   2.7928460   2.7928460   2.7928460   2.7928460   2.7928460   2.7928460
 AtZNuc=   1.0000000   1.0000000   1.0000000   1.0000000   1.0000000   1.0000000   1.0000000   1.0000000   1.0000000   1.0000000
 Leave Link  101 at Wed May  4 05:45:23 2022, MaxMem= 10066329600 cpu:               3.5 elap:               0.2
 (Enter /sw/apps/gaussian-16.0/g16/l202.exe)
 Stoichiometry    C55H74MgN4O6
 Framework group  C1[X(C55H74MgN4O6)]
 Deg. of freedom   414
 Full point group                 C1      NOp   1
 Largest Abelian subgroup         C1      NOp   1
 Largest concise Abelian subgroup C1      NOp   1
                         Standard orientation:                         
 ---------------------------------------------------------------------
 Center     Atomic      Atomic             Coordinates (Angstroms)
 Number     Number       Type             X           Y           Z
 ---------------------------------------------------------------------
      1         12           0        5.329466    1.072343    0.173297
      2          6           0        4.769466   -2.382394   -0.130418
      3          6           0        1.852227    1.567371    0.145050
      4          6           0        5.678893    4.397331   -0.027234
      5          6           0        8.704844    0.563624    0.108347
      6          7           0        3.630952   -0.266767    0.067054
      7          6           0        3.596896   -1.592057    0.091942
      8          6           0        2.166665   -2.163520    0.197511
      9          6           0        1.315148   -0.951214   -0.113359
     10          6           0        2.303070    0.183776    0.116571
     11          6           0        0.684090   -0.894192   -1.554470
     12          6           0        1.747069   -2.745584    1.603132
     13          6           0        0.294320   -3.292567    1.768699
     14          6           0       -0.382963   -3.718377    0.381904
     15          8           0       -0.074964   -4.699498   -0.296039
     16          8           0       -1.433200   -2.839445    0.062871
     17          7           0        3.937128    2.766507   -0.024735
     18          6           0        2.560176    2.735728   -0.012589
     19          6           0        2.002367    4.093145   -0.028808
     20          6           0        3.128590    4.960573   -0.128873
     21          6           0        4.315899    4.083324   -0.078396
     22          6           0        0.543287    4.375531   -0.112994
     23          6           0        3.111168    6.445560   -0.255491
     24          8           0        4.146243    7.081687   -0.171019
     25          6           0        1.804741    7.197235   -0.401477
     26          7           0        6.935342    2.290860   -0.018589
     27          6           0        6.820735    3.649762   -0.036632
     28          6           0        8.227652    4.174803   -0.228198
     29          6           0        9.170367    3.040597    0.058499
     30          6           0        8.226035    1.886345   -0.025240
     31          6           0        8.292049    4.754419   -1.696428
     32          6           0        9.929306    3.119926    1.401301
     33          6           0        9.135077    3.055125    2.709077
     34          7           0        6.535484   -0.569694   -0.027083
     35          6           0        7.926347   -0.655440    0.012321
     36          6           0        8.344647   -2.073764   -0.283031
     37          6           0        7.104076   -2.746636   -0.251862
     38          6           0        6.058913   -1.791486   -0.028797
     39          6           0        9.664318   -2.649023   -0.634792
     40          6           0        6.504719   -4.007681   -0.450550
     41          8           0        6.996382   -5.112705   -0.800864
     42          6           0        5.030103   -3.888827   -0.169363
     43          6           0        4.233955   -4.465436   -1.227310
     44          8           0        4.285718   -4.178807   -2.409380
     45          8           0        3.575710   -5.520640   -0.632115
     46          6           0        2.929227   -6.392063   -1.606539
     47          6           0       -2.283399   -3.352646   -1.105620
     48          6           0       -3.725819   -3.041652   -0.720955
     49          6           0       -4.491722   -3.768364    0.150258
     50          6           0       -3.828968   -4.832261    1.054262
     51          6           0       -5.819009   -3.216862    0.638076
     52          6           0       -5.751815   -2.280889    1.870954
     53          6           0       -6.222799   -0.849759    1.538732
     54          6           0       -7.732582   -0.583125    1.857462
     55          6           0       -7.871151    0.012887    3.276697
     56          6           0       -8.446008    0.349925    0.875590
     57          6           0       -9.610448   -0.272133    0.140148
     58          6           0      -10.853665   -0.196167    1.027187
     59          6           0      -11.970873    0.866068    0.537774
     60          6           0      -12.456016    1.675231    1.763468
     61          6           0      -13.130815    0.109736   -0.128276
     62          6           0      -13.520022    0.634265   -1.518645
     63          6           0      -15.007428    1.136507   -1.600446
     64          6           0      -15.165308    2.660500   -1.399644
     65          6           0      -16.651749    3.034854   -1.148356
     66          6           0      -14.637048    3.431591   -2.706685
     67          1           0        0.760687    1.595958    0.152287
     68          1           0        5.910759    5.449848   -0.202117
     69          1           0        9.786085    0.415112    0.145359
     70          1           0        2.003412   -2.935990   -0.554123
     71          1           0        0.577159   -0.746999    0.662725
     72          1           0        1.132801   -0.108296   -2.161793
     73          1           0       -0.396197   -0.755903   -1.518650
     74          1           0        0.982935   -1.829303   -2.028945
     75          1           0        1.952129   -2.015334    2.386050
     76          1           0        2.418920   -3.534928    1.938258
     77          1           0       -0.322617   -2.635668    2.381811
     78          1           0        0.270583   -4.169741    2.415389
     79          1           0        0.034501    4.452511    0.847945
     80          1           0        0.178227    3.486696   -0.626328
     81          1           0        0.313819    5.092802   -0.901627
     82          1           0        1.035526    6.954727    0.332083
     83          1           0        1.413207    6.932718   -1.384204
     84          1           0        1.997894    8.267808   -0.334577
     85          1           0        8.330009    5.003379    0.471738
     86          1           0        9.873519    2.858431   -0.753823
     87          1           0        8.887448    4.106398   -2.339646
     88          1           0        8.718868    5.756630   -1.651427
     89          1           0        7.269909    4.708447   -2.071925
     90          1           0       10.435046    4.079042    1.289546
     91          1           0       10.636799    2.290836    1.412322
     92          1           0        9.744383    2.418121    3.349206
     93          1           0        8.078348    2.788113    2.684265
     94          1           0        9.262001    4.005150    3.226858
     95          1           0       10.224446   -1.934734   -1.238701
     96          1           0        9.522330   -3.621777   -1.105450
     97          1           0       10.208863   -2.798327    0.297414
     98          1           0        4.832723   -4.257353    0.836930
     99          1           0        2.615722   -7.297234   -1.087164
    100          1           0        3.661565   -6.584137   -2.389948
    101          1           0        2.068814   -5.861076   -2.014891
    102          1           0       -2.215448   -4.394287   -1.420327
    103          1           0       -2.118799   -2.751752   -1.999617
    104          1           0       -4.146263   -2.102756   -1.082814
    105          1           0       -3.956773   -5.834337    0.645426
    106          1           0       -4.512556   -4.794694    1.902325
    107          1           0       -2.817242   -4.608801    1.393285
    108          1           0       -6.514243   -4.052304    0.709605
    109          1           0       -6.216933   -2.693755   -0.231595
    110          1           0       -4.790488   -2.221208    2.380392
    111          1           0       -6.377185   -2.726652    2.644561
    112          1           0       -6.195743   -0.628282    0.472510
    113          1           0       -5.599393   -0.125306    2.062623
    114          1           0       -8.231668   -1.547068    1.948983
    115          1           0       -8.763733   -0.322758    3.805782
    116          1           0       -7.975749    1.097713    3.272817
    117          1           0       -6.997093   -0.124400    3.913051
    118          1           0       -7.757205    0.872738    0.211758
    119          1           0       -8.749624    1.245930    1.416982
    120          1           0       -9.463633   -1.329558   -0.078484
    121          1           0       -9.855681    0.117781   -0.848432
    122          1           0      -10.612968   -0.049834    2.080278
    123          1           0      -11.171081   -1.235150    0.945096
    124          1           0      -11.455522    1.483821   -0.197892
    125          1           0      -13.491361    2.015834    1.771093
    126          1           0      -11.661547    2.356224    2.069564
    127          1           0      -12.411135    1.011034    2.626159
    128          1           0      -14.026063    0.179709    0.489537
    129          1           0      -12.869228   -0.939654   -0.265809
    130          1           0      -13.373683   -0.202509   -2.201901
    131          1           0      -12.876560    1.405431   -1.939794
    132          1           0      -15.574483    0.570406   -0.861191
    133          1           0      -15.382463    0.923424   -2.601434
    134          1           0      -14.618065    3.047849   -0.539716
    135          1           0      -16.868788    3.312266   -0.116698
    136          1           0      -17.341400    2.202318   -1.284244
    137          1           0      -16.869828    3.936221   -1.721849
    138          1           0      -14.191672    2.661619   -3.337334
    139          1           0      -13.862826    4.119573   -2.367105
    140          1           0      -15.400533    3.940345   -3.295065
 ---------------------------------------------------------------------
 Rotational constants (GHZ):           0.0441931           0.0099664           0.0084578
 Leave Link  202 at Wed May  4 05:45:23 2022, MaxMem= 10066329600 cpu:               0.2 elap:               0.0
 (Enter /sw/apps/gaussian-16.0/g16/l301.exe)
 Standard basis: def2SVP (5D, 7F)
 Ernie: Thresh=  0.10000D-02 Tol=  0.10000D-05 Strict=F.
 There are  1364 symmetry adapted cartesian basis functions of A   symmetry.
 There are  1298 symmetry adapted basis functions of A   symmetry.
  1298 basis functions,  2180 primitive gaussians,  1364 cartesian basis functions
   246 alpha electrons      246 beta electrons
       nuclear repulsion energy      9622.2509790222 Hartrees.
 IExCor= 4639 DFT=T Ex+Corr=wB97XD ExCW=0 ScaHFX=  1.000000
 ScaDFX=  1.000000  1.000000  1.000000  1.000000 ScalE2=  1.000000  1.000000
 IRadAn=      5 IRanWt=     -1 IRanGd=            0 ICorTp=0 IEmpDi=121
 HFx  wShort=  0.000000 wLong=  0.200000 cFull=  0.222036 cShort=  0.000000 cLong=  0.777964
 DFx  wShort=  0.000000 wLong=  0.200000 cFull=  0.000000 cShort=  0.000000 cLong=  1.000000
 NAtoms=  140 NActive=  140 NUniq=  140 SFac= 1.00D+00 NAtFMM=   60 NAOKFM=T Big=T
 Integral buffers will be    131072 words long.
 Raffenetti 1 integral format.
 Two-electron integral symmetry is turned on.
 R6Disp:  Grimme-D2 Dispersion energy=       -0.1381729512 Hartrees.
 Nuclear repulsion after empirical dispersion term =     9622.1128060710 Hartrees.
 Leave Link  301 at Wed May  4 05:45:23 2022, MaxMem= 10066329600 cpu:               1.3 elap:               0.1
 (Enter /sw/apps/gaussian-16.0/g16/l302.exe)
 NPDir=0 NMtPBC=     1 NCelOv=     1 NCel=       1 NClECP=     1 NCelD=      1
         NCelK=      1 NCelE2=     1 NClLst=     1 CellRange=     0.0.
 One-electron integrals computed using PRISM.
 One-electron integral symmetry used in STVInt
   1 Symmetry operations used in ECPInt.
 ECPInt:  NShTT=  192510 NPrTT=  683786 LenC2=   94935 LenP2D=  209128.
 LDataN:  DoStor=T MaxTD1= 4 Len=   56
 NBasis=  1298 RedAO= T EigKep=  3.22D-04  NBF=  1298
 NBsUse=  1298 1.00D-06 EigRej= -1.00D+00 NBFU=  1298
 Precomputing XC quadrature grid using
 IXCGrd= 4 IRadAn=           5 IRanWt=          -1 IRanGd=           0 AccXCQ= 0.00D+00.
 Generated NRdTot=       0 NPtTot=           0 NUsed=           0 NTot=          32
 NSgBfM=  1099  1099  1099  1099  1099 MxSgAt=   140 MxSgA2=   139.
 Leave Link  302 at Wed May  4 05:45:27 2022, MaxMem= 10066329600 cpu:              78.9 elap:               3.3
 (Enter /sw/apps/gaussian-16.0/g16/l303.exe)
 DipDrv:  MaxL=1.
 Leave Link  303 at Wed May  4 05:45:27 2022, MaxMem= 10066329600 cpu:               6.6 elap:               0.3
 (Enter /sw/apps/gaussian-16.0/g16/l308.exe)
 Leave Link  308 at Wed May  4 05:45:28 2022, MaxMem= 10066329600 cpu:              11.9 elap:               0.6
 (Enter /sw/apps/gaussian-16.0/g16/l401.exe)
 ExpMin= 3.36D-02 ExpMax= 4.95D+03 ExpMxC= 7.45D+02 IAcc=3 IRadAn=         5 AccDes= 0.00D+00
 Harris functional with IExCor= 4639 and IRadAn=       5 diagonalized for initial guess.
 HarFok:  IExCor= 4639 AccDes= 0.00D+00 IRadAn=         5 IDoV= 1 UseB2=F ITyADJ=14
 ICtDFT=  3500011 ScaDFX=  1.000000  1.000000  1.000000  1.000000
 FoFCou: FMM=F IPFlag=           0 FMFlag=      100000 FMFlg1=        2001
         NFxFlg=           0 DoJE=T BraDBF=F KetDBF=T FulRan=T
         wScrn=  0.000000 ICntrl=       500 IOpCl=  0 I1Cent=   200000004 NGrid=           0
         NMat0=    1 NMatS0=      1 NMatT0=    0 NMatD0=    1 NMtDS0=    0 NMtDT0=    0
 Petite list used in FoFCou.
 Harris En= -2878.01112576564    
 JPrj=0 DoOrth=F DoCkMO=F.
 Leave Link  401 at Wed May  4 05:45:33 2022, MaxMem= 10066329600 cpu:             134.4 elap:               5.6
 (Enter /sw/apps/gaussian-16.0/g16/l502.exe)
 Integral symmetry usage will be decided dynamically.
 Closed shell SCF:
 Using DIIS extrapolation, IDIIS=  1040.
 NGot= 10066329600 LenX= 10062561258 LenY= 10060699398
 Requested convergence on RMS density matrix=1.00D-08 within 128 cycles.
 Requested convergence on MAX density matrix=1.00D-06.
 Requested convergence on             energy=1.00D-06.
 No special actions if energy rises.
 Fock matrices will be formed incrementally for  20 cycles.

 Cycle   1  Pass 1  IDiag  1:
 FoFJK:  IHMeth= 1 ICntrl=       0 DoSepK=T KAlg= 0 I1Cent=           0 FoldK=F
 IRaf=         1 NMat=       1 IRICut=       1 DoRegI=T DoRafI=F ISym2E= 0 IDoP0=0 IntGTp=1.
 FoFCou: FMM=T IPFlag=           0 FMFlag=      100000 FMFlg1=        2001
         NFxFlg=           0 DoJE=T BraDBF=F KetDBF=F FulRan=T
         wScrn=  0.000000 ICntrl=       500 IOpCl=  0 I1Cent=           0 NGrid=           0
         NMat0=    1 NMatS0=      1 NMatT0=    0 NMatD0=    1 NMtDS0=    0 NMtDT0=    0
 Symmetry not used in FoFCou.
 FMM levels:  10  Number of levels for PrismC:   9
 E= -3007.18762149973    
 DIIS: error= 3.83D-02 at cycle   1 NSaved=   1.
 NSaved= 1 IEnMin= 1 EnMin= -3007.18762149973     IErMin= 1 ErrMin= 3.83D-02
 ErrMax= 3.83D-02  0.00D+00 EMaxC= 1.00D-01 BMatC= 1.50D+00 BMatP= 1.50D+00
 IDIUse=3 WtCom= 6.17D-01 WtEn= 3.83D-01
 Coeff-Com:  0.100D+01
 Coeff-En:   0.100D+01
 Coeff:      0.100D+01
 Gap=     0.157 Goal=   None    Shift=    0.000
 GapD=    0.157 DampG=1.000 DampE=0.500 DampFc=0.5000 IDamp=-1.
 Damping current iteration by 5.00D-01
 RMSDP=1.57D-03 MaxDP=2.42D-01              OVMax= 1.62D-01

 Cycle   2  Pass 1  IDiag  1:
 RMSU=  7.75D-04    CP:  9.85D-01
 E= -3007.51161340062     Delta-E=       -0.323991900883 Rises=F Damp=T
 DIIS: error= 1.58D-02 at cycle   2 NSaved=   2.
 NSaved= 2 IEnMin= 2 EnMin= -3007.51161340062     IErMin= 2 ErrMin= 1.58D-02
 ErrMax= 1.58D-02  0.00D+00 EMaxC= 1.00D-01 BMatC= 2.90D-01 BMatP= 1.50D+00
 IDIUse=3 WtCom= 8.42D-01 WtEn= 1.58D-01
 Coeff-Com: -0.345D+00 0.135D+01
 Coeff-En:   0.000D+00 0.100D+01
 Coeff:     -0.291D+00 0.129D+01
 Gap=     0.173 Goal=   None    Shift=    0.000
 RMSDP=7.15D-04 MaxDP=1.11D-01 DE=-3.24D-01 OVMax= 1.38D-01

 Cycle   3  Pass 1  IDiag  1:
 RMSU=  6.60D-04    CP:  9.76D-01  1.34D+00
 E= -3007.75237372844     Delta-E=       -0.240760327821 Rises=F Damp=F
 DIIS: error= 1.33D-02 at cycle   3 NSaved=   3.
 NSaved= 3 IEnMin= 3 EnMin= -3007.75237372844     IErMin= 3 ErrMin= 1.33D-02
 ErrMax= 1.33D-02  0.00D+00 EMaxC= 1.00D-01 BMatC= 1.38D-01 BMatP= 2.90D-01
 IDIUse=3 WtCom= 8.67D-01 WtEn= 1.33D-01
 Coeff-Com: -0.305D+00 0.680D+00 0.624D+00
 Coeff-En:   0.000D+00 0.000D+00 0.100D+01
 Coeff:     -0.264D+00 0.590D+00 0.674D+00
 Gap=     0.159 Goal=   None    Shift=    0.000
 RMSDP=4.19D-04 MaxDP=4.89D-02 DE=-2.41D-01 OVMax= 7.95D-02

 Cycle   4  Pass 1  IDiag  1:
 RMSU=  2.24D-04    CP:  9.72D-01  1.62D+00  5.78D-01
 E= -3007.85030898429     Delta-E=       -0.097935255850 Rises=F Damp=F
 DIIS: error= 6.39D-03 at cycle   4 NSaved=   4.
 NSaved= 4 IEnMin= 4 EnMin= -3007.85030898429     IErMin= 4 ErrMin= 6.39D-03
 ErrMax= 6.39D-03  0.00D+00 EMaxC= 1.00D-01 BMatC= 2.20D-02 BMatP= 1.38D-01
 IDIUse=3 WtCom= 9.36D-01 WtEn= 6.39D-02
 Coeff-Com: -0.114D+00 0.228D+00 0.374D+00 0.512D+00
 Coeff-En:   0.000D+00 0.000D+00 0.110D+00 0.890D+00
 Coeff:     -0.106D+00 0.214D+00 0.357D+00 0.536D+00
 Gap=     0.156 Goal=   None    Shift=    0.000
 RMSDP=1.31D-04 MaxDP=1.82D-02 DE=-9.79D-02 OVMax= 2.16D-02

 Cycle   5  Pass 1  IDiag  1:
 RMSU=  6.20D-05    CP:  9.72D-01  1.59D+00  7.05D-01  6.61D-01
 E= -3007.86780264300     Delta-E=       -0.017493658712 Rises=F Damp=F
 DIIS: error= 7.75D-04 at cycle   5 NSaved=   5.
 NSaved= 5 IEnMin= 5 EnMin= -3007.86780264300     IErMin= 5 ErrMin= 7.75D-04
 ErrMax= 7.75D-04  0.00D+00 EMaxC= 1.00D-01 BMatC= 5.76D-04 BMatP= 2.20D-02
 IDIUse=3 WtCom= 9.92D-01 WtEn= 7.75D-03
 Coeff-Com: -0.325D-01 0.621D-01 0.132D+00 0.249D+00 0.589D+00
 Coeff-En:   0.000D+00 0.000D+00 0.000D+00 0.000D+00 0.100D+01
 Coeff:     -0.322D-01 0.616D-01 0.131D+00 0.247D+00 0.592D+00
 Gap=     0.156 Goal=   None    Shift=    0.000
 RMSDP=2.72D-05 MaxDP=5.88D-03 DE=-1.75D-02 OVMax= 4.66D-03

 Cycle   6  Pass 1  IDiag  1:
 RMSU=  2.28D-05    CP:  9.72D-01  1.59D+00  7.07D-01  7.16D-01  8.96D-01
 E= -3007.86825017007     Delta-E=       -0.000447527069 Rises=F Damp=F
 DIIS: error= 3.21D-04 at cycle   6 NSaved=   6.
 NSaved= 6 IEnMin= 6 EnMin= -3007.86825017007     IErMin= 6 ErrMin= 3.21D-04
 ErrMax= 3.21D-04  0.00D+00 EMaxC= 1.00D-01 BMatC= 7.11D-05 BMatP= 5.76D-04
 IDIUse=3 WtCom= 9.97D-01 WtEn= 3.21D-03
 Coeff-Com:  0.959D-02-0.207D-01-0.159D-01 0.278D-02 0.268D+00 0.756D+00
 Coeff-En:   0.000D+00 0.000D+00 0.000D+00 0.000D+00 0.000D+00 0.100D+01
 Coeff:      0.956D-02-0.207D-01-0.159D-01 0.277D-02 0.267D+00 0.757D+00
 Gap=     0.156 Goal=   None    Shift=    0.000
 RMSDP=1.21D-05 MaxDP=1.25D-03 DE=-4.48D-04 OVMax= 4.29D-03

 Cycle   7  Pass 1  IDiag  1:
 RMSU=  8.36D-06    CP:  9.71D-01  1.60D+00  7.11D-01  7.34D-01  9.98D-01
                    CP:  9.35D-01
 E= -3007.86833063239     Delta-E=       -0.000080462320 Rises=F Damp=F
 DIIS: error= 7.13D-05 at cycle   7 NSaved=   7.
 NSaved= 7 IEnMin= 7 EnMin= -3007.86833063239     IErMin= 7 ErrMin= 7.13D-05
 ErrMax= 7.13D-05  0.00D+00 EMaxC= 1.00D-01 BMatC= 7.51D-06 BMatP= 7.11D-05
 IDIUse=1 WtCom= 1.00D+00 WtEn= 0.00D+00
 Coeff-Com:  0.666D-02-0.136D-01-0.172D-01-0.219D-01 0.506D-01 0.310D+00
 Coeff-Com:  0.685D+00
 Coeff:      0.666D-02-0.136D-01-0.172D-01-0.219D-01 0.506D-01 0.310D+00
 Coeff:      0.685D+00
 Gap=     0.156 Goal=   None    Shift=    0.000
 RMSDP=5.31D-06 MaxDP=1.65D-03 DE=-8.05D-05 OVMax= 1.29D-03

 Cycle   8  Pass 1  IDiag  1:
 RMSU=  3.54D-06    CP:  9.71D-01  1.60D+00  7.13D-01  7.39D-01  1.02D+00
                    CP:  1.07D+00  9.73D-01
 E= -3007.86834060819     Delta-E=       -0.000009975807 Rises=F Damp=F
 DIIS: error= 4.11D-05 at cycle   8 NSaved=   8.
 NSaved= 8 IEnMin= 8 EnMin= -3007.86834060819     IErMin= 8 ErrMin= 4.11D-05
 ErrMax= 4.11D-05  0.00D+00 EMaxC= 1.00D-01 BMatC= 1.57D-06 BMatP= 7.51D-06
 IDIUse=1 WtCom= 1.00D+00 WtEn= 0.00D+00
 Coeff-Com:  0.161D-02-0.301D-02-0.566D-02-0.124D-01-0.280D-01 0.103D-01
 Coeff-Com:  0.333D+00 0.704D+00
 Coeff:      0.161D-02-0.301D-02-0.566D-02-0.124D-01-0.280D-01 0.103D-01
 Coeff:      0.333D+00 0.704D+00
 Gap=     0.156 Goal=   None    Shift=    0.000
 RMSDP=2.22D-06 MaxDP=1.59D-04 DE=-9.98D-06 OVMax= 1.06D-03

 Cycle   9  Pass 1  IDiag  1:
 RMSU=  1.37D-06    CP:  9.71D-01  1.60D+00  7.13D-01  7.41D-01  1.04D+00
                    CP:  1.10D+00  1.13D+00  9.80D-01
 E= -3007.86834319252     Delta-E=       -0.000002584327 Rises=F Damp=F
 DIIS: error= 1.16D-05 at cycle   9 NSaved=   9.
 NSaved= 9 IEnMin= 9 EnMin= -3007.86834319252     IErMin= 9 ErrMin= 1.16D-05
 ErrMax= 1.16D-05  0.00D+00 EMaxC= 1.00D-01 BMatC= 2.17D-07 BMatP= 1.57D-06
 IDIUse=1 WtCom= 1.00D+00 WtEn= 0.00D+00
 Coeff-Com: -0.322D-03 0.744D-03 0.268D-03-0.206D-02-0.189D-01-0.406D-01
 Coeff-Com:  0.375D-01 0.292D+00 0.731D+00
 Coeff:     -0.322D-03 0.744D-03 0.268D-03-0.206D-02-0.189D-01-0.406D-01
 Coeff:      0.375D-01 0.292D+00 0.731D+00
 Gap=     0.156 Goal=   None    Shift=    0.000
 RMSDP=1.10D-06 MaxDP=2.53D-04 DE=-2.58D-06 OVMax= 4.12D-04

 Cycle  10  Pass 1  IDiag  1:
 RMSU=  6.03D-07    CP:  9.71D-01  1.60D+00  7.14D-01  7.42D-01  1.04D+00
                    CP:  1.12D+00  1.17D+00  1.16D+00  1.09D+00
 E= -3007.86834363927     Delta-E=       -0.000000446753 Rises=F Damp=F
 DIIS: error= 4.84D-06 at cycle  10 NSaved=  10.
 NSaved=10 IEnMin=10 EnMin= -3007.86834363927     IErMin=10 ErrMin= 4.84D-06
 ErrMax= 4.84D-06  0.00D+00 EMaxC= 1.00D-01 BMatC= 3.78D-08 BMatP= 2.17D-07
 IDIUse=1 WtCom= 1.00D+00 WtEn= 0.00D+00
 Coeff-Com: -0.525D-03 0.104D-02 0.151D-02 0.209D-02-0.106D-02-0.198D-01
 Coeff-Com: -0.669D-01-0.453D-01 0.287D+00 0.842D+00
 Coeff:     -0.525D-03 0.104D-02 0.151D-02 0.209D-02-0.106D-02-0.198D-01
 Coeff:     -0.669D-01-0.453D-01 0.287D+00 0.842D+00
 Gap=     0.156 Goal=   None    Shift=    0.000
 RMSDP=5.78D-07 MaxDP=6.30D-05 DE=-4.47D-07 OVMax= 2.71D-04

 Cycle  11  Pass 1  IDiag  1:
 RMSU=  2.64D-07    CP:  9.71D-01  1.60D+00  7.14D-01  7.42D-01  1.04D+00
                    CP:  1.13D+00  1.20D+00  1.23D+00  1.32D+00  1.06D+00
 E= -3007.86834375154     Delta-E=       -0.000000112263 Rises=F Damp=F
 DIIS: error= 2.49D-06 at cycle  11 NSaved=  11.
 NSaved=11 IEnMin=11 EnMin= -3007.86834375154     IErMin=11 ErrMin= 2.49D-06
 ErrMax= 2.49D-06  0.00D+00 EMaxC= 1.00D-01 BMatC= 9.95D-09 BMatP= 3.78D-08
 IDIUse=1 WtCom= 1.00D+00 WtEn= 0.00D+00
 Coeff-Com: -0.201D-03 0.388D-03 0.672D-03 0.125D-02 0.207D-02-0.345D-02
 Coeff-Com: -0.369D-01-0.597D-01 0.200D-01 0.417D+00 0.658D+00
 Coeff:     -0.201D-03 0.388D-03 0.672D-03 0.125D-02 0.207D-02-0.345D-02
 Coeff:     -0.369D-01-0.597D-01 0.200D-01 0.417D+00 0.658D+00
 Gap=     0.156 Goal=   None    Shift=    0.000
 RMSDP=2.21D-07 MaxDP=3.85D-05 DE=-1.12D-07 OVMax= 9.29D-05

 Cycle  12  Pass 1  IDiag  1:
 RMSU=  1.15D-07    CP:  9.71D-01  1.60D+00  7.14D-01  7.42D-01  1.04D+00
                    CP:  1.13D+00  1.20D+00  1.26D+00  1.38D+00  1.23D+00
                    CP:  9.81D-01
 E= -3007.86834377108     Delta-E=       -0.000000019540 Rises=F Damp=F
 DIIS: error= 1.02D-06 at cycle  12 NSaved=  12.
 NSaved=12 IEnMin=12 EnMin= -3007.86834377108     IErMin=12 ErrMin= 1.02D-06
 ErrMax= 1.02D-06  0.00D+00 EMaxC= 1.00D-01 BMatC= 1.31D-09 BMatP= 9.95D-09
 IDIUse=1 WtCom= 1.00D+00 WtEn= 0.00D+00
 Coeff-Com:  0.631D-05-0.159D-04 0.196D-04 0.155D-03 0.899D-03 0.205D-02
 Coeff-Com: -0.335D-02-0.126D-01-0.440D-01 0.289D-01 0.236D+00 0.792D+00
 Coeff:      0.631D-05-0.159D-04 0.196D-04 0.155D-03 0.899D-03 0.205D-02
 Coeff:     -0.335D-02-0.126D-01-0.440D-01 0.289D-01 0.236D+00 0.792D+00
 Gap=     0.156 Goal=   None    Shift=    0.000
 RMSDP=9.98D-08 MaxDP=7.21D-06 DE=-1.95D-08 OVMax= 5.01D-05

 Cycle  13  Pass 1  IDiag  1:
 RMSU=  5.86D-08    CP:  9.71D-01  1.60D+00  7.14D-01  7.42D-01  1.04D+00
                    CP:  1.13D+00  1.20D+00  1.27D+00  1.40D+00  1.29D+00
                    CP:  1.18D+00  1.26D+00
 E= -3007.86834377622     Delta-E=       -0.000000005139 Rises=F Damp=F
 DIIS: error= 5.66D-07 at cycle  13 NSaved=  13.
 NSaved=13 IEnMin=13 EnMin= -3007.86834377622     IErMin=13 ErrMin= 5.66D-07
 ErrMax= 5.66D-07  0.00D+00 EMaxC= 1.00D-01 BMatC= 4.62D-10 BMatP= 1.31D-09
 IDIUse=1 WtCom= 1.00D+00 WtEn= 0.00D+00
 Coeff-Com:  0.588D-04-0.116D-03-0.177D-03-0.263D-03-0.198D-03 0.196D-02
 Coeff-Com:  0.830D-02 0.119D-01-0.295D-01-0.978D-01-0.785D-01 0.340D+00
 Coeff-Com:  0.845D+00
 Coeff:      0.588D-04-0.116D-03-0.177D-03-0.263D-03-0.198D-03 0.196D-02
 Coeff:      0.830D-02 0.119D-01-0.295D-01-0.978D-01-0.785D-01 0.340D+00
 Coeff:      0.845D+00
 Gap=     0.156 Goal=   None    Shift=    0.000
 RMSDP=8.13D-08 MaxDP=6.73D-06 DE=-5.14D-09 OVMax= 4.39D-05

 Cycle  14  Pass 1  IDiag  1:
 RMSU=  3.38D-08    CP:  9.71D-01  1.60D+00  7.14D-01  7.42D-01  1.04D+00
                    CP:  1.13D+00  1.21D+00  1.27D+00  1.41D+00  1.33D+00
                    CP:  1.32D+00  1.66D+00  1.46D+00
 E= -3007.86834377893     Delta-E=       -0.000000002712 Rises=F Damp=F
 DIIS: error= 3.30D-07 at cycle  14 NSaved=  14.
 NSaved=14 IEnMin=14 EnMin= -3007.86834377893     IErMin=14 ErrMin= 3.30D-07
 ErrMax= 3.30D-07  0.00D+00 EMaxC= 1.00D-01 BMatC= 1.52D-10 BMatP= 4.62D-10
 IDIUse=1 WtCom= 1.00D+00 WtEn= 0.00D+00
 Coeff-Com:  0.197D-04-0.379D-04-0.669D-04-0.123D-03-0.309D-03 0.207D-03
 Coeff-Com:  0.346D-02 0.824D-02-0.649D-03-0.357D-01-0.876D-01-0.903D-01
 Coeff-Com:  0.312D+00 0.891D+00
 Coeff:      0.197D-04-0.379D-04-0.669D-04-0.123D-03-0.309D-03 0.207D-03
 Coeff:      0.346D-02 0.824D-02-0.649D-03-0.357D-01-0.876D-01-0.903D-01
 Coeff:      0.312D+00 0.891D+00
 Gap=     0.156 Goal=   None    Shift=    0.000
 RMSDP=5.53D-08 MaxDP=4.76D-06 DE=-2.71D-09 OVMax= 3.24D-05

 Cycle  15  Pass 1  IDiag  1:
 RMSU=  1.81D-08    CP:  9.71D-01  1.60D+00  7.14D-01  7.42D-01  1.04D+00
                    CP:  1.13D+00  1.21D+00  1.27D+00  1.42D+00  1.34D+00
                    CP:  1.40D+00  1.91D+00  2.00D+00  1.50D+00
 E= -3007.86834378029     Delta-E=       -0.000000001362 Rises=F Damp=F
 DIIS: error= 2.08D-07 at cycle  15 NSaved=  15.
 NSaved=15 IEnMin=15 EnMin= -3007.86834378029     IErMin=15 ErrMin= 2.08D-07
 ErrMax= 2.08D-07  0.00D+00 EMaxC= 1.00D-01 BMatC= 6.62D-11 BMatP= 1.52D-10
 IDIUse=1 WtCom= 1.00D+00 WtEn= 0.00D+00
 Coeff-Com: -0.233D-04 0.466D-04 0.682D-04 0.938D-04-0.488D-04-0.938D-03
 Coeff-Com: -0.320D-02-0.255D-02 0.127D-01 0.378D-01 0.433D-02-0.219D+00
 Coeff-Com: -0.334D+00 0.409D+00 0.110D+01
 Coeff:     -0.233D-04 0.466D-04 0.682D-04 0.938D-04-0.488D-04-0.938D-03
 Coeff:     -0.320D-02-0.255D-02 0.127D-01 0.378D-01 0.433D-02-0.219D+00
 Coeff:     -0.334D+00 0.409D+00 0.110D+01
 Gap=     0.156 Goal=   None    Shift=    0.000
 RMSDP=6.06D-08 MaxDP=4.64D-06 DE=-1.36D-09 OVMax= 3.69D-05

 Cycle  16  Pass 1  IDiag  1:
 RMSU=  1.08D-08    CP:  9.71D-01  1.60D+00  7.14D-01  7.42D-01  1.04D+00
                    CP:  1.13D+00  1.21D+00  1.27D+00  1.42D+00  1.36D+00
                    CP:  1.49D+00  2.16D+00  2.59D+00  2.33D+00  1.54D+00
 E= -3007.86834378113     Delta-E=       -0.000000000842 Rises=F Damp=F
 DIIS: error= 1.18D-07 at cycle  16 NSaved=  16.
 NSaved=16 IEnMin=16 EnMin= -3007.86834378113     IErMin=16 ErrMin= 1.18D-07
 ErrMax= 1.18D-07  0.00D+00 EMaxC= 1.00D-01 BMatC= 1.61D-11 BMatP= 6.62D-11
 IDIUse=1 WtCom= 1.00D+00 WtEn= 0.00D+00
 Coeff-Com: -0.145D-04 0.285D-04 0.469D-04 0.728D-04 0.741D-04-0.390D-03
 Coeff-Com: -0.237D-02-0.338D-02 0.509D-02 0.277D-01 0.297D-01-0.499D-01
 Coeff-Com: -0.237D+00-0.118D+00 0.394D+00 0.954D+00
 Coeff:     -0.145D-04 0.285D-04 0.469D-04 0.728D-04 0.741D-04-0.390D-03
 Coeff:     -0.237D-02-0.338D-02 0.509D-02 0.277D-01 0.297D-01-0.499D-01
 Coeff:     -0.237D+00-0.118D+00 0.394D+00 0.954D+00
 Gap=     0.156 Goal=   None    Shift=    0.000
 RMSDP=3.06D-08 MaxDP=2.48D-06 DE=-8.42D-10 OVMax= 1.86D-05

 Cycle  17  Pass 1  IDiag  1:
 RMSU=  5.83D-09    CP:  9.71D-01  1.60D+00  7.14D-01  7.42D-01  1.04D+00
                    CP:  1.13D+00  1.21D+00  1.27D+00  1.42D+00  1.36D+00
                    CP:  1.52D+00  2.27D+00  2.89D+00  2.78D+00  2.03D+00
                    CP:  1.43D+00
 E= -3007.86834378138     Delta-E=       -0.000000000251 Rises=F Damp=F
 DIIS: error= 5.11D-08 at cycle  17 NSaved=  17.
 NSaved=17 IEnMin=17 EnMin= -3007.86834378138     IErMin=17 ErrMin= 5.11D-08
 ErrMax= 5.11D-08  0.00D+00 EMaxC= 1.00D-01 BMatC= 4.24D-12 BMatP= 1.61D-11
 IDIUse=1 WtCom= 1.00D+00 WtEn= 0.00D+00
 Coeff-Com:  0.421D-07-0.350D-06 0.208D-05 0.524D-05 0.458D-04 0.985D-04
 Coeff-Com: -0.175D-03-0.726D-03-0.141D-02 0.168D-02 0.102D-01 0.397D-01
 Coeff-Com: -0.172D-01-0.155D+00-0.119D+00 0.404D+00 0.838D+00
 Coeff:      0.421D-07-0.350D-06 0.208D-05 0.524D-05 0.458D-04 0.985D-04
 Coeff:     -0.175D-03-0.726D-03-0.141D-02 0.168D-02 0.102D-01 0.397D-01
 Coeff:     -0.172D-01-0.155D+00-0.119D+00 0.404D+00 0.838D+00
 Gap=     0.156 Goal=   None    Shift=    0.000
 RMSDP=1.20D-08 MaxDP=9.20D-07 DE=-2.51D-10 OVMax= 7.87D-06

 Cycle  18  Pass 1  IDiag  1:
 RMSU=  2.92D-09    CP:  9.71D-01  1.60D+00  7.14D-01  7.42D-01  1.04D+00
                    CP:  1.13D+00  1.21D+00  1.27D+00  1.42D+00  1.36D+00
                    CP:  1.54D+00  2.31D+00  2.99D+00  2.95D+00  2.24D+00
                    CP:  1.79D+00  1.25D+00
 E= -3007.86834378132     Delta-E=        0.000000000062 Rises=F Damp=F
 DIIS: error= 3.70D-08 at cycle  18 NSaved=  18.
 NSaved=18 IEnMin=17 EnMin= -3007.86834378138     IErMin=18 ErrMin= 3.70D-08
 ErrMax= 3.70D-08  0.00D+00 EMaxC= 1.00D-01 BMatC= 9.96D-13 BMatP= 4.24D-12
 IDIUse=1 WtCom= 1.00D+00 WtEn= 0.00D+00
 Coeff-Com:  0.330D-05-0.657D-05-0.988D-05-0.151D-04 0.278D-05 0.134D-03
 Coeff-Com:  0.456D-03 0.512D-03-0.179D-02-0.561D-02-0.305D-02 0.303D-01
 Coeff-Com:  0.467D-01-0.371D-01-0.135D+00-0.606D-01 0.330D+00 0.836D+00
 Coeff:      0.330D-05-0.657D-05-0.988D-05-0.151D-04 0.278D-05 0.134D-03
 Coeff:      0.456D-03 0.512D-03-0.179D-02-0.561D-02-0.305D-02 0.303D-01
 Coeff:      0.467D-01-0.371D-01-0.135D+00-0.606D-01 0.330D+00 0.836D+00
 Gap=     0.156 Goal=   None    Shift=    0.000
 RMSDP=4.64D-09 MaxDP=3.22D-07 DE= 6.18D-11 OVMax= 3.00D-06

 SCF Done:  E(RwB97XD) =  -3007.86834378     A.U. after   18 cycles
            NFock= 18  Conv=0.46D-08     -V/T= 2.0108
 KE= 2.975725879792D+03 PE=-2.623721501413D+04 EE= 1.063150798448D+04
 Leave Link  502 at Wed May  4 05:52:18 2022, MaxMem= 10066329600 cpu:            9313.0 elap:             405.1
 (Enter /sw/apps/gaussian-16.0/g16/l801.exe)
 DoSCS=F DFT=T ScalE2(SS,OS)=  1.000000  1.000000
 ExpMin= 3.36D-02 ExpMax= 4.95D+03 ExpMxC= 7.45D+02 IAcc=3 IRadAn=         5 AccDes= 0.00D+00
 HarFok:  IExCor=  205 AccDes= 0.00D+00 IRadAn=         5 IDoV=-2 UseB2=F ITyADJ=14
 ICtDFT= 12500011 ScaDFX=  1.000000  1.000000  1.000000  1.000000
 GSVD:  LWork=       -5460 too small for GESVD, short by       25550 words or       25550 for optimal perf.
 Largest valence mixing into a core orbital is  1.61D-04
 Largest core mixing into a valence orbital is  5.61D-05
 Range of M.O.s used for correlation:    71  1298
 NBasis=  1298 NAE=   246 NBE=   246 NFC=    70 NFV=     0
 NROrb=   1228 NOA=   176 NOB=   176 NVA=  1052 NVB=  1052

 **** Warning!!: The largest alpha MO coefficient is  0.11049358D+02

 Leave Link  801 at Wed May  4 05:52:19 2022, MaxMem= 10066329600 cpu:               6.2 elap:               0.3
 (Enter /sw/apps/gaussian-16.0/g16/l914.exe)
 RHF ground state
 Two-electron integrals replicated using symmetry.
 MDV= 10066329600 DFT=T DoStab=F Mixed=T DoRPA=T DoScal=F NonHer=T
 Making orbital integer symmetry assigments:
 Orbital symmetries:
       Occupied  (A) (A) (A) (A) (A) (A) (A) (A) (A) (A) (A) (A)
                 (A) (A) (A) (A) (A) (A) (A) (A) (A) (A) (A) (A)
                 (A) (A) (A) (A) (A) (A) (A) (A) (A) (A) (A) (A)
                 (A) (A) (A) (A) (A) (A) (A) (A) (A) (A) (A) (A)
                 (A) (A) (A) (A) (A) (A) (A) (A) (A) (A) (A) (A)
                 (A) (A) (A) (A) (A) (A) (A) (A) (A) (A) (A) (A)
                 (A) (A) (A) (A) (A) (A) (A) (A) (A) (A) (A) (A)
                 (A) (A) (A) (A) (A) (A) (A) (A) (A) (A) (A) (A)
                 (A) (A) (A) (A) (A) (A) (A) (A) (A) (A) (A) (A)
                 (A) (A) (A) (A) (A) (A) (A) (A) (A) (A) (A) (A)
                 (A) (A) (A) (A) (A) (A) (A) (A) (A) (A) (A) (A)
                 (A) (A) (A) (A) (A) (A) (A) (A) (A) (A) (A) (A)
                 (A) (A) (A) (A) (A) (A) (A) (A) (A) (A) (A) (A)
                 (A) (A) (A) (A) (A) (A) (A) (A) (A) (A) (A) (A)
                 (A) (A) (A) (A) (A) (A) (A) (A) (A) (A) (A) (A)
                 (A) (A) (A) (A) (A) (A) (A) (A) (A) (A) (A) (A)
                 (A) (A) (A) (A) (A) (A) (A) (A) (A) (A) (A) (A)
                 (A) (A) (A) (A) (A) (A) (A) (A) (A) (A) (A) (A)
                 (A) (A) (A) (A) (A) (A) (A) (A) (A) (A) (A) (A)
                 (A) (A) (A) (A) (A) (A) (A) (A) (A) (A) (A) (A)
                 (A) (A) (A) (A) (A) (A)
       Virtual   (A) (A) (A) (A) (A) (A) (A) (A) (A) (A) (A) (A)
                 (A) (A) (A) (A) (A) (A) (A) (A) (A) (A) (A) (A)
                 (A) (A) (A) (A) (A) (A) (A) (A) (A) (A) (A) (A)
                 (A) (A) (A) (A) (A) (A) (A) (A) (A) (A) (A) (A)
                 (A) (A) (A) (A) (A) (A) (A) (A) (A) (A) (A) (A)
                 (A) (A) (A) (A) (A) (A) (A) (A) (A) (A) (A) (A)
                 (A) (A) (A) (A) (A) (A) (A) (A) (A) (A) (A) (A)
                 (A) (A) (A) (A) (A) (A) (A) (A) (A) (A) (A) (A)
                 (A) (A) (A) (A) (A) (A) (A) (A) (A) (A) (A) (A)
                 (A) (A) (A) (A) (A) (A) (A) (A) (A) (A) (A) (A)
                 (A) (A) (A) (A) (A) (A) (A) (A) (A) (A) (A) (A)
                 (A) (A) (A) (A) (A) (A) (A) (A) (A) (A) (A) (A)
                 (A) (A) (A) (A) (A) (A) (A) (A) (A) (A) (A) (A)
                 (A) (A) (A) (A) (A) (A) (A) (A) (A) (A) (A) (A)
                 (A) (A) (A) (A) (A) (A) (A) (A) (A) (A) (A) (A)
                 (A) (A) (A) (A) (A) (A) (A) (A) (A) (A) (A) (A)
                 (A) (A) (A) (A) (A) (A) (A) (A) (A) (A) (A) (A)
                 (A) (A) (A) (A) (A) (A) (A) (A) (A) (A) (A) (A)
                 (A) (A) (A) (A) (A) (A) (A) (A) (A) (A) (A) (A)
                 (A) (A) (A) (A) (A) (A) (A) (A) (A) (A) (A) (A)
                 (A) (A) (A) (A) (A) (A) (A) (A) (A) (A) (A) (A)
                 (A) (A) (A) (A) (A) (A) (A) (A) (A) (A) (A) (A)
                 (A) (A) (A) (A) (A) (A) (A) (A) (A) (A) (A) (A)
                 (A) (A) (A) (A) (A) (A) (A) (A) (A) (A) (A) (A)
                 (A) (A) (A) (A) (A) (A) (A) (A) (A) (A) (A) (A)
                 (A) (A) (A) (A) (A) (A) (A) (A) (A) (A) (A) (A)
                 (A) (A) (A) (A) (A) (A) (A) (A) (A) (A) (A) (A)
                 (A) (A) (A) (A) (A) (A) (A) (A) (A) (A) (A) (A)
                 (A) (A) (A) (A) (A) (A) (A) (A) (A) (A) (A) (A)
                 (A) (A) (A) (A) (A) (A) (A) (A) (A) (A) (A) (A)
                 (A) (A) (A) (A) (A) (A) (A) (A) (A) (A) (A) (A)
                 (A) (A) (A) (A) (A) (A) (A) (A) (A) (A) (A) (A)
                 (A) (A) (A) (A) (A) (A) (A) (A) (A) (A) (A) (A)
                 (A) (A) (A) (A) (A) (A) (A) (A) (A) (A) (A) (A)
                 (A) (A) (A) (A) (A) (A) (A) (A) (A) (A) (A) (A)
                 (A) (A) (A) (A) (A) (A) (A) (A) (A) (A) (A) (A)
                 (A) (A) (A) (A) (A) (A) (A) (A) (A) (A) (A) (A)
                 (A) (A) (A) (A) (A) (A) (A) (A) (A) (A) (A) (A)
                 (A) (A) (A) (A) (A) (A) (A) (A) (A) (A) (A) (A)
                 (A) (A) (A) (A) (A) (A) (A) (A) (A) (A) (A) (A)
                 (A) (A) (A) (A) (A) (A) (A) (A) (A) (A) (A) (A)
                 (A) (A) (A) (A) (A) (A) (A) (A) (A) (A) (A) (A)
                 (A) (A) (A) (A) (A) (A) (A) (A) (A) (A) (A) (A)
                 (A) (A) (A) (A) (A) (A) (A) (A) (A) (A) (A) (A)
                 (A) (A) (A) (A) (A) (A) (A) (A) (A) (A) (A) (A)
                 (A) (A) (A) (A) (A) (A) (A) (A) (A) (A) (A) (A)
                 (A) (A) (A) (A) (A) (A) (A) (A) (A) (A) (A) (A)
                 (A) (A) (A) (A) (A) (A) (A) (A) (A) (A) (A) (A)
                 (A) (A) (A) (A) (A) (A) (A) (A) (A) (A) (A) (A)
                 (A) (A) (A) (A) (A) (A) (A) (A) (A) (A) (A) (A)
                 (A) (A) (A) (A) (A) (A) (A) (A) (A) (A) (A) (A)
                 (A) (A) (A) (A) (A) (A) (A) (A) (A) (A) (A) (A)
                 (A) (A) (A) (A) (A) (A) (A) (A) (A) (A) (A) (A)
                 (A) (A) (A) (A) (A) (A) (A) (A) (A) (A) (A) (A)
                 (A) (A) (A) (A) (A) (A) (A) (A) (A) (A) (A) (A)
                 (A) (A) (A) (A) (A) (A) (A) (A) (A) (A) (A) (A)
                 (A) (A) (A) (A) (A) (A) (A) (A) (A) (A) (A) (A)
                 (A) (A) (A) (A) (A) (A) (A) (A) (A) (A) (A) (A)
                 (A) (A) (A) (A) (A) (A) (A) (A) (A) (A) (A) (A)
                 (A) (A) (A) (A) (A) (A) (A) (A) (A) (A) (A) (A)
                 (A) (A) (A) (A) (A) (A) (A) (A) (A) (A) (A) (A)
                 (A) (A) (A) (A) (A) (A) (A) (A) (A) (A) (A) (A)
                 (A) (A) (A) (A) (A) (A) (A) (A) (A) (A) (A) (A)
                 (A) (A) (A) (A) (A) (A) (A) (A) (A) (A) (A) (A)
                 (A) (A) (A) (A) (A) (A) (A) (A) (A) (A) (A) (A)
                 (A) (A) (A) (A) (A) (A) (A) (A) (A) (A) (A) (A)
                 (A) (A) (A) (A) (A) (A) (A) (A) (A) (A) (A) (A)
                 (A) (A) (A) (A) (A) (A) (A) (A) (A) (A) (A) (A)
                 (A) (A) (A) (A) (A) (A) (A) (A) (A) (A) (A) (A)
                 (A) (A) (A) (A) (A) (A) (A) (A) (A) (A) (A) (A)
                 (A) (A) (A) (A) (A) (A) (A) (A) (A) (A) (A) (A)
                 (A) (A) (A) (A) (A) (A) (A) (A) (A) (A) (A) (A)
                 (A) (A) (A) (A) (A) (A) (A) (A) (A) (A) (A) (A)
                 (A) (A) (A) (A) (A) (A) (A) (A) (A) (A) (A) (A)
                 (A) (A) (A) (A) (A) (A) (A) (A) (A) (A) (A) (A)
                 (A) (A) (A) (A) (A) (A) (A) (A) (A) (A) (A) (A)
                 (A) (A) (A) (A) (A) (A) (A) (A) (A) (A) (A) (A)
                 (A) (A) (A) (A) (A) (A) (A) (A) (A) (A) (A) (A)
                 (A) (A) (A) (A) (A) (A) (A) (A) (A) (A) (A) (A)
                 (A) (A) (A) (A) (A) (A) (A) (A) (A) (A) (A) (A)
                 (A) (A) (A) (A) (A) (A) (A) (A) (A) (A) (A) (A)
                 (A) (A) (A) (A) (A) (A) (A) (A) (A) (A) (A) (A)
                 (A) (A) (A) (A) (A) (A) (A) (A) (A) (A) (A) (A)
                 (A) (A) (A) (A) (A) (A) (A) (A) (A) (A) (A) (A)
                 (A) (A) (A) (A) (A) (A) (A) (A) (A) (A) (A) (A)
                 (A) (A) (A) (A) (A) (A) (A) (A) (A) (A) (A) (A)
                 (A) (A) (A) (A) (A) (A) (A) (A) (A) (A) (A) (A)
                 (A) (A) (A) (A) (A) (A) (A) (A)
    20 initial guesses have been made.
 Convergence on wavefunction:    0.001000000000000
 Davidson Disk Diagonalization:  ConvIn= 1.00D-03 SkipCon=T Conv= 1.00D-03.
 Max sub-space:  2000 roots to seek:    20 dimension of matrix:       370304
 Iteration     1 Dimension    20 NMult     0 NNew     20
 CISAX will form    20 AO SS matrices at one time.
 NMat=    20 NSing=    20 JSym2X= 0.
 FoFJK:  IHMeth= 1 ICntrl=       0 DoSepK=T KAlg= 0 I1Cent=           0 FoldK=F
 IRaf=         1 NMat=      40 IRICut=       1 DoRegI=T DoRafI=F ISym2E= 0 IDoP0=3 IntGTp=3.
 FoFCou: FMM=T IPFlag=           0 FMFlag=      100000 FMFlg1=        2001
         NFxFlg=           0 DoJE=F BraDBF=F KetDBF=F FulRan=T
         wScrn=  0.000000 ICntrl=       500 IOpCl=  0 I1Cent=           0 NGrid=           0
         NMat0=   20 NMatS0=     20 NMatT0=    0 NMatD0=   20 NMtDS0=    0 NMtDT0=    0
 Symmetry not used in FoFCou.
 FMM levels:  10  Number of levels for PrismC:   9
 New state      3 was old state      5
 New state      4 was old state      6
 New state      5 was old state      7
 Excitation Energies [eV] at current iteration:
 Root      1 :     2.149485305266193
 Root      2 :     2.572907615922833
 Root      3 :     3.916734129352431
 Root      4 :     4.045415843736984
 Root      5 :     4.127746166775839
 Root      6 :     4.340640404786766
 Root      7 :     4.395164997605906
 Root      8 :     4.492168940012366
 Root      9 :     4.505404913284458
 Root     10 :     4.521176349318799
 Root     11 :     4.697593622717608
 Root     12 :     4.881329078751072
 Root     13 :     4.999418481079988
 Root     14 :     5.049675398742873
 Root     15 :     5.241513858476790
 Root     16 :     5.479797304522176
 Root     17 :     5.553248911275064
 Root     18 :     5.590189662515816
 Root     19 :     6.111143934930210
 Root     20 :     7.070518330139199
 Iteration     2 Dimension    30 NMult    20 NNew     10
 CISAX will form    10 AO SS matrices at one time.
 NMat=    10 NSing=    10 JSym2X= 0.
 Root      1 not converged, maximum delta is    0.077598806511402
 Root      2 not converged, maximum delta is    0.056758433674131
 New state      3 was old state      4
 Root      3 not converged, maximum delta is    0.182436123778832
 New state      4 was old state      3
 Root      4 not converged, maximum delta is    0.141601705416201
 Root      5 not converged, maximum delta is    0.212692118319992
 Excitation Energies [eV] at current iteration:
 Root      1 :     1.641964926367419   Change is   -0.507520378898775
 Root      2 :     2.176468987838301   Change is   -0.396438628084533
 Root      3 :     3.488066419808655   Change is   -0.557349423928329
 Root      4 :     3.519764007336201   Change is   -0.396970122016231
 Root      5 :     3.577172946584247   Change is   -0.550573220191593
 Iteration     3 Dimension    40 NMult    30 NNew     10
 CISAX will form    10 AO SS matrices at one time.
 NMat=    10 NSing=    10 JSym2X= 0.
 Root      1 not converged, maximum delta is    0.017061990697851
 Root      2 not converged, maximum delta is    0.011261900356296
 New state      3 was old state      5
 Root      3 not converged, maximum delta is    0.309190869965231
 New state      4 was old state      3
 Root      4 not converged, maximum delta is    0.211784082431982
 New state      5 was old state      4
 Root      5 not converged, maximum delta is    0.246449902625394
 Excitation Energies [eV] at current iteration:
 Root      1 :     1.604886282563869   Change is   -0.037078643803550
 Root      2 :     2.157644406178629   Change is   -0.018824581659672
 Root      3 :     3.388076185517802   Change is   -0.189096761066444
 Root      4 :     3.426394480370894   Change is   -0.061671939437761
 Root      5 :     3.511057327301798   Change is   -0.008706680034403
 Iteration     4 Dimension    50 NMult    40 NNew     10
 CISAX will form    10 AO SS matrices at one time.
 NMat=    10 NSing=    10 JSym2X= 0.
 Root      1 not converged, maximum delta is    0.003037869811039
 Root      2 not converged, maximum delta is    0.005305269111646
 Root      3 not converged, maximum delta is    0.048499075537402
 Root      4 not converged, maximum delta is    0.046312408707654
 Root      5 not converged, maximum delta is    0.027552002576323
 Excitation Energies [eV] at current iteration:
 Root      1 :     1.600550973209229   Change is   -0.004335309354640
 Root      2 :     2.154830698190342   Change is   -0.002813707988288
 Root      3 :     3.370734256541325   Change is   -0.017341928976477
 Root      4 :     3.413655111361056   Change is   -0.012739369009837
 Root      5 :     3.505287004242788   Change is   -0.005770323059010
 Iteration     5 Dimension    60 NMult    50 NNew     10
 CISAX will form    10 AO SS matrices at one time.
 NMat=    10 NSing=    10 JSym2X= 0.
 Root      1 not converged, maximum delta is    0.001361827977263
 Root      2 has converged.
 Root      3 not converged, maximum delta is    0.005174501149291
 Root      4 not converged, maximum delta is    0.006717020114000
 Root      5 not converged, maximum delta is    0.005834282647027
 Excitation Energies [eV] at current iteration:
 Root      1 :     1.600158344966427   Change is   -0.000392628242802
 Root      2 :     2.154600133317253   Change is   -0.000230564873089
 Root      3 :     3.369143016461512   Change is   -0.001591240079813
 Root      4 :     3.412069168879667   Change is   -0.001585942481389
 Root      5 :     3.504483573325281   Change is   -0.000803430917507
 Iteration     6 Dimension    68 NMult    60 NNew      8
 CISAX will form     8 AO SS matrices at one time.
 NMat=     8 NSing=     8 JSym2X= 0.
 Root      1 has converged.
 Root      2 has converged.
 Root      3 not converged, maximum delta is    0.001780337397993
 Root      4 not converged, maximum delta is    0.002224493399015
 Root      5 not converged, maximum delta is    0.003121481222284
 Excitation Energies [eV] at current iteration:
 Root      1 :     1.600121931210487   Change is   -0.000036413755940
 Root      2 :     2.154597336888803   Change is   -0.000002796428450
 Root      3 :     3.368935895140267   Change is   -0.000207121321246
 Root      4 :     3.411825685883325   Change is   -0.000243482996343
 Root      5 :     3.504319934129734   Change is   -0.000163639195547
 Iteration     7 Dimension    74 NMult    68 NNew      6
 CISAX will form     6 AO SS matrices at one time.
 NMat=     6 NSing=     6 JSym2X= 0.
 Root      1 has converged.
 Root      2 has converged.
 Root      3 has converged.
 Root      4 not converged, maximum delta is    0.001725454172906
 Root      5 not converged, maximum delta is    0.005377486715030
 Excitation Energies [eV] at current iteration:
 Root      1 :     1.600121831057506   Change is   -0.000000100152981
 Root      2 :     2.154595191797626   Change is   -0.000002145091177
 Root      3 :     3.368908255153895   Change is   -0.000027639986372
 Root      4 :     3.411776851650206   Change is   -0.000048834233119
 Root      5 :     3.504199038496489   Change is   -0.000120895633245
 Iteration     8 Dimension    78 NMult    74 NNew      4
 CISAX will form     4 AO SS matrices at one time.
 NMat=     4 NSing=     4 JSym2X= 0.
 Root      1 has converged.
 Root      2 has converged.
 Root      3 has converged.
 Root      4 has converged.
 Root      5 not converged, maximum delta is    0.003739300539016
 Excitation Energies [eV] at current iteration:
 Root      1 :     1.600121762878344   Change is   -0.000000068179162
 Root      2 :     2.154594842501028   Change is   -0.000000349296597
 Root      3 :     3.368907725902314   Change is   -0.000000529251581
 Root      4 :     3.411767082495357   Change is   -0.000009769154849
 Root      5 :     3.504134915155854   Change is   -0.000064123340635
 Iteration     9 Dimension    80 NMult    78 NNew      2
 CISAX will form     2 AO SS matrices at one time.
 NMat=     2 NSing=     2 JSym2X= 0.
 Root      1 has converged.
 Root      2 has converged.
 Root      3 has converged.
 Root      4 has converged.
 Root      5 has converged.
 Excitation Energies [eV] at current iteration:
 Root      1 :     1.600121754996322   Change is   -0.000000007882022
 Root      2 :     2.154594795943099   Change is   -0.000000046557930
 Root      3 :     3.368907712857144   Change is   -0.000000013045170
 Root      4 :     3.411766642885155   Change is   -0.000000439610201
 Root      5 :     3.504122742695944   Change is   -0.000012172459909
 Convergence achieved on expansion vectors.
 ***********************************************************************
 Excited states from <AA,BB:AA,BB> singles matrix:
 ***********************************************************************
 
 1PDM for each excited state written to RWF  633
 Ground to excited state transition densities written to RWF  633
 Ground to excited state transition electric dipole moments (Au):
       state          X           Y           Z        Dip. S.      Osc.
         1         2.0120     -2.3777      0.0053      9.7012      0.3803
         2         0.7762      0.8982      0.0433      1.4112      0.0745
         3         0.3250      0.3846      0.0294      0.2544      0.0210
         4         1.9272      1.9603     -0.0085      7.5573      0.6317
         5        -0.0183      0.1366     -0.0156      0.0192      0.0017
 Ground to excited state transition velocity dipole moments (Au):
       state          X           Y           Z        Dip. S.      Osc.
         1        -0.1150      0.1370     -0.0015      0.0320      0.3626
         2        -0.0580     -0.0678     -0.0027      0.0080      0.0672
         3        -0.0399     -0.0468     -0.0023      0.0038      0.0204
         4        -0.2328     -0.2393      0.0015      0.1115      0.5928
         5         0.0033     -0.0176      0.0020      0.0003      0.0017
 Ground to excited state transition magnetic dipole moments (Au):
       state          X           Y           Z
         1        -0.0682      0.0298      1.5729
         2         0.0405      0.0657     -0.4210
         3         0.2606     -0.6375     -0.5595
         4        -0.0230      0.1775     -2.0878
         5         0.0503      0.1071      0.8401
 Ground to excited state transition velocity quadrupole moments (Au):
       state          XX          YY          ZZ          XY          XZ          YZ
         1        -2.2051      0.5279     -0.0110      1.1014      0.0081     -0.0955
         2        -1.1648     -0.1003      0.0058     -0.7277     -0.0578      0.0422
         3        -0.7378     -0.0430      0.0034     -0.4518     -0.0251      0.0362
         4        -3.9945     -0.5573     -0.0056     -2.6886     -0.0993      0.0018
         5         0.2727     -0.5271      0.0157     -0.0861     -0.0538     -0.0455
 <0|del|b> * <b|rxdel|0> + <0|del|b> * <b|delr+rdel|0>
 Rotatory Strengths (R) in cgs (10**-40 erg-esu-cm/Gauss)
       state          XX          YY          ZZ    R(velocity)    E-M Angle
         1        -5.8222    108.9983     12.2998     38.4919       88.05
         2       -23.7944    -25.0561     -1.9321    -16.9275       98.55
         3        88.3756    -33.1123     62.9346     39.3993       67.72
         4      -206.6444     16.4054    -36.5203    -75.5865       93.29
         5        -3.5404      5.2226     -1.7021     -0.0066       90.00
 1/2[<0|r|b>*<b|rxdel|0> + (<0|rxdel|b>*<b|r|0>)*]
 Rotatory Strengths (R) in cgs (10**-40 erg-esu-cm/Gauss)
       state          XX          YY          ZZ     R(length)
         1        97.0224     50.0819     -5.8933     47.0703
         2       -22.2098    -41.7213     12.8783    -17.0176
         3       -59.8853    173.4065     11.6192     41.7135
         4        31.3276   -246.0238    -12.4910    -75.7291
         5         0.6494    -10.3475      9.2731     -0.1417
  1/2[<0|del|b>*<b|r|0> + (<0|r|b>*<b|del|0>)*] (Au)
       state          X           Y           Z        Dip. S.   Osc.(frdel)
         1        -0.2314     -0.3256     -0.0000      0.5570      0.3713
         2        -0.0450     -0.0609     -0.0001      0.1061      0.0707
         3        -0.0130     -0.0180     -0.0001      0.0310      0.0207
         4        -0.4486     -0.4692     -0.0000      0.9179      0.6119
         5        -0.0001     -0.0024     -0.0000      0.0025      0.0017

 Excitation energies and oscillator strengths:
 
 Excited State   1:      Singlet-A      1.6001 eV  774.84 nm  f=0.3803  <S**2>=0.000
     245 -> 248        0.18979
     246 -> 247        0.68310
     245 <- 248        0.12013
 This state for optimization and/or second-order correction.
 Total Energy, E(TD-HF/TD-DFT) =  -3007.80954039    
 Copying the excited state density for this state as the 1-particle RhoCI density.
 
 Excited State   2:      Singlet-A      2.1546 eV  575.44 nm  f=0.0745  <S**2>=0.000
     245 -> 247        0.62222
     246 -> 248       -0.32624
 
 Excited State   3:      Singlet-A      3.3689 eV  368.02 nm  f=0.0210  <S**2>=0.000
     242 -> 247        0.47473
     242 -> 249        0.29888
     242 -> 250        0.20587
     243 -> 247       -0.23882
     243 -> 249       -0.12600
     244 -> 247        0.14944
     246 -> 248        0.10196
 
 Excited State   4:      Singlet-A      3.4118 eV  363.40 nm  f=0.6317  <S**2>=0.000
     239 -> 247        0.10198
     243 -> 247        0.20269
     245 -> 247        0.29512
[...]
 Alpha virt. eigenvalues --    1.26648   1.27074   1.27279   1.27400   1.28074
 Alpha virt. eigenvalues --    1.28200   1.28806   1.29263   1.30190   1.30973
 Alpha virt. eigenvalues --    1.31625   1.31930   1.32540   1.33035   1.33632
 Alpha virt. eigenvalues --    1.34106   1.34434   1.35147   1.35466   1.35544
 Alpha virt. eigenvalues --    1.35893   1.36491   1.36933   1.37317   1.37446
 Alpha virt. eigenvalues --    1.38515   1.39350   1.39731   1.40199   1.40513
 Alpha virt. eigenvalues --    1.40653   1.41608   1.42686   1.42833   1.43134
 Alpha virt. eigenvalues --    1.43489   1.43550   1.43837   1.44290   1.44662
 Alpha virt. eigenvalues --    1.44823   1.45154   1.45715   1.45795   1.46377
 Alpha virt. eigenvalues --    1.46540   1.46824   1.47397   1.47754   1.48037
 Alpha virt. eigenvalues --    1.48514   1.48651   1.50013   1.50258   1.50729
 Alpha virt. eigenvalues --    1.50856   1.51041   1.51720   1.52300   1.52447
 Alpha virt. eigenvalues --    1.52673   1.53142   1.53272   1.53560   1.54072
 Alpha virt. eigenvalues --    1.54205   1.54430   1.55070   1.55199   1.56028
 Alpha virt. eigenvalues --    1.56377   1.57127   1.57321   1.57986   1.58911
 Alpha virt. eigenvalues --    1.59045   1.59187   1.59482   1.60110   1.60167
 Alpha virt. eigenvalues --    1.60707   1.60821   1.60999   1.61156   1.61398
 Alpha virt. eigenvalues --    1.62127   1.62400   1.62523   1.62724   1.62892
 Alpha virt. eigenvalues --    1.63107   1.63331   1.63357   1.63603   1.63822
 Alpha virt. eigenvalues --    1.64317   1.64346   1.64910   1.65219   1.65585
 Alpha virt. eigenvalues --    1.65871   1.66140   1.66210   1.66317   1.66743
 Alpha virt. eigenvalues --    1.66930   1.67247   1.67813   1.68206   1.68277
 Alpha virt. eigenvalues --    1.68999   1.69282   1.69882   1.70257   1.71075
 Alpha virt. eigenvalues --    1.71986   1.72084   1.72327   1.72551   1.73143
 Alpha virt. eigenvalues --    1.73359   1.73723   1.74212   1.74483   1.74827
 Alpha virt. eigenvalues --    1.75281   1.75873   1.76522   1.76913   1.77673
 Alpha virt. eigenvalues --    1.77696   1.78548   1.79019   1.79367   1.79607
 Alpha virt. eigenvalues --    1.79700   1.80020   1.80143   1.80370   1.80516
 Alpha virt. eigenvalues --    1.80534   1.81088   1.81100   1.81263   1.81598
 Alpha virt. eigenvalues --    1.82217   1.82370   1.82716   1.82828   1.83153
 Alpha virt. eigenvalues --    1.83277   1.83715   1.83825   1.84187   1.84364
 Alpha virt. eigenvalues --    1.84450   1.84969   1.85087   1.85256   1.85652
 Alpha virt. eigenvalues --    1.85841   1.85938   1.86031   1.86283   1.86656
 Alpha virt. eigenvalues --    1.86759   1.86935   1.87031   1.87201   1.87236
 Alpha virt. eigenvalues --    1.87332   1.87556   1.87802   1.87944   1.88292
 Alpha virt. eigenvalues --    1.88615   1.88807   1.89051   1.89130   1.89438
 Alpha virt. eigenvalues --    1.89543   1.89762   1.89891   1.90253   1.90379
 Alpha virt. eigenvalues --    1.90557   1.91002   1.91155   1.91308   1.91337
 Alpha virt. eigenvalues --    1.91507   1.91704   1.91941   1.92045   1.92404
 Alpha virt. eigenvalues --    1.92586   1.92722   1.93103   1.93234   1.93402
 Alpha virt. eigenvalues --    1.93541   1.93997   1.94301   1.94376   1.94945
 Alpha virt. eigenvalues --    1.95201   1.95415   1.95624   1.95675   1.95982
 Alpha virt. eigenvalues --    1.96439   1.96578   1.96852   1.97323   1.97388
 Alpha virt. eigenvalues --    1.97451   1.97646   1.97702   1.98222   1.98574
 Alpha virt. eigenvalues --    1.98612   1.98864   1.99139   1.99219   1.99605
 Alpha virt. eigenvalues --    1.99670   2.00332   2.00626   2.00677   2.00992
 Alpha virt. eigenvalues --    2.01171   2.01368   2.01806   2.01960   2.02122
 Alpha virt. eigenvalues --    2.02359   2.02473   2.02809   2.03041   2.03297
 Alpha virt. eigenvalues --    2.03841   2.04128   2.04391   2.04763   2.04886
 Alpha virt. eigenvalues --    2.05217   2.05381   2.05638   2.05749   2.06129
 Alpha virt. eigenvalues --    2.06248   2.06689   2.06770   2.07041   2.07122
 Alpha virt. eigenvalues --    2.07435   2.07732   2.08157   2.08219   2.08707
 Alpha virt. eigenvalues --    2.08761   2.09192   2.09782   2.10036   2.10344
 Alpha virt. eigenvalues --    2.11078   2.11219   2.11529   2.11547   2.12204
 Alpha virt. eigenvalues --    2.12509   2.12670   2.12932   2.13089   2.13319
 Alpha virt. eigenvalues --    2.13894   2.14038   2.14236   2.14382   2.14790
 Alpha virt. eigenvalues --    2.15127   2.15405   2.15689   2.16598   2.16764
 Alpha virt. eigenvalues --    2.16813   2.16873   2.17272   2.17683   2.18123
 Alpha virt. eigenvalues --    2.18328   2.18373   2.18886   2.19013   2.19441
 Alpha virt. eigenvalues --    2.19871   2.19994   2.20451   2.20973   2.21217
 Alpha virt. eigenvalues --    2.21462   2.21564   2.21762   2.22234   2.22437
 Alpha virt. eigenvalues --    2.22645   2.23147   2.23451   2.23955   2.24368
 Alpha virt. eigenvalues --    2.24470   2.24643   2.25277   2.25468   2.25882
 Alpha virt. eigenvalues --    2.25896   2.26774   2.27137   2.27492   2.27554
 Alpha virt. eigenvalues --    2.27713   2.28827   2.28904   2.29034   2.29782
 Alpha virt. eigenvalues --    2.30201   2.30626   2.31583   2.31915   2.32440
 Alpha virt. eigenvalues --    2.32609   2.33655   2.33869   2.34414   2.34706
 Alpha virt. eigenvalues --    2.35326   2.35599   2.35772   2.36692   2.36781
 Alpha virt. eigenvalues --    2.37236   2.37486   2.38177   2.38481   2.38555
 Alpha virt. eigenvalues --    2.38996   2.39466   2.39792   2.40083   2.40630
 Alpha virt. eigenvalues --    2.40825   2.40963   2.41126   2.41587   2.41747
 Alpha virt. eigenvalues --    2.42049   2.42388   2.42528   2.42987   2.43421
 Alpha virt. eigenvalues --    2.43606   2.43953   2.44348   2.44816   2.45021
 Alpha virt. eigenvalues --    2.45423   2.45825   2.46232   2.46489   2.46704
 Alpha virt. eigenvalues --    2.47403   2.48284   2.48349   2.48957   2.49436
 Alpha virt. eigenvalues --    2.49663   2.50139   2.50390   2.51381   2.51608
 Alpha virt. eigenvalues --    2.51663   2.51906   2.52215   2.52721   2.52885
 Alpha virt. eigenvalues --    2.53515   2.53692   2.54816   2.54974   2.55685
 Alpha virt. eigenvalues --    2.56011   2.56136   2.57105   2.57470   2.57756
 Alpha virt. eigenvalues --    2.58074   2.58201   2.58318   2.58535   2.58646
 Alpha virt. eigenvalues --    2.59349   2.59545   2.60729   2.60887   2.61353
 Alpha virt. eigenvalues --    2.61851   2.62218   2.62491   2.62629   2.63243
 Alpha virt. eigenvalues --    2.63697   2.64294   2.65006   2.65213   2.65458
 Alpha virt. eigenvalues --    2.65765   2.65973   2.66048   2.66506   2.67216
 Alpha virt. eigenvalues --    2.67559   2.67903   2.69297   2.69519   2.69578
 Alpha virt. eigenvalues --    2.69969   2.70176   2.70821   2.71046   2.71447
 Alpha virt. eigenvalues --    2.71848   2.72109   2.72638   2.73379   2.73827
 Alpha virt. eigenvalues --    2.74249   2.74559   2.74931   2.75251   2.75476
 Alpha virt. eigenvalues --    2.75544   2.76528   2.76816   2.77229   2.78180
 Alpha virt. eigenvalues --    2.78235   2.78267   2.78456   2.78771   2.79262
 Alpha virt. eigenvalues --    2.79716   2.79973   2.80850   2.80945   2.81053
 Alpha virt. eigenvalues --    2.81621   2.81824   2.82397   2.82889   2.84003
 Alpha virt. eigenvalues --    2.84295   2.84412   2.84805   2.85148   2.85827
 Alpha virt. eigenvalues --    2.86015   2.86326   2.86642   2.87636   2.88311
 Alpha virt. eigenvalues --    2.88755   2.89485   2.89989   2.90860   2.91324
 Alpha virt. eigenvalues --    2.91621   2.91980   2.92454   2.93025   2.93667
 Alpha virt. eigenvalues --    2.94407   2.94641   2.95100   2.95343   2.95472
 Alpha virt. eigenvalues --    2.96225   2.96487   2.97194   2.97913   2.97978
 Alpha virt. eigenvalues --    2.98136   2.98418   2.99109   2.99460   2.99872
 Alpha virt. eigenvalues --    2.99993   3.00217   3.00322   3.00441   3.00813
 Alpha virt. eigenvalues --    3.01241   3.01472   3.01597   3.02124   3.02205
 Alpha virt. eigenvalues --    3.02528   3.02884   3.02984   3.03024   3.03266
 Alpha virt. eigenvalues --    3.03532   3.03656   3.04260   3.04418   3.05004
 Alpha virt. eigenvalues --    3.05305   3.05793   3.05862   3.06175   3.06281
 Alpha virt. eigenvalues --    3.06661   3.06890   3.06954   3.07690   3.07948
 Alpha virt. eigenvalues --    3.08413   3.08640   3.08914   3.09137   3.10135
 Alpha virt. eigenvalues --    3.10460   3.11134   3.11585   3.11901   3.11926
 Alpha virt. eigenvalues --    3.12196   3.12675   3.12916   3.13436   3.14348
 Alpha virt. eigenvalues --    3.15660   3.15815   3.16090   3.16649   3.16965
 Alpha virt. eigenvalues --    3.17703   3.17884   3.18105   3.18402   3.19093
 Alpha virt. eigenvalues --    3.19299   3.19868   3.20586   3.20859   3.21570
 Alpha virt. eigenvalues --    3.22747   3.24287   3.24834   3.25210   3.26081
 Alpha virt. eigenvalues --    3.26325   3.27666   3.27869   3.28825   3.30288
 Alpha virt. eigenvalues --    3.33006   3.35062   3.39498   3.45360   3.47172
 Alpha virt. eigenvalues --    3.48478   3.49202   3.51788   3.57605   3.59678
 Alpha virt. eigenvalues --    3.62056   3.62836   3.70659   3.72469   3.73453
 Alpha virt. eigenvalues --    3.75040   3.78581
          Condensed to atoms (all electrons):
 Mulliken charges:
               1
     1  Mg   0.974246
     2  C   -0.109534
     3  C   -0.091059
     4  C   -0.075891
     5  C   -0.098363
     6  N   -0.342736
     7  C    0.063848
     8  C   -0.107145
     9  C   -0.118703
    10  C    0.009666
    11  C    0.048223
    12  C    0.031599
    13  C    0.019329
    14  C    0.213839
    15  O   -0.258690
    16  O   -0.381501
    17  N   -0.409719
    18  C    0.168404
    19  C   -0.167262
    20  C   -0.036664
    21  C    0.134045
    22  C    0.068093
    23  C    0.025104
    24  O   -0.228443
    25  C   -0.023062
    26  N   -0.413428
    27  C    0.053786
    28  C   -0.119350
    29  C   -0.033598
    30  C    0.073130
    31  C    0.038752
    32  C   -0.017769
    33  C   -0.042121
    34  N   -0.441181
    35  C    0.106841
    36  C   -0.168123
    37  C   -0.037251
    38  C    0.146034
    39  C    0.087345
    40  C    0.093040
    41  O   -0.254875
    42  C    0.023254
    43  C    0.256900
    44  O   -0.238573
    45  O   -0.370908
    46  C    0.145473
    47  C    0.248702
    48  C   -0.160303
    49  C   -0.201130
    50  C    0.028024
    51  C    0.020336
    52  C    0.004146
    53  C    0.021553
    54  C   -0.186082
    55  C   -0.015737
    56  C    0.040852
    57  C   -0.014085
    58  C   -0.025279
    59  C   -0.165213
    60  C    0.008528
    61  C    0.049288
    62  C   -0.037834
    63  C   -0.016717
    64  C   -0.219455
    65  C    0.003055
    66  C   -0.022067
    67  H   -0.007072
    68  H    0.017517
    69  H    0.000112
    70  H    0.058545
    71  H    0.035887
    72  H    0.044947
    73  H    0.049696
    74  H    0.040045
    75  H    0.025694
    76  H    0.035936
    77  H    0.044278
    78  H    0.055031
    79  H    0.070946
    80  H    0.029210
    81  H    0.040741
    82  H    0.060811
    83  H    0.057354
    84  H    0.053392
    85  H    0.031493
    86  H    0.024818
    87  H    0.030181
    88  H    0.051053
    89  H    0.049575
    90  H    0.036767
    91  H    0.031867
    92  H    0.031070
    93  H    0.063870
    94  H    0.028108
    95  H    0.043388
    96  H    0.069927
    97  H    0.048298
    98  H    0.082272
    99  H    0.053703
   100  H    0.057898
   101  H    0.053887
   102  H    0.075384
   103  H    0.043611
   104  H    0.020827
   105  H    0.053589
   106  H    0.022765
   107  H    0.052905
   108  H    0.025583
   109  H    0.022400
   110  H    0.029857
   111  H    0.023765
   112  H    0.015769
   113  H    0.019579
   114  H    0.018190
   115  H    0.035306
   116  H    0.017095
   117  H    0.018086
   118  H    0.001369
   119  H    0.002940
   120  H    0.013190
   121  H    0.014016
   122  H    0.006885
   123  H    0.009711
   124  H    0.022604
   125  H    0.040641
   126  H    0.025683
   127  H    0.012910
   128  H    0.011612
   129  H    0.019461
   130  H    0.013807
   131  H    0.011573
   132  H    0.020895
   133  H    0.020431
   134  H    0.027802
   135  H    0.017776
   136  H    0.028739
   137  H    0.025258
   138  H    0.026950
   139  H    0.036384
   140  H    0.037819
 Sum of Mulliken charges =  -0.00000
 Mulliken charges with hydrogens summed into heavy atoms:
               1
     1  Mg   0.974246
     2  C   -0.109534
     3  C   -0.098131
     4  C   -0.058373
     5  C   -0.098250
     6  N   -0.342736
     7  C    0.063848
     8  C   -0.048600
     9  C   -0.082816
    10  C    0.009666
    11  C    0.182911
    12  C    0.093230
    13  C    0.118637
    14  C    0.213839
    15  O   -0.258690
    16  O   -0.381501
    17  N   -0.409719
    18  C    0.168404
    19  C   -0.167262
    20  C   -0.036664
    21  C    0.134045
    22  C    0.208990
    23  C    0.025104
    24  O   -0.228443
    25  C    0.148496
    26  N   -0.413428
    27  C    0.053786
    28  C   -0.087857
    29  C   -0.008779
    30  C    0.073130
    31  C    0.169561
    32  C    0.050864
    33  C    0.080928
    34  N   -0.441181
    35  C    0.106841
    36  C   -0.168123
    37  C   -0.037251
    38  C    0.146034
    39  C    0.248958
    40  C    0.093040
    41  O   -0.254875
    42  C    0.105526
    43  C    0.256900
    44  O   -0.238573
    45  O   -0.370908
    46  C    0.310961
    47  C    0.367697
    48  C   -0.139476
    49  C   -0.201130
    50  C    0.157284
    51  C    0.068320
    52  C    0.057768
    53  C    0.056901
    54  C   -0.167892
    55  C    0.054751
    56  C    0.045161
    57  C    0.013120
    58  C   -0.008683
    59  C   -0.142609
    60  C    0.087762
    61  C    0.080361
    62  C   -0.012454
    63  C    0.024609
    64  C   -0.191653
    65  C    0.074828
    66  C    0.079086
 Electronic spatial extent (au):  <R**2>=         122391.4968
 Charge=             -0.0000 electrons
 Dipole moment (field-independent basis, Debye):
    X=             -5.3906    Y=              2.4451    Z=              3.6963  Tot=              6.9785
 Quadrupole moment (field-independent basis, Debye-Ang):
   XX=           -388.2179   YY=           -433.9380   ZZ=           -401.3350
   XY=             29.9081   XZ=             14.4744   YZ=            -13.9207
 Traceless Quadrupole moment (field-independent basis, Debye-Ang):
   XX=             19.6124   YY=            -26.1077   ZZ=              6.4953
   XY=             29.9081   XZ=             14.4744   YZ=            -13.9207
 Octapole moment (field-independent basis, Debye-Ang**2):
  XXX=            401.5397  YYY=           -125.1392  ZZZ=             12.1766  XYY=           -298.2126
  XXY=            177.2657  XXZ=            127.8614  XZZ=             -6.5871  YZZ=            -16.5379
  YYZ=             24.4307  XYZ=            -51.5552
 Hexadecapole moment (field-independent basis, Debye-Ang**3):
 XXXX=        -134177.6828 YYYY=         -28329.5649 ZZZZ=          -3940.1343 XXXY=           2876.2555
 XXXZ=             33.7010 YYYX=           -116.2453 YYYZ=            -32.2121 ZZZX=             50.6470
 ZZZY=            -11.6741 XXYY=         -28964.7759 XXZZ=         -23773.8867 YYZZ=          -5091.1140
 XXYZ=           -244.5209 YYXZ=            172.2708 ZZXY=            106.8938
 N-N= 9.622112806071D+03 E-N=-2.623721501032D+04  KE= 2.975725879792D+03
 Leave Link  601 at Wed May  4 06:11:16 2022, MaxMem= 10066329600 cpu:              12.5 elap:               0.6
 (Enter /sw/apps/gaussian-16.0/g16/l9999.exe)
 1\1\GINC-BP1-COMPUTE065\SP\RwB97XD TD-FC\def2SVP\C55H74Mg1N4O6\OF15641
 \04-May-2022\0\\#p wB97XD/Def2SVP td=(nstates=5)\\step_1401_chromophor
 e_24 TDDFT with wB97XD functional\\0,1\Mg,0,0.177,43.474,25.517\C,0,2.
 374,43.055,28.226\C,0,-2.514,42.911,27.703\C,0,-2.016,43.361,22.988\C,
 0,2.819,43.929,23.403\N,0,0.035,43.093,27.644\C,0,0.985,43.1,28.569\C,
 0,0.437,42.977,30.007\C,0,-0.995,42.549,29.767\C,0,-1.191,42.94,28.309
 \C,0,-1.318,41.028,30.013\C,0,0.446,44.295,30.875\C,0,-0.141,44.228,32
 .32\C,0,-0.145,42.749,32.933\O,0,0.85,42.118,33.292\O,0,-1.464,42.279,
 33.062\N,0,-1.983,43.078,25.357\C,0,-2.884,42.876,26.379\C,0,-4.255,42
 .786,25.863\C,0,-4.129,42.87,24.446\C,0,-2.693,43.096,24.184\C,0,-5.43
 2,42.479,26.721\C,0,-5.221,42.756,23.438\O,0,-5.004,43.006,22.266\C,0,
 -6.635,42.416,23.86\N,0,0.375,43.545,23.503\C,0,-0.7,43.522,22.664\C,0
 ,-0.125,43.556,21.264\C,0,1.313,43.975,21.382\C,0,1.538,43.735,22.839\
 C,0,-0.364,42.121,20.648\C,0,1.631,45.42,20.939\C,0,1.018,46.588,21.71
 7\N,0,2.213,43.448,25.729\C,0,3.204,43.702,24.782\C,0,4.557,43.462,25.
 403\C,0,4.218,43.294,26.763\C,0,2.793,43.361,26.902\C,0,5.899,43.314,2
 4.792\C,0,4.764,42.993,28.028\O,0,5.941,42.713,28.377\C,0,3.661,43.043
 ,29.052\C,0,3.656,41.869,29.893\O,0,3.596,40.712,29.519\O,0,3.933,42.3
 45,31.157\C,0,4.237,41.274,32.099\C,0,-1.541,40.988,33.886\C,0,-2.774,
 41.147,34.769\C,0,-2.838,41.882,35.922\C,0,-1.7,42.868,36.27\C,0,-4.18
 1,42.163,36.571\C,0,-4.946,43.4,36.037\C,0,-6.282,43.012,35.37\C,0,-7.
 521,43.095,36.324\C,0,-8.192,44.481,36.192\C,0,-8.589,42.023,36.092\C,
 0,-8.839,41.11,37.27\C,0,-9.815,41.794,38.228\C,0,-11.297,41.147,38.26
 1\C,0,-12.338,42.29,38.213\C,0,-11.452,40.302,39.535\C,0,-11.962,38.87
 3,39.295\C,0,-13.32,38.566,40.025\C,0,-14.567,38.754,39.132\C,0,-15.86
 3,38.775,39.988\C,0,-14.652,37.552,38.069\H,0,-3.267,42.749,28.477\H,0
 ,-2.618,43.234,22.086\H,0,3.649,44.132,22.723\H,0,0.97,42.202,30.558\H
 ,0,-1.716,43.203,30.258\H,0,-1.536,40.505,29.082\H,0,-2.147,40.897,30.
 708\H,0,-0.383,40.597,30.372\H,0,-0.031,45.107,30.326\H,0,1.444,44.723
 ,30.962\H,0,-1.098,44.744,32.397\H,0,0.425,44.855,33.009\H,0,-5.924,43
 .35,27.154\H,0,-4.972,41.907,27.526\H,0,-6.036,41.671,26.307\H,0,-7.04
 4,43.019,24.671\H,0,-6.606,41.382,24.205\H,0,-7.3,42.522,23.003\H,0,-0
 .735,44.271,20.713\H,0,1.998,43.28,20.897\H,0,0.575,41.572,20.577\H,0,
 -0.82,42.241,19.665\H,0,-0.978,41.591,21.376\H,0,1.275,45.397,19.909\H
 ,0,2.714,45.533,20.988\H,0,1.832,47.309,21.783\H,0,0.509,46.397,22.662
 \H,0,0.353,47.128,21.044\H,0,5.808,42.811,23.829\H,0,6.566,42.818,25.4
 97\H,0,6.282,44.318,24.61\H,0,3.701,44.003,29.566\H,0,4.642,41.73,33.0
 02\H,0,4.946,40.612,31.603\H,0,3.31,40.742,32.315\H,0,-0.698,40.678,34
 .504\H,0,-1.785,40.136,33.252\H,0,-3.711,40.733,34.395\H,0,-1.008,42.4
 35,36.992\H,0,-2.269,43.6,36.843\H,0,-1.22,43.362,35.425\H,0,-4.039,42
 .118,37.65\H,0,-4.747,41.247,36.401\H,0,-4.396,44.053,35.36\H,0,-5.113
 ,44.063,36.886\H,0,-6.322,41.965,35.072\H,0,-6.449,43.633,34.49\H,0,-7
 .155,43.099,37.35\H,0,-8.595,44.862,37.131\H,0,-9.06,44.471,35.533\H,0
 ,-7.568,45.244,35.727\H,0,-8.447,41.479,35.158\H,0,-9.505,42.519,35.77
 1\H,0,-7.941,40.907,37.853\H,0,-9.193,40.099,37.065\H,0,-9.865,42.873,
 38.081\H,0,-9.255,41.654,39.152\H,0,-11.334,40.506,37.38\H,0,-13.283,4
 2.14,38.735\H,0,-12.337,42.722,37.212\H,0,-11.904,43.143,38.734\H,0,-1
 2.164,40.774,40.212\H,0,-10.491,40.197,40.039\H,0,-11.181,38.213,39.67
 3\H,0,-12.057,38.564,38.255\H,0,-13.356,39.203,40.909\H,0,-13.316,37.5
 17,40.321\H,0,-14.57,39.692,38.576\H,0,-16.314,39.763,40.082\H,0,-15.6
 99,38.526,41.036\H,0,-16.616,38.183,39.467\H,0,-13.725,36.991,38.191\H
 ,0,-14.673,38.014,37.082\H,0,-15.48,36.857,38.208\\Version=ES64L-G16Re
 vA.03\State=1-A\HF=-3007.8683438\RMSD=4.635e-09\PG=C01 [X(C55H74Mg1N4O
 6)]\\@


 THE MOST SERIOUS THREAT TO THE SURVIVAL OF MANKIND IS NOT NOW
 IGNORANCE IN THE TRADITIONAL SENSE,
 BUT A MORALLY NEUTRAL, AN INSENSITIVE OR INHIBITED HUMAN INTELLIGENCE.

                     -- MARGO JEFFERSON IN NEWSWEEK, SEPTEMBER 2, 1974
 Job cpu time:       0 days 10 hours 10 minutes 13.3 seconds.
 Elapsed time:       0 days  0 hours 25 minutes 53.2 seconds.
 File lengths (MBytes):  RWF=   8929 Int=      0 D2E=      0 Chk=    390 Scr=      1
 Normal termination of Gaussian 16 at Wed May  4 06:11:17 2022.
