 Entering Gaussian System, Link 0=g16
 Initial command:
 /sw/apps/gaussian-16.0/g16/l1.exe "/tmp/Gau-231568.inp" -scrdir="/tmp/"
 Entering Link 1 = /sw/apps/gaussian-16.0/g16/l1.exe PID=    231569.
  
 Copyright (c) 1988,1990,1992,1993,1995,1998,2003,2009,2016,
            Gaussian, Inc.  All Rights Reserved.
  
 This is part of the Gaussian(R) 16 program.  It is based on
 the Gaussian(R) 09 system (copyright 2009, Gaussian, Inc.),
 the Gaussian(R) 03 system (copyright 2003, Gaussian, Inc.),
 the Gaussian(R) 98 system (copyright 1998, Gaussian, Inc.),
 the Gaussian(R) 94 system (copyright 1995, Gaussian, Inc.),
 the Gaussian 92(TM) system (copyright 1992, Gaussian, Inc.),
 the Gaussian 90(TM) system (copyright 1990, Gaussian, Inc.),
 the Gaussian 88(TM) system (copyright 1988, Gaussian, Inc.),
 the Gaussian 86(TM) system (copyright 1986, Carnegie Mellon
 University), and the Gaussian 82(TM) system (copyright 1983,
 Carnegie Mellon University). Gaussian is a federally registered
 trademark of Gaussian, Inc.
  
 This software contains proprietary and confidential information,
 including trade secrets, belonging to Gaussian, Inc.
  
 This software is provided under written license and may be
 used, copied, transmitted, or stored only in accord with that
 written license.
  
 The following legend is applicable only to US Government
 contracts under FAR:
  
                    RESTRICTED RIGHTS LEGEND
  
 Use, reproduction and disclosure by the US Government is
 subject to restrictions as set forth in subparagraphs (a)
 and (c) of the Commercial Computer Software - Restricted
 Rights clause in FAR 52.227-19.
  
 Gaussian, Inc.
 340 Quinnipiac St., Bldg. 40, Wallingford CT 06492
  
  
 ---------------------------------------------------------------
 Warning -- This program may not be used in any manner that
 competes with the business of Gaussian, Inc. or will provide
 assistance to any competitor of Gaussian, Inc.  The licensee
 of this program is prohibited from giving any competitor of
 Gaussian, Inc. access to this program.  By using this program,
 the user acknowledges that Gaussian, Inc. is engaged in the
 business of creating and licensing software in the field of
 computational chemistry and represents and warrants to the
 licensee that it is not a competitor of Gaussian, Inc. and that
 it will not use this program in any manner prohibited above.
 ---------------------------------------------------------------
  

 Cite this work as:
 Gaussian 16, Revision A.03,
 M. J. Frisch, G. W. Trucks, H. B. Schlegel, G. E. Scuseria, 
 M. A. Robb, J. R. Cheeseman, G. Scalmani, V. Barone, 
 G. A. Petersson, H. Nakatsuji, X. Li, M. Caricato, A. V. Marenich, 
 J. Bloino, B. G. Janesko, R. Gomperts, B. Mennucci, H. P. Hratchian, 
 J. V. Ortiz, A. F. Izmaylov, J. L. Sonnenberg, D. Williams-Young, 
 F. Ding, F. Lipparini, F. Egidi, J. Goings, B. Peng, A. Petrone, 
 T. Henderson, D. Ranasinghe, V. G. Zakrzewski, J. Gao, N. Rega, 
 G. Zheng, W. Liang, M. Hada, M. Ehara, K. Toyota, R. Fukuda, 
 J. Hasegawa, M. Ishida, T. Nakajima, Y. Honda, O. Kitao, H. Nakai, 
 T. Vreven, K. Throssell, J. A. Montgomery, Jr., J. E. Peralta, 
 F. Ogliaro, M. J. Bearpark, J. J. Heyd, E. N. Brothers, K. N. Kudin, 
 V. N. Staroverov, T. A. Keith, R. Kobayashi, J. Normand, 
 K. Raghavachari, A. P. Rendell, J. C. Burant, S. S. Iyengar, 
 J. Tomasi, M. Cossi, J. M. Millam, M. Klene, C. Adamo, R. Cammi, 
 J. W. Ochterski, R. L. Martin, K. Morokuma, O. Farkas, 
 J. B. Foresman, and D. J. Fox, Gaussian, Inc., Wallingford CT, 2016.
 
 ******************************************
 Gaussian 16:  ES64L-G16RevA.03 25-Dec-2016
                 5-May-2022 
 ******************************************
 %nproc=24
 Will use up to   24 processors via shared memory.
 %mem=75GB
 ------------------------------
 #p blyp/Def2SVP td=(nstates=5)
 ------------------------------
 1/38=1,172=1/1;
 2/12=2,17=6,18=5,40=1/2;
 3/5=43,7=101,11=9,25=1,30=1,74=402/1,2,3,8;
 4//1;
 5/5=2,38=5/2;
 8/6=1,10=1,108=5/1;
 9/41=5,42=1,70=2/14;
 6/7=2,8=2,9=2,10=2/1;
 99/5=1,9=1/99;
 Leave Link    1 at Thu May  5 00:54:24 2022, MaxMem= 10066329600 cpu:               0.5 elap:               0.0
 (Enter /sw/apps/gaussian-16.0/g16/l101.exe)
 --------------------------------------------------
 step_501_chromophore_21 TDDFT with blyp functional
 --------------------------------------------------
 Symbolic Z-matrix:
 Charge =  0 Multiplicity = 1
 Mg                    15.621    51.824    26.048 
 C                     17.474    50.607    28.628 
 C                     13.11     52.757    28.207 
 C                     13.815    52.827    23.366 
 C                     17.994    50.426    23.833 
 N                     15.236    51.49     28.168 
 C                     16.269    51.276    29.026 
 C                     15.946    51.618    30.441 
 C                     14.406    52.073    30.261 
 C                     14.211    52.119    28.781 
 C                     13.381    51.071    30.962 
 C                     16.882    52.829    30.906 
 C                     17.113    53.       32.409 
 C                     16.277    52.298    33.508 
 O                     16.522    51.273    34.207 
 O                     15.149    53.028    33.8 
 N                     13.774    52.766    25.773 
 C                     12.872    53.044    26.813 
 C                     11.705    53.645    26.21 
 C                     11.908    53.699    24.816 
 C                     13.233    53.124    24.629 
 C                     10.532    54.159    27.077 
 C                     10.862    54.19     23.684 
 O                     11.181    54.334    22.497 
 C                     9.413     54.556    23.96 
 N                     15.937    51.693    23.861 
 C                     14.997    52.162    23.006 
 C                     15.273    51.713    21.572 
 C                     16.826    51.21     21.68 
 C                     17.022    51.185    23.204 
 C                     14.217    50.697    20.937 
 C                     17.949    52.219    21.114 
 C                     19.019    51.704    20.169 
 N                     17.424    50.772    26.121 
 C                     18.254    50.268    25.191 
 C                     19.457    49.674    25.854 
 C                     19.17     49.861    27.227 
 C                     17.869    50.416    27.3 
 C                     20.692    49.074    25.281 
 C                     19.74     49.613    28.498 
 O                     20.83     49.088    28.805 
 C                     18.663    50.082    29.473 
 C                     18.25     48.961    30.286 
 O                     17.836    47.887    29.979 
 O                     18.309    49.398    31.606 
 C                     17.889    48.522    32.766 
 C                     14.293    52.582    34.895 
 C                     13.1      53.569    34.954 
 C                     12.46     53.992    36.015 
 C                     12.68     53.356    37.415 
 C                     11.205    54.841    35.753 
 C                     10.6      55.663    36.932 
 C                     9.42      56.559    36.478 
 C                     8.012     56.109    37.15 
 C                     7.471     54.862    36.476 
 C                     6.914     57.235    37.165 
 C                     6.14      57.367    38.56 
 C                     4.833     56.538    38.569 
 C                     3.547     57.374    38.491 
 C                     2.383     56.737    39.448 
 C                     3.119     57.645    36.997 
 C                     3.394     59.151    36.64 
 C                     2.14      59.97     37.164 
 C                     1.288     60.624    36.053 
 C                     0.789     62.042    36.535 
 C                     0.29      59.577    35.632 
 H                     12.385    53.277    28.836 
 H                     13.185    53.065    22.506 
 H                     18.658    49.809    23.225 
 H                     16.016    50.878    31.238 
 H                     14.234    53.064    30.681 
 H                     12.501    51.529    31.413 
 H                     13.929    50.42     31.643 
 H                     12.997    50.426    30.171 
 H                     16.513    53.785    30.534 
 H                     17.842    52.645    30.423 
 H                     17.072    54.075    32.589 
 H                     18.149    52.746    32.63 
 H                     10.697    54.074    28.151 
 H                     9.65      53.599    26.768 
 H                     10.364    55.2      26.8 
 H                     9.472     55.48     24.534 
 H                     8.955     53.912    24.711 
 H                     8.821     54.482    23.048 
 H                     15.275    52.604    20.943 
 H                     16.96     50.249    21.183 
 H                     14.698    49.77     20.624 
 H                     13.709    51.164    20.094 
 H                     13.484    50.389    21.683 
 H                     18.44     52.77     21.916 
 H                     17.407    53.007    20.592 
 H                     19.977    51.938    20.632 
 H                     18.941    52.125    19.167 
 H                     18.974    50.615    20.123 
 H                     20.767    49.127    24.195 
 H                     20.766    48.017    25.538 
 H                     21.552    49.592    25.705 
 H                     19.018    50.879    30.127 
 H                     17.502    47.57     32.402 
 H                     17.07     48.999    33.306 
 H                     18.788    48.39     33.368 
 H                     14.836    52.5      35.836 
 H                     13.883    51.58     34.766 
 H                     12.925    53.945    33.946 
 H                     13.563    52.719    37.478 
 H                     11.953    52.59     37.685 
 H                     12.756    54.166    38.141 
 H                     10.442    54.172    35.356 
 H                     11.336    55.665    35.052 
 H                     11.37     56.255    37.428 
 H                     10.403    54.93     37.714 
 H                     9.314     56.38     35.408 
 H                     9.565     57.635    36.574 
 H                     8.229     55.74     38.152 
 H                     6.929     54.257    37.203 
 H                     8.295     54.272    36.075 
 H                     6.878     55.132    35.603 
 H                     6.154     57.085    36.398 
 H                     7.216     58.274    37.037 
 H                     6.032     58.429    38.781 
 H                     6.776     57.041    39.382 
 H                     4.714     55.961    39.486 
 H                     4.833     55.775    37.791 
 H                     3.838     58.335    38.917 
 H                     1.407     57.056    39.083 
 H                     2.458     57.04     40.492 
 H                     2.323     55.65     39.401 
 H                     2.055     57.445    36.869 
 H                     3.659     57.008    36.296 
 H                     3.366     59.132    35.551 
 H                     4.356     59.509    37.007 
 H                     2.641     60.683    37.82 
 H                     1.538     59.418    37.886 
 H                     1.904     60.755    35.164 
 H                     1.036     62.219    37.582 
 H                    -0.277     62.075    36.31 
 H                     1.254     62.823    35.934 
 H                    -0.068     59.933    34.666 
 H                    -0.548     59.415    36.31 
 H                     0.823     58.628    35.582 
 
 ITRead=  0  0  0  0  0  0  0  0  0  0  0  0  0  0  0  0  0  0  0  0
 ITRead=  0  0  0  0  0  0  0  0  0  0  0  0  0  0  0  0  0  0  0  0
 ITRead=  0  0  0  0  0  0  0  0  0  0  0  0  0  0  0  0  0  0  0  0
 ITRead=  0  0  0  0  0  0  0  0  0  0  0  0  0  0  0  0  0  0  0  0
 ITRead=  0  0  0  0  0  0  0  0  0  0  0  0  0  0  0  0  0  0  0  0
 ITRead=  0  0  0  0  0  0  0  0  0  0  0  0  0  0  0  0  0  0  0  0
 ITRead=  0  0  0  0  0  0  0  0  0  0  0  0  0  0  0  0  0  0  0  0
 MicOpt= -1 -1 -1 -1 -1 -1 -1 -1 -1 -1 -1 -1 -1 -1 -1 -1 -1 -1 -1 -1
 MicOpt= -1 -1 -1 -1 -1 -1 -1 -1 -1 -1 -1 -1 -1 -1 -1 -1 -1 -1 -1 -1
 MicOpt= -1 -1 -1 -1 -1 -1 -1 -1 -1 -1 -1 -1 -1 -1 -1 -1 -1 -1 -1 -1
 MicOpt= -1 -1 -1 -1 -1 -1 -1 -1 -1 -1 -1 -1 -1 -1 -1 -1 -1 -1 -1 -1
 MicOpt= -1 -1 -1 -1 -1 -1 -1 -1 -1 -1 -1 -1 -1 -1 -1 -1 -1 -1 -1 -1
 MicOpt= -1 -1 -1 -1 -1 -1 -1 -1 -1 -1 -1 -1 -1 -1 -1 -1 -1 -1 -1 -1
 MicOpt= -1 -1 -1 -1 -1 -1 -1 -1 -1 -1 -1 -1 -1 -1 -1 -1 -1 -1 -1 -1
 NAtoms=    140 NQM=      140 NQMF=       0 NMMI=      0 NMMIF=      0
                NMic=       0 NMicF=      0.
                    Isotopes and Nuclear Properties:
 (Nuclear quadrupole moments (NQMom) in fm**2, nuclear magnetic moments (NMagM)
  in nuclear magnetons)

  Atom         1           2           3           4           5           6           7           8           9          10
 IAtWgt=          24          12          12          12          12          14          12          12          12          12
 AtmWgt=  23.9850450  12.0000000  12.0000000  12.0000000  12.0000000  14.0030740  12.0000000  12.0000000  12.0000000  12.0000000
 NucSpn=           0           0           0           0           0           2           0           0           0           0
 AtZEff=  -0.0000000  -0.0000000  -0.0000000  -0.0000000  -0.0000000  -0.0000000  -0.0000000  -0.0000000  -0.0000000  -0.0000000
 NQMom=    0.0000000   0.0000000   0.0000000   0.0000000   0.0000000   2.0440000   0.0000000   0.0000000   0.0000000   0.0000000
 NMagM=    0.0000000   0.0000000   0.0000000   0.0000000   0.0000000   0.4037610   0.0000000   0.0000000   0.0000000   0.0000000
 AtZNuc=  12.0000000   6.0000000   6.0000000   6.0000000   6.0000000   7.0000000   6.0000000   6.0000000   6.0000000   6.0000000

  Atom        11          12          13          14          15          16          17          18          19          20
 IAtWgt=          12          12          12          12          16          16          14          12          12          12
 AtmWgt=  12.0000000  12.0000000  12.0000000  12.0000000  15.9949146  15.9949146  14.0030740  12.0000000  12.0000000  12.0000000
 NucSpn=           0           0           0           0           0           0           2           0           0           0
 AtZEff=  -0.0000000  -0.0000000  -0.0000000  -0.0000000  -0.0000000  -0.0000000  -0.0000000  -0.0000000  -0.0000000  -0.0000000
 NQMom=    0.0000000   0.0000000   0.0000000   0.0000000   0.0000000   0.0000000   2.0440000   0.0000000   0.0000000   0.0000000
 NMagM=    0.0000000   0.0000000   0.0000000   0.0000000   0.0000000   0.0000000   0.4037610   0.0000000   0.0000000   0.0000000
 AtZNuc=   6.0000000   6.0000000   6.0000000   6.0000000   8.0000000   8.0000000   7.0000000   6.0000000   6.0000000   6.0000000

  Atom        21          22          23          24          25          26          27          28          29          30
 IAtWgt=          12          12          12          16          12          14          12          12          12          12
 AtmWgt=  12.0000000  12.0000000  12.0000000  15.9949146  12.0000000  14.0030740  12.0000000  12.0000000  12.0000000  12.0000000
 NucSpn=           0           0           0           0           0           2           0           0           0           0
 AtZEff=  -0.0000000  -0.0000000  -0.0000000  -0.0000000  -0.0000000  -0.0000000  -0.0000000  -0.0000000  -0.0000000  -0.0000000
 NQMom=    0.0000000   0.0000000   0.0000000   0.0000000   0.0000000   2.0440000   0.0000000   0.0000000   0.0000000   0.0000000
 NMagM=    0.0000000   0.0000000   0.0000000   0.0000000   0.0000000   0.4037610   0.0000000   0.0000000   0.0000000   0.0000000
 AtZNuc=   6.0000000   6.0000000   6.0000000   8.0000000   6.0000000   7.0000000   6.0000000   6.0000000   6.0000000   6.0000000

  Atom        31          32          33          34          35          36          37          38          39          40
 IAtWgt=          12          12          12          14          12          12          12          12          12          12
 AtmWgt=  12.0000000  12.0000000  12.0000000  14.0030740  12.0000000  12.0000000  12.0000000  12.0000000  12.0000000  12.0000000
 NucSpn=           0           0           0           2           0           0           0           0           0           0
 AtZEff=  -0.0000000  -0.0000000  -0.0000000  -0.0000000  -0.0000000  -0.0000000  -0.0000000  -0.0000000  -0.0000000  -0.0000000
 NQMom=    0.0000000   0.0000000   0.0000000   2.0440000   0.0000000   0.0000000   0.0000000   0.0000000   0.0000000   0.0000000
 NMagM=    0.0000000   0.0000000   0.0000000   0.4037610   0.0000000   0.0000000   0.0000000   0.0000000   0.0000000   0.0000000
 AtZNuc=   6.0000000   6.0000000   6.0000000   7.0000000   6.0000000   6.0000000   6.0000000   6.0000000   6.0000000   6.0000000

  Atom        41          42          43          44          45          46          47          48          49          50
 IAtWgt=          16          12          12          16          16          12          12          12          12          12
 AtmWgt=  15.9949146  12.0000000  12.0000000  15.9949146  15.9949146  12.0000000  12.0000000  12.0000000  12.0000000  12.0000000
 NucSpn=           0           0           0           0           0           0           0           0           0           0
 AtZEff=  -0.0000000  -0.0000000  -0.0000000  -0.0000000  -0.0000000  -0.0000000  -0.0000000  -0.0000000  -0.0000000  -0.0000000
 NQMom=    0.0000000   0.0000000   0.0000000   0.0000000   0.0000000   0.0000000   0.0000000   0.0000000   0.0000000   0.0000000
 NMagM=    0.0000000   0.0000000   0.0000000   0.0000000   0.0000000   0.0000000   0.0000000   0.0000000   0.0000000   0.0000000
 AtZNuc=   8.0000000   6.0000000   6.0000000   8.0000000   8.0000000   6.0000000   6.0000000   6.0000000   6.0000000   6.0000000

  Atom        51          52          53          54          55          56          57          58          59          60
 IAtWgt=          12          12          12          12          12          12          12          12          12          12
 AtmWgt=  12.0000000  12.0000000  12.0000000  12.0000000  12.0000000  12.0000000  12.0000000  12.0000000  12.0000000  12.0000000
 NucSpn=           0           0           0           0           0           0           0           0           0           0
 AtZEff=  -0.0000000  -0.0000000  -0.0000000  -0.0000000  -0.0000000  -0.0000000  -0.0000000  -0.0000000  -0.0000000  -0.0000000
 NQMom=    0.0000000   0.0000000   0.0000000   0.0000000   0.0000000   0.0000000   0.0000000   0.0000000   0.0000000   0.0000000
 NMagM=    0.0000000   0.0000000   0.0000000   0.0000000   0.0000000   0.0000000   0.0000000   0.0000000   0.0000000   0.0000000
 AtZNuc=   6.0000000   6.0000000   6.0000000   6.0000000   6.0000000   6.0000000   6.0000000   6.0000000   6.0000000   6.0000000

  Atom        61          62          63          64          65          66          67          68          69          70
 IAtWgt=          12          12          12          12          12          12           1           1           1           1
 AtmWgt=  12.0000000  12.0000000  12.0000000  12.0000000  12.0000000  12.0000000   1.0078250   1.0078250   1.0078250   1.0078250
 NucSpn=           0           0           0           0           0           0           1           1           1           1
 AtZEff=  -0.0000000  -0.0000000  -0.0000000  -0.0000000  -0.0000000  -0.0000000  -0.0000000  -0.0000000  -0.0000000  -0.0000000
 NQMom=    0.0000000   0.0000000   0.0000000   0.0000000   0.0000000   0.0000000   0.0000000   0.0000000   0.0000000   0.0000000
 NMagM=    0.0000000   0.0000000   0.0000000   0.0000000   0.0000000   0.0000000   2.7928460   2.7928460   2.7928460   2.7928460
 AtZNuc=   6.0000000   6.0000000   6.0000000   6.0000000   6.0000000   6.0000000   1.0000000   1.0000000   1.0000000   1.0000000

  Atom        71          72          73          74          75          76          77          78          79          80
 IAtWgt=           1           1           1           1           1           1           1           1           1           1
 AtmWgt=   1.0078250   1.0078250   1.0078250   1.0078250   1.0078250   1.0078250   1.0078250   1.0078250   1.0078250   1.0078250
 NucSpn=           1           1           1           1           1           1           1           1           1           1
 AtZEff=  -0.0000000  -0.0000000  -0.0000000  -0.0000000  -0.0000000  -0.0000000  -0.0000000  -0.0000000  -0.0000000  -0.0000000
 NQMom=    0.0000000   0.0000000   0.0000000   0.0000000   0.0000000   0.0000000   0.0000000   0.0000000   0.0000000   0.0000000
 NMagM=    2.7928460   2.7928460   2.7928460   2.7928460   2.7928460   2.7928460   2.7928460   2.7928460   2.7928460   2.7928460
 AtZNuc=   1.0000000   1.0000000   1.0000000   1.0000000   1.0000000   1.0000000   1.0000000   1.0000000   1.0000000   1.0000000

  Atom        81          82          83          84          85          86          87          88          89          90
 IAtWgt=           1           1           1           1           1           1           1           1           1           1
 AtmWgt=   1.0078250   1.0078250   1.0078250   1.0078250   1.0078250   1.0078250   1.0078250   1.0078250   1.0078250   1.0078250
 NucSpn=           1           1           1           1           1           1           1           1           1           1
 AtZEff=  -0.0000000  -0.0000000  -0.0000000  -0.0000000  -0.0000000  -0.0000000  -0.0000000  -0.0000000  -0.0000000  -0.0000000
 NQMom=    0.0000000   0.0000000   0.0000000   0.0000000   0.0000000   0.0000000   0.0000000   0.0000000   0.0000000   0.0000000
 NMagM=    2.7928460   2.7928460   2.7928460   2.7928460   2.7928460   2.7928460   2.7928460   2.7928460   2.7928460   2.7928460
 AtZNuc=   1.0000000   1.0000000   1.0000000   1.0000000   1.0000000   1.0000000   1.0000000   1.0000000   1.0000000   1.0000000

  Atom        91          92          93          94          95          96          97          98          99         100
 IAtWgt=           1           1           1           1           1           1           1           1           1           1
 AtmWgt=   1.0078250   1.0078250   1.0078250   1.0078250   1.0078250   1.0078250   1.0078250   1.0078250   1.0078250   1.0078250
 NucSpn=           1           1           1           1           1           1           1           1           1           1
 AtZEff=  -0.0000000  -0.0000000  -0.0000000  -0.0000000  -0.0000000  -0.0000000  -0.0000000  -0.0000000  -0.0000000  -0.0000000
 NQMom=    0.0000000   0.0000000   0.0000000   0.0000000   0.0000000   0.0000000   0.0000000   0.0000000   0.0000000   0.0000000
 NMagM=    2.7928460   2.7928460   2.7928460   2.7928460   2.7928460   2.7928460   2.7928460   2.7928460   2.7928460   2.7928460
 AtZNuc=   1.0000000   1.0000000   1.0000000   1.0000000   1.0000000   1.0000000   1.0000000   1.0000000   1.0000000   1.0000000

  Atom       101         102         103         104         105         106         107         108         109         110
 IAtWgt=           1           1           1           1           1           1           1           1           1           1
 AtmWgt=   1.0078250   1.0078250   1.0078250   1.0078250   1.0078250   1.0078250   1.0078250   1.0078250   1.0078250   1.0078250
 NucSpn=           1           1           1           1           1           1           1           1           1           1
 AtZEff=  -0.0000000  -0.0000000  -0.0000000  -0.0000000  -0.0000000  -0.0000000  -0.0000000  -0.0000000  -0.0000000  -0.0000000
 NQMom=    0.0000000   0.0000000   0.0000000   0.0000000   0.0000000   0.0000000   0.0000000   0.0000000   0.0000000   0.0000000
 NMagM=    2.7928460   2.7928460   2.7928460   2.7928460   2.7928460   2.7928460   2.7928460   2.7928460   2.7928460   2.7928460
 AtZNuc=   1.0000000   1.0000000   1.0000000   1.0000000   1.0000000   1.0000000   1.0000000   1.0000000   1.0000000   1.0000000

  Atom       111         112         113         114         115         116         117         118         119         120
 IAtWgt=           1           1           1           1           1           1           1           1           1           1
 AtmWgt=   1.0078250   1.0078250   1.0078250   1.0078250   1.0078250   1.0078250   1.0078250   1.0078250   1.0078250   1.0078250
 NucSpn=           1           1           1           1           1           1           1           1           1           1
 AtZEff=  -0.0000000  -0.0000000  -0.0000000  -0.0000000  -0.0000000  -0.0000000  -0.0000000  -0.0000000  -0.0000000  -0.0000000
 NQMom=    0.0000000   0.0000000   0.0000000   0.0000000   0.0000000   0.0000000   0.0000000   0.0000000   0.0000000   0.0000000
 NMagM=    2.7928460   2.7928460   2.7928460   2.7928460   2.7928460   2.7928460   2.7928460   2.7928460   2.7928460   2.7928460
 AtZNuc=   1.0000000   1.0000000   1.0000000   1.0000000   1.0000000   1.0000000   1.0000000   1.0000000   1.0000000   1.0000000

  Atom       121         122         123         124         125         126         127         128         129         130
 IAtWgt=           1           1           1           1           1           1           1           1           1           1
 AtmWgt=   1.0078250   1.0078250   1.0078250   1.0078250   1.0078250   1.0078250   1.0078250   1.0078250   1.0078250   1.0078250
 NucSpn=           1           1           1           1           1           1           1           1           1           1
 AtZEff=  -0.0000000  -0.0000000  -0.0000000  -0.0000000  -0.0000000  -0.0000000  -0.0000000  -0.0000000  -0.0000000  -0.0000000
 NQMom=    0.0000000   0.0000000   0.0000000   0.0000000   0.0000000   0.0000000   0.0000000   0.0000000   0.0000000   0.0000000
 NMagM=    2.7928460   2.7928460   2.7928460   2.7928460   2.7928460   2.7928460   2.7928460   2.7928460   2.7928460   2.7928460
 AtZNuc=   1.0000000   1.0000000   1.0000000   1.0000000   1.0000000   1.0000000   1.0000000   1.0000000   1.0000000   1.0000000

  Atom       131         132         133         134         135         136         137         138         139         140
 IAtWgt=           1           1           1           1           1           1           1           1           1           1
 AtmWgt=   1.0078250   1.0078250   1.0078250   1.0078250   1.0078250   1.0078250   1.0078250   1.0078250   1.0078250   1.0078250
 NucSpn=           1           1           1           1           1           1           1           1           1           1
 AtZEff=  -0.0000000  -0.0000000  -0.0000000  -0.0000000  -0.0000000  -0.0000000  -0.0000000  -0.0000000  -0.0000000  -0.0000000
 NQMom=    0.0000000   0.0000000   0.0000000   0.0000000   0.0000000   0.0000000   0.0000000   0.0000000   0.0000000   0.0000000
 NMagM=    2.7928460   2.7928460   2.7928460   2.7928460   2.7928460   2.7928460   2.7928460   2.7928460   2.7928460   2.7928460
 AtZNuc=   1.0000000   1.0000000   1.0000000   1.0000000   1.0000000   1.0000000   1.0000000   1.0000000   1.0000000   1.0000000
 Leave Link  101 at Thu May  5 00:54:24 2022, MaxMem= 10066329600 cpu:               3.3 elap:               0.2
 (Enter /sw/apps/gaussian-16.0/g16/l202.exe)
 Stoichiometry    C55H74MgN4O6
 Framework group  C1[X(C55H74MgN4O6)]
 Deg. of freedom   414
 Full point group                 C1      NOp   1
 Largest Abelian subgroup         C1      NOp   1
 Largest concise Abelian subgroup C1      NOp   1
                         Standard orientation:                         
 ---------------------------------------------------------------------
 Center     Atomic      Atomic             Coordinates (Angstroms)
 Number     Number       Type             X           Y           Z
 ---------------------------------------------------------------------
      1         12           0       -5.039726    1.226404   -0.077763
      2          6           0       -5.096998   -2.172797    0.037360
      3          6           0       -1.622755    1.246582    0.323230
      4          6           0       -5.159045    4.609320   -0.028692
      5          6           0       -8.572989    1.175462   -0.005538
      6          7           0       -3.552930   -0.302007    0.377848
      7          6           0       -3.781593   -1.600394    0.044751
      8          6           0       -2.533885   -2.402126   -0.110066
      9          6           0       -1.441272   -1.269139    0.255395
     10          6           0       -2.236612   -0.007160    0.328790
     11          6           0       -0.677583   -1.567693    1.624217
     12          6           0       -2.415970   -2.885211   -1.630449
     13          6           0       -1.549224   -4.114787   -1.910642
     14          6           0       -0.547073   -4.727215   -0.900629
     15          8           0       -0.648916   -5.730741   -0.137861
     16          8           0        0.671617   -4.095904   -0.983027
     17          7           0       -3.619090    2.758497    0.016482
     18          6           0       -2.244325    2.543666    0.207158
     19          6           0       -1.618305    3.844150    0.266662
     20          6           0       -2.623967    4.823386    0.135886
     21          6           0       -3.850570    4.052720   -0.014903
     22          6           0       -0.083201    3.987788    0.387645
     23          6           0       -2.457905    6.429218    0.237612
     24          8           0       -3.376114    7.214184   -0.031063
     25          6           0       -1.169002    7.132245    0.630314
     26          7           0       -6.696318    2.694539   -0.094043
     27          6           0       -6.433226    4.021602   -0.028668
     28          6           0       -7.701321    4.829356    0.242626
     29          6           0       -8.866527    3.729193   -0.086645
     30          6           0       -8.035962    2.439546   -0.179316
     31          6           0       -7.774024    5.572265    1.654510
     32          6           0       -9.607534    3.872088   -1.511445
     33          6           0      -11.123360    3.844897   -1.579871
     34          7           0       -6.600601   -0.161350   -0.052261
     35          6           0       -7.941053   -0.064435   -0.012116
     36          6           0       -8.550450   -1.428688   -0.096157
     37          6           0       -7.411635   -2.267843   -0.133387
     38          6           0       -6.281372   -1.429038    0.024301
     39          6           0       -9.971923   -1.860593   -0.176322
     40          6           0       -7.077641   -3.640388   -0.213477
     41          8           0       -7.812194   -4.646030   -0.297682
     42          6           0       -5.555135   -3.647273   -0.101933
     43          6           0       -5.176771   -4.407322    1.067402
     44          8           0       -5.494487   -4.289115    2.209420
     45          8           0       -4.211569   -5.315555    0.642730
     46          6           0       -3.515740   -6.260034    1.598323
     47          6           0        1.780241   -4.611741   -0.185818
     48          6           0        2.990049   -3.682382   -0.457032
     49          6           0        4.255802   -4.010880   -0.521907
     50          6           0        4.763066   -5.415150   -0.093415
     51          6           0        5.251153   -2.844649   -0.638753
     52          6           0        6.717503   -3.154703   -1.069374
     53          6           0        7.557414   -1.866744   -1.261840
     54          6           0        8.766685   -1.754239   -0.184086
     55          6           0        8.235906   -1.339232    1.175329
     56          6           0        9.936304   -0.798492   -0.622544
     57          6           0       11.396741   -1.404236   -0.372100
     58          6           0       11.973668   -0.958865    0.993320
     59          6           0       13.102402    0.078534    0.900917
     60          6           0       14.259244   -0.223031    2.017738
     61          6           0       12.539098    1.552066    0.893599
     62          6           0       12.688230    2.160971   -0.547965
     63          6           0       14.172993    2.711650   -0.648383
     64          6           0       14.282576    4.247048   -0.784344
     65          6           0       15.455436    4.607508   -1.777580
     66          6           0       14.295707    4.783229    0.623417
     67          1           0       -0.539043    1.328837    0.220917
     68          1           0       -5.194225    5.695142    0.084878
     69          1           0       -9.638413    1.079352    0.210988
     70          1           0       -2.348946   -3.292945    0.489891
     71          1           0       -0.687645   -1.178545   -0.526848
     72          1           0        0.373899   -1.283011    1.654333
     73          1           0       -0.855463   -2.603619    1.912457
     74          1           0       -1.164070   -0.954995    2.383884
     75          1           0       -2.047786   -2.087501   -2.275878
     76          1           0       -3.439493   -3.100984   -1.937999
     77          1           0       -1.005571   -3.884399   -2.827740
     78          1           0       -2.201094   -4.937135   -2.202981
     79          1           0        0.458863    3.042434    0.367709
     80          1           0        0.104971    4.530806    1.313242
     81          1           0        0.241871    4.629084   -0.431929
     82          1           0       -0.497805    6.955486   -0.209319
     83          1           0       -0.621826    6.598440    1.407585
     84          1           0       -1.379398    8.136647    0.997185
     85          1           0       -7.771267    5.599820   -0.526151
     86          1           0       -9.632462    3.728486    0.689132
     87          1           0       -8.643714    5.249795    2.227495
     88          1           0       -7.795088    6.651637    1.508516
     89          1           0       -6.919345    5.301975    2.275103
     90          1           0       -9.221208    3.161724   -2.242213
     91          1           0       -9.281159    4.826410   -1.923683
     92          1           0      -11.386198    3.036380   -2.261124
     93          1           0      -11.552714    4.795194   -1.895972
     94          1           0      -11.528835    3.554139   -0.609761
     95          1           0      -10.695285   -1.048423   -0.246723
     96          1           0      -10.252388   -2.439898    0.703746
     97          1           0      -10.087605   -2.493602   -1.055877
     98          1           0       -5.079750   -4.089512   -0.977937
     99          1           0       -3.842466   -6.073474    2.621561
    100          1           0       -2.441505   -6.071350    1.580798
    101          1           0       -3.786782   -7.261075    1.262938
    102          1           0        1.983922   -5.661778   -0.393158
    103          1           0        1.600225   -4.609617    0.889512
    104          1           0        2.605428   -2.688570   -0.686096
    105          1           0        3.970564   -6.155024    0.024713
    106          1           0        5.139183   -5.469756    0.928221
    107          1           0        5.477200   -5.755068   -0.844027
    108          1           0        5.262341   -2.334493    0.324032
    109          1           0        5.023366   -2.111338   -1.411996
    110          1           0        6.735998   -3.769772   -1.969779
    111          1           0        7.075381   -3.884739   -0.343706
    112          1           0        6.879614   -1.042028   -1.041367
    113          1           0        7.922549   -1.673730   -2.270522
    114          1           0        9.121794   -2.764293    0.018253
    115          1           0        8.838928   -1.795745    1.960363
    116          1           0        7.204776   -1.674135    1.287072
    117          1           0        8.179451   -0.253453    1.242971
    118          1           0        9.903209    0.162225   -0.108428
    119          1           0       10.038990   -0.531315   -1.673820
    120          1           0       12.006832   -1.172732   -1.245338
    121          1           0       11.370798   -2.492455   -0.411627
    122          1           0       12.423316   -1.785532    1.543245
    123          1           0       11.192706   -0.605588    1.666185
    124          1           0       13.536709   -0.100029   -0.083548
    125          1           0       14.803110    0.698137    2.225633
    126          1           0       14.987629   -0.970697    1.704976
    127          1           0       13.863984   -0.504117    2.993514
    128          1           0       13.099695    2.171892    1.593618
    129          1           0       11.490443    1.589393    1.189739
    130          1           0       12.005478    3.008947   -0.504916
    131          1           0       12.407754    1.464148   -1.337944
    132          1           0       14.519933    2.160431   -1.523309
    133          1           0       14.833034    2.309096    0.120180
    134          1           0       13.349463    4.634832   -1.191605
    135          1           0       16.022821    3.722245   -2.065555
    136          1           0       16.042482    5.378229   -1.278143
    137          1           0       15.050342    5.066090   -2.679238
    138          1           0       14.053705    5.838986    0.501478
    139          1           0       15.232256    4.670160    1.169552
    140          1           0       13.550503    4.222497    1.186835
 ---------------------------------------------------------------------
 Rotational constants (GHZ):           0.0395292           0.0097121           0.0079779
 Leave Link  202 at Thu May  5 00:54:24 2022, MaxMem= 10066329600 cpu:               0.2 elap:               0.0
 (Enter /sw/apps/gaussian-16.0/g16/l301.exe)
 Standard basis: def2SVP (5D, 7F)
 Ernie: Thresh=  0.10000D-02 Tol=  0.10000D-05 Strict=F.
 There are  1364 symmetry adapted cartesian basis functions of A   symmetry.
 There are  1298 symmetry adapted basis functions of A   symmetry.
  1298 basis functions,  2180 primitive gaussians,  1364 cartesian basis functions
   246 alpha electrons      246 beta electrons
       nuclear repulsion energy      9444.4928689625 Hartrees.
 IExCor=  402 DFT=T Ex=B Corr=LYP ExCW=0 ScaHFX=  0.000000
 ScaDFX=  1.000000  1.000000  1.000000  1.000000 ScalE2=  1.000000  1.000000
 IRadAn=      5 IRanWt=     -1 IRanGd=            0 ICorTp=0 IEmpDi=  4
 NAtoms=  140 NActive=  140 NUniq=  140 SFac= 1.00D+00 NAtFMM=   60 NAOKFM=T Big=T
 Integral buffers will be    131072 words long.
 Regular integral format.
 Two-electron integral symmetry is turned on.
 Leave Link  301 at Thu May  5 00:54:24 2022, MaxMem= 10066329600 cpu:               1.9 elap:               0.1
 (Enter /sw/apps/gaussian-16.0/g16/l302.exe)
 NPDir=0 NMtPBC=     1 NCelOv=     1 NCel=       1 NClECP=     1 NCelD=      1
         NCelK=      1 NCelE2=     1 NClLst=     1 CellRange=     0.0.
 One-electron integrals computed using PRISM.
 One-electron integral symmetry used in STVInt
   1 Symmetry operations used in ECPInt.
 ECPInt:  NShTT=  192510 NPrTT=  683786 LenC2=   91526 LenP2D=  202163.
 LDataN:  DoStor=T MaxTD1= 4 Len=   56
 NBasis=  1298 RedAO= T EigKep=  2.98D-04  NBF=  1298
 NBsUse=  1298 1.00D-06 EigRej= -1.00D+00 NBFU=  1298
 Precomputing XC quadrature grid using
 IXCGrd= 4 IRadAn=           5 IRanWt=          -1 IRanGd=           0 AccXCQ= 0.00D+00.
 Generated NRdTot=       0 NPtTot=           0 NUsed=           0 NTot=          32
 NSgBfM=  1078  1078  1078  1078  1078 MxSgAt=   140 MxSgA2=   140.
 Leave Link  302 at Thu May  5 00:54:29 2022, MaxMem= 10066329600 cpu:             120.6 elap:               5.0
 (Enter /sw/apps/gaussian-16.0/g16/l303.exe)
 DipDrv:  MaxL=1.
 Leave Link  303 at Thu May  5 00:54:30 2022, MaxMem= 10066329600 cpu:              10.3 elap:               0.5
 (Enter /sw/apps/gaussian-16.0/g16/l308.exe)
 Leave Link  308 at Thu May  5 00:54:30 2022, MaxMem= 10066329600 cpu:               9.6 elap:               0.5
 (Enter /sw/apps/gaussian-16.0/g16/l401.exe)
 ExpMin= 3.36D-02 ExpMax= 4.95D+03 ExpMxC= 7.45D+02 IAcc=3 IRadAn=         5 AccDes= 0.00D+00
 Harris functional with IExCor=  402 and IRadAn=       5 diagonalized for initial guess.
 HarFok:  IExCor=  402 AccDes= 0.00D+00 IRadAn=         5 IDoV= 1 UseB2=F ITyADJ=14
 ICtDFT=  3500011 ScaDFX=  1.000000  1.000000  1.000000  1.000000
 FoFCou: FMM=F IPFlag=           0 FMFlag=      100000 FMFlg1=        2001
         NFxFlg=           0 DoJE=T BraDBF=F KetDBF=T FulRan=T
         wScrn=  0.000000 ICntrl=       500 IOpCl=  0 I1Cent=   200000004 NGrid=           0
         NMat0=    1 NMatS0=      1 NMatT0=    0 NMatD0=    1 NMtDS0=    0 NMtDT0=    0
 Petite list used in FoFCou.
 Harris En= -3008.75755718853    
 JPrj=0 DoOrth=F DoCkMO=F.
 Leave Link  401 at Thu May  5 00:54:38 2022, MaxMem= 10066329600 cpu:             180.8 elap:               7.6
 (Enter /sw/apps/gaussian-16.0/g16/l502.exe)
 Integral symmetry usage will be decided dynamically.
 Closed shell SCF:
 Using DIIS extrapolation, IDIIS=  1040.
 NGot= 10066329600 LenX= 10062561258 LenY= 10060699398
 Requested convergence on RMS density matrix=1.00D-08 within 128 cycles.
 Requested convergence on MAX density matrix=1.00D-06.
 Requested convergence on             energy=1.00D-06.
 No special actions if energy rises.
 Fock matrices will be formed incrementally for  20 cycles.

 Cycle   1  Pass 1  IDiag  1:
 FoFJK:  IHMeth= 1 ICntrl=     500 DoSepK=F KAlg= 0 I1Cent=           0 FoldK=F
 IRaf= 500000000 NMat=       1 IRICut=       1 DoRegI=T DoRafI=F ISym2E= 0 IDoP0=0 IntGTp=1.
 FoFCou: FMM=T IPFlag=           0 FMFlag=      100000 FMFlg1=        2001
         NFxFlg=           0 DoJE=T BraDBF=F KetDBF=F FulRan=T
         wScrn=  0.000000 ICntrl=       500 IOpCl=  0 I1Cent=           0 NGrid=           0
         NMat0=    1 NMatS0=      1 NMatT0=    0 NMatD0=    1 NMtDS0=    0 NMtDT0=    0
 Symmetry not used in FoFCou.
 FMM levels:  10  Number of levels for PrismC:   9
 E= -3005.71874248916    
 DIIS: error= 1.75D-02 at cycle   1 NSaved=   1.
 NSaved= 1 IEnMin= 1 EnMin= -3005.71874248916     IErMin= 1 ErrMin= 1.75D-02
 ErrMax= 1.75D-02  0.00D+00 EMaxC= 1.00D-01 BMatC= 1.52D+00 BMatP= 1.52D+00
 IDIUse=3 WtCom= 8.25D-01 WtEn= 1.75D-01
 Coeff-Com:  0.100D+01
 Coeff-En:   0.100D+01
 Coeff:      0.100D+01
 Gap=     0.061 Goal=   None    Shift=    0.000
 GapD=    0.061 DampG=0.500 DampE=0.500 DampFc=0.2500 IDamp=-1.
 Damping current iteration by 2.50D-01
 RMSDP=3.70D-03 MaxDP=4.33D-01              OVMax= 9.40D-01

 Cycle   2  Pass 1  IDiag  1:
 RMSU=  9.21D-04    CP:  9.89D-01
 E= -3006.19077139439     Delta-E=       -0.472028905227 Rises=F Damp=T
 DIIS: error= 6.67D-03 at cycle   2 NSaved=   2.
 NSaved= 2 IEnMin= 2 EnMin= -3006.19077139439     IErMin= 2 ErrMin= 6.67D-03
 ErrMax= 6.67D-03  0.00D+00 EMaxC= 1.00D-01 BMatC= 2.61D-01 BMatP= 1.52D+00
 IDIUse=3 WtCom= 9.33D-01 WtEn= 6.67D-02
 Coeff-Com: -0.274D+00 0.127D+01
 Coeff-En:   0.107D+00 0.893D+00
 Coeff:     -0.248D+00 0.125D+01
 Gap=    -0.237 Goal=   None    Shift=    0.000
 RMSDP=1.62D-03 MaxDP=2.56D-01 DE=-4.72D-01 OVMax= 5.11D-01

 Cycle   3  Pass 1  IDiag  1:
 RMSU=  1.59D-03    CP:  9.66D-01  1.25D+00
 E= -3005.24655883767     Delta-E=        0.944212556717 Rises=F Damp=F
 DIIS: error= 5.33D-02 at cycle   3 NSaved=   3.
 NSaved= 3 IEnMin= 2 EnMin= -3006.19077139439     IErMin= 2 ErrMin= 6.67D-03
 ErrMax= 5.33D-02  0.00D+00 EMaxC= 1.00D-01 BMatC= 1.64D+00 BMatP= 2.61D-01
 IDIUse=2 WtCom= 0.00D+00 WtEn= 1.00D+00
 Coeff-En:   0.000D+00 0.676D+00 0.324D+00
 Coeff:      0.000D+00 0.676D+00 0.324D+00
 Gap=     0.055 Goal=   None    Shift=    0.000
 RMSDP=2.18D-03 MaxDP=3.93D-01 DE= 9.44D-01 OVMax= 8.12D-01

 Cycle   4  Pass 1  IDiag  1:
 RMSU=  1.10D-03    CP:  9.68D-01  1.97D+00 -1.14D-01
 E= -3004.20758147437     Delta-E=        1.038977363307 Rises=F Damp=F
 DIIS: error= 6.33D-02 at cycle   4 NSaved=   4.
 NSaved= 4 IEnMin= 2 EnMin= -3006.19077139439     IErMin= 2 ErrMin= 6.67D-03
 ErrMax= 6.33D-02  0.00D+00 EMaxC= 1.00D-01 BMatC= 2.07D+00 BMatP= 2.61D-01
 IDIUse=2 WtCom= 0.00D+00 WtEn= 1.00D+00
 EnCoef did     1 forward-backward iterations
 Coeff-En:   0.112D+00 0.000D+00 0.493D+00 0.395D+00
 Coeff:      0.112D+00 0.000D+00 0.493D+00 0.395D+00
 Gap=     0.116 Goal=   None    Shift=    0.000
 RMSDP=1.53D-03 MaxDP=2.67D-01 DE= 1.04D+00 OVMax= 8.14D-01

 Cycle   5  Pass 1  IDiag  1:
 RMSU=  7.36D-04    CP:  9.81D-01  1.16D+00  1.17D-01  4.15D-02
 E= -3007.09319515504     Delta-E=       -2.885613680675 Rises=F Damp=F
 DIIS: error= 1.30D-02 at cycle   5 NSaved=   5.
 NSaved= 5 IEnMin= 5 EnMin= -3007.09319515504     IErMin= 2 ErrMin= 6.67D-03
 ErrMax= 1.30D-02  0.00D+00 EMaxC= 1.00D-01 BMatC= 3.08D-01 BMatP= 2.61D-01
 IDIUse=2 WtCom= 0.00D+00 WtEn= 1.00D+00
 EnCoef did     5 forward-backward iterations
 Coeff-En:   0.000D+00 0.000D+00 0.144D+00 0.118D+00 0.738D+00
 Coeff:      0.000D+00 0.000D+00 0.144D+00 0.118D+00 0.738D+00
 Gap=     0.162 Goal=   None    Shift=    0.000
 RMSDP=1.54D-03 MaxDP=2.10D-01 DE=-2.89D+00 OVMax= 4.89D-01

 Cycle   6  Pass 1  IDiag  1:
 RMSU=  1.38D-03    CP:  9.76D-01  1.04D+00  3.01D-01  1.76D-01  1.71D-01
 E= -3006.15864903525     Delta-E=        0.934546119792 Rises=F Damp=F
 DIIS: error= 3.10D-02 at cycle   6 NSaved=   6.
 NSaved= 6 IEnMin= 5 EnMin= -3007.09319515504     IErMin= 2 ErrMin= 6.67D-03
 ErrMax= 3.10D-02  0.00D+00 EMaxC= 1.00D-01 BMatC= 1.22D+00 BMatP= 2.61D-01
 IDIUse=2 WtCom= 0.00D+00 WtEn= 1.00D+00
 Coeff-En:   0.000D+00 0.000D+00 0.000D+00 0.000D+00 0.733D+00 0.267D+00
 Coeff:      0.000D+00 0.000D+00 0.000D+00 0.000D+00 0.733D+00 0.267D+00
 Gap=     0.072 Goal=   None    Shift=    0.000
 RMSDP=1.03D-03 MaxDP=1.13D-01 DE= 9.35D-01 OVMax= 4.66D-01

 Cycle   7  Pass 1  IDiag  1:
 RMSU=  4.51D-04    CP:  9.77D-01  1.20D+00  2.70D-01  4.18D-03  7.06D-01
                    CP:  4.19D-01
 E= -3007.25709634977     Delta-E=       -1.098447314520 Rises=F Damp=F
 DIIS: error= 8.66D-03 at cycle   7 NSaved=   7.
 NSaved= 7 IEnMin= 7 EnMin= -3007.25709634977     IErMin= 2 ErrMin= 6.67D-03
 ErrMax= 8.66D-03  0.00D+00 EMaxC= 1.00D-01 BMatC= 1.32D-01 BMatP= 2.61D-01
 IDIUse=3 WtCom= 9.13D-01 WtEn= 8.66D-02
 Coeff-Com: -0.393D-01 0.854D-01 0.518D-02 0.346D-02 0.443D+00 0.132D+00
 Coeff-Com:  0.371D+00
 Coeff-En:   0.000D+00 0.000D+00 0.000D+00 0.000D+00 0.336D+00 0.000D+00
 Coeff-En:   0.664D+00
 Coeff:     -0.359D-01 0.780D-01 0.473D-02 0.316D-02 0.434D+00 0.120D+00
 Coeff:      0.396D+00
 Gap=     0.044 Goal=   None    Shift=    0.000
 RMSDP=5.00D-04 MaxDP=4.97D-02 DE=-1.10D+00 OVMax= 2.43D-01

 Cycle   8  Pass 1  IDiag  1:
 RMSU=  3.12D-04    CP:  9.79D-01  1.13D+00  2.04D-01  6.83D-02  7.40D-01
                    CP:  4.01D-01  1.96D-01
 E= -3007.33040153064     Delta-E=       -0.073305180869 Rises=F Damp=F
 DIIS: error= 5.80D-03 at cycle   8 NSaved=   8.
 NSaved= 8 IEnMin= 8 EnMin= -3007.33040153064     IErMin= 8 ErrMin= 5.80D-03
 ErrMax= 5.80D-03  0.00D+00 EMaxC= 1.00D-01 BMatC= 3.72D-02 BMatP= 1.32D-01
 IDIUse=3 WtCom= 9.42D-01 WtEn= 5.80D-02
 EnCoef did     4 forward-backward iterations
 Coeff-Com: -0.269D-01 0.819D-01-0.116D-01-0.233D-02 0.255D+00 0.363D-01
 Coeff-Com:  0.370D+00 0.298D+00
 Coeff-En:   0.000D+00 0.000D+00 0.000D+00 0.000D+00 0.116D+00 0.000D+00
 Coeff-En:   0.305D+00 0.578D+00
 Coeff:     -0.253D-01 0.771D-01-0.109D-01-0.220D-02 0.247D+00 0.342D-01
 Coeff:      0.366D+00 0.314D+00
 Gap=     0.041 Goal=   None    Shift=    0.000
 RMSDP=3.43D-04 MaxDP=3.95D-02 DE=-7.33D-02 OVMax= 2.09D-01

 Cycle   9  Pass 1  IDiag  1:
 RMSU=  1.35D-04    CP:  9.80D-01  1.15D+00  1.96D-01  1.56D-02  8.69D-01
                    CP:  3.53D-01  5.43D-01  2.30D-01
 E= -3007.37645739055     Delta-E=       -0.046055859908 Rises=F Damp=F
 DIIS: error= 3.12D-03 at cycle   9 NSaved=   9.
 NSaved= 9 IEnMin= 9 EnMin= -3007.37645739055     IErMin= 9 ErrMin= 3.12D-03
 ErrMax= 3.12D-03  0.00D+00 EMaxC= 1.00D-01 BMatC= 6.27D-03 BMatP= 3.72D-02
 IDIUse=3 WtCom= 9.69D-01 WtEn= 3.12D-02
 Coeff-Com: -0.566D-02 0.310D-01-0.115D-01 0.409D-02 0.104D+00-0.465D-02
 Coeff-Com:  0.223D+00 0.282D+00 0.378D+00
 Coeff-En:   0.000D+00 0.000D+00 0.000D+00 0.000D+00 0.000D+00 0.000D+00
 Coeff-En:   0.000D+00 0.210D+00 0.790D+00
 Coeff:     -0.549D-02 0.300D-01-0.112D-01 0.397D-02 0.100D+00-0.450D-02
 Coeff:      0.216D+00 0.280D+00 0.390D+00
 Gap=     0.044 Goal=   None    Shift=    0.000
 RMSDP=1.61D-04 MaxDP=1.98D-02 DE=-4.61D-02 OVMax= 1.31D-01

 Cycle  10  Pass 1  IDiag  1:
 RMSU=  8.40D-05    CP:  9.79D-01  1.15D+00  1.87D-01  4.26D-02  8.29D-01
                    CP:  3.52D-01  5.03D-01  4.61D-01  2.13D-01
 E= -3007.38203809388     Delta-E=       -0.005580703330 Rises=F Damp=F
 DIIS: error= 1.57D-03 at cycle  10 NSaved=  10.
 NSaved=10 IEnMin=10 EnMin= -3007.38203809388     IErMin=10 ErrMin= 1.57D-03
 ErrMax= 1.57D-03  0.00D+00 EMaxC= 1.00D-01 BMatC= 2.31D-03 BMatP= 6.27D-03
 IDIUse=3 WtCom= 9.84D-01 WtEn= 1.57D-02
 EnCoef did     1 forward-backward iterations
 Coeff-Com: -0.511D-02 0.227D-01-0.640D-02 0.253D-02 0.396D-01-0.788D-02
 Coeff-Com:  0.114D+00 0.190D+00 0.360D+00 0.290D+00
 Coeff-En:   0.000D+00 0.000D+00 0.000D+00 0.000D+00 0.000D+00 0.000D+00
 Coeff-En:   0.000D+00 0.143D-03 0.332D+00 0.668D+00
 Coeff:     -0.503D-02 0.223D-01-0.630D-02 0.249D-02 0.390D-01-0.775D-02
 Coeff:      0.113D+00 0.187D+00 0.360D+00 0.296D+00
 Gap=     0.044 Goal=   None    Shift=    0.000
 RMSDP=8.69D-05 MaxDP=1.03D-02 DE=-5.58D-03 OVMax= 7.28D-02

 Cycle  11  Pass 1  IDiag  1:
 RMSU=  3.05D-05    CP:  9.79D-01  1.15D+00  1.91D-01  3.30D-02  8.31D-01
                    CP:  3.53D-01  5.00D-01  4.19D-01  5.11D-01  1.86D-01
 E= -3007.38500606892     Delta-E=       -0.002967975041 Rises=F Damp=F
 DIIS: error= 6.00D-04 at cycle  11 NSaved=  11.
 NSaved=11 IEnMin=11 EnMin= -3007.38500606892     IErMin=11 ErrMin= 6.00D-04
 ErrMax= 6.00D-04  0.00D+00 EMaxC= 1.00D-01 BMatC= 4.59D-04 BMatP= 2.31D-03
 IDIUse=3 WtCom= 9.94D-01 WtEn= 6.00D-03
 Coeff-Com: -0.580D-02 0.149D-01-0.187D-02 0.498D-03-0.157D-02-0.226D-02
 Coeff-Com:  0.171D-01 0.665D-01 0.205D+00 0.292D+00 0.416D+00
 Coeff-En:   0.000D+00 0.000D+00 0.000D+00 0.000D+00 0.000D+00 0.000D+00
 Coeff-En:   0.000D+00 0.000D+00 0.000D+00 0.213D+00 0.787D+00
 Coeff:     -0.577D-02 0.148D-01-0.186D-02 0.495D-03-0.156D-02-0.224D-02
 Coeff:      0.170D-01 0.661D-01 0.203D+00 0.292D+00 0.418D+00
 Gap=     0.044 Goal=   None    Shift=    0.000
 RMSDP=3.33D-05 MaxDP=3.28D-03 DE=-2.97D-03 OVMax= 2.32D-02

 Cycle  12  Pass 1  IDiag  1:
 RMSU=  1.48D-05    CP:  9.79D-01  1.15D+00  1.90D-01  3.31D-02  8.36D-01
                    CP:  3.56D-01  5.01D-01  4.31D-01  4.80D-01  4.42D-01
                    CP:  3.76D-01
 E= -3007.38547850861     Delta-E=       -0.000472439689 Rises=F Damp=F
 DIIS: error= 2.71D-04 at cycle  12 NSaved=  12.
 NSaved=12 IEnMin=12 EnMin= -3007.38547850861     IErMin=12 ErrMin= 2.71D-04
 ErrMax= 2.71D-04  0.00D+00 EMaxC= 1.00D-01 BMatC= 1.10D-04 BMatP= 4.59D-04
 IDIUse=3 WtCom= 9.97D-01 WtEn= 2.71D-03
 Coeff-Com: -0.519D-02 0.102D-01-0.245D-03-0.213D-03-0.972D-02 0.120D-02
 Coeff-Com: -0.120D-01 0.170D-01 0.107D+00 0.195D+00 0.356D+00 0.341D+00
 Coeff-En:   0.000D+00 0.000D+00 0.000D+00 0.000D+00 0.000D+00 0.000D+00
 Coeff-En:   0.000D+00 0.000D+00 0.000D+00 0.000D+00 0.198D+00 0.802D+00
 Coeff:     -0.518D-02 0.102D-01-0.244D-03-0.212D-03-0.969D-02 0.120D-02
 Coeff:     -0.120D-01 0.169D-01 0.106D+00 0.195D+00 0.356D+00 0.342D+00
 Gap=     0.044 Goal=   None    Shift=    0.000
 RMSDP=1.34D-05 MaxDP=1.71D-03 DE=-4.72D-04 OVMax= 8.27D-03

 Cycle  13  Pass 1  IDiag  1:
 RMSU=  5.68D-06    CP:  9.79D-01  1.15D+00  1.90D-01  3.34D-02  8.34D-01
                    CP:  3.58D-01  4.99D-01  4.34D-01  4.88D-01  4.11D-01
                    CP:  5.26D-01  3.07D-01
 E= -3007.38559799424     Delta-E=       -0.000119485634 Rises=F Damp=F
 DIIS: error= 1.12D-04 at cycle  13 NSaved=  13.
 NSaved=13 IEnMin=13 EnMin= -3007.38559799424     IErMin=13 ErrMin= 1.12D-04
 ErrMax= 1.12D-04  0.00D+00 EMaxC= 1.00D-01 BMatC= 1.53D-05 BMatP= 1.10D-04
 IDIUse=3 WtCom= 9.99D-01 WtEn= 1.12D-03
 Coeff-Com: -0.369D-02 0.662D-02-0.540D-04-0.184D-03-0.820D-02 0.168D-02
 Coeff-Com: -0.140D-01 0.620D-03 0.509D-01 0.104D+00 0.209D+00 0.271D+00
 Coeff-Com:  0.382D+00
 Coeff-En:   0.000D+00 0.000D+00 0.000D+00 0.000D+00 0.000D+00 0.000D+00
 Coeff-En:   0.000D+00 0.000D+00 0.000D+00 0.000D+00 0.000D+00 0.925D-01
 Coeff-En:   0.908D+00
 Coeff:     -0.369D-02 0.662D-02-0.539D-04-0.184D-03-0.819D-02 0.168D-02
 Coeff:     -0.140D-01 0.619D-03 0.508D-01 0.104D+00 0.209D+00 0.271D+00
 Coeff:      0.383D+00
 Gap=     0.044 Goal=   None    Shift=    0.000
 RMSDP=4.11D-06 MaxDP=4.43D-04 DE=-1.19D-04 OVMax= 1.88D-03

 Cycle  14  Pass 1  IDiag  1:
 RMSU=  1.93D-06    CP:  9.79D-01  1.15D+00  1.90D-01  3.36D-02  8.35D-01
                    CP:  3.58D-01  5.00D-01  4.33D-01  4.94D-01  4.24D-01
                    CP:  5.32D-01  4.26D-01  5.20D-01
 E= -3007.38561244901     Delta-E=       -0.000014454770 Rises=F Damp=F
 DIIS: error= 7.83D-05 at cycle  14 NSaved=  14.
 NSaved=14 IEnMin=14 EnMin= -3007.38561244901     IErMin=14 ErrMin= 7.83D-05
 ErrMax= 7.83D-05  0.00D+00 EMaxC= 1.00D-01 BMatC= 3.58D-06 BMatP= 1.53D-05
 IDIUse=1 WtCom= 1.00D+00 WtEn= 0.00D+00
 Coeff-Com: -0.211D-02 0.359D-02-0.952D-04-0.872D-04-0.519D-02 0.127D-02
 Coeff-Com: -0.101D-01-0.516D-02 0.139D-01 0.330D-01 0.790D-01 0.136D+00
 Coeff-Com:  0.277D+00 0.478D+00
 Coeff:     -0.211D-02 0.359D-02-0.952D-04-0.872D-04-0.519D-02 0.127D-02
 Coeff:     -0.101D-01-0.516D-02 0.139D-01 0.330D-01 0.790D-01 0.136D+00
 Coeff:      0.277D+00 0.478D+00
 Gap=     0.044 Goal=   None    Shift=    0.000
 RMSDP=2.06D-06 MaxDP=4.25D-04 DE=-1.45D-05 OVMax= 5.61D-04

 Cycle  15  Pass 1  IDiag  1:
 RMSU=  1.18D-06    CP:  9.79D-01  1.15D+00  1.90D-01  3.35D-02  8.35D-01
                    CP:  3.59D-01  5.00D-01  4.34D-01  4.99D-01  4.29D-01
                    CP:  5.32D-01  4.21D-01  5.76D-01  5.62D-01
 E= -3007.38561533342     Delta-E=       -0.000002884408 Rises=F Damp=F
 DIIS: error= 4.16D-05 at cycle  15 NSaved=  15.
 NSaved=15 IEnMin=15 EnMin= -3007.38561533342     IErMin=15 ErrMin= 4.16D-05
 ErrMax= 4.16D-05  0.00D+00 EMaxC= 1.00D-01 BMatC= 9.90D-07 BMatP= 3.58D-06
 IDIUse=1 WtCom= 1.00D+00 WtEn= 0.00D+00
 Coeff-Com: -0.704D-03 0.104D-02-0.119D-03 0.359D-04-0.225D-02 0.567D-03
 Coeff-Com: -0.485D-02-0.498D-02-0.501D-02-0.728D-02-0.287D-02 0.222D-01
 Coeff-Com:  0.848D-01 0.331D+00 0.588D+00
 Coeff:     -0.704D-03 0.104D-02-0.119D-03 0.359D-04-0.225D-02 0.567D-03
 Coeff:     -0.485D-02-0.498D-02-0.501D-02-0.728D-02-0.287D-02 0.222D-01
 Coeff:      0.848D-01 0.331D+00 0.588D+00
 Gap=     0.044 Goal=   None    Shift=    0.000
 RMSDP=1.27D-06 MaxDP=2.21D-04 DE=-2.88D-06 OVMax= 3.48D-04

 Cycle  16  Pass 1  IDiag  1:
 RMSU=  6.87D-07    CP:  9.79D-01  1.15D+00  1.89D-01  3.37D-02  8.36D-01
                    CP:  3.59D-01  5.00D-01  4.35D-01  5.02D-01  4.33D-01
                    CP:  5.39D-01  4.39D-01  5.82D-01  7.24D-01  7.36D-01
 E= -3007.38561621378     Delta-E=       -0.000000880364 Rises=F Damp=F
 DIIS: error= 1.96D-05 at cycle  16 NSaved=  16.
 NSaved=16 IEnMin=16 EnMin= -3007.38561621378     IErMin=16 ErrMin= 1.96D-05
 ErrMax= 1.96D-05  0.00D+00 EMaxC= 1.00D-01 BMatC= 2.86D-07 BMatP= 9.90D-07
 IDIUse=1 WtCom= 1.00D+00 WtEn= 0.00D+00
 Coeff-Com: -0.960D-04 0.656D-04-0.599D-04 0.282D-04-0.490D-03 0.135D-03
 Coeff-Com: -0.128D-02-0.220D-02-0.697D-02-0.142D-01-0.235D-01-0.231D-01
 Coeff-Com: -0.251D-01 0.794D-01 0.478D+00 0.540D+00
 Coeff:     -0.960D-04 0.656D-04-0.599D-04 0.282D-04-0.490D-03 0.135D-03
 Coeff:     -0.128D-02-0.220D-02-0.697D-02-0.142D-01-0.235D-01-0.231D-01
 Coeff:     -0.251D-01 0.794D-01 0.478D+00 0.540D+00
 Gap=     0.044 Goal=   None    Shift=    0.000
 RMSDP=7.63D-07 MaxDP=1.88D-04 DE=-8.80D-07 OVMax= 2.75D-04

 Cycle  17  Pass 1  IDiag  1:
 RMSU=  3.98D-07    CP:  9.79D-01  1.15D+00  1.89D-01  3.36D-02  8.36D-01
                    CP:  3.59D-01  5.00D-01  4.35D-01  5.03D-01  4.34D-01
                    CP:  5.42D-01  4.40D-01  6.06D-01  7.36D-01  9.33D-01
                    CP:  6.95D-01
 E= -3007.38561648593     Delta-E=       -0.000000272144 Rises=F Damp=F
 DIIS: error= 5.04D-06 at cycle  17 NSaved=  17.
 NSaved=17 IEnMin=17 EnMin= -3007.38561648593     IErMin=17 ErrMin= 5.04D-06
 ErrMax= 5.04D-06  0.00D+00 EMaxC= 1.00D-01 BMatC= 4.64D-08 BMatP= 2.86D-07
 IDIUse=1 WtCom= 1.00D+00 WtEn= 0.00D+00
 Coeff-Com: -0.376D-05-0.189D-04-0.165D-04 0.512D-05-0.894D-05 0.168D-04
 Coeff-Com: -0.164D-03-0.592D-03-0.355D-02-0.809D-02-0.152D-01-0.196D-01
 Coeff-Com: -0.340D-01-0.977D-02 0.237D+00 0.410D+00 0.445D+00
 Coeff:     -0.376D-05-0.189D-04-0.165D-04 0.512D-05-0.894D-05 0.168D-04
 Coeff:     -0.164D-03-0.592D-03-0.355D-02-0.809D-02-0.152D-01-0.196D-01
 Coeff:     -0.340D-01-0.977D-02 0.237D+00 0.410D+00 0.445D+00
 Gap=     0.044 Goal=   None    Shift=    0.000
 RMSDP=2.37D-07 MaxDP=2.13D-05 DE=-2.72D-07 OVMax= 4.48D-05

 Cycle  18  Pass 1  IDiag  1:
 RMSU=  1.16D-07    CP:  9.79D-01  1.15D+00  1.89D-01  3.36D-02  8.36D-01
                    CP:  3.59D-01  5.00D-01  4.35D-01  5.04D-01  4.34D-01
                    CP:  5.41D-01  4.41D-01  6.04D-01  7.43D-01  9.56D-01
                    CP:  7.68D-01  5.84D-01
 E= -3007.38561652549     Delta-E=       -0.000000039559 Rises=F Damp=F
 DIIS: error= 2.10D-06 at cycle  18 NSaved=  18.
 NSaved=18 IEnMin=18 EnMin= -3007.38561652549     IErMin=18 ErrMin= 2.10D-06
 ErrMax= 2.10D-06  0.00D+00 EMaxC= 1.00D-01 BMatC= 5.38D-09 BMatP= 4.64D-08
 IDIUse=1 WtCom= 1.00D+00 WtEn= 0.00D+00
 Coeff-Com: -0.195D-04 0.308D-04-0.301D-05-0.156D-05 0.196D-05 0.687D-05
 Coeff-Com: -0.532D-04-0.153D-03-0.137D-02-0.346D-02-0.690D-02-0.969D-02
 Coeff-Com: -0.194D-01-0.144D-01 0.111D+00 0.225D+00 0.314D+00 0.406D+00
 Coeff:     -0.195D-04 0.308D-04-0.301D-05-0.156D-05 0.196D-05 0.687D-05
 Coeff:     -0.532D-04-0.153D-03-0.137D-02-0.346D-02-0.690D-02-0.969D-02
 Coeff:     -0.194D-01-0.144D-01 0.111D+00 0.225D+00 0.314D+00 0.406D+00
 Gap=     0.044 Goal=   None    Shift=    0.000
 RMSDP=7.68D-08 MaxDP=8.47D-06 DE=-3.96D-08 OVMax= 2.23D-05

 Cycle  19  Pass 1  IDiag  1:
 RMSU=  4.29D-08    CP:  9.79D-01  1.15D+00  1.89D-01  3.36D-02  8.36D-01
                    CP:  3.59D-01  5.00D-01  4.35D-01  5.04D-01  4.34D-01
                    CP:  5.41D-01  4.40D-01  6.03D-01  7.44D-01  9.59D-01
                    CP:  7.68D-01  5.90D-01  4.98D-01
 E= -3007.38561652955     Delta-E=       -0.000000004065 Rises=F Damp=F
 DIIS: error= 7.42D-07 at cycle  19 NSaved=  19.
 NSaved=19 IEnMin=19 EnMin= -3007.38561652955     IErMin=19 ErrMin= 7.42D-07
 ErrMax= 7.42D-07  0.00D+00 EMaxC= 1.00D-01 BMatC= 8.30D-10 BMatP= 5.38D-09
 IDIUse=1 WtCom= 1.00D+00 WtEn= 0.00D+00
 Coeff-Com: -0.140D-04 0.265D-04-0.349D-06-0.158D-05 0.346D-05 0.187D-05
 Coeff-Com: -0.138D-04-0.410D-04-0.553D-03-0.150D-02-0.315D-02-0.456D-02
 Coeff-Com: -0.998D-02-0.973D-02 0.498D-01 0.110D+00 0.171D+00 0.300D+00
 Coeff-Com:  0.398D+00
 Coeff:     -0.140D-04 0.265D-04-0.349D-06-0.158D-05 0.346D-05 0.187D-05
 Coeff:     -0.138D-04-0.410D-04-0.553D-03-0.150D-02-0.315D-02-0.456D-02
 Coeff:     -0.998D-02-0.973D-02 0.498D-01 0.110D+00 0.171D+00 0.300D+00
 Coeff:      0.398D+00
 Gap=     0.044 Goal=   None    Shift=    0.000
 RMSDP=2.94D-08 MaxDP=3.56D-06 DE=-4.07D-09 OVMax= 7.32D-06

 Cycle  20  Pass 1  IDiag  1:
 RMSU=  1.77D-08    CP:  9.79D-01  1.15D+00  1.89D-01  3.36D-02  8.36D-01
                    CP:  3.59D-01  5.00D-01  4.35D-01  5.04D-01  4.34D-01
                    CP:  5.41D-01  4.40D-01  6.03D-01  7.43D-01  9.63D-01
                    CP:  7.66D-01  5.96D-01  5.36D-01  5.37D-01
 E= -3007.38561653016     Delta-E=       -0.000000000604 Rises=F Damp=F
 DIIS: error= 3.00D-07 at cycle  20 NSaved=  20.
 NSaved=20 IEnMin=20 EnMin= -3007.38561653016     IErMin=20 ErrMin= 3.00D-07
 ErrMax= 3.00D-07  0.00D+00 EMaxC= 1.00D-01 BMatC= 1.26D-10 BMatP= 8.30D-10
 IDIUse=1 WtCom= 1.00D+00 WtEn= 0.00D+00
 Coeff-Com: -0.476D-05 0.907D-05-0.190D-06-0.462D-06 0.160D-05-0.187D-06
 Coeff-Com:  0.116D-07-0.614D-05-0.152D-03-0.450D-03-0.101D-02-0.153D-02
 Coeff-Com: -0.387D-02-0.522D-02 0.146D-01 0.382D-01 0.655D-01 0.146D+00
 Coeff-Com:  0.287D+00 0.461D+00
 Coeff:     -0.476D-05 0.907D-05-0.190D-06-0.462D-06 0.160D-05-0.187D-06
 Coeff:      0.116D-07-0.614D-05-0.152D-03-0.450D-03-0.101D-02-0.153D-02
 Coeff:     -0.387D-02-0.522D-02 0.146D-01 0.382D-01 0.655D-01 0.146D+00
 Coeff:      0.287D+00 0.461D+00
 Gap=     0.044 Goal=   None    Shift=    0.000
 RMSDP=1.28D-08 MaxDP=1.41D-06 DE=-6.04D-10 OVMax= 3.26D-06

 Cycle  21  Pass 1  IDiag  1:
 Restarting incremental Fock formation.
 E= -3007.38561653033     Delta-E=       -0.000000000171 Rises=F Damp=F
 DIIS: error= 1.04D-07 at cycle  21 NSaved=  20.
 NSaved=20 IEnMin=20 EnMin= -3007.38561653033     IErMin=20 ErrMin= 1.04D-07
 ErrMax= 1.04D-07  0.00D+00 EMaxC= 1.00D-01 BMatC= 1.66D-11 BMatP= 1.26D-10
 IDIUse=1 WtCom= 1.00D+00 WtEn= 0.00D+00
 Coeff-Com: -0.109D-05 0.190D-05-0.108D-06 0.120D-05-0.423D-06 0.233D-05
 Coeff-Com: -0.492D-06-0.466D-04-0.147D-03-0.357D-03-0.571D-03-0.164D-02
 Coeff-Com: -0.281D-02 0.419D-02 0.139D-01 0.264D-01 0.692D-01 0.156D+00
 Coeff-Com:  0.325D+00 0.411D+00
 Coeff:     -0.109D-05 0.190D-05-0.108D-06 0.120D-05-0.423D-06 0.233D-05
 Coeff:     -0.492D-06-0.466D-04-0.147D-03-0.357D-03-0.571D-03-0.164D-02
 Coeff:     -0.281D-02 0.419D-02 0.139D-01 0.264D-01 0.692D-01 0.156D+00
 Coeff:      0.325D+00 0.411D+00
 Gap=     0.044 Goal=   None    Shift=    0.000
 RMSDP=5.13D-09 MaxDP=5.26D-07 DE=-1.71D-10 OVMax= 1.46D-06

 SCF Done:  E(RB-LYP) =  -3007.38561653     A.U. after   21 cycles
            NFock= 21  Conv=0.51D-08     -V/T= 2.0101
 KE= 2.977245542803D+03 PE=-2.588382686431D+04 EE= 1.045470283601D+04
 Leave Link  502 at Thu May  5 00:59:47 2022, MaxMem= 10066329600 cpu:            7399.2 elap:             309.4
 (Enter /sw/apps/gaussian-16.0/g16/l801.exe)
 DoSCS=F DFT=T ScalE2(SS,OS)=  1.000000  1.000000
 ExpMin= 3.36D-02 ExpMax= 4.95D+03 ExpMxC= 7.45D+02 IAcc=3 IRadAn=         5 AccDes= 0.00D+00
 HarFok:  IExCor=  205 AccDes= 0.00D+00 IRadAn=         5 IDoV=-2 UseB2=F ITyADJ=14
 ICtDFT= 12500011 ScaDFX=  1.000000  1.000000  1.000000  1.000000
 GSVD:  LWork=       -5460 too small for GESVD, short by       25550 words or       25550 for optimal perf.
 Largest valence mixing into a core orbital is  1.40D-04
 Largest core mixing into a valence orbital is  4.72D-05
 Range of M.O.s used for correlation:    71  1298
 NBasis=  1298 NAE=   246 NBE=   246 NFC=    70 NFV=     0
 NROrb=   1228 NOA=   176 NOB=   176 NVA=  1052 NVB=  1052

 **** Warning!!: The smallest alpha delta epsilon is  0.44337582D-01

 Leave Link  801 at Thu May  5 00:59:48 2022, MaxMem= 10066329600 cpu:               9.5 elap:               0.4
 (Enter /sw/apps/gaussian-16.0/g16/l914.exe)
 RHF ground state
 Two-electron integrals replicated using symmetry.
 MDV= 10066329600 DFT=T DoStab=F Mixed=F DoRPA=T DoScal=T NonHer=F
 Making orbital integer symmetry assigments:
 Orbital symmetries:
       Occupied  (A) (A) (A) (A) (A) (A) (A) (A) (A) (A) (A) (A)
                 (A) (A) (A) (A) (A) (A) (A) (A) (A) (A) (A) (A)
                 (A) (A) (A) (A) (A) (A) (A) (A) (A) (A) (A) (A)
                 (A) (A) (A) (A) (A) (A) (A) (A) (A) (A) (A) (A)
                 (A) (A) (A) (A) (A) (A) (A) (A) (A) (A) (A) (A)
                 (A) (A) (A) (A) (A) (A) (A) (A) (A) (A) (A) (A)
                 (A) (A) (A) (A) (A) (A) (A) (A) (A) (A) (A) (A)
                 (A) (A) (A) (A) (A) (A) (A) (A) (A) (A) (A) (A)
                 (A) (A) (A) (A) (A) (A) (A) (A) (A) (A) (A) (A)
                 (A) (A) (A) (A) (A) (A) (A) (A) (A) (A) (A) (A)
                 (A) (A) (A) (A) (A) (A) (A) (A) (A) (A) (A) (A)
                 (A) (A) (A) (A) (A) (A) (A) (A) (A) (A) (A) (A)
                 (A) (A) (A) (A) (A) (A) (A) (A) (A) (A) (A) (A)
                 (A) (A) (A) (A) (A) (A) (A) (A) (A) (A) (A) (A)
                 (A) (A) (A) (A) (A) (A) (A) (A) (A) (A) (A) (A)
                 (A) (A) (A) (A) (A) (A) (A) (A) (A) (A) (A) (A)
                 (A) (A) (A) (A) (A) (A) (A) (A) (A) (A) (A) (A)
                 (A) (A) (A) (A) (A) (A) (A) (A) (A) (A) (A) (A)
                 (A) (A) (A) (A) (A) (A) (A) (A) (A) (A) (A) (A)
                 (A) (A) (A) (A) (A) (A) (A) (A) (A) (A) (A) (A)
                 (A) (A) (A) (A) (A) (A)
       Virtual   (A) (A) (A) (A) (A) (A) (A) (A) (A) (A) (A) (A)
                 (A) (A) (A) (A) (A) (A) (A) (A) (A) (A) (A) (A)
                 (A) (A) (A) (A) (A) (A) (A) (A) (A) (A) (A) (A)
                 (A) (A) (A) (A) (A) (A) (A) (A) (A) (A) (A) (A)
                 (A) (A) (A) (A) (A) (A) (A) (A) (A) (A) (A) (A)
                 (A) (A) (A) (A) (A) (A) (A) (A) (A) (A) (A) (A)
                 (A) (A) (A) (A) (A) (A) (A) (A) (A) (A) (A) (A)
                 (A) (A) (A) (A) (A) (A) (A) (A) (A) (A) (A) (A)
                 (A) (A) (A) (A) (A) (A) (A) (A) (A) (A) (A) (A)
                 (A) (A) (A) (A) (A) (A) (A) (A) (A) (A) (A) (A)
                 (A) (A) (A) (A) (A) (A) (A) (A) (A) (A) (A) (A)
                 (A) (A) (A) (A) (A) (A) (A) (A) (A) (A) (A) (A)
                 (A) (A) (A) (A) (A) (A) (A) (A) (A) (A) (A) (A)
                 (A) (A) (A) (A) (A) (A) (A) (A) (A) (A) (A) (A)
                 (A) (A) (A) (A) (A) (A) (A) (A) (A) (A) (A) (A)
                 (A) (A) (A) (A) (A) (A) (A) (A) (A) (A) (A) (A)
                 (A) (A) (A) (A) (A) (A) (A) (A) (A) (A) (A) (A)
                 (A) (A) (A) (A) (A) (A) (A) (A) (A) (A) (A) (A)
                 (A) (A) (A) (A) (A) (A) (A) (A) (A) (A) (A) (A)
                 (A) (A) (A) (A) (A) (A) (A) (A) (A) (A) (A) (A)
                 (A) (A) (A) (A) (A) (A) (A) (A) (A) (A) (A) (A)
                 (A) (A) (A) (A) (A) (A) (A) (A) (A) (A) (A) (A)
                 (A) (A) (A) (A) (A) (A) (A) (A) (A) (A) (A) (A)
                 (A) (A) (A) (A) (A) (A) (A) (A) (A) (A) (A) (A)
                 (A) (A) (A) (A) (A) (A) (A) (A) (A) (A) (A) (A)
                 (A) (A) (A) (A) (A) (A) (A) (A) (A) (A) (A) (A)
                 (A) (A) (A) (A) (A) (A) (A) (A) (A) (A) (A) (A)
                 (A) (A) (A) (A) (A) (A) (A) (A) (A) (A) (A) (A)
                 (A) (A) (A) (A) (A) (A) (A) (A) (A) (A) (A) (A)
                 (A) (A) (A) (A) (A) (A) (A) (A) (A) (A) (A) (A)
                 (A) (A) (A) (A) (A) (A) (A) (A) (A) (A) (A) (A)
                 (A) (A) (A) (A) (A) (A) (A) (A) (A) (A) (A) (A)
                 (A) (A) (A) (A) (A) (A) (A) (A) (A) (A) (A) (A)
                 (A) (A) (A) (A) (A) (A) (A) (A) (A) (A) (A) (A)
                 (A) (A) (A) (A) (A) (A) (A) (A) (A) (A) (A) (A)
                 (A) (A) (A) (A) (A) (A) (A) (A) (A) (A) (A) (A)
                 (A) (A) (A) (A) (A) (A) (A) (A) (A) (A) (A) (A)
                 (A) (A) (A) (A) (A) (A) (A) (A) (A) (A) (A) (A)
                 (A) (A) (A) (A) (A) (A) (A) (A) (A) (A) (A) (A)
                 (A) (A) (A) (A) (A) (A) (A) (A) (A) (A) (A) (A)
                 (A) (A) (A) (A) (A) (A) (A) (A) (A) (A) (A) (A)
                 (A) (A) (A) (A) (A) (A) (A) (A) (A) (A) (A) (A)
                 (A) (A) (A) (A) (A) (A) (A) (A) (A) (A) (A) (A)
                 (A) (A) (A) (A) (A) (A) (A) (A) (A) (A) (A) (A)
                 (A) (A) (A) (A) (A) (A) (A) (A) (A) (A) (A) (A)
                 (A) (A) (A) (A) (A) (A) (A) (A) (A) (A) (A) (A)
                 (A) (A) (A) (A) (A) (A) (A) (A) (A) (A) (A) (A)
                 (A) (A) (A) (A) (A) (A) (A) (A) (A) (A) (A) (A)
                 (A) (A) (A) (A) (A) (A) (A) (A) (A) (A) (A) (A)
                 (A) (A) (A) (A) (A) (A) (A) (A) (A) (A) (A) (A)
                 (A) (A) (A) (A) (A) (A) (A) (A) (A) (A) (A) (A)
                 (A) (A) (A) (A) (A) (A) (A) (A) (A) (A) (A) (A)
                 (A) (A) (A) (A) (A) (A) (A) (A) (A) (A) (A) (A)
                 (A) (A) (A) (A) (A) (A) (A) (A) (A) (A) (A) (A)
                 (A) (A) (A) (A) (A) (A) (A) (A) (A) (A) (A) (A)
                 (A) (A) (A) (A) (A) (A) (A) (A) (A) (A) (A) (A)
                 (A) (A) (A) (A) (A) (A) (A) (A) (A) (A) (A) (A)
                 (A) (A) (A) (A) (A) (A) (A) (A) (A) (A) (A) (A)
                 (A) (A) (A) (A) (A) (A) (A) (A) (A) (A) (A) (A)
                 (A) (A) (A) (A) (A) (A) (A) (A) (A) (A) (A) (A)
                 (A) (A) (A) (A) (A) (A) (A) (A) (A) (A) (A) (A)
                 (A) (A) (A) (A) (A) (A) (A) (A) (A) (A) (A) (A)
                 (A) (A) (A) (A) (A) (A) (A) (A) (A) (A) (A) (A)
                 (A) (A) (A) (A) (A) (A) (A) (A) (A) (A) (A) (A)
                 (A) (A) (A) (A) (A) (A) (A) (A) (A) (A) (A) (A)
                 (A) (A) (A) (A) (A) (A) (A) (A) (A) (A) (A) (A)
                 (A) (A) (A) (A) (A) (A) (A) (A) (A) (A) (A) (A)
                 (A) (A) (A) (A) (A) (A) (A) (A) (A) (A) (A) (A)
                 (A) (A) (A) (A) (A) (A) (A) (A) (A) (A) (A) (A)
                 (A) (A) (A) (A) (A) (A) (A) (A) (A) (A) (A) (A)
                 (A) (A) (A) (A) (A) (A) (A) (A) (A) (A) (A) (A)
                 (A) (A) (A) (A) (A) (A) (A) (A) (A) (A) (A) (A)
                 (A) (A) (A) (A) (A) (A) (A) (A) (A) (A) (A) (A)
                 (A) (A) (A) (A) (A) (A) (A) (A) (A) (A) (A) (A)
                 (A) (A) (A) (A) (A) (A) (A) (A) (A) (A) (A) (A)
                 (A) (A) (A) (A) (A) (A) (A) (A) (A) (A) (A) (A)
                 (A) (A) (A) (A) (A) (A) (A) (A) (A) (A) (A) (A)
                 (A) (A) (A) (A) (A) (A) (A) (A) (A) (A) (A) (A)
                 (A) (A) (A) (A) (A) (A) (A) (A) (A) (A) (A) (A)
                 (A) (A) (A) (A) (A) (A) (A) (A) (A) (A) (A) (A)
                 (A) (A) (A) (A) (A) (A) (A) (A) (A) (A) (A) (A)
                 (A) (A) (A) (A) (A) (A) (A) (A) (A) (A) (A) (A)
                 (A) (A) (A) (A) (A) (A) (A) (A) (A) (A) (A) (A)
                 (A) (A) (A) (A) (A) (A) (A) (A) (A) (A) (A) (A)
                 (A) (A) (A) (A) (A) (A) (A) (A) (A) (A) (A) (A)
                 (A) (A) (A) (A) (A) (A) (A) (A) (A) (A) (A) (A)
                 (A) (A) (A) (A) (A) (A) (A) (A) (A) (A) (A) (A)
                 (A) (A) (A) (A) (A) (A) (A) (A)
    20 initial guesses have been made.
 Convergence on wavefunction:    0.001000000000000
 Davidson Disk Diagonalization:  ConvIn= 1.00D-03 SkipCon=T Conv= 1.00D-03.
 Max sub-space:  2000 roots to seek:    20 dimension of matrix:       370304
 Iteration     1 Dimension    20 NMult     0 NNew     20
 CISAX will form    20 AO SS matrices at one time.
 NMat=    20 NSing=    20 JSym2X= 0.
 FoFJK:  IHMeth= 1 ICntrl=     500 DoSepK=F KAlg= 0 I1Cent=           0 FoldK=F
 IRaf= 500000000 NMat=      20 IRICut=       1 DoRegI=T DoRafI=F ISym2E= 0 IDoP0=0 IntGTp=1.
 FoFCou: FMM=T IPFlag=           0 FMFlag=      100000 FMFlg1=        2001
         NFxFlg=           0 DoJE=F BraDBF=F KetDBF=F FulRan=T
         wScrn=  0.000000 ICntrl=       500 IOpCl=  0 I1Cent=           0 NGrid=           0
         NMat0=   20 NMatS0=     20 NMatT0=    0 NMatD0=   20 NMtDS0=    0 NMtDT0=    0
 Symmetry not used in FoFCou.
 FMM levels:  10  Number of levels for PrismC:   9
 New state      1 was old state      3
 New state      2 was old state      4
 New state      3 was old state      1
 New state      4 was old state      2
 New state      5 was old state      9
 Excitation Energies [eV] at current iteration:
 Root      1 :     1.964646035470719
 Root      2 :     2.074655392365888
 Root      3 :     2.159343538048180
 Root      4 :     2.322298679575319
 Root      5 :     2.702889555926694
 Root      6 :     2.743478441833429
 Root      7 :     2.896697259853638
 Root      8 :     2.984199646797733
 Root      9 :     3.008268569913069
 Root     10 :     3.029347786842864
 Root     11 :     3.167614666027078
 Root     12 :     3.177743741824006
 Root     13 :     3.218688099613851
 Root     14 :     3.287150272336463
 Root     15 :     3.339018239049977
 Root     16 :     3.423087146646385
 Root     17 :     3.477538653236374
 Root     18 :     3.920821139077538
 Root     19 :     4.073403826546217
 Root     20 :     4.338079875505767
 Iteration     2 Dimension    40 NMult    20 NNew     20
 CISAX will form    20 AO SS matrices at one time.
 NMat=    20 NSing=    20 JSym2X= 0.
 New state      1 was old state      3
 Root      1 not converged, maximum delta is    0.243305191464364
 New state      2 was old state      1
 Root      2 not converged, maximum delta is    0.222221658088587
 New state      3 was old state      2
 Root      3 not converged, maximum delta is    0.387356749854538
 Root      4 not converged, maximum delta is    0.445575270185297
 New state      5 was old state      6
 Root      5 not converged, maximum delta is    0.436329800559747
 Excitation Energies [eV] at current iteration:
 Root      1 :     1.910519296044917   Change is   -0.248824242003263
 Root      2 :     1.959794478888187   Change is   -0.004851556582532
 Root      3 :     2.058707603711187   Change is   -0.015947788654701
 Root      4 :     2.091679082027986   Change is   -0.230619597547333
 Root      5 :     2.668792395804647   Change is   -0.074686046028782
 Root      6 :     2.708591655531856   Change is    0.005702099605162
 Root      7 :     2.766823359224243   Change is   -0.129873900629395
 Root      8 :     2.774544614070226   Change is   -0.233723955842843
 Root      9 :     2.869716887707678   Change is   -0.308026854116328
 Root     10 :     2.966012181857349   Change is   -0.018187464940384
 Root     11 :     2.972912231402022   Change is   -0.056435555440843
 Root     12 :     2.989890199554578   Change is   -0.297260072781885
 Root     13 :     3.163273287146065   Change is   -0.004341378881013
 Root     14 :     3.205168207361193   Change is   -0.272370445875181
 Root     15 :     3.218688079551613   Change is   -0.000000020062238
 Root     16 :     3.287376169582886   Change is   -0.051642069467092
 Root     17 :     3.360211059864147   Change is   -0.062876086782238
 Root     18 :     3.392523666054180   Change is   -0.528297473023358
 Root     19 :     3.562473054191145
 Root     20 :     3.628047372690355   Change is   -0.445356453855862
 Iteration     3 Dimension    45 NMult    40 NNew      5
 CISAX will form     5 AO SS matrices at one time.
 NMat=     5 NSing=     5 JSym2X= 0.
 Root      1 not converged, maximum delta is    0.089037907781679
 Root      2 not converged, maximum delta is    0.083492760194037
 Root      3 not converged, maximum delta is    0.259557147247602
 Root      4 not converged, maximum delta is    0.224561587406581
 Root      5 not converged, maximum delta is    0.060483516950849
 Excitation Energies [eV] at current iteration:
 Root      1 :     1.866012573248876   Change is   -0.044506722796042
 Root      2 :     1.955245520496662   Change is   -0.004548958391525
 Root      3 :     2.029377386369836   Change is   -0.029330217341351
 Root      4 :     2.079470712910273   Change is   -0.012208369117713
 Root      5 :     2.657180160728700   Change is   -0.011612235075946
 Iteration     4 Dimension    50 NMult    45 NNew      5
 CISAX will form     5 AO SS matrices at one time.
 NMat=     5 NSing=     5 JSym2X= 0.
 Root      1 not converged, maximum delta is    0.015376446551599
 Root      2 not converged, maximum delta is    0.023966678400049
 Root      3 not converged, maximum delta is    0.045994669799644
 Root      4 not converged, maximum delta is    0.038901356230394
 Root      5 not converged, maximum delta is    0.024211267442645
 Excitation Energies [eV] at current iteration:
 Root      1 :     1.848236421686122   Change is   -0.017776151562753
 Root      2 :     1.953625663100183   Change is   -0.001619857396479
 Root      3 :     2.017894480200238   Change is   -0.011482906169598
 Root      4 :     2.077368998930595   Change is   -0.002101713979678
 Root      5 :     2.652182476892979   Change is   -0.004997683835722
 Iteration     5 Dimension    55 NMult    50 NNew      5
 CISAX will form     5 AO SS matrices at one time.
 NMat=     5 NSing=     5 JSym2X= 0.
 Root      1 not converged, maximum delta is    0.004020678434978
 Root      2 not converged, maximum delta is    0.009964570240517
 Root      3 not converged, maximum delta is    0.012981853938739
 Root      4 not converged, maximum delta is    0.011030849777125
 Root      5 not converged, maximum delta is    0.009676675798255
 Excitation Energies [eV] at current iteration:
 Root      1 :     1.842449935952693   Change is   -0.005786485733429
 Root      2 :     1.952994587207932   Change is   -0.000631075892251
 Root      3 :     2.013754337190126   Change is   -0.004140143010112
 Root      4 :     2.076661253644088   Change is   -0.000707745286506
 Root      5 :     2.650357531826101   Change is   -0.001824945066878
 Iteration     6 Dimension    60 NMult    55 NNew      5
 CISAX will form     5 AO SS matrices at one time.
 NMat=     5 NSing=     5 JSym2X= 0.
 Root      1 not converged, maximum delta is    0.003268000898117
 Root      2 not converged, maximum delta is    0.004065855024900
 Root      3 not converged, maximum delta is    0.004573919367954
 Root      4 not converged, maximum delta is    0.003946006638576
 Root      5 not converged, maximum delta is    0.005124051518862
 Excitation Energies [eV] at current iteration:
 Root      1 :     1.839750574535831   Change is   -0.002699361416862
 Root      2 :     1.952690103877016   Change is   -0.000304483330916
 Root      3 :     2.012159915642512   Change is   -0.001594421547614
 Root      4 :     2.076337284429218   Change is   -0.000323969214871
 Root      5 :     2.649627765636323   Change is   -0.000729766189778
 Iteration     7 Dimension    65 NMult    60 NNew      5
 CISAX will form     5 AO SS matrices at one time.
 NMat=     5 NSing=     5 JSym2X= 0.
 Root      1 not converged, maximum delta is    0.002762721518064
 Root      2 not converged, maximum delta is    0.001459045427107
 Root      3 not converged, maximum delta is    0.001707101474588
 Root      4 not converged, maximum delta is    0.001417169455295
 Root      5 not converged, maximum delta is    0.001541036321097
 Excitation Energies [eV] at current iteration:
 Root      1 :     1.838541123254816   Change is   -0.001209451281015
 Root      2 :     1.952555180211465   Change is   -0.000134923665551
 Root      3 :     2.011557996349425   Change is   -0.000601919293086
 Root      4 :     2.076203728398304   Change is   -0.000133556030913
 Root      5 :     2.649378248654839   Change is   -0.000249516981484
 Iteration     8 Dimension    70 NMult    65 NNew      5
 CISAX will form     5 AO SS matrices at one time.
 NMat=     5 NSing=     5 JSym2X= 0.
 Root      1 not converged, maximum delta is    0.002086401857409
 Root      2 has converged.
 Root      3 has converged.
 Root      4 has converged.
 Root      5 has converged.
 Excitation Energies [eV] at current iteration:
 Root      1 :     1.837984846455643   Change is   -0.000556276799173
 Root      2 :     1.952499781153933   Change is   -0.000055399057532
 Root      3 :     2.011312738328152   Change is   -0.000245258021274
 Root      4 :     2.076157447706951   Change is   -0.000046280691353
 Root      5 :     2.649287872140316   Change is   -0.000090376514522
 Iteration     9 Dimension    71 NMult    70 NNew      1
 CISAX will form     1 AO SS matrices at one time.
 NMat=     1 NSing=     1 JSym2X= 0.
 Root      1 not converged, maximum delta is    0.001362148678504
 Root      2 has converged.
 Root      3 has converged.
 Root      4 has converged.
 Root      5 has converged.
 Excitation Energies [eV] at current iteration:
[...]
 Alpha virt. eigenvalues --    1.09009   1.09219   1.09772   1.10292   1.10610
 Alpha virt. eigenvalues --    1.11004   1.11321   1.12329   1.12607   1.13064
 Alpha virt. eigenvalues --    1.13861   1.14159   1.14658   1.14993   1.15651
 Alpha virt. eigenvalues --    1.15798   1.16058   1.16457   1.17179   1.17433
 Alpha virt. eigenvalues --    1.18148   1.18413   1.18906   1.19244   1.19632
 Alpha virt. eigenvalues --    1.20062   1.20506   1.21198   1.21232   1.22047
 Alpha virt. eigenvalues --    1.22377   1.22597   1.22943   1.23436   1.23790
 Alpha virt. eigenvalues --    1.24297   1.24556   1.24838   1.25143   1.25580
 Alpha virt. eigenvalues --    1.25719   1.25749   1.26225   1.26903   1.27371
 Alpha virt. eigenvalues --    1.27812   1.28202   1.28311   1.28939   1.29535
 Alpha virt. eigenvalues --    1.29938   1.30177   1.30507   1.30810   1.31563
 Alpha virt. eigenvalues --    1.31800   1.32277   1.32848   1.32993   1.33547
 Alpha virt. eigenvalues --    1.34179   1.34192   1.34542   1.35041   1.35147
 Alpha virt. eigenvalues --    1.35263   1.35893   1.36225   1.36372   1.36898
 Alpha virt. eigenvalues --    1.37621   1.37735   1.38217   1.38808   1.39271
 Alpha virt. eigenvalues --    1.39685   1.40131   1.40371   1.40593   1.41216
 Alpha virt. eigenvalues --    1.42299   1.42494   1.42582   1.43482   1.43988
 Alpha virt. eigenvalues --    1.44444   1.44619   1.45165   1.45582   1.46490
 Alpha virt. eigenvalues --    1.46765   1.47108   1.47318   1.47374   1.47410
 Alpha virt. eigenvalues --    1.47447   1.47554   1.47832   1.47892   1.48490
 Alpha virt. eigenvalues --    1.48693   1.48887   1.49263   1.49282   1.49800
 Alpha virt. eigenvalues --    1.49870   1.50104   1.50459   1.50717   1.51030
 Alpha virt. eigenvalues --    1.51184   1.51295   1.51835   1.52030   1.52579
 Alpha virt. eigenvalues --    1.53143   1.53505   1.53835   1.53990   1.54319
 Alpha virt. eigenvalues --    1.54818   1.55025   1.55331   1.55881   1.56044
 Alpha virt. eigenvalues --    1.56608   1.56730   1.57218   1.57437   1.58273
 Alpha virt. eigenvalues --    1.58494   1.59030   1.60048   1.60144   1.60520
 Alpha virt. eigenvalues --    1.61136   1.61246   1.61816   1.62386   1.63078
 Alpha virt. eigenvalues --    1.63216   1.63221   1.63751   1.64435   1.64479
 Alpha virt. eigenvalues --    1.64598   1.64847   1.65139   1.65300   1.65389
 Alpha virt. eigenvalues --    1.65762   1.65804   1.65891   1.66330   1.66467
 Alpha virt. eigenvalues --    1.66985   1.67082   1.67337   1.67957   1.68064
 Alpha virt. eigenvalues --    1.68506   1.68617   1.68983   1.69387   1.69454
 Alpha virt. eigenvalues --    1.69769   1.70005   1.70256   1.70422   1.70460
 Alpha virt. eigenvalues --    1.70705   1.70965   1.71064   1.71141   1.71584
 Alpha virt. eigenvalues --    1.71771   1.71887   1.72027   1.72055   1.72501
 Alpha virt. eigenvalues --    1.72542   1.72697   1.72788   1.72986   1.73121
 Alpha virt. eigenvalues --    1.73411   1.73455   1.73571   1.73788   1.73883
 Alpha virt. eigenvalues --    1.73976   1.74366   1.74421   1.74531   1.74681
 Alpha virt. eigenvalues --    1.74713   1.74953   1.75172   1.75219   1.75416
 Alpha virt. eigenvalues --    1.75691   1.75860   1.76094   1.76259   1.76347
 Alpha virt. eigenvalues --    1.76512   1.77060   1.77377   1.77585   1.78183
 Alpha virt. eigenvalues --    1.78389   1.78522   1.78603   1.78712   1.78882
 Alpha virt. eigenvalues --    1.79342   1.79692   1.79920   1.80080   1.80405
 Alpha virt. eigenvalues --    1.80707   1.80942   1.81204   1.81267   1.81629
 Alpha virt. eigenvalues --    1.81939   1.82123   1.82252   1.82340   1.82634
 Alpha virt. eigenvalues --    1.83106   1.83561   1.83733   1.83862   1.84024
 Alpha virt. eigenvalues --    1.84509   1.84859   1.85114   1.85568   1.85928
 Alpha virt. eigenvalues --    1.86208   1.86499   1.86836   1.87172   1.87280
 Alpha virt. eigenvalues --    1.87386   1.87695   1.87851   1.88006   1.88307
 Alpha virt. eigenvalues --    1.88521   1.88724   1.89057   1.89586   1.89776
 Alpha virt. eigenvalues --    1.90314   1.90482   1.90538   1.90662   1.90982
 Alpha virt. eigenvalues --    1.91190   1.91345   1.91662   1.91874   1.92057
 Alpha virt. eigenvalues --    1.92399   1.92500   1.92770   1.93339   1.93481
 Alpha virt. eigenvalues --    1.94168   1.94635   1.94859   1.95595   1.95729
 Alpha virt. eigenvalues --    1.95942   1.96138   1.96563   1.96894   1.97089
 Alpha virt. eigenvalues --    1.97315   1.97495   1.97607   1.97687   1.97863
 Alpha virt. eigenvalues --    1.98216   1.98495   1.99208   1.99474   1.99682
 Alpha virt. eigenvalues --    1.99951   2.00177   2.00446   2.00625   2.00674
 Alpha virt. eigenvalues --    2.01203   2.01791   2.01905   2.02484   2.02633
 Alpha virt. eigenvalues --    2.02838   2.03261   2.03729   2.03846   2.03869
 Alpha virt. eigenvalues --    2.04083   2.04309   2.04363   2.04791   2.04911
 Alpha virt. eigenvalues --    2.05236   2.05777   2.05821   2.06413   2.06829
 Alpha virt. eigenvalues --    2.06858   2.07529   2.08044   2.08145   2.08590
 Alpha virt. eigenvalues --    2.08923   2.09477   2.09837   2.10130   2.11018
 Alpha virt. eigenvalues --    2.11627   2.11753   2.11901   2.13169   2.13396
 Alpha virt. eigenvalues --    2.13620   2.13934   2.14907   2.15018   2.15215
 Alpha virt. eigenvalues --    2.15772   2.16354   2.16478   2.16999   2.17273
 Alpha virt. eigenvalues --    2.17649   2.18222   2.18412   2.18974   2.19131
 Alpha virt. eigenvalues --    2.19588   2.20104   2.20363   2.20546   2.21319
 Alpha virt. eigenvalues --    2.21655   2.21952   2.22086   2.22869   2.22930
 Alpha virt. eigenvalues --    2.23484   2.23831   2.24217   2.24378   2.24454
 Alpha virt. eigenvalues --    2.24863   2.25059   2.25639   2.26324   2.26368
 Alpha virt. eigenvalues --    2.26924   2.27587   2.27639   2.28053   2.28171
 Alpha virt. eigenvalues --    2.28617   2.28929   2.29099   2.29495   2.29583
 Alpha virt. eigenvalues --    2.29974   2.30171   2.30373   2.30790   2.31106
 Alpha virt. eigenvalues --    2.31215   2.31514   2.31579   2.31776   2.32226
 Alpha virt. eigenvalues --    2.32725   2.32987   2.33718   2.33945   2.34761
 Alpha virt. eigenvalues --    2.34821   2.35387   2.35714   2.36403   2.36697
 Alpha virt. eigenvalues --    2.36963   2.37341   2.37619   2.38485   2.39394
 Alpha virt. eigenvalues --    2.39504   2.39958   2.40434   2.40460   2.40572
 Alpha virt. eigenvalues --    2.42225   2.42372   2.42501   2.42590   2.43212
 Alpha virt. eigenvalues --    2.43657   2.44012   2.44237   2.45079   2.45144
 Alpha virt. eigenvalues --    2.46200   2.46518   2.46633   2.47032   2.47195
 Alpha virt. eigenvalues --    2.47738   2.48367   2.48788   2.49216   2.49602
 Alpha virt. eigenvalues --    2.49909   2.50358   2.50893   2.50985   2.51109
 Alpha virt. eigenvalues --    2.51996   2.52315   2.52910   2.53300   2.53482
 Alpha virt. eigenvalues --    2.54024   2.54296   2.54376   2.54776   2.55049
 Alpha virt. eigenvalues --    2.55556   2.55987   2.56102   2.56721   2.57150
 Alpha virt. eigenvalues --    2.57592   2.58022   2.58124   2.58313   2.59228
 Alpha virt. eigenvalues --    2.59478   2.60111   2.60207   2.60696   2.60791
 Alpha virt. eigenvalues --    2.61787   2.61923   2.62116   2.62330   2.63054
 Alpha virt. eigenvalues --    2.63236   2.63455   2.63691   2.63737   2.64400
 Alpha virt. eigenvalues --    2.64530   2.64986   2.65564   2.66241   2.66979
 Alpha virt. eigenvalues --    2.67121   2.67591   2.68095   2.68392   2.68525
 Alpha virt. eigenvalues --    2.69054   2.69232   2.69596   2.70791   2.71086
 Alpha virt. eigenvalues --    2.71211   2.72244   2.72863   2.73064   2.73381
 Alpha virt. eigenvalues --    2.73473   2.74495   2.75550   2.75971   2.76117
 Alpha virt. eigenvalues --    2.76543   2.76887   2.77592   2.78495   2.78842
 Alpha virt. eigenvalues --    2.78888   2.80080   2.80194   2.80313   2.80807
 Alpha virt. eigenvalues --    2.81248   2.81901   2.81931   2.82246   2.82829
 Alpha virt. eigenvalues --    2.83095   2.83348   2.83572   2.83718   2.84092
 Alpha virt. eigenvalues --    2.84572   2.84635   2.84878   2.85306   2.85557
 Alpha virt. eigenvalues --    2.85726   2.85893   2.86241   2.86315   2.86759
 Alpha virt. eigenvalues --    2.86778   2.87227   2.87459   2.87567   2.87670
 Alpha virt. eigenvalues --    2.87761   2.88119   2.88243   2.88651   2.89000
 Alpha virt. eigenvalues --    2.89349   2.89375   2.89579   2.89992   2.90878
 Alpha virt. eigenvalues --    2.90899   2.91112   2.91601   2.92106   2.92589
 Alpha virt. eigenvalues --    2.92894   2.93313   2.93352   2.93419   2.94118
 Alpha virt. eigenvalues --    2.94162   2.94748   2.95215   2.96329   2.96718
 Alpha virt. eigenvalues --    2.97289   2.97494   2.97689   2.97926   2.98676
 Alpha virt. eigenvalues --    3.00043   3.00438   3.00453   3.00938   3.02047
 Alpha virt. eigenvalues --    3.03228   3.04512   3.04689   3.04993   3.05590
 Alpha virt. eigenvalues --    3.05811   3.06051   3.06219   3.06800   3.07348
 Alpha virt. eigenvalues --    3.09507   3.11008   3.12024   3.13628   3.14162
 Alpha virt. eigenvalues --    3.16230   3.19272   3.27018   3.30046   3.31158
 Alpha virt. eigenvalues --    3.31946   3.34965   3.36727   3.40807   3.41464
 Alpha virt. eigenvalues --    3.44864   3.45894   3.50849   3.51436   3.53722
 Alpha virt. eigenvalues --    3.55314   3.61365
          Condensed to atoms (all electrons):
 Mulliken charges:
               1
     1  Mg   0.678753
     2  C   -0.050307
     3  C   -0.053767
     4  C   -0.032877
     5  C   -0.094668
     6  N   -0.217087
     7  C   -0.040724
     8  C   -0.021512
     9  C   -0.009612
    10  C    0.064044
    11  C    0.115566
    12  C    0.107334
    13  C    0.152511
    14  C    0.099686
    15  O   -0.225587
    16  O   -0.272713
    17  N   -0.264270
    18  C    0.086912
    19  C   -0.145655
    20  C    0.018133
    21  C    0.077164
    22  C    0.160108
    23  C   -0.041471
    24  O   -0.179719
    25  C    0.146369
    26  N   -0.194346
    27  C   -0.004405
    28  C    0.035734
    29  C   -0.017297
    30  C    0.077862
    31  C    0.123739
    32  C    0.067518
    33  C    0.081888
    34  N   -0.207409
    35  C    0.076378
    36  C   -0.153748
    37  C    0.063603
    38  C    0.126668
    39  C    0.175716
    40  C   -0.039243
    41  O   -0.154012
    42  C    0.105786
    43  C    0.086893
    44  O   -0.132368
    45  O   -0.320746
    46  C    0.193565
    47  C    0.302624
    48  C   -0.109631
    49  C   -0.067215
    50  C    0.121722
    51  C    0.048295
    52  C    0.055749
    53  C    0.119046
    54  C   -0.051826
    55  C    0.105468
    56  C    0.098958
    57  C    0.051122
    58  C    0.115694
    59  C   -0.072644
    60  C    0.081681
    61  C    0.089516
    62  C    0.053579
    63  C    0.056133
    64  C   -0.073408
    65  C    0.123237
    66  C    0.111581
    67  H   -0.066232
    68  H   -0.052185
    69  H   -0.061324
    70  H    0.008103
    71  H   -0.025792
    72  H    0.000707
    73  H   -0.002545
    74  H   -0.008980
    75  H   -0.021600
    76  H   -0.016611
    77  H   -0.006304
    78  H    0.003220
    79  H   -0.007678
    80  H    0.007044
    81  H    0.002445
    82  H    0.008409
    83  H   -0.022327
    84  H    0.018189
    85  H   -0.023834
    86  H   -0.022726
    87  H   -0.011417
    88  H    0.005665
    89  H   -0.001043
    90  H   -0.014893
    91  H   -0.032671
    92  H   -0.007888
    93  H    0.002742
    94  H   -0.016967
    95  H   -0.025224
    96  H    0.014709
    97  H    0.013971
    98  H   -0.008624
    99  H    0.013255
   100  H    0.031665
   101  H    0.024278
   102  H   -0.000393
   103  H    0.001597
   104  H   -0.033883
   105  H   -0.028680
   106  H    0.007322
   107  H    0.010879
   108  H   -0.000591
   109  H   -0.012470
   110  H   -0.030392
   111  H   -0.031593
   112  H   -0.038997
   113  H   -0.029410
   114  H   -0.030187
   115  H   -0.005104
   116  H   -0.035968
   117  H   -0.019363
   118  H   -0.027021
   119  H   -0.040960
   120  H   -0.033714
   121  H   -0.037038
   122  H   -0.051686
   123  H   -0.030104
   124  H   -0.034533
   125  H   -0.022461
   126  H   -0.008675
   127  H   -0.015376
   128  H   -0.034253
   129  H   -0.037886
   130  H   -0.033295
   131  H   -0.013223
   132  H   -0.049269
   133  H   -0.022870
   134  H   -0.037070
   135  H   -0.005161
   136  H   -0.024577
   137  H   -0.017447
   138  H   -0.019927
   139  H   -0.018710
   140  H   -0.013116
 Sum of Mulliken charges =  -0.00000
 Mulliken charges with hydrogens summed into heavy atoms:
               1
     1  Mg   0.678753
     2  C   -0.050307
     3  C   -0.119999
     4  C   -0.085062
     5  C   -0.155992
     6  N   -0.217087
     7  C   -0.040724
     8  C   -0.013409
     9  C   -0.035404
    10  C    0.064044
    11  C    0.104749
    12  C    0.069124
    13  C    0.149427
    14  C    0.099686
    15  O   -0.225587
    16  O   -0.272713
    17  N   -0.264270
    18  C    0.086912
    19  C   -0.145655
    20  C    0.018133
    21  C    0.077164
    22  C    0.161919
    23  C   -0.041471
    24  O   -0.179719
    25  C    0.150640
    26  N   -0.194346
    27  C   -0.004405
    28  C    0.011900
    29  C   -0.040024
    30  C    0.077862
    31  C    0.116944
    32  C    0.019954
    33  C    0.059775
    34  N   -0.207409
    35  C    0.076378
    36  C   -0.153748
    37  C    0.063603
    38  C    0.126668
    39  C    0.179172
    40  C   -0.039243
    41  O   -0.154012
    42  C    0.097162
    43  C    0.086893
    44  O   -0.132368
    45  O   -0.320746
    46  C    0.262763
    47  C    0.303828
    48  C   -0.143514
    49  C   -0.067215
    50  C    0.111244
    51  C    0.035234
    52  C   -0.006235
    53  C    0.050639
    54  C   -0.082013
    55  C    0.045033
    56  C    0.030977
    57  C   -0.019631
    58  C    0.033903
    59  C   -0.107177
    60  C    0.035169
    61  C    0.017377
    62  C    0.007061
    63  C   -0.016006
    64  C   -0.110477
    65  C    0.076051
    66  C    0.059827
 Electronic spatial extent (au):  <R**2>=         128707.4565
 Charge=             -0.0000 electrons
 Dipole moment (field-independent basis, Debye):
    X=              5.0885    Y=              2.6233    Z=             -1.7112  Tot=              5.9752
 Quadrupole moment (field-independent basis, Debye-Ang):
   XX=           -404.2221   YY=           -437.6451   ZZ=           -404.6092
   XY=            -40.9775   XZ=              8.7791   YZ=              8.4823
 Traceless Quadrupole moment (field-independent basis, Debye-Ang):
   XX=             11.2700   YY=            -22.1529   ZZ=             10.8829
   XY=            -40.9775   XZ=              8.7791   YZ=              8.4823
 Octapole moment (field-independent basis, Debye-Ang**2):
  XXX=           -250.9107  YYY=           -116.8802  ZZZ=            -18.3009  XYY=            247.0858
  XXY=            293.2589  XXZ=            -77.9562  XZZ=            -28.3254  YZZ=            -24.9603
  YYZ=             36.9799  XYZ=            -49.1684
 Hexadecapole moment (field-independent basis, Debye-Ang**3):
 XXXX=        -143169.9943 YYYY=         -33749.6307 ZZZZ=          -2597.7530 XXXY=          -4008.0794
 XXXZ=            -46.6394 YYYX=           -243.3635 YYYZ=             64.2590 ZZZX=             29.9588
 ZZZY=             37.9903 XXYY=         -30573.3979 XXZZ=         -24650.5773 YYZZ=          -5699.4220
 XXYZ=            173.0404 YYXZ=            -69.8553 ZZXY=            -72.9050
 N-N= 9.444492868962D+03 E-N=-2.588382682623D+04  KE= 2.977245542803D+03
 Leave Link  601 at Thu May  5 01:14:33 2022, MaxMem= 10066329600 cpu:              23.1 elap:               1.1
 (Enter /sw/apps/gaussian-16.0/g16/l9999.exe)
 1\1\GINC-BP1-COMPUTE216\SP\RBLYP TD-FC\def2SVP\C55H74Mg1N4O6\OF15641\0
 5-May-2022\0\\#p blyp/Def2SVP td=(nstates=5)\\step_501_chromophore_21 
 TDDFT with blyp functional\\0,1\Mg,0,15.621,51.824,26.048\C,0,17.474,5
 0.607,28.628\C,0,13.11,52.757,28.207\C,0,13.815,52.827,23.366\C,0,17.9
 94,50.426,23.833\N,0,15.236,51.49,28.168\C,0,16.269,51.276,29.026\C,0,
 15.946,51.618,30.441\C,0,14.406,52.073,30.261\C,0,14.211,52.119,28.781
 \C,0,13.381,51.071,30.962\C,0,16.882,52.829,30.906\C,0,17.113,53.,32.4
 09\C,0,16.277,52.298,33.508\O,0,16.522,51.273,34.207\O,0,15.149,53.028
 ,33.8\N,0,13.774,52.766,25.773\C,0,12.872,53.044,26.813\C,0,11.705,53.
 645,26.21\C,0,11.908,53.699,24.816\C,0,13.233,53.124,24.629\C,0,10.532
 ,54.159,27.077\C,0,10.862,54.19,23.684\O,0,11.181,54.334,22.497\C,0,9.
 413,54.556,23.96\N,0,15.937,51.693,23.861\C,0,14.997,52.162,23.006\C,0
 ,15.273,51.713,21.572\C,0,16.826,51.21,21.68\C,0,17.022,51.185,23.204\
 C,0,14.217,50.697,20.937\C,0,17.949,52.219,21.114\C,0,19.019,51.704,20
 .169\N,0,17.424,50.772,26.121\C,0,18.254,50.268,25.191\C,0,19.457,49.6
 74,25.854\C,0,19.17,49.861,27.227\C,0,17.869,50.416,27.3\C,0,20.692,49
 .074,25.281\C,0,19.74,49.613,28.498\O,0,20.83,49.088,28.805\C,0,18.663
 ,50.082,29.473\C,0,18.25,48.961,30.286\O,0,17.836,47.887,29.979\O,0,18
 .309,49.398,31.606\C,0,17.889,48.522,32.766\C,0,14.293,52.582,34.895\C
 ,0,13.1,53.569,34.954\C,0,12.46,53.992,36.015\C,0,12.68,53.356,37.415\
 C,0,11.205,54.841,35.753\C,0,10.6,55.663,36.932\C,0,9.42,56.559,36.478
 \C,0,8.012,56.109,37.15\C,0,7.471,54.862,36.476\C,0,6.914,57.235,37.16
 5\C,0,6.14,57.367,38.56\C,0,4.833,56.538,38.569\C,0,3.547,57.374,38.49
 1\C,0,2.383,56.737,39.448\C,0,3.119,57.645,36.997\C,0,3.394,59.151,36.
 64\C,0,2.14,59.97,37.164\C,0,1.288,60.624,36.053\C,0,0.789,62.042,36.5
 35\C,0,0.29,59.577,35.632\H,0,12.385,53.277,28.836\H,0,13.185,53.065,2
 2.506\H,0,18.658,49.809,23.225\H,0,16.016,50.878,31.238\H,0,14.234,53.
 064,30.681\H,0,12.501,51.529,31.413\H,0,13.929,50.42,31.643\H,0,12.997
 ,50.426,30.171\H,0,16.513,53.785,30.534\H,0,17.842,52.645,30.423\H,0,1
 7.072,54.075,32.589\H,0,18.149,52.746,32.63\H,0,10.697,54.074,28.151\H
 ,0,9.65,53.599,26.768\H,0,10.364,55.2,26.8\H,0,9.472,55.48,24.534\H,0,
 8.955,53.912,24.711\H,0,8.821,54.482,23.048\H,0,15.275,52.604,20.943\H
 ,0,16.96,50.249,21.183\H,0,14.698,49.77,20.624\H,0,13.709,51.164,20.09
 4\H,0,13.484,50.389,21.683\H,0,18.44,52.77,21.916\H,0,17.407,53.007,20
 .592\H,0,19.977,51.938,20.632\H,0,18.941,52.125,19.167\H,0,18.974,50.6
 15,20.123\H,0,20.767,49.127,24.195\H,0,20.766,48.017,25.538\H,0,21.552
 ,49.592,25.705\H,0,19.018,50.879,30.127\H,0,17.502,47.57,32.402\H,0,17
 .07,48.999,33.306\H,0,18.788,48.39,33.368\H,0,14.836,52.5,35.836\H,0,1
 3.883,51.58,34.766\H,0,12.925,53.945,33.946\H,0,13.563,52.719,37.478\H
 ,0,11.953,52.59,37.685\H,0,12.756,54.166,38.141\H,0,10.442,54.172,35.3
 56\H,0,11.336,55.665,35.052\H,0,11.37,56.255,37.428\H,0,10.403,54.93,3
 7.714\H,0,9.314,56.38,35.408\H,0,9.565,57.635,36.574\H,0,8.229,55.74,3
 8.152\H,0,6.929,54.257,37.203\H,0,8.295,54.272,36.075\H,0,6.878,55.132
 ,35.603\H,0,6.154,57.085,36.398\H,0,7.216,58.274,37.037\H,0,6.032,58.4
 29,38.781\H,0,6.776,57.041,39.382\H,0,4.714,55.961,39.486\H,0,4.833,55
 .775,37.791\H,0,3.838,58.335,38.917\H,0,1.407,57.056,39.083\H,0,2.458,
 57.04,40.492\H,0,2.323,55.65,39.401\H,0,2.055,57.445,36.869\H,0,3.659,
 57.008,36.296\H,0,3.366,59.132,35.551\H,0,4.356,59.509,37.007\H,0,2.64
 1,60.683,37.82\H,0,1.538,59.418,37.886\H,0,1.904,60.755,35.164\H,0,1.0
 36,62.219,37.582\H,0,-0.277,62.075,36.31\H,0,1.254,62.823,35.934\H,0,-
 0.068,59.933,34.666\H,0,-0.548,59.415,36.31\H,0,0.823,58.628,35.582\\V
 ersion=ES64L-G16RevA.03\State=1-A\HF=-3007.3856165\RMSD=5.130e-09\PG=C
 01 [X(C55H74Mg1N4O6)]\\@


 DO NOT LET SELFISH MEN OR GREEDY INTERESTS SKIN YOUR COUNTRY OF ITS
 BEAUTY, ITS RICHES, OR ITS ROMANCE. -- THEODORE ROOSEVELT
 Job cpu time:       0 days  8 hours  1 minutes 59.3 seconds.
 Elapsed time:       0 days  0 hours 20 minutes  9.0 seconds.
 File lengths (MBytes):  RWF=   8025 Int=      0 D2E=      0 Chk=    390 Scr=      1
 Normal termination of Gaussian 16 at Thu May  5 01:14:34 2022.
