 Entering Gaussian System, Link 0=g16
 Initial command:
 /sw/apps/gaussian-16.0/g16/l1.exe "/tmp/Gau-220493.inp" -scrdir="/tmp/"
 Entering Link 1 = /sw/apps/gaussian-16.0/g16/l1.exe PID=    220494.
  
 Copyright (c) 1988,1990,1992,1993,1995,1998,2003,2009,2016,
            Gaussian, Inc.  All Rights Reserved.
  
 This is part of the Gaussian(R) 16 program.  It is based on
 the Gaussian(R) 09 system (copyright 2009, Gaussian, Inc.),
 the Gaussian(R) 03 system (copyright 2003, Gaussian, Inc.),
 the Gaussian(R) 98 system (copyright 1998, Gaussian, Inc.),
 the Gaussian(R) 94 system (copyright 1995, Gaussian, Inc.),
 the Gaussian 92(TM) system (copyright 1992, Gaussian, Inc.),
 the Gaussian 90(TM) system (copyright 1990, Gaussian, Inc.),
 the Gaussian 88(TM) system (copyright 1988, Gaussian, Inc.),
 the Gaussian 86(TM) system (copyright 1986, Carnegie Mellon
 University), and the Gaussian 82(TM) system (copyright 1983,
 Carnegie Mellon University). Gaussian is a federally registered
 trademark of Gaussian, Inc.
  
 This software contains proprietary and confidential information,
 including trade secrets, belonging to Gaussian, Inc.
  
 This software is provided under written license and may be
 used, copied, transmitted, or stored only in accord with that
 written license.
  
 The following legend is applicable only to US Government
 contracts under FAR:
  
                    RESTRICTED RIGHTS LEGEND
  
 Use, reproduction and disclosure by the US Government is
 subject to restrictions as set forth in subparagraphs (a)
 and (c) of the Commercial Computer Software - Restricted
 Rights clause in FAR 52.227-19.
  
 Gaussian, Inc.
 340 Quinnipiac St., Bldg. 40, Wallingford CT 06492
  
  
 ---------------------------------------------------------------
 Warning -- This program may not be used in any manner that
 competes with the business of Gaussian, Inc. or will provide
 assistance to any competitor of Gaussian, Inc.  The licensee
 of this program is prohibited from giving any competitor of
 Gaussian, Inc. access to this program.  By using this program,
 the user acknowledges that Gaussian, Inc. is engaged in the
 business of creating and licensing software in the field of
 computational chemistry and represents and warrants to the
 licensee that it is not a competitor of Gaussian, Inc. and that
 it will not use this program in any manner prohibited above.
 ---------------------------------------------------------------
  

 Cite this work as:
 Gaussian 16, Revision A.03,
 M. J. Frisch, G. W. Trucks, H. B. Schlegel, G. E. Scuseria, 
 M. A. Robb, J. R. Cheeseman, G. Scalmani, V. Barone, 
 G. A. Petersson, H. Nakatsuji, X. Li, M. Caricato, A. V. Marenich, 
 J. Bloino, B. G. Janesko, R. Gomperts, B. Mennucci, H. P. Hratchian, 
 J. V. Ortiz, A. F. Izmaylov, J. L. Sonnenberg, D. Williams-Young, 
 F. Ding, F. Lipparini, F. Egidi, J. Goings, B. Peng, A. Petrone, 
 T. Henderson, D. Ranasinghe, V. G. Zakrzewski, J. Gao, N. Rega, 
 G. Zheng, W. Liang, M. Hada, M. Ehara, K. Toyota, R. Fukuda, 
 J. Hasegawa, M. Ishida, T. Nakajima, Y. Honda, O. Kitao, H. Nakai, 
 T. Vreven, K. Throssell, J. A. Montgomery, Jr., J. E. Peralta, 
 F. Ogliaro, M. J. Bearpark, J. J. Heyd, E. N. Brothers, K. N. Kudin, 
 V. N. Staroverov, T. A. Keith, R. Kobayashi, J. Normand, 
 K. Raghavachari, A. P. Rendell, J. C. Burant, S. S. Iyengar, 
 J. Tomasi, M. Cossi, J. M. Millam, M. Klene, C. Adamo, R. Cammi, 
 J. W. Ochterski, R. L. Martin, K. Morokuma, O. Farkas, 
 J. B. Foresman, and D. J. Fox, Gaussian, Inc., Wallingford CT, 2016.
 
 ******************************************
 Gaussian 16:  ES64L-G16RevA.03 25-Dec-2016
                30-Apr-2022 
 ******************************************
 %nproc=24
 Will use up to   24 processors via shared memory.
 %mem=50gb
 --------------------
 #p ZINDO=(nstates=5)
 --------------------
 1/38=1,172=1/1;
 2/12=2,17=6,18=5,40=1/2;
 3/5=2,25=1,41=400000/1,2,3,8;
 4/5=3,35=1/1;
 5/5=2,35=1,38=5/2;
 8/6=1,108=5/1;
 9/41=5,42=1,49=10/14;
 6/7=2,8=2,9=2,10=2/1;
 99/5=1,9=1/99;
 Leave Link    1 at Sat Apr 30 05:57:41 2022, MaxMem=  6710886400 cpu:               1.6 elap:               0.1
 (Enter /sw/apps/gaussian-16.0/g16/l101.exe)
 -----------------------------
 step_601_chromophore_20 ZINDO
 -----------------------------
 Symbolic Z-matrix:
 Charge =  0 Multiplicity = 1
 Mg                    7.343     57.679    41.586 
 C                     6.444     54.292    41.511 
 C                     10.429    56.701    40.203 
 C                     8.043     60.862    41.042 
 C                     4.184     58.468    42.575 
 N                     8.376     55.65     40.866 
 C                     7.771     54.426    41.035 
 C                     8.696     53.359    40.54 
 C                     10.08     54.083    40.425 
 C                     9.675     55.558    40.513 
 C                     11.1      53.695    41.445 
 C                     8.287     52.647    39.197 
 C                     8.532     51.141    39.038 
 C                     8.742     50.496    37.684 
 O                     9.791     50.304    37.074 
 O                     7.549     50.164    37.208 
 N                     8.979     58.671    40.709 
 C                     10.113    58.089    40.244 
 C                     11.003    59.087    39.754 
 C                     10.443    60.369    39.928 
 C                     9.099     59.977    40.612 
 C                     12.38     58.745    39.265 
 C                     11.04     61.702    39.495 
 O                     12.202    61.85     39.185 
 C                     10.105    62.825    39.604 
 N                     6.185     59.443    41.71 
 C                     6.783     60.638    41.523 
 C                     5.826     61.798    42.093 
 C                     4.637     60.972    42.66 
 C                     5.01      59.539    42.309 
 C                     6.462     62.794    43.165 
 C                     3.282     61.495    42.17 
 C                     2.174     61.84     43.229 
 N                     5.595     56.649    42.006 
 C                     4.399     57.067    42.443 
 C                     3.577     55.919    42.85 
 C                     4.336     54.809    42.379 
 C                     5.539     55.301    41.998 
 C                     2.228     55.938    43.408 
 C                     4.327     53.353    42.316 
 O                     3.588     52.434    42.619 
 C                     5.693     53.015    41.634 
 C                     5.22      52.245    40.392 
 O                     4.795     52.708    39.357 
 O                     5.44      50.899    40.672 
 C                     4.971     49.903    39.646 
 C                     7.598     49.538    35.896 
 C                     7.302     50.688    34.907 
 C                     6.26      50.935    34.17 
 C                     4.965     50.129    34.212 
 C                     6.234     52.148    33.257 
 C                     7.034     52.171    32.003 
 C                     6.158     52.636    30.764 
 C                     6.181     54.19     30.821 
 C                     4.747     54.773    30.551 
 C                     7.194     54.709    29.758 
 C                     7.961     56.11     30.213 
 C                     9.259     55.841    30.919 
 C                     10.384    55.657    29.977 
 C                     11.29     54.525    30.363 
 C                     11.244    56.896    29.76 
 C                     11.824    57.147    28.333 
 C                     13.221    57.825    28.465 
 C                     14.471    56.901    28.279 
 C                     15.569    57.367    29.152 
 C                     14.852    56.772    26.77 
 H                     11.39     56.377    39.799 
 H                     8.252     61.931    40.956 
 H                     3.184     58.777    42.885 
 H                     8.903     52.58     41.274 
 H                     10.567    53.965    39.457 
 H                     11.125    52.71     41.91 
 H                     11.095    54.447    42.234 
 H                     12.116    53.777    41.059 
 H                     8.849     53.141    38.404 
 H                     7.244     52.821    38.934 
 H                     7.625     50.67     39.416 
 H                     9.369     50.83     39.662 
 H                     12.512    57.819    38.705 
 H                     13.06     58.903    40.102 
 H                     12.773    59.515    38.601 
 H                     9.804     62.982    40.64 
 H                     9.199     62.433    39.142 
 H                     10.485    63.757    39.187 
 H                     5.45      62.359    41.237 
 H                     4.609     60.947    43.749 
 H                     6.33      63.806    42.781 
 H                     7.526     62.61     43.311 
 H                     5.949     62.853    44.125 
 H                     2.741     60.733    41.61 
 H                     3.379     62.426    41.61 
 H                     1.378     62.391    42.727 
 H                     2.423     62.463    44.089 
 H                     1.748     60.937    43.666 
 H                     1.459     56.433    42.815 
 H                     2.256     56.49     44.348 
 H                     1.944     54.895    43.552 
 H                     6.223     52.306    42.27 
 H                     5.832     49.268    39.438 
 H                     4.743     50.357    38.681 
 H                     4.085     49.414    40.05 
 H                     6.755     48.848    35.941 
 H                     8.45      48.904    35.651 
 H                     8.148     51.371    34.824 
 H                     5.112     49.094    33.903 
 H                     4.204     50.572    33.569 
 H                     4.627     50.037    35.244 
 H                     6.603     53.018    33.8 
 H                     5.181     52.394    33.126 
 H                     7.417     51.163    31.844 
 H                     7.849     52.887    32.106 
 H                     5.213     52.093    30.788 
 H                     6.725     52.264    29.911 
 H                     6.509     54.595    31.778 
 H                     4.733     55.726    31.08 
 H                     3.912     54.168    30.903 
 H                     4.512     55.028    29.518 
 H                     6.762     54.729    28.758 
 H                     7.961     53.934    29.77 
 H                     7.239     56.733    30.74 
 H                     8.248     56.656    29.314 
 H                     9.05      54.991    31.568 
 H                     9.401     56.71     31.563 
 H                     10.08     55.324    28.985 
 H                     12.178    54.812    30.926 
 H                     11.604    53.904    29.524 
 H                     10.688    53.856    30.977 
 H                     11.995    57.108    30.521 
 H                     10.59     57.759    29.885 
 H                     11.3      57.856    27.692 
 H                     11.916    56.191    27.818 
 H                     13.26     58.282    29.454 
 H                     13.195    58.631    27.732 
 H                     14.188    55.882    28.542 
 H                     16.537    57.133    28.708 
 H                     15.525    56.762    30.058 
 H                     15.56     58.433    29.378 
 H                     14.953    55.691    26.671 
 H                     15.81     57.275    26.641 
 H                     14.088    57.151    26.091 
 
 ITRead=  0  0  0  0  0  0  0  0  0  0  0  0  0  0  0  0  0  0  0  0
 ITRead=  0  0  0  0  0  0  0  0  0  0  0  0  0  0  0  0  0  0  0  0
 ITRead=  0  0  0  0  0  0  0  0  0  0  0  0  0  0  0  0  0  0  0  0
 ITRead=  0  0  0  0  0  0  0  0  0  0  0  0  0  0  0  0  0  0  0  0
 ITRead=  0  0  0  0  0  0  0  0  0  0  0  0  0  0  0  0  0  0  0  0
 ITRead=  0  0  0  0  0  0  0  0  0  0  0  0  0  0  0  0  0  0  0  0
 ITRead=  0  0  0  0  0  0  0  0  0  0  0  0  0  0  0  0  0  0  0  0
 MicOpt= -1 -1 -1 -1 -1 -1 -1 -1 -1 -1 -1 -1 -1 -1 -1 -1 -1 -1 -1 -1
 MicOpt= -1 -1 -1 -1 -1 -1 -1 -1 -1 -1 -1 -1 -1 -1 -1 -1 -1 -1 -1 -1
 MicOpt= -1 -1 -1 -1 -1 -1 -1 -1 -1 -1 -1 -1 -1 -1 -1 -1 -1 -1 -1 -1
 MicOpt= -1 -1 -1 -1 -1 -1 -1 -1 -1 -1 -1 -1 -1 -1 -1 -1 -1 -1 -1 -1
 MicOpt= -1 -1 -1 -1 -1 -1 -1 -1 -1 -1 -1 -1 -1 -1 -1 -1 -1 -1 -1 -1
 MicOpt= -1 -1 -1 -1 -1 -1 -1 -1 -1 -1 -1 -1 -1 -1 -1 -1 -1 -1 -1 -1
 MicOpt= -1 -1 -1 -1 -1 -1 -1 -1 -1 -1 -1 -1 -1 -1 -1 -1 -1 -1 -1 -1
 NAtoms=    140 NQM=      140 NQMF=       0 NMMI=      0 NMMIF=      0
                NMic=       0 NMicF=      0.
                    Isotopes and Nuclear Properties:
 (Nuclear quadrupole moments (NQMom) in fm**2, nuclear magnetic moments (NMagM)
  in nuclear magnetons)

  Atom         1           2           3           4           5           6           7           8           9          10
 IAtWgt=          24          12          12          12          12          14          12          12          12          12
 AtmWgt=  23.9850450  12.0000000  12.0000000  12.0000000  12.0000000  14.0030740  12.0000000  12.0000000  12.0000000  12.0000000
 NucSpn=           0           0           0           0           0           2           0           0           0           0
 AtZEff=  -0.0000000  -0.0000000  -0.0000000  -0.0000000  -0.0000000  -0.0000000  -0.0000000  -0.0000000  -0.0000000  -0.0000000
 NQMom=    0.0000000   0.0000000   0.0000000   0.0000000   0.0000000   2.0440000   0.0000000   0.0000000   0.0000000   0.0000000
 NMagM=    0.0000000   0.0000000   0.0000000   0.0000000   0.0000000   0.4037610   0.0000000   0.0000000   0.0000000   0.0000000
 AtZNuc=  12.0000000   6.0000000   6.0000000   6.0000000   6.0000000   7.0000000   6.0000000   6.0000000   6.0000000   6.0000000

  Atom        11          12          13          14          15          16          17          18          19          20
 IAtWgt=          12          12          12          12          16          16          14          12          12          12
 AtmWgt=  12.0000000  12.0000000  12.0000000  12.0000000  15.9949146  15.9949146  14.0030740  12.0000000  12.0000000  12.0000000
 NucSpn=           0           0           0           0           0           0           2           0           0           0
 AtZEff=  -0.0000000  -0.0000000  -0.0000000  -0.0000000  -0.0000000  -0.0000000  -0.0000000  -0.0000000  -0.0000000  -0.0000000
 NQMom=    0.0000000   0.0000000   0.0000000   0.0000000   0.0000000   0.0000000   2.0440000   0.0000000   0.0000000   0.0000000
 NMagM=    0.0000000   0.0000000   0.0000000   0.0000000   0.0000000   0.0000000   0.4037610   0.0000000   0.0000000   0.0000000
 AtZNuc=   6.0000000   6.0000000   6.0000000   6.0000000   8.0000000   8.0000000   7.0000000   6.0000000   6.0000000   6.0000000

  Atom        21          22          23          24          25          26          27          28          29          30
 IAtWgt=          12          12          12          16          12          14          12          12          12          12
 AtmWgt=  12.0000000  12.0000000  12.0000000  15.9949146  12.0000000  14.0030740  12.0000000  12.0000000  12.0000000  12.0000000
 NucSpn=           0           0           0           0           0           2           0           0           0           0
 AtZEff=  -0.0000000  -0.0000000  -0.0000000  -0.0000000  -0.0000000  -0.0000000  -0.0000000  -0.0000000  -0.0000000  -0.0000000
 NQMom=    0.0000000   0.0000000   0.0000000   0.0000000   0.0000000   2.0440000   0.0000000   0.0000000   0.0000000   0.0000000
 NMagM=    0.0000000   0.0000000   0.0000000   0.0000000   0.0000000   0.4037610   0.0000000   0.0000000   0.0000000   0.0000000
 AtZNuc=   6.0000000   6.0000000   6.0000000   8.0000000   6.0000000   7.0000000   6.0000000   6.0000000   6.0000000   6.0000000

  Atom        31          32          33          34          35          36          37          38          39          40
 IAtWgt=          12          12          12          14          12          12          12          12          12          12
 AtmWgt=  12.0000000  12.0000000  12.0000000  14.0030740  12.0000000  12.0000000  12.0000000  12.0000000  12.0000000  12.0000000
 NucSpn=           0           0           0           2           0           0           0           0           0           0
 AtZEff=  -0.0000000  -0.0000000  -0.0000000  -0.0000000  -0.0000000  -0.0000000  -0.0000000  -0.0000000  -0.0000000  -0.0000000
 NQMom=    0.0000000   0.0000000   0.0000000   2.0440000   0.0000000   0.0000000   0.0000000   0.0000000   0.0000000   0.0000000
 NMagM=    0.0000000   0.0000000   0.0000000   0.4037610   0.0000000   0.0000000   0.0000000   0.0000000   0.0000000   0.0000000
 AtZNuc=   6.0000000   6.0000000   6.0000000   7.0000000   6.0000000   6.0000000   6.0000000   6.0000000   6.0000000   6.0000000

  Atom        41          42          43          44          45          46          47          48          49          50
 IAtWgt=          16          12          12          16          16          12          12          12          12          12
 AtmWgt=  15.9949146  12.0000000  12.0000000  15.9949146  15.9949146  12.0000000  12.0000000  12.0000000  12.0000000  12.0000000
 NucSpn=           0           0           0           0           0           0           0           0           0           0
 AtZEff=  -0.0000000  -0.0000000  -0.0000000  -0.0000000  -0.0000000  -0.0000000  -0.0000000  -0.0000000  -0.0000000  -0.0000000
 NQMom=    0.0000000   0.0000000   0.0000000   0.0000000   0.0000000   0.0000000   0.0000000   0.0000000   0.0000000   0.0000000
 NMagM=    0.0000000   0.0000000   0.0000000   0.0000000   0.0000000   0.0000000   0.0000000   0.0000000   0.0000000   0.0000000
 AtZNuc=   8.0000000   6.0000000   6.0000000   8.0000000   8.0000000   6.0000000   6.0000000   6.0000000   6.0000000   6.0000000

  Atom        51          52          53          54          55          56          57          58          59          60
 IAtWgt=          12          12          12          12          12          12          12          12          12          12
 AtmWgt=  12.0000000  12.0000000  12.0000000  12.0000000  12.0000000  12.0000000  12.0000000  12.0000000  12.0000000  12.0000000
 NucSpn=           0           0           0           0           0           0           0           0           0           0
 AtZEff=  -0.0000000  -0.0000000  -0.0000000  -0.0000000  -0.0000000  -0.0000000  -0.0000000  -0.0000000  -0.0000000  -0.0000000
 NQMom=    0.0000000   0.0000000   0.0000000   0.0000000   0.0000000   0.0000000   0.0000000   0.0000000   0.0000000   0.0000000
 NMagM=    0.0000000   0.0000000   0.0000000   0.0000000   0.0000000   0.0000000   0.0000000   0.0000000   0.0000000   0.0000000
 AtZNuc=   6.0000000   6.0000000   6.0000000   6.0000000   6.0000000   6.0000000   6.0000000   6.0000000   6.0000000   6.0000000

  Atom        61          62          63          64          65          66          67          68          69          70
 IAtWgt=          12          12          12          12          12          12           1           1           1           1
 AtmWgt=  12.0000000  12.0000000  12.0000000  12.0000000  12.0000000  12.0000000   1.0078250   1.0078250   1.0078250   1.0078250
 NucSpn=           0           0           0           0           0           0           1           1           1           1
 AtZEff=  -0.0000000  -0.0000000  -0.0000000  -0.0000000  -0.0000000  -0.0000000  -0.0000000  -0.0000000  -0.0000000  -0.0000000
 NQMom=    0.0000000   0.0000000   0.0000000   0.0000000   0.0000000   0.0000000   0.0000000   0.0000000   0.0000000   0.0000000
 NMagM=    0.0000000   0.0000000   0.0000000   0.0000000   0.0000000   0.0000000   2.7928460   2.7928460   2.7928460   2.7928460
 AtZNuc=   6.0000000   6.0000000   6.0000000   6.0000000   6.0000000   6.0000000   1.0000000   1.0000000   1.0000000   1.0000000

  Atom        71          72          73          74          75          76          77          78          79          80
 IAtWgt=           1           1           1           1           1           1           1           1           1           1
 AtmWgt=   1.0078250   1.0078250   1.0078250   1.0078250   1.0078250   1.0078250   1.0078250   1.0078250   1.0078250   1.0078250
 NucSpn=           1           1           1           1           1           1           1           1           1           1
 AtZEff=  -0.0000000  -0.0000000  -0.0000000  -0.0000000  -0.0000000  -0.0000000  -0.0000000  -0.0000000  -0.0000000  -0.0000000
 NQMom=    0.0000000   0.0000000   0.0000000   0.0000000   0.0000000   0.0000000   0.0000000   0.0000000   0.0000000   0.0000000
 NMagM=    2.7928460   2.7928460   2.7928460   2.7928460   2.7928460   2.7928460   2.7928460   2.7928460   2.7928460   2.7928460
 AtZNuc=   1.0000000   1.0000000   1.0000000   1.0000000   1.0000000   1.0000000   1.0000000   1.0000000   1.0000000   1.0000000

  Atom        81          82          83          84          85          86          87          88          89          90
 IAtWgt=           1           1           1           1           1           1           1           1           1           1
 AtmWgt=   1.0078250   1.0078250   1.0078250   1.0078250   1.0078250   1.0078250   1.0078250   1.0078250   1.0078250   1.0078250
 NucSpn=           1           1           1           1           1           1           1           1           1           1
 AtZEff=  -0.0000000  -0.0000000  -0.0000000  -0.0000000  -0.0000000  -0.0000000  -0.0000000  -0.0000000  -0.0000000  -0.0000000
 NQMom=    0.0000000   0.0000000   0.0000000   0.0000000   0.0000000   0.0000000   0.0000000   0.0000000   0.0000000   0.0000000
 NMagM=    2.7928460   2.7928460   2.7928460   2.7928460   2.7928460   2.7928460   2.7928460   2.7928460   2.7928460   2.7928460
 AtZNuc=   1.0000000   1.0000000   1.0000000   1.0000000   1.0000000   1.0000000   1.0000000   1.0000000   1.0000000   1.0000000

  Atom        91          92          93          94          95          96          97          98          99         100
 IAtWgt=           1           1           1           1           1           1           1           1           1           1
 AtmWgt=   1.0078250   1.0078250   1.0078250   1.0078250   1.0078250   1.0078250   1.0078250   1.0078250   1.0078250   1.0078250
 NucSpn=           1           1           1           1           1           1           1           1           1           1
 AtZEff=  -0.0000000  -0.0000000  -0.0000000  -0.0000000  -0.0000000  -0.0000000  -0.0000000  -0.0000000  -0.0000000  -0.0000000
 NQMom=    0.0000000   0.0000000   0.0000000   0.0000000   0.0000000   0.0000000   0.0000000   0.0000000   0.0000000   0.0000000
 NMagM=    2.7928460   2.7928460   2.7928460   2.7928460   2.7928460   2.7928460   2.7928460   2.7928460   2.7928460   2.7928460
 AtZNuc=   1.0000000   1.0000000   1.0000000   1.0000000   1.0000000   1.0000000   1.0000000   1.0000000   1.0000000   1.0000000

  Atom       101         102         103         104         105         106         107         108         109         110
 IAtWgt=           1           1           1           1           1           1           1           1           1           1
 AtmWgt=   1.0078250   1.0078250   1.0078250   1.0078250   1.0078250   1.0078250   1.0078250   1.0078250   1.0078250   1.0078250
 NucSpn=           1           1           1           1           1           1           1           1           1           1
 AtZEff=  -0.0000000  -0.0000000  -0.0000000  -0.0000000  -0.0000000  -0.0000000  -0.0000000  -0.0000000  -0.0000000  -0.0000000
 NQMom=    0.0000000   0.0000000   0.0000000   0.0000000   0.0000000   0.0000000   0.0000000   0.0000000   0.0000000   0.0000000
 NMagM=    2.7928460   2.7928460   2.7928460   2.7928460   2.7928460   2.7928460   2.7928460   2.7928460   2.7928460   2.7928460
 AtZNuc=   1.0000000   1.0000000   1.0000000   1.0000000   1.0000000   1.0000000   1.0000000   1.0000000   1.0000000   1.0000000

  Atom       111         112         113         114         115         116         117         118         119         120
 IAtWgt=           1           1           1           1           1           1           1           1           1           1
 AtmWgt=   1.0078250   1.0078250   1.0078250   1.0078250   1.0078250   1.0078250   1.0078250   1.0078250   1.0078250   1.0078250
 NucSpn=           1           1           1           1           1           1           1           1           1           1
 AtZEff=  -0.0000000  -0.0000000  -0.0000000  -0.0000000  -0.0000000  -0.0000000  -0.0000000  -0.0000000  -0.0000000  -0.0000000
 NQMom=    0.0000000   0.0000000   0.0000000   0.0000000   0.0000000   0.0000000   0.0000000   0.0000000   0.0000000   0.0000000
 NMagM=    2.7928460   2.7928460   2.7928460   2.7928460   2.7928460   2.7928460   2.7928460   2.7928460   2.7928460   2.7928460
 AtZNuc=   1.0000000   1.0000000   1.0000000   1.0000000   1.0000000   1.0000000   1.0000000   1.0000000   1.0000000   1.0000000

  Atom       121         122         123         124         125         126         127         128         129         130
 IAtWgt=           1           1           1           1           1           1           1           1           1           1
 AtmWgt=   1.0078250   1.0078250   1.0078250   1.0078250   1.0078250   1.0078250   1.0078250   1.0078250   1.0078250   1.0078250
 NucSpn=           1           1           1           1           1           1           1           1           1           1
 AtZEff=  -0.0000000  -0.0000000  -0.0000000  -0.0000000  -0.0000000  -0.0000000  -0.0000000  -0.0000000  -0.0000000  -0.0000000
 NQMom=    0.0000000   0.0000000   0.0000000   0.0000000   0.0000000   0.0000000   0.0000000   0.0000000   0.0000000   0.0000000
 NMagM=    2.7928460   2.7928460   2.7928460   2.7928460   2.7928460   2.7928460   2.7928460   2.7928460   2.7928460   2.7928460
 AtZNuc=   1.0000000   1.0000000   1.0000000   1.0000000   1.0000000   1.0000000   1.0000000   1.0000000   1.0000000   1.0000000

  Atom       131         132         133         134         135         136         137         138         139         140
 IAtWgt=           1           1           1           1           1           1           1           1           1           1
 AtmWgt=   1.0078250   1.0078250   1.0078250   1.0078250   1.0078250   1.0078250   1.0078250   1.0078250   1.0078250   1.0078250
 NucSpn=           1           1           1           1           1           1           1           1           1           1
 AtZEff=  -0.0000000  -0.0000000  -0.0000000  -0.0000000  -0.0000000  -0.0000000  -0.0000000  -0.0000000  -0.0000000  -0.0000000
 NQMom=    0.0000000   0.0000000   0.0000000   0.0000000   0.0000000   0.0000000   0.0000000   0.0000000   0.0000000   0.0000000
 NMagM=    2.7928460   2.7928460   2.7928460   2.7928460   2.7928460   2.7928460   2.7928460   2.7928460   2.7928460   2.7928460
 AtZNuc=   1.0000000   1.0000000   1.0000000   1.0000000   1.0000000   1.0000000   1.0000000   1.0000000   1.0000000   1.0000000
 Leave Link  101 at Sat Apr 30 05:57:41 2022, MaxMem=  6710886400 cpu:               3.0 elap:               0.1
 (Enter /sw/apps/gaussian-16.0/g16/l202.exe)
 Stoichiometry    C55H74MgN4O6
 Framework group  C1[X(C55H74MgN4O6)]
 Deg. of freedom   414
 Full point group                 C1      NOp   1
 Largest Abelian subgroup         C1      NOp   1
 Largest concise Abelian subgroup C1      NOp   1
                         Standard orientation:                         
 ---------------------------------------------------------------------
 Center     Atomic      Atomic             Coordinates (Angstroms)
 Number     Number       Type             X           Y           Z
 ---------------------------------------------------------------------
      1         12           0        4.148665    1.284459   -0.541650
      2          6           0        3.677511   -2.154085   -1.031572
      3          6           0        1.568100    1.784994   -2.883171
      4          6           0        4.086316    4.480120    0.295778
      5          6           0        6.357534    0.598972    1.954533
      6          7           0        2.685839   -0.072376   -1.853698
      7          6           0        2.794751   -1.443565   -1.880901
      8          6           0        1.781900   -1.988346   -2.838233
      9          6           0        1.332884   -0.736493   -3.665340
     10          6           0        1.876211    0.416934   -2.815753
     11          6           0        1.806139   -0.692826   -5.081485
     12          6           0        0.558258   -2.748631   -2.203771
     13          6           0        0.001693   -3.995613   -2.902779
     14          6           0       -1.441295   -4.429462   -2.751118
     15          8           0       -2.415208   -4.126594   -3.436048
     16          8           0       -1.513244   -5.220333   -1.688388
     17          7           0        2.974837    2.918905   -1.158418
     18          6           0        2.017910    2.900110   -2.120105
     19          6           0        1.466159    4.203388   -2.278976
     20          6           0        2.102053    5.112494   -1.409169
     21          6           0        3.124204    4.152964   -0.729194
     22          6           0        0.451205    4.506408   -3.342114
     23          6           0        1.779950    6.589927   -1.224159
     24          8           0        1.110452    7.235186   -2.001115
     25          6           0        2.458256    7.197503   -0.076122
     26          7           0        5.058990    2.374125    1.024227
     27          6           0        4.930044    3.716917    1.053921
     28          6           0        6.042500    4.328670    2.041114
     29          6           0        6.809173    3.049037    2.479563
     30          6           0        6.047836    1.931061    1.782199
     31          6           0        6.999266    5.454204    1.438231
     32          6           0        6.966885    2.960760    4.001728
     33          6           0        8.402373    2.751383    4.604808
     34          7           0        4.940198   -0.412716    0.344846
     35          6           0        5.858881   -0.567293    1.308297
     36          6           0        6.278503   -1.973192    1.389555
     37          6           0        5.338191   -2.629004    0.543537
     38          6           0        4.663406   -1.652717   -0.109121
     39          6           0        7.276500   -2.558610    2.279955
     40          6           0        4.971292   -3.943937    0.033319
     41          8           0        5.315783   -5.103144    0.174944
     42          6           0        3.786075   -3.633748   -0.938467
     43          6           0        2.664734   -4.478151   -0.314952
     44          8           0        1.978899   -4.198285    0.642923
     45          8           0        2.549885   -5.610314   -1.117157
     46          6           0        1.574481   -6.666189   -0.671771
     47          6           0       -2.855841   -5.707897   -1.413917
     48          6           0       -3.398893   -4.754780   -0.325387
     49          6           0       -3.637753   -4.947247    0.937881
     50          6           0       -3.304768   -6.231784    1.691213
     51          6           0       -4.195916   -3.824731    1.794634
     52          6           0       -5.617867   -3.407050    1.665620
     53          6           0       -6.325313   -3.310079    3.082955
     54          6           0       -5.947852   -1.900456    3.620711
     55          6           0       -5.549088   -1.977915    5.138647
     56          6           0       -7.166893   -0.952054    3.420779
     57          6           0       -6.730194    0.621570    3.118926
     58          6           0       -6.616732    0.905323    1.648480
     59          6           0       -7.917607    1.262247    1.042531
     60          6           0       -8.138275    0.612881   -0.291968
     61          6           0       -8.159026    2.758407    0.884321
     62          6           0       -9.609387    3.294871    1.095007
     63          6           0       -9.848900    4.500201    0.136607
     64          6           0      -10.668158    4.210603   -1.165630
     65          6           0      -10.172882    5.064610   -2.265749
     66          6           0      -12.202663    4.322345   -0.897878
     67          1           0        0.784517    1.922174   -3.630761
     68          1           0        4.162541    5.538033    0.558168
     69          1           0        7.066710    0.435560    2.768134
     70          1           0        2.205530   -2.633942   -3.607772
     71          1           0        0.253247   -0.592560   -3.707583
     72          1           0        2.007228   -1.590829   -5.664777
     73          1           0        2.685425   -0.050267   -5.126480
     74          1           0        1.106281   -0.166485   -5.730438
     75          1           0       -0.258161   -2.027815   -2.152652
     76          1           0        0.734103   -3.027725   -1.165273
     77          1           0        0.571266   -4.825859   -2.486062
     78          1           0        0.198385   -3.943979   -3.972972
     79          1           0       -0.303636    3.751499   -3.563083
     80          1           0        0.998717    4.904752   -4.196213
     81          1           0       -0.127754    5.398241   -3.101935
     82          1           0        3.540731    7.165626   -0.201737
     83          1           0        2.282360    6.474995    0.720739
     84          1           0        2.142913    8.219342    0.132005
     85          1           0        5.522416    4.710304    2.920148
     86          1           0        7.801917    2.967763    2.037766
     87          1           0        6.916149    6.327199    2.086301
     88          1           0        6.707532    5.738300    0.427564
     89          1           0        8.068361    5.246225    1.483301
     90          1           0        6.490591    2.065159    4.399179
     91          1           0        6.623895    3.866442    4.503594
     92          1           0        8.353137    2.928660    5.679690
     93          1           0        9.226520    3.383448    4.271633
     94          1           0        8.758724    1.735123    4.437230
     95          1           0        7.122906   -2.416380    3.349635
     96          1           0        8.237857   -2.088836    2.069734
     97          1           0        7.285598   -3.627720    2.065102
     98          1           0        4.019077   -4.073434   -1.908242
     99          1           0        0.938013   -6.860929   -1.534786
    100          1           0        0.879002   -6.312946    0.090367
    101          1           0        2.156181   -7.504784   -0.290043
    102          1           0       -2.658597   -6.694017   -0.992685
    103          1           0       -3.522408   -5.904008   -2.253628
    104          1           0       -3.633202   -3.772060   -0.735819
    105          1           0       -3.860743   -7.089378    1.312081
    106          1           0       -3.517796   -6.130899    2.755760
    107          1           0       -2.266075   -6.504038    1.504864
    108          1           0       -3.649650   -2.904727    1.587040
    109          1           0       -3.881221   -4.048809    2.813085
    110          1           0       -6.117264   -4.145485    1.038445
    111          1           0       -5.665126   -2.415827    1.215359
    112          1           0       -6.078648   -4.206408    3.652340
    113          1           0       -7.384139   -3.365952    2.831462
    114          1           0       -5.111123   -1.435372    3.100096
    115          1           0       -4.859225   -1.146699    5.284989
    116          1           0       -5.057937   -2.897073    5.456569
    117          1           0       -6.346508   -1.804320    5.860676
    118          1           0       -7.913675   -1.076419    4.204280
    119          1           0       -7.599880   -1.322873    2.491224
    120          1           0       -5.857142    0.851423    3.728918
    121          1           0       -7.532190    1.275896    3.461484
    122          1           0       -6.135096    0.020871    1.232362
    123          1           0       -5.896988    1.722725    1.586176
    124          1           0       -8.779288    0.873924    1.584823
    125          1           0       -7.886811    1.228593   -1.155418
    126          1           0       -9.146466    0.223210   -0.432910
    127          1           0       -7.507413   -0.275320   -0.300468
    128          1           0       -7.694523    3.239189    0.023419
    129          1           0       -7.623678    3.251224    1.695890
    130          1           0       -9.849094    3.737345    2.061907
    131          1           0      -10.315390    2.493805    0.877115
    132          1           0       -8.867486    4.886872   -0.138718
    133          1           0      -10.331250    5.247754    0.765975
    134          1           0      -10.546300    3.158473   -1.422132
    135          1           0      -10.975939    5.287717   -2.968771
    136          1           0       -9.465064    4.460978   -2.834448
    137          1           0       -9.735433    6.012927   -1.954550
    138          1           0      -12.561375    3.394508   -1.343980
    139          1           0      -12.557888    5.192661   -1.449039
    140          1           0      -12.461025    4.365740    0.160302
 ---------------------------------------------------------------------
 Rotational constants (GHZ):           0.0289530           0.0164601           0.0128157
 Leave Link  202 at Sat Apr 30 05:57:41 2022, MaxMem=  6710886400 cpu:               0.2 elap:               0.0
 (Enter /sw/apps/gaussian-16.0/g16/l301.exe)
 Standard basis: VSTO-6G (5D, 7F)
 Ernie: Thresh=  0.10000D-02 Tol=  0.10000D-05 Strict=F.
 There are   338 symmetry adapted cartesian basis functions of A   symmetry.
 There are   338 symmetry adapted basis functions of A   symmetry.
   338 basis functions,  2028 primitive gaussians,   338 cartesian basis functions
   176 alpha electrons      176 beta electrons
       nuclear repulsion energy      4964.2044965103 Hartrees.
 IExCor=    0 DFT=F Ex=HF Corr=None ExCW=0 ScaHFX=  1.000000
 ScaDFX=  1.000000  1.000000  1.000000  1.000000 ScalE2=  1.000000  1.000000
 IRadAn=      5 IRanWt=     -1 IRanGd=            0 ICorTp=0 IEmpDi=  4
 Integral buffers will be    131072 words long.
 Regular integral format.
 Two-electron integral symmetry is turned off.
 Leave Link  301 at Sat Apr 30 05:57:42 2022, MaxMem=  6710886400 cpu:               1.9 elap:               0.1
 (Enter /sw/apps/gaussian-16.0/g16/l302.exe)
 Do NDO integrals.
 NPDir=0 NMtPBC=     1 NCelOv=     1 NCel=       1 NClECP=     1 NCelD=      1
         NCelK=      1 NCelE2=     1 NClLst=     1 CellRange=     0.0.
 One-electron integrals computed using PRISM.
 Generate ZINDO/S integrals.
 NDO Nuclear repulsion=  4476.119266087253 Hartrees.
 NBasis=   338 RedAO= F EigKep=  0.00D+00  NBF=   338
 NBsUse=   338 1.00D-04 EigRej=  0.00D+00 NBFU=   338
 Leave Link  302 at Sat Apr 30 05:57:42 2022, MaxMem=  6710886400 cpu:               9.5 elap:               0.4
 (Enter /sw/apps/gaussian-16.0/g16/l303.exe)
 DipDrv:  MaxL=1.
 DipDrv:  will hold  3 matrices at once.
 Leave Link  303 at Sat Apr 30 05:57:42 2022, MaxMem=  6710886400 cpu:               0.6 elap:               0.0
 (Enter /sw/apps/gaussian-16.0/g16/l308.exe)
 Leave Link  308 at Sat Apr 30 05:57:42 2022, MaxMem=  6710886400 cpu:               4.5 elap:               0.2
 (Enter /sw/apps/gaussian-16.0/g16/l401.exe)
 Simple Huckel Guess.
 JPrj=0 DoOrth=F DoCkMO=F.
 Leave Link  401 at Sat Apr 30 05:57:42 2022, MaxMem=  6710886400 cpu:               3.1 elap:               0.2
 (Enter /sw/apps/gaussian-16.0/g16/l502.exe)
 Two-electron integral symmetry not used.
 Closed shell SCF:
 Using DIIS extrapolation, IDIIS=  1040.
 Overlap will be assumed to be unity.
 NGot=  6710886400 LenX=  6710643598 LenY=  6710528913
 Requested convergence on RMS density matrix=1.00D-08 within 128 cycles.
 Requested convergence on MAX density matrix=1.00D-06.
 Requested convergence on             energy=1.00D-06.
 No special actions if energy rises.
 Fock matrices will be formed incrementally for  20 cycles.

 Cycle   1  Pass 1  IDiag  1:
 E= -472.703219903233    
 DIIS: error= 5.74D-02 at cycle   1 NSaved=   1.
 NSaved= 1 IEnMin= 1 EnMin= -472.703219903233     IErMin= 1 ErrMin= 5.74D-02
 ErrMax= 5.74D-02  0.00D+00 EMaxC= 1.00D-01 BMatC= 8.36D-01 BMatP= 8.36D-01
 IDIUse=3 WtCom= 4.26D-01 WtEn= 5.74D-01
 Coeff-Com:  0.100D+01
 Coeff-En:   0.100D+01
 Coeff:      0.100D+01
 GapD=    2.000 DampG=2.000 DampE=0.500 DampFc=1.0000 IDamp=-1.
 RMSDP=3.98D-03 MaxDP=1.59D-01              OVMax= 0.00D+00

 Cycle   2  Pass 1  IDiag  1:
 RMSU=  3.98D-03    CP:  9.95D-01
 E= -474.542591414238     Delta-E=       -1.839371511005 Rises=F Damp=F
 DIIS: error= 1.95D-02 at cycle   2 NSaved=   2.
 NSaved= 2 IEnMin= 2 EnMin= -474.542591414238     IErMin= 2 ErrMin= 1.95D-02
 ErrMax= 1.95D-02  0.00D+00 EMaxC= 1.00D-01 BMatC= 5.03D-02 BMatP= 8.36D-01
 IDIUse=3 WtCom= 8.05D-01 WtEn= 1.95D-01
 Coeff-Com: -0.818D-01 0.108D+01
 Coeff-En:   0.000D+00 0.100D+01
 Coeff:     -0.658D-01 0.107D+01
 RMSDP=1.09D-03 MaxDP=4.50D-02 DE=-1.84D+00 OVMax= 0.00D+00

 Cycle   3  Pass 1  IDiag  1:
 RMSU=  9.99D-04    CP:  9.93D-01  1.11D+00
 E= -474.643864160369     Delta-E=       -0.101272746131 Rises=F Damp=F
 DIIS: error= 7.60D-03 at cycle   3 NSaved=   3.
 NSaved= 3 IEnMin= 3 EnMin= -474.643864160369     IErMin= 3 ErrMin= 7.60D-03
 ErrMax= 7.60D-03  0.00D+00 EMaxC= 1.00D-01 BMatC= 6.44D-03 BMatP= 5.03D-02
 IDIUse=3 WtCom= 9.24D-01 WtEn= 7.60D-02
 Coeff-Com: -0.659D-01 0.232D+00 0.833D+00
 Coeff-En:   0.000D+00 0.000D+00 0.100D+01
 Coeff:     -0.609D-01 0.215D+00 0.846D+00
 RMSDP=3.50D-04 MaxDP=1.46D-02 DE=-1.01D-01 OVMax= 0.00D+00

 Cycle   4  Pass 1  IDiag  1:
 RMSU=  2.29D-04    CP:  9.93D-01  1.17D+00  9.36D-01
 E= -474.655606981822     Delta-E=       -0.011742821453 Rises=F Damp=F
 DIIS: error= 1.08D-03 at cycle   4 NSaved=   4.
 NSaved= 4 IEnMin= 4 EnMin= -474.655606981822     IErMin= 4 ErrMin= 1.08D-03
 ErrMax= 1.08D-03  0.00D+00 EMaxC= 1.00D-01 BMatC= 2.67D-04 BMatP= 6.44D-03
 IDIUse=3 WtCom= 9.89D-01 WtEn= 1.08D-02
 Coeff-Com:  0.196D-02-0.407D-01 0.592D-02 0.103D+01
 Coeff-En:   0.000D+00 0.000D+00 0.000D+00 0.100D+01
 Coeff:      0.194D-02-0.403D-01 0.586D-02 0.103D+01
 RMSDP=1.31D-04 MaxDP=5.75D-03 DE=-1.17D-02 OVMax= 0.00D+00

 Cycle   5  Pass 1  IDiag  1:
 RMSU=  8.53D-05    CP:  9.93D-01  1.18D+00  1.03D+00  1.13D+00
 E= -474.656608748740     Delta-E=       -0.001001766918 Rises=F Damp=F
 DIIS: error= 6.16D-04 at cycle   5 NSaved=   5.
 NSaved= 5 IEnMin= 5 EnMin= -474.656608748740     IErMin= 5 ErrMin= 6.16D-04
 ErrMax= 6.16D-04  0.00D+00 EMaxC= 1.00D-01 BMatC= 5.23D-05 BMatP= 2.67D-04
 IDIUse=3 WtCom= 9.94D-01 WtEn= 6.16D-03
 Coeff-Com:  0.584D-02-0.234D-01-0.930D-01 0.180D+00 0.930D+00
 Coeff-En:   0.000D+00 0.000D+00 0.000D+00 0.000D+00 0.100D+01
 Coeff:      0.580D-02-0.233D-01-0.924D-01 0.179D+00 0.931D+00
 RMSDP=6.13D-05 MaxDP=1.78D-03 DE=-1.00D-03 OVMax= 0.00D+00

 Cycle   6  Pass 1  IDiag  1:
 RMSU=  3.44D-05    CP:  9.92D-01  1.18D+00  1.05D+00  1.31D+00  1.24D+00
 E= -474.656817687160     Delta-E=       -0.000208938420 Rises=F Damp=F
 DIIS: error= 1.89D-04 at cycle   6 NSaved=   6.
 NSaved= 6 IEnMin= 6 EnMin= -474.656817687160     IErMin= 6 ErrMin= 1.89D-04
 ErrMax= 1.89D-04  0.00D+00 EMaxC= 1.00D-01 BMatC= 7.73D-06 BMatP= 5.23D-05
 IDIUse=3 WtCom= 9.98D-01 WtEn= 1.89D-03
 Coeff-Com: -0.722D-03 0.780D-02-0.609D-02-0.116D+00-0.417D-01 0.116D+01
 Coeff-En:   0.000D+00 0.000D+00 0.000D+00 0.000D+00 0.000D+00 0.100D+01
 Coeff:     -0.721D-03 0.779D-02-0.608D-02-0.116D+00-0.417D-01 0.116D+01
 RMSDP=4.94D-05 MaxDP=1.42D-03 DE=-2.09D-04 OVMax= 0.00D+00

 Cycle   7  Pass 1  IDiag  1:
 RMSU=  1.94D-05    CP:  9.92D-01  1.18D+00  1.05D+00  1.38D+00  1.63D+00
                    CP:  1.74D+00
 E= -474.656896283718     Delta-E=       -0.000078596559 Rises=F Damp=F
 DIIS: error= 1.13D-04 at cycle   7 NSaved=   7.
 NSaved= 7 IEnMin= 7 EnMin= -474.656896283718     IErMin= 7 ErrMin= 1.13D-04
 ErrMax= 1.13D-04  0.00D+00 EMaxC= 1.00D-01 BMatC= 3.07D-06 BMatP= 7.73D-06
 IDIUse=3 WtCom= 9.99D-01 WtEn= 1.13D-03
 Coeff-Com: -0.798D-03 0.267D-02 0.135D-01-0.381D-02-0.171D+00-0.534D-01
 Coeff-Com:  0.121D+01
 Coeff-En:   0.000D+00 0.000D+00 0.000D+00 0.000D+00 0.000D+00 0.000D+00
 Coeff-En:   0.100D+01
 Coeff:     -0.797D-03 0.266D-02 0.135D-01-0.380D-02-0.171D+00-0.534D-01
 Coeff:      0.121D+01
 RMSDP=4.07D-05 MaxDP=1.09D-03 DE=-7.86D-05 OVMax= 0.00D+00

 Cycle   8  Pass 1  IDiag  1:
 RMSU=  6.94D-06    CP:  9.92D-01  1.18D+00  1.06D+00  1.43D+00  1.88D+00
                    CP:  2.51D+00  1.94D+00
 E= -474.656943438568     Delta-E=       -0.000047154850 Rises=F Damp=F
 DIIS: error= 7.02D-05 at cycle   8 NSaved=   8.
 NSaved= 8 IEnMin= 8 EnMin= -474.656943438568     IErMin= 8 ErrMin= 7.02D-05
 ErrMax= 7.02D-05  0.00D+00 EMaxC= 1.00D-01 BMatC= 1.55D-06 BMatP= 3.07D-06
 IDIUse=1 WtCom= 1.00D+00 WtEn= 0.00D+00
 Coeff-Com:  0.596D-03-0.436D-02-0.133D-02 0.525D-01 0.517D-01-0.362D+00
 Coeff-Com: -0.824D+00 0.209D+01
 Coeff:      0.596D-03-0.436D-02-0.133D-02 0.525D-01 0.517D-01-0.362D+00
 Coeff:     -0.824D+00 0.209D+01
 RMSDP=6.59D-05 MaxDP=1.61D-03 DE=-4.72D-05 OVMax= 0.00D+00

 Cycle   9  Pass 1  IDiag  1:
 RMSU=  2.95D-05    CP:  9.92D-01  1.18D+00  1.06D+00  1.48D+00  2.25D+00
                    CP:  3.00D+00  3.00D+00  2.63D+00
 E= -474.656994355038     Delta-E=       -0.000050916470 Rises=F Damp=F
 DIIS: error= 6.22D-05 at cycle   9 NSaved=   9.
 NSaved= 9 IEnMin= 9 EnMin= -474.656994355038     IErMin= 9 ErrMin= 6.22D-05
 ErrMax= 6.22D-05  0.00D+00 EMaxC= 1.00D-01 BMatC= 7.07D-07 BMatP= 1.55D-06
 IDIUse=1 WtCom= 1.00D+00 WtEn= 0.00D+00
 Coeff-Com:  0.387D-03-0.112D-02-0.703D-02-0.663D-02 0.100D+00 0.918D-01
 Coeff-Com: -0.971D+00 0.268D+00 0.153D+01
 Coeff:      0.387D-03-0.112D-02-0.703D-02-0.663D-02 0.100D+00 0.918D-01
 Coeff:     -0.971D+00 0.268D+00 0.153D+01
 RMSDP=6.05D-05 MaxDP=1.51D-03 DE=-5.09D-05 OVMax= 0.00D+00

 Cycle  10  Pass 1  IDiag  1:
 RMSU=  1.56D-05    CP:  9.92D-01  1.18D+00  1.06D+00  1.54D+00  2.58D+00
                    CP:  3.00D+00  3.00D+00  3.00D+00  2.67D+00
 E= -474.657017832630     Delta-E=       -0.000023477592 Rises=F Damp=F
 DIIS: error= 2.59D-05 at cycle  10 NSaved=  10.
 NSaved=10 IEnMin=10 EnMin= -474.657017832630     IErMin=10 ErrMin= 2.59D-05
 ErrMax= 2.59D-05  0.00D+00 EMaxC= 1.00D-01 BMatC= 1.07D-07 BMatP= 7.07D-07
 IDIUse=1 WtCom= 1.00D+00 WtEn= 0.00D+00
 Coeff-Com: -0.165D-03 0.129D-02 0.206D-03-0.196D-01 0.803D-03 0.119D+00
 Coeff-Com:  0.205D+00-0.477D+00-0.140D+00 0.131D+01
 Coeff:     -0.165D-03 0.129D-02 0.206D-03-0.196D-01 0.803D-03 0.119D+00
 Coeff:      0.205D+00-0.477D+00-0.140D+00 0.131D+01
 RMSDP=1.77D-05 MaxDP=4.26D-04 DE=-2.35D-05 OVMax= 0.00D+00

 Cycle  11  Pass 1  IDiag  1:
 RMSU=  6.04D-06    CP:  9.92D-01  1.18D+00  1.06D+00  1.55D+00  2.66D+00
                    CP:  3.00D+00  3.00D+00  3.00D+00  3.00D+00  1.35D+00
 E= -474.657020494163     Delta-E=       -0.000002661533 Rises=F Damp=F
 DIIS: error= 9.43D-06 at cycle  11 NSaved=  11.
 NSaved=11 IEnMin=11 EnMin= -474.657020494163     IErMin=11 ErrMin= 9.43D-06
 ErrMax= 9.43D-06  0.00D+00 EMaxC= 1.00D-01 BMatC= 3.21D-08 BMatP= 1.07D-07
 IDIUse=1 WtCom= 1.00D+00 WtEn= 0.00D+00
 Coeff-Com: -0.772D-04 0.312D-03 0.134D-02-0.259D-02-0.111D-01-0.125D-01
 Coeff-Com:  0.181D+00-0.109D+00-0.353D+00 0.252D+00 0.105D+01
 Coeff:     -0.772D-04 0.312D-03 0.134D-02-0.259D-02-0.111D-01-0.125D-01
 Coeff:      0.181D+00-0.109D+00-0.353D+00 0.252D+00 0.105D+01
 RMSDP=1.18D-05 MaxDP=2.89D-04 DE=-2.66D-06 OVMax= 0.00D+00

 Cycle  12  Pass 1  IDiag  1:
 RMSU=  4.55D-06    CP:  9.92D-01  1.18D+00  1.06D+00  1.56D+00  2.71D+00
                    CP:  3.00D+00  3.00D+00  3.00D+00  3.00D+00  1.60D+00
                    CP:  2.42D+00
 E= -474.657021090240     Delta-E=       -0.000000596077 Rises=F Damp=F
 DIIS: error= 5.49D-06 at cycle  12 NSaved=  12.
 NSaved=12 IEnMin=12 EnMin= -474.657021090240     IErMin=12 ErrMin= 5.49D-06
 ErrMax= 5.49D-06  0.00D+00 EMaxC= 1.00D-01 BMatC= 4.42D-09 BMatP= 3.21D-08
 IDIUse=1 WtCom= 1.00D+00 WtEn= 0.00D+00
 Coeff-Com:  0.318D-04-0.265D-03 0.151D-03 0.357D-02 0.966D-03-0.311D-01
 Coeff-Com: -0.195D-01 0.116D+00-0.169D-01-0.259D+00 0.816D-01 0.112D+01
 Coeff:      0.318D-04-0.265D-03 0.151D-03 0.357D-02 0.966D-03-0.311D-01
 Coeff:     -0.195D-01 0.116D+00-0.169D-01-0.259D+00 0.816D-01 0.112D+01
 RMSDP=9.71D-07 MaxDP=3.68D-05 DE=-5.96D-07 OVMax= 0.00D+00

 Cycle  13  Pass 1  IDiag  1:
 RMSU=  6.29D-07    CP:  9.92D-01  1.18D+00  1.06D+00  1.56D+00  2.71D+00
                    CP:  3.00D+00  3.00D+00  3.00D+00  3.00D+00  1.61D+00
                    CP:  2.51D+00  9.06D-01
 E= -474.657021117994     Delta-E=       -0.000000027754 Rises=F Damp=F
 DIIS: error= 1.94D-06 at cycle  13 NSaved=  13.
 NSaved=13 IEnMin=13 EnMin= -474.657021117994     IErMin=13 ErrMin= 1.94D-06
 ErrMax= 1.94D-06  0.00D+00 EMaxC= 1.00D-01 BMatC= 5.17D-10 BMatP= 4.42D-09
 IDIUse=1 WtCom= 1.00D+00 WtEn= 0.00D+00
 Coeff-Com:  0.115D-04-0.579D-04-0.162D-03 0.533D-03 0.233D-02-0.295D-02
 Coeff-Com: -0.222D-01 0.196D-01 0.384D-01-0.451D-01-0.124D+00 0.867D-01
 Coeff-Com:  0.105D+01
 Coeff:      0.115D-04-0.579D-04-0.162D-03 0.533D-03 0.233D-02-0.295D-02
 Coeff:     -0.222D-01 0.196D-01 0.384D-01-0.451D-01-0.124D+00 0.867D-01
 Coeff:      0.105D+01
 RMSDP=6.92D-07 MaxDP=1.99D-05 DE=-2.78D-08 OVMax= 0.00D+00

 Cycle  14  Pass 1  IDiag  1:
 RMSU=  1.78D-07    CP:  9.92D-01  1.18D+00  1.06D+00  1.56D+00  2.72D+00
                    CP:  3.00D+00  3.00D+00  3.00D+00  3.00D+00  1.62D+00
                    CP:  2.59D+00  9.45D-01  1.42D+00
 E= -474.657021123857     Delta-E=       -0.000000005863 Rises=F Damp=F
 DIIS: error= 8.41D-07 at cycle  14 NSaved=  14.
 NSaved=14 IEnMin=14 EnMin= -474.657021123857     IErMin=14 ErrMin= 8.41D-07
 ErrMax= 8.41D-07  0.00D+00 EMaxC= 1.00D-01 BMatC= 1.77D-10 BMatP= 5.17D-10
 IDIUse=1 WtCom= 1.00D+00 WtEn= 0.00D+00
 Coeff-Com: -0.780D-05 0.609D-04-0.297D-04-0.810D-03-0.892D-04 0.571D-02
 Coeff-Com:  0.768D-02-0.271D-01 0.377D-02 0.574D-01-0.167D-01-0.222D+00
 Coeff-Com: -0.676D-01 0.126D+01
 Coeff:     -0.780D-05 0.609D-04-0.297D-04-0.810D-03-0.892D-04 0.571D-02
 Coeff:      0.768D-02-0.271D-01 0.377D-02 0.574D-01-0.167D-01-0.222D+00
 Coeff:     -0.676D-01 0.126D+01
 RMSDP=2.85D-07 MaxDP=8.18D-06 DE=-5.86D-09 OVMax= 0.00D+00

 Cycle  15  Pass 1  IDiag  1:
 RMSU=  9.60D-08    CP:  9.92D-01  1.18D+00  1.06D+00  1.56D+00  2.72D+00
                    CP:  3.00D+00  3.00D+00  3.00D+00  3.00D+00  1.62D+00
                    CP:  2.60D+00  9.39D-01  1.76D+00  1.89D+00
 E= -474.657021126126     Delta-E=       -0.000000002269 Rises=F Damp=F
 DIIS: error= 4.46D-07 at cycle  15 NSaved=  15.
 NSaved=15 IEnMin=15 EnMin= -474.657021126126     IErMin=15 ErrMin= 4.46D-07
 ErrMax= 4.46D-07  0.00D+00 EMaxC= 1.00D-01 BMatC= 5.95D-11 BMatP= 1.77D-10
 IDIUse=1 WtCom= 1.00D+00 WtEn= 0.00D+00
 Coeff-Com: -0.358D-05 0.182D-04 0.535D-04-0.157D-03-0.782D-03 0.786D-03
 Coeff-Com:  0.911D-02-0.953D-02-0.936D-02 0.130D-01 0.316D-01-0.687D-02
 Coeff-Com: -0.336D+00-0.116D+00 0.142D+01
 Coeff:     -0.358D-05 0.182D-04 0.535D-04-0.157D-03-0.782D-03 0.786D-03
 Coeff:      0.911D-02-0.953D-02-0.936D-02 0.130D-01 0.316D-01-0.687D-02
 Coeff:     -0.336D+00-0.116D+00 0.142D+01
 RMSDP=2.65D-07 MaxDP=7.79D-06 DE=-2.27D-09 OVMax= 0.00D+00

 Cycle  16  Pass 1  IDiag  1:
 RMSU=  4.22D-08    CP:  9.92D-01  1.18D+00  1.06D+00  1.56D+00  2.72D+00
                    CP:  3.00D+00  3.00D+00  3.00D+00  3.00D+00  1.62D+00
                    CP:  2.61D+00  9.38D-01  2.03D+00  2.86D+00  1.90D+00
 E= -474.657021127303     Delta-E=       -0.000000001177 Rises=F Damp=F
 DIIS: error= 3.94D-07 at cycle  16 NSaved=  16.
 NSaved=16 IEnMin=16 EnMin= -474.657021127303     IErMin=16 ErrMin= 3.94D-07
 ErrMax= 3.94D-07  0.00D+00 EMaxC= 1.00D-01 BMatC= 2.04D-11 BMatP= 5.95D-11
 IDIUse=1 WtCom= 1.00D+00 WtEn= 0.00D+00
 Coeff-Com:  0.442D-05-0.306D-04-0.715D-06 0.384D-03 0.159D-03-0.247D-02
 Coeff-Com: -0.445D-02 0.111D-01 0.413D-02-0.272D-01-0.998D-02 0.111D+00
 Coeff-Com:  0.825D-01-0.552D+00-0.181D+00 0.157D+01
 Coeff:      0.442D-05-0.306D-04-0.715D-06 0.384D-03 0.159D-03-0.247D-02
 Coeff:     -0.445D-02 0.111D-01 0.413D-02-0.272D-01-0.998D-02 0.111D+00
 Coeff:      0.825D-01-0.552D+00-0.181D+00 0.157D+01
 RMSDP=2.12D-07 MaxDP=6.47D-06 DE=-1.18D-09 OVMax= 0.00D+00

 Cycle  17  Pass 1  IDiag  1:
 RMSU=  1.12D-07    CP:  9.92D-01  1.18D+00  1.06D+00  1.56D+00  2.72D+00
                    CP:  3.00D+00  3.00D+00  3.00D+00  3.00D+00  1.62D+00
                    CP:  2.61D+00  9.38D-01  2.22D+00  3.00D+00  2.85D+00
                    CP:  2.04D+00
 E= -474.657021127748     Delta-E=       -0.000000000445 Rises=F Damp=F
 DIIS: error= 1.43D-07 at cycle  17 NSaved=  17.
 NSaved=17 IEnMin=17 EnMin= -474.657021127748     IErMin=17 ErrMin= 1.43D-07
 ErrMax= 1.43D-07  0.00D+00 EMaxC= 1.00D-01 BMatC= 2.88D-12 BMatP= 2.04D-11
 IDIUse=1 WtCom= 1.00D+00 WtEn= 0.00D+00
 Coeff-Com:  0.697D-06-0.342D-05-0.141D-04 0.319D-04 0.164D-03-0.175D-03
 Coeff-Com: -0.160D-02 0.133D-02 0.264D-02-0.227D-02-0.787D-02 0.485D-02
 Coeff-Com:  0.518D-01 0.430D-01-0.230D+00-0.823D-01 0.122D+01
 Coeff:      0.697D-06-0.342D-05-0.141D-04 0.319D-04 0.164D-03-0.175D-03
 Coeff:     -0.160D-02 0.133D-02 0.264D-02-0.227D-02-0.787D-02 0.485D-02
 Coeff:      0.518D-01 0.430D-01-0.230D+00-0.823D-01 0.122D+01
 RMSDP=5.82D-08 MaxDP=1.82D-06 DE=-4.45D-10 OVMax= 0.00D+00

 Cycle  18  Pass 1  IDiag  1:
 RMSU=  1.64D-08    CP:  9.92D-01  1.18D+00  1.06D+00  1.56D+00  2.72D+00
                    CP:  3.00D+00  3.00D+00  3.00D+00  3.00D+00  1.62D+00
                    CP:  2.61D+00  9.38D-01  2.26D+00  3.00D+00  3.00D+00
                    CP:  2.59D+00  1.32D+00
 E= -474.657021127790     Delta-E=       -0.000000000043 Rises=F Damp=F
 DIIS: error= 1.05D-07 at cycle  18 NSaved=  18.
 NSaved=18 IEnMin=18 EnMin= -474.657021127790     IErMin=18 ErrMin= 1.05D-07
 ErrMax= 1.05D-07  0.00D+00 EMaxC= 1.00D-01 BMatC= 7.57D-13 BMatP= 2.88D-12
 IDIUse=1 WtCom= 1.00D+00 WtEn= 0.00D+00
 Coeff-Com: -0.140D-05 0.952D-05 0.608D-06-0.113D-03-0.574D-04 0.703D-03
 Coeff-Com:  0.163D-02-0.352D-02-0.130D-02 0.751D-02 0.355D-02-0.304D-01
 Coeff-Com: -0.329D-01 0.148D+00 0.909D-01-0.455D+00-0.159D+00 0.143D+01
 Coeff:     -0.140D-05 0.952D-05 0.608D-06-0.113D-03-0.574D-04 0.703D-03
 Coeff:      0.163D-02-0.352D-02-0.130D-02 0.751D-02 0.355D-02-0.304D-01
 Coeff:     -0.329D-01 0.148D+00 0.909D-01-0.455D+00-0.159D+00 0.143D+01
 RMSDP=3.31D-08 MaxDP=1.03D-06 DE=-4.27D-11 OVMax= 0.00D+00

 Cycle  19  Pass 1  IDiag  1:
 RMSU=  5.22D-09    CP:  9.92D-01  1.18D+00  1.06D+00  1.56D+00  2.72D+00
                    CP:  3.00D+00  3.00D+00  3.00D+00  3.00D+00  1.62D+00
                    CP:  2.61D+00  9.38D-01  2.28D+00  3.00D+00  3.00D+00
                    CP:  2.94D+00  1.49D+00  2.09D+00
 E= -474.657021127811     Delta-E=       -0.000000000021 Rises=F Damp=F
 DIIS: error= 5.00D-08 at cycle  19 NSaved=  19.
 NSaved=19 IEnMin=19 EnMin= -474.657021127811     IErMin=19 ErrMin= 5.00D-08
 ErrMax= 5.00D-08  0.00D+00 EMaxC= 1.00D-01 BMatC= 9.30D-14 BMatP= 7.57D-13
 IDIUse=1 WtCom= 1.00D+00 WtEn= 0.00D+00
 Coeff-Com: -0.473D-07 0.186D-06 0.250D-05-0.186D-05-0.196D-04-0.165D-04
 Coeff-Com:  0.184D-03-0.120D-03-0.280D-03 0.586D-04 0.123D-02 0.359D-03
 Coeff-Com: -0.541D-02-0.201D-01 0.400D-01 0.380D-01-0.184D+00-0.429D-01
 Coeff-Com:  0.117D+01
 Coeff:     -0.473D-07 0.186D-06 0.250D-05-0.186D-05-0.196D-04-0.165D-04
 Coeff:      0.184D-03-0.120D-03-0.280D-03 0.586D-04 0.123D-02 0.359D-03
 Coeff:     -0.541D-02-0.201D-01 0.400D-01 0.380D-01-0.184D+00-0.429D-01
 Coeff:      0.117D+01
 RMSDP=6.91D-09 MaxDP=5.02D-07 DE=-2.09D-11 OVMax= 0.00D+00

 SCF Done:  E(RZINDO/S) =  -474.657021128     A.U. after   19 cycles
            NFock= 19  Conv=0.69D-08     -V/T= 0.9507
 KE=-9.626859593022D+03 PE=-4.534085746855D-07 EE= 4.676083306261D+03
 Leave Link  502 at Sat Apr 30 05:57:43 2022, MaxMem=  6710886400 cpu:              21.4 elap:               0.9
 (Enter /sw/apps/gaussian-16.0/g16/l801.exe)
 Range of M.O.s used for correlation:     1   338
 NBasis=   338 NAE=   176 NBE=   176 NFC=     0 NFV=     0
 NROrb=    338 NOA=   176 NOB=   176 NVA=   162 NVB=   162
 Leave Link  801 at Sat Apr 30 05:57:43 2022, MaxMem=  6710886400 cpu:               0.5 elap:               0.0
 (Enter /sw/apps/gaussian-16.0/g16/l914.exe)
 RHF ground state
 Two-electron integral symmetry not used.
 MDV=  6710886400 DFT=F DoStab=F Mixed=F DoRPA=F DoScal=F NonHer=F
 Making orbital integer symmetry assigments:
 Orbital symmetries:
       Occupied  (A) (A) (A) (A) (A) (A) (A) (A) (A) (A) (A) (A)
                 (A) (A) (A) (A) (A) (A) (A) (A) (A) (A) (A) (A)
                 (A) (A) (A) (A) (A) (A) (A) (A) (A) (A) (A) (A)
                 (A) (A) (A) (A) (A) (A) (A) (A) (A) (A) (A) (A)
                 (A) (A) (A) (A) (A) (A) (A) (A) (A) (A) (A) (A)
                 (A) (A) (A) (A) (A) (A) (A) (A) (A) (A) (A) (A)
                 (A) (A) (A) (A) (A) (A) (A) (A) (A) (A) (A) (A)
                 (A) (A) (A) (A) (A) (A) (A) (A) (A) (A) (A) (A)
                 (A) (A) (A) (A) (A) (A) (A) (A) (A) (A) (A) (A)
                 (A) (A) (A) (A) (A) (A) (A) (A) (A) (A) (A) (A)
                 (A) (A) (A) (A) (A) (A) (A) (A) (A) (A) (A) (A)
                 (A) (A) (A) (A) (A) (A) (A) (A) (A) (A) (A) (A)
                 (A) (A) (A) (A) (A) (A) (A) (A) (A) (A) (A) (A)
                 (A) (A) (A) (A) (A) (A) (A) (A) (A) (A) (A) (A)
                 (A) (A) (A) (A) (A) (A) (A) (A)
       Virtual   (A) (A) (A) (A) (A) (A) (A) (A) (A) (A) (A) (A)
                 (A) (A) (A) (A) (A) (A) (A) (A) (A) (A) (A) (A)
                 (A) (A) (A) (A) (A) (A) (A) (A) (A) (A) (A) (A)
                 (A) (A) (A) (A) (A) (A) (A) (A) (A) (A) (A) (A)
                 (A) (A) (A) (A) (A) (A) (A) (A) (A) (A) (A) (A)
                 (A) (A) (A) (A) (A) (A) (A) (A) (A) (A) (A) (A)
                 (A) (A) (A) (A) (A) (A) (A) (A) (A) (A) (A) (A)
                 (A) (A) (A) (A) (A) (A) (A) (A) (A) (A) (A) (A)
                 (A) (A) (A) (A) (A) (A) (A) (A) (A) (A) (A) (A)
                 (A) (A) (A) (A) (A) (A) (A) (A) (A) (A) (A) (A)
                 (A) (A) (A) (A) (A) (A) (A) (A) (A) (A) (A) (A)
                 (A) (A) (A) (A) (A) (A) (A) (A) (A) (A) (A) (A)
                 (A) (A) (A) (A) (A) (A) (A) (A) (A) (A) (A) (A)
                 (A) (A) (A) (A) (A) (A)
    20 initial guesses have been made.
 Convergence on wavefunction:    0.001000000000000
 Davidson Disk Diagonalization:  ConvIn= 1.00D-03 SkipCon=T Conv= 1.00D-03.
 Max sub-space:  2000 roots to seek:    20 dimension of matrix:        57024
 Iteration     1 Dimension    20 NMult     0 NNew     20
 CISAX will form    20 AO SS matrices at one time.
 NMat=    20 NSing=    20 JSym2X= 0.
 New state      3 was old state      5
 New state      5 was old state      3
 Excitation Energies [eV] at current iteration:
 Root      1 :     1.682986521950405
 Root      2 :     2.163920720983408
 Root      3 :     3.161606360402882
 Root      4 :     3.365249681717103
 Root      5 :     3.407064934804082
 Root      6 :     3.622534963496981
 Root      7 :     3.774382248263395
 Root      8 :     3.835784547144966
 Root      9 :     4.010646326056963
 Root     10 :     4.082776145192772
 Root     11 :     4.208449677225168
 Root     12 :     4.378067205583698
 Root     13 :     4.426461987198981
 Root     14 :     4.444268787426570
 Root     15 :     4.545382741349352
 Root     16 :     4.649910121223479
 Root     17 :     4.734094972898411
 Root     18 :     4.777596955498351
 Root     19 :     4.912992596066734
 Root     20 :     4.950617879506364
 Iteration     2 Dimension    40 NMult    20 NNew     20
 CISAX will form    20 AO SS matrices at one time.
 NMat=    20 NSing=    20 JSym2X= 0.
 Root      1 not converged, maximum delta is    0.035931364982382
 Root      2 not converged, maximum delta is    0.031065517781659
 New state      3 was old state      5
 Root      3 not converged, maximum delta is    0.123453621203227
 New state      4 was old state      3
 Root      4 not converged, maximum delta is    0.355940477707657
 New state      5 was old state      4
 Root      5 not converged, maximum delta is    0.312730254661957
 Excitation Energies [eV] at current iteration:
 Root      1 :     1.340928124226340   Change is   -0.342058397724064
 Root      2 :     1.959797964912178   Change is   -0.204122756071229
 Root      3 :     3.053598240248603   Change is   -0.353466694555479
 Root      4 :     3.109212492685932   Change is   -0.052393867716950
 Root      5 :     3.171803180873568   Change is   -0.193446500843534
 Root      6 :     3.420276566272840   Change is   -0.202258397224140
 Root      7 :     3.525579942204389   Change is   -0.248802306059006
 Root      8 :     3.604582468675986   Change is   -0.231202078468980
 Root      9 :     3.717965383180402   Change is   -0.364810762012370
 Root     10 :     3.776973894287405   Change is   -0.233672431769558
 Root     11 :     3.817902240385335   Change is   -0.390547436839833
 Root     12 :     3.847979335951684   Change is   -0.801930785271796
 Root     13 :     4.013286815588283   Change is   -0.764310139910068
 Root     14 :     4.171504862936333   Change is   -0.206562342647365
 Root     15 :     4.209691475452180   Change is   -0.234577311974390
 Root     16 :     4.272289418439049   Change is   -0.154172568759932
 Root     17 :     4.284826910361152   Change is   -0.260555830988201
 Root     18 :     4.497262881521756   Change is   -0.236832091376654
 Root     19 :     4.839071873477533   Change is   -0.073920722589201
 Root     20 :     4.943363832648096   Change is   -0.007254046858268
 Iteration     3 Dimension    45 NMult    40 NNew      5
 CISAX will form     5 AO SS matrices at one time.
 NMat=     5 NSing=     5 JSym2X= 0.
 Root      1 not converged, maximum delta is    0.010315958149338
 Root      2 not converged, maximum delta is    0.015260739287938
 Root      3 not converged, maximum delta is    0.042477053504589
 Root      4 not converged, maximum delta is    0.116855492725340
 Root      5 not converged, maximum delta is    0.132904206700119
 Excitation Energies [eV] at current iteration:
 Root      1 :     1.324352218043498   Change is   -0.016575906182842
 Root      2 :     1.933600213579555   Change is   -0.026197751332623
 Root      3 :     3.037112908831990   Change is   -0.016485331416613
 Root      4 :     3.087471899815427   Change is   -0.021740592870506
 Root      5 :     3.157995584009982   Change is   -0.013807596863586
 Iteration     4 Dimension    50 NMult    45 NNew      5
 CISAX will form     5 AO SS matrices at one time.
 NMat=     5 NSing=     5 JSym2X= 0.
 Root      1 not converged, maximum delta is    0.002513893331536
 Root      2 not converged, maximum delta is    0.002474960372667
 Root      3 not converged, maximum delta is    0.004667090844899
 Root      4 not converged, maximum delta is    0.007938386249717
 Root      5 not converged, maximum delta is    0.009407740102650
 Excitation Energies [eV] at current iteration:
 Root      1 :     1.323516532292671   Change is   -0.000835685750827
 Root      2 :     1.932923322204746   Change is   -0.000676891374809
 Root      3 :     3.034932724348343   Change is   -0.002180184483648
 Root      4 :     3.085531866366972   Change is   -0.001940033448455
 Root      5 :     3.156994954322330   Change is   -0.001000629687652
 Iteration     5 Dimension    55 NMult    50 NNew      5
 CISAX will form     5 AO SS matrices at one time.
 NMat=     5 NSing=     5 JSym2X= 0.
 Root      1 has converged.
 Root      2 has converged.
 Root      3 not converged, maximum delta is    0.006920436371937
 Root      4 not converged, maximum delta is    0.005504411903275
 Root      5 not converged, maximum delta is    0.003296499952070
 Excitation Energies [eV] at current iteration:
 Root      1 :     1.323471413782745   Change is   -0.000045118509926
 Root      2 :     1.932887725478994   Change is   -0.000035596725752
 Root      3 :     3.034221073543099   Change is   -0.000711650805244
 Root      4 :     3.085016290687896   Change is   -0.000515575679075
 Root      5 :     3.156790007758445   Change is   -0.000204946563884
 Iteration     6 Dimension    58 NMult    55 NNew      3
 CISAX will form     3 AO SS matrices at one time.
 NMat=     3 NSing=     3 JSym2X= 0.
 Root      1 has converged.
 Root      2 has converged.
 Root      3 not converged, maximum delta is    0.046018077836226
 Root      4 not converged, maximum delta is    0.063715499768135
 Root      5 not converged, maximum delta is    0.499085774674722
 Excitation Energies [eV] at current iteration:
 Root      1 :     1.323471254562088   Change is   -0.000000159220657
 Root      2 :     1.932887621127161   Change is   -0.000000104351833
 Root      3 :     3.032084319498054   Change is   -0.002136754045044
 Root      4 :     3.083115019106181   Change is   -0.001901271581715
 Root      5 :     3.123797923700369   Change is   -0.032992084058076
 Iteration     7 Dimension    61 NMult    58 NNew      3
 CISAX will form     3 AO SS matrices at one time.
 NMat=     3 NSing=     3 JSym2X= 0.
 Root      1 has converged.
 Root      2 has converged.
 New state      3 was old state      5
 Root      3 not converged, maximum delta is    0.304666314681454
 New state      4 was old state      3
 Root      4 not converged, maximum delta is    0.222278044150234
 New state      5 was old state      4
 Root      5 not converged, maximum delta is    0.114671360886226
 Excitation Energies [eV] at current iteration:
 Root      1 :     1.323471219666692   Change is   -0.000000034895396
 Root      2 :     1.932887503067116   Change is   -0.000000118060044
 Root      3 :     3.010887013357569   Change is   -0.112910910342801
 Root      4 :     3.041441641512033   Change is    0.009357322013978
 Root      5 :     3.086049238537068   Change is    0.002934219430887
 Iteration     8 Dimension    64 NMult    61 NNew      3
 CISAX will form     3 AO SS matrices at one time.
 NMat=     3 NSing=     3 JSym2X= 0.
 Root      1 has converged.
 Root      2 has converged.
 Root      3 not converged, maximum delta is    0.068485427846287
 Root      4 not converged, maximum delta is    0.044733609510259
 Root      5 not converged, maximum delta is    0.048902147303849
 Excitation Energies [eV] at current iteration:
 Root      1 :     1.323471095375696   Change is   -0.000000124290996
 Root      2 :     1.932887290608349   Change is   -0.000000212458767
 Root      3 :     3.000379049567418   Change is   -0.010507963790150
 Root      4 :     3.038904200516424   Change is   -0.002537440995609
 Root      5 :     3.085076083940208   Change is   -0.000973154596860
 Iteration     9 Dimension    67 NMult    64 NNew      3
 CISAX will form     3 AO SS matrices at one time.
 NMat=     3 NSing=     3 JSym2X= 0.
 Root      1 has converged.
 Root      2 has converged.
 Root      3 not converged, maximum delta is    0.010605652305935
 Root      4 not converged, maximum delta is    0.006967702213711
 Root      5 not converged, maximum delta is    0.073333074273056
 Excitation Energies [eV] at current iteration:
 Root      1 :     1.323471065801976   Change is   -0.000000029573719
 Root      2 :     1.932887082193799   Change is   -0.000000208414550
 Root      3 :     2.998038561484518   Change is   -0.002340488082900
 Root      4 :     3.038538375043861   Change is   -0.000365825472563
 Root      5 :     3.083748500513403   Change is   -0.001327583426805
 Iteration    10 Dimension    70 NMult    67 NNew      3
 CISAX will form     3 AO SS matrices at one time.
 NMat=     3 NSing=     3 JSym2X= 0.
 Root      1 has converged.
 Root      2 has converged.
 Root      3 not converged, maximum delta is    0.003895779068647
 Root      4 not converged, maximum delta is    0.001839358906403
 Root      5 not converged, maximum delta is    0.018713220346520
 Excitation Energies [eV] at current iteration:
 Root      1 :     1.323471034009238   Change is   -0.000000031792738
 Root      2 :     1.932886905666890   Change is   -0.000000176526908
 Root      3 :     2.997504811074644   Change is   -0.000533750409874
 Root      4 :     3.038463076149084   Change is   -0.000075298894777
 Root      5 :     3.083358712566566   Change is   -0.000389787946837
 Iteration    11 Dimension    73 NMult    70 NNew      3
 CISAX will form     3 AO SS matrices at one time.
 NMat=     3 NSing=     3 JSym2X= 0.
 Root      1 has converged.
 Root      2 has converged.
 Root      3 not converged, maximum delta is    0.003011813488642
 Root      4 not converged, maximum delta is    0.001173134592975
 Root      5 not converged, maximum delta is    0.002522783843914
 Excitation Energies [eV] at current iteration:
 Root      1 :     1.323471015235194   Change is   -0.000000018774045
 Root      2 :     1.932886842495114   Change is   -0.000000063171777
 Root      3 :     2.997357544445069   Change is   -0.000147266629575
 Root      4 :     3.038443228409290   Change is   -0.000019847739794
 Root      5 :     3.083298243006063   Change is   -0.000060469560503
 Iteration    12 Dimension    76 NMult    73 NNew      3
 CISAX will form     3 AO SS matrices at one time.
 NMat=     3 NSing=     3 JSym2X= 0.
 Root      1 has converged.
 Root      2 has converged.
 Root      3 has converged.
 Root      4 has converged.
 Root      5 has converged.
 Excitation Energies [eV] at current iteration:
 Root      1 :     1.323471011574272   Change is   -0.000000003660921
 Root      2 :     1.932886828863862   Change is   -0.000000013631252
 Root      3 :     2.997332142270667   Change is   -0.000025402174401
 Root      4 :     3.038439939685438   Change is   -0.000003288723851
 Root      5 :     3.083290418773349   Change is   -0.000007824232714
 Convergence achieved on expansion vectors.
 ***********************************************************************
 Excited states from <AA,BB:AA,BB> singles matrix:
 ***********************************************************************
 
 1PDM for each excited state written to RWF  633
 Ground to excited state transition densities written to RWF  633
 Ground to excited state transition electric dipole moments (Au):
       state          X           Y           Z        Dip. S.      Osc.
         1        -2.2843      3.1088     -1.8511     18.3088      0.5937
         2         0.5579      0.7083      0.5739      1.1423      0.0541
         3         0.3719      0.6183      0.5475      0.8203      0.0602
         4        -1.6580     -2.6693     -2.0186     13.9492      1.0384
         5        -0.0813      0.7840     -0.0661      0.6257      0.0473
 Ground to excited state transition velocity dipole moments (Au):
       state          X           Y           Z        Dip. S.      Osc.
         1        -0.0446      0.0197     -0.0343      0.0036      0.0487
         2        -0.0086     -0.0228     -0.0011      0.0006      0.0056
         3        -0.0150     -0.0244     -0.0071      0.0009      0.0053
         4         0.0750      0.1020      0.0504      0.0186      0.1109
         5         0.0019     -0.0274     -0.0004      0.0008      0.0044
 Ground to excited state transition magnetic dipole moments (Au):
       state          X           Y           Z
         1        -0.1420      0.2025      0.1808
         2        -0.6628     -0.0706      0.3692
         3        -0.0276     -0.6701     -0.0601
         4         0.4241     -0.7598      0.6829
         5         0.4672     -0.2452     -0.3253
 Ground to excited state transition velocity quadrupole moments (Au):
       state          XX          YY          ZZ          XY          XZ          YZ
         1        -0.6049     -0.0286      0.0346      0.2140     -0.1412      0.0218
         2        -0.1211     -0.0389      0.0256     -0.1316     -0.0211     -0.0330
         3        -0.1594     -0.0337      0.0363     -0.1478     -0.0456     -0.0419
         4         0.9131      0.1574     -0.1551      0.6404      0.5071      0.0264
         5        -0.1434      0.2532     -0.1885     -0.5587     -0.1434     -0.2099
 <0|del|b> * <b|rxdel|0> + <0|del|b> * <b|delr+rdel|0>
 Rotatory Strengths (R) in cgs (10**-40 erg-esu-cm/Gauss)
       state          XX          YY          ZZ    R(velocity)    E-M Angle
         1       -49.0585     47.2160     61.8987     20.0187       76.92
         2         4.3115     27.1203     37.5010     22.9776       68.18
         3        53.6587      1.3602     55.3907     36.8032       30.11
         4      -198.1932    113.7785     12.7867    -23.8760       94.30
         5         9.8214      1.2082     37.1935     16.0744       63.02
 1/2[<0|r|b>*<b|rxdel|0> + (<0|rxdel|b>*<b|r|0>)*]
 Rotatory Strengths (R) in cgs (10**-40 erg-esu-cm/Gauss)
       state          XX          YY          ZZ     R(length)
         1      -229.3714   -445.2747    236.6760   -145.9900
         2       261.5031     35.3692   -149.8280     49.0148
         3         7.2595    292.9751     23.2869    107.8405
         4       497.3043  -1434.2038    974.8874     12.6627
         5        26.8474    135.9286    -15.2142     49.1873
  1/2[<0|del|b>*<b|r|0> + (<0|r|b>*<b|del|0>)*] (Au)
       state          X           Y           Z        Dip. S.   Osc.(frdel)
         1         0.1019      0.0613      0.0634     -0.2266     -0.1510
         2        -0.0048     -0.0162     -0.0006      0.0216      0.0144
         3        -0.0056     -0.0151     -0.0039      0.0246      0.0164
         4        -0.1243     -0.2724     -0.1017      0.4984      0.3323
         5        -0.0002     -0.0215      0.0000      0.0216      0.0144

 Excitation energies and oscillator strengths:
 
 Excited State   1:      Singlet-A      1.3235 eV  936.81 nm  f=0.5937  <S**2>=0.000
     175 ->178        -0.18615
     176 ->177         0.66363
 This state for optimization and/or second-order correction.
 Total Energy, E(CIS/TDA) =  -474.608384463    
 Copying the excited state density for this state as the 1-particle RhoCI density.
 
 Excited State   2:      Singlet-A      1.9329 eV  641.45 nm  f=0.0541  <S**2>=0.000
     175 ->177         0.55566
     176 ->178         0.40608
 
 Excited State   3:      Singlet-A      2.9973 eV  413.65 nm  f=0.0602  <S**2>=0.000
     169 ->177         0.10954
     169 ->179         0.16375
     169 ->181        -0.11989
     170 ->177         0.25088
     170 ->178         0.11937
     170 ->179         0.32732
     170 ->180         0.16063
     170 ->181        -0.24178
     170 ->185         0.16672
     170 ->186        -0.10623
     175 ->177         0.10022
     176 ->178        -0.14011
 
 Excited State   4:      Singlet-A      3.0384 eV  408.05 nm  f=1.0384  <S**2>=0.000
     175 ->177        -0.36816
     176 ->178         0.51004
     176 ->179         0.13522
     176 ->180         0.10030
 
 Excited State   5:      Singlet-A      3.0833 eV  402.12 nm  f=0.0473  <S**2>=0.000
     168 ->177        -0.10999
     168 ->179         0.15524
     168 ->181         0.12779
     176 ->179         0.54062
     176 ->180        -0.17752
     176 ->181        -0.19009
 SavETr:  write IOETrn=   770 NScale= 10 NData=  16 NLR=1 NState=    5 LETran=     100.
 Leave Link  914 at Sat Apr 30 05:57:49 2022, MaxMem=  6710886400 cpu:             128.0 elap:               5.4
 (Enter /sw/apps/gaussian-16.0/g16/l601.exe)
 Copying SCF densities to generalized density rwf, IOpCl= 0 IROHF=0.

 **********************************************************************

            Population analysis using the SCF density.

 **********************************************************************

 Orbital symmetries:
       Occupied  (A) (A) (A) (A) (A) (A) (A) (A) (A) (A) (A) (A)
                 (A) (A) (A) (A) (A) (A) (A) (A) (A) (A) (A) (A)
                 (A) (A) (A) (A) (A) (A) (A) (A) (A) (A) (A) (A)
                 (A) (A) (A) (A) (A) (A) (A) (A) (A) (A) (A) (A)
                 (A) (A) (A) (A) (A) (A) (A) (A) (A) (A) (A) (A)
                 (A) (A) (A) (A) (A) (A) (A) (A) (A) (A) (A) (A)
                 (A) (A) (A) (A) (A) (A) (A) (A) (A) (A) (A) (A)
                 (A) (A) (A) (A) (A) (A) (A) (A) (A) (A) (A) (A)
                 (A) (A) (A) (A) (A) (A) (A) (A) (A) (A) (A) (A)
                 (A) (A) (A) (A) (A) (A) (A) (A) (A) (A) (A) (A)
                 (A) (A) (A) (A) (A) (A) (A) (A) (A) (A) (A) (A)
                 (A) (A) (A) (A) (A) (A) (A) (A) (A) (A) (A) (A)
                 (A) (A) (A) (A) (A) (A) (A) (A) (A) (A) (A) (A)
                 (A) (A) (A) (A) (A) (A) (A) (A) (A) (A) (A) (A)
                 (A) (A) (A) (A) (A) (A) (A) (A)
       Virtual   (A) (A) (A) (A) (A) (A) (A) (A) (A) (A) (A) (A)
                 (A) (A) (A) (A) (A) (A) (A) (A) (A) (A) (A) (A)
                 (A) (A) (A) (A) (A) (A) (A) (A) (A) (A) (A) (A)
                 (A) (A) (A) (A) (A) (A) (A) (A) (A) (A) (A) (A)
                 (A) (A) (A) (A) (A) (A) (A) (A) (A) (A) (A) (A)
                 (A) (A) (A) (A) (A) (A) (A) (A) (A) (A) (A) (A)
                 (A) (A) (A) (A) (A) (A) (A) (A) (A) (A) (A) (A)
                 (A) (A) (A) (A) (A) (A) (A) (A) (A) (A) (A) (A)
                 (A) (A) (A) (A) (A) (A) (A) (A) (A) (A) (A) (A)
                 (A) (A) (A) (A) (A) (A) (A) (A) (A) (A) (A) (A)
                 (A) (A) (A) (A) (A) (A) (A) (A) (A) (A) (A) (A)
                 (A) (A) (A) (A) (A) (A) (A) (A) (A) (A) (A) (A)
                 (A) (A) (A) (A) (A) (A) (A) (A) (A) (A) (A) (A)
                 (A) (A) (A) (A) (A) (A)
 The electronic state is 1-A.
 Alpha  occ. eigenvalues --   -1.85735  -1.82815  -1.81114  -1.76806  -1.73061
 Alpha  occ. eigenvalues --   -1.71050  -1.67380  -1.61743  -1.60777  -1.58411
 Alpha  occ. eigenvalues --   -1.56630  -1.50552  -1.48375  -1.48204  -1.46391
 Alpha  occ. eigenvalues --   -1.44450  -1.43985  -1.41233  -1.39079  -1.38329
 Alpha  occ. eigenvalues --   -1.36463  -1.34600  -1.33144  -1.32314  -1.30385
 Alpha  occ. eigenvalues --   -1.28234  -1.27293  -1.24529  -1.21101  -1.18161
 Alpha  occ. eigenvalues --   -1.16887  -1.16024  -1.15766  -1.14325  -1.13936
 Alpha  occ. eigenvalues --   -1.12656  -1.09386  -1.08838  -1.05465  -1.04060
 Alpha  occ. eigenvalues --   -1.02115  -1.01599  -0.98233  -0.97867  -0.96802
 Alpha  occ. eigenvalues --   -0.95694  -0.94767  -0.94059  -0.93502  -0.92919
 Alpha  occ. eigenvalues --   -0.91512  -0.91252  -0.89503  -0.88603  -0.87374
 Alpha  occ. eigenvalues --   -0.86910  -0.84698  -0.83730  -0.81614  -0.80897
 Alpha  occ. eigenvalues --   -0.79518  -0.79064  -0.77598  -0.77069  -0.76628
 Alpha  occ. eigenvalues --   -0.76273  -0.75049  -0.74410  -0.74196  -0.73751
 Alpha  occ. eigenvalues --   -0.73731  -0.72913  -0.72481  -0.71505  -0.70663
 Alpha  occ. eigenvalues --   -0.70448  -0.69510  -0.69353  -0.68518  -0.68356
 Alpha  occ. eigenvalues --   -0.67674  -0.66571  -0.66443  -0.65996  -0.65725
 Alpha  occ. eigenvalues --   -0.64998  -0.64537  -0.63895  -0.63500  -0.63385
 Alpha  occ. eigenvalues --   -0.63167  -0.63090  -0.62931  -0.62599  -0.62183
 Alpha  occ. eigenvalues --   -0.61781  -0.61342  -0.61080  -0.60554  -0.60488
 Alpha  occ. eigenvalues --   -0.59801  -0.59428  -0.58778  -0.58735  -0.57896
 Alpha  occ. eigenvalues --   -0.57625  -0.57200  -0.56823  -0.56470  -0.55663
 Alpha  occ. eigenvalues --   -0.55587  -0.55357  -0.55259  -0.54654  -0.54288
 Alpha  occ. eigenvalues --   -0.53611  -0.53222  -0.53133  -0.52680  -0.52394
 Alpha  occ. eigenvalues --   -0.52139  -0.52102  -0.51770  -0.51131  -0.50900
 Alpha  occ. eigenvalues --   -0.50614  -0.50565  -0.50451  -0.50137  -0.49815
 Alpha  occ. eigenvalues --   -0.49760  -0.49236  -0.48923  -0.48754  -0.48654
 Alpha  occ. eigenvalues --   -0.48542  -0.48230  -0.48057  -0.47721  -0.47389
 Alpha  occ. eigenvalues --   -0.47118  -0.46990  -0.46573  -0.46322  -0.46204
 Alpha  occ. eigenvalues --   -0.45979  -0.45789  -0.45644  -0.45632  -0.45354
 Alpha  occ. eigenvalues --   -0.45068  -0.44879  -0.44720  -0.44462  -0.44158
 Alpha  occ. eigenvalues --   -0.43755  -0.43271  -0.42872  -0.42629  -0.42350
 Alpha  occ. eigenvalues --   -0.41541  -0.41449  -0.40872  -0.39434  -0.38513
 Alpha  occ. eigenvalues --   -0.38410  -0.37330  -0.36306  -0.35285  -0.34749
 Alpha  occ. eigenvalues --   -0.34102  -0.33268  -0.32463  -0.32230  -0.26872
 Alpha  occ. eigenvalues --   -0.22252
 Alpha virt. eigenvalues --   -0.08701  -0.02319  -0.00733   0.00844   0.01110
 Alpha virt. eigenvalues --    0.02276   0.02991   0.03209   0.04599   0.06033
 Alpha virt. eigenvalues --    0.06096   0.06326   0.06965   0.07709   0.07903
 Alpha virt. eigenvalues --    0.08284   0.08309   0.08480   0.09307   0.09528
 Alpha virt. eigenvalues --    0.09816   0.10235   0.10630   0.10706   0.10797
 Alpha virt. eigenvalues --    0.11166   0.11195   0.11551   0.12102   0.12302
 Alpha virt. eigenvalues --    0.12325   0.13138   0.13158   0.13398   0.13608
 Alpha virt. eigenvalues --    0.13609   0.13980   0.14179   0.14507   0.14735
 Alpha virt. eigenvalues --    0.14926   0.15368   0.15941   0.15978   0.16104
 Alpha virt. eigenvalues --    0.16285   0.16357   0.16467   0.16869   0.17489
 Alpha virt. eigenvalues --    0.17587   0.17681   0.17849   0.18370   0.18428
 Alpha virt. eigenvalues --    0.18698   0.18893   0.19285   0.19476   0.19547
 Alpha virt. eigenvalues --    0.19632   0.19906   0.20267   0.20757   0.20947
 Alpha virt. eigenvalues --    0.21504   0.22371   0.22673   0.23494   0.23568
 Alpha virt. eigenvalues --    0.23687   0.23712   0.23882   0.24090   0.24219
 Alpha virt. eigenvalues --    0.24320   0.24364   0.24517   0.24531   0.24600
 Alpha virt. eigenvalues --    0.24648   0.25091   0.25277   0.25338   0.25392
 Alpha virt. eigenvalues --    0.25413   0.25487   0.25518   0.25523   0.25585
 Alpha virt. eigenvalues --    0.25616   0.25651   0.25773   0.25883   0.26021
 Alpha virt. eigenvalues --    0.26054   0.26222   0.26356   0.26493   0.26525
 Alpha virt. eigenvalues --    0.26529   0.26616   0.26659   0.26791   0.26823
 Alpha virt. eigenvalues --    0.26862   0.26997   0.27014   0.27066   0.27096
 Alpha virt. eigenvalues --    0.27319   0.27399   0.27589   0.27980   0.27988
 Alpha virt. eigenvalues --    0.28325   0.28446   0.28453   0.28640   0.29389
 Alpha virt. eigenvalues --    0.29994   0.30052   0.30521   0.31084   0.31393
 Alpha virt. eigenvalues --    0.31671   0.32818   0.32999   0.33354   0.33699
 Alpha virt. eigenvalues --    0.34808   0.35408   0.36281   0.36354   0.36593
 Alpha virt. eigenvalues --    0.36603   0.36988   0.37168   0.38036   0.38104
 Alpha virt. eigenvalues --    0.39674   0.39908   0.39953   0.40632   0.40883
 Alpha virt. eigenvalues --    0.41021   0.41484   0.41945   0.42472   0.42706
 Alpha virt. eigenvalues --    0.43630   0.44686   0.46387   0.46524   0.47594
 Alpha virt. eigenvalues --    0.48073   0.48186   0.48228   0.51320   0.53455
 Alpha virt. eigenvalues --    0.54271   0.57028
          Condensed to atoms (all electrons):
 Mulliken charges:
               1
     1  Mg   0.440616
     2  C   -0.031496
     3  C   -0.068919
     4  C   -0.104674
     5  C   -0.081849
     6  N   -0.287920
     7  C    0.091516
     8  C    0.014374
     9  C    0.016748
    10  C    0.146517
    11  C   -0.048026
    12  C   -0.019834
    13  C    0.001663
    14  C    0.477500
    15  O   -0.533221
    16  O   -0.244782
    17  N   -0.291933
    18  C    0.120006
    19  C    0.055785
    20  C   -0.076199
    21  C    0.151617
    22  C   -0.046322
    23  C    0.348695
    24  O   -0.510263
    25  C   -0.029567
    26  N   -0.273977
    27  C    0.142453
    28  C   -0.004545
    29  C    0.007600
    30  C    0.122873
    31  C   -0.054910
    32  C   -0.029967
    33  C   -0.063888
    34  N   -0.310779
    35  C    0.090905
    36  C    0.001135
    37  C   -0.044922
    38  C    0.097647
    39  C   -0.033557
    40  C    0.336570
    41  O   -0.517091
    42  C    0.050257
    43  C    0.497270
    44  O   -0.517641
    45  O   -0.282029
    46  C    0.069841
    47  C    0.102089
    48  C   -0.071213
    49  C    0.000593
    50  C   -0.045678
    51  C   -0.020091
    52  C   -0.030407
    53  C   -0.039621
    54  C   -0.003600
    55  C   -0.064703
    56  C   -0.048525
    57  C   -0.044015
    58  C   -0.014975
    59  C    0.006993
    60  C   -0.058768
    61  C   -0.035004
    62  C   -0.042624
    63  C   -0.042971
    64  C   -0.009093
    65  C   -0.047788
    66  C   -0.063632
    67  H    0.027464
    68  H    0.019697
    69  H    0.013653
    70  H    0.025029
    71  H    0.031572
    72  H    0.028180
    73  H    0.015751
    74  H    0.011359
    75  H    0.021629
    76  H    0.039391
    77  H    0.035582
    78  H    0.030908
    79  H    0.033045
    80  H    0.041068
    81  H    0.029897
    82  H    0.043658
    83  H    0.035742
    84  H    0.040255
    85  H    0.035070
    86  H    0.032608
    87  H    0.014170
    88  H    0.026988
    89  H    0.027079
    90  H    0.027455
    91  H    0.022492
    92  H    0.014589
    93  H    0.017272
    94  H    0.016960
    95  H    0.031672
    96  H    0.025519
    97  H    0.030801
    98  H    0.049249
    99  H    0.035210
   100  H    0.048737
   101  H    0.050667
   102  H    0.017903
   103  H    0.062148
   104  H    0.026962
   105  H    0.022341
   106  H    0.023161
   107  H    0.029024
   108  H    0.013980
   109  H    0.015521
   110  H    0.014084
   111  H    0.024053
   112  H    0.028380
   113  H    0.014083
   114  H    0.031743
   115  H    0.009080
   116  H    0.019250
   117  H    0.018998
   118  H    0.027320
   119  H    0.013233
   120  H    0.020006
   121  H    0.011643
   122  H    0.019501
   123  H    0.013487
   124  H    0.021356
   125  H    0.019332
   126  H    0.013400
   127  H    0.008592
   128  H    0.028526
   129  H   -0.000761
   130  H    0.024014
   131  H    0.018921
   132  H    0.015207
   133  H    0.013962
   134  H    0.018250
   135  H    0.009313
   136  H    0.013949
   137  H    0.024178
   138  H    0.017549
   139  H    0.023023
   140  H    0.024629
 Sum of Mulliken charges =  -0.00000
 Mulliken charges with hydrogens summed into heavy atoms:
               1
     1  Mg   0.440616
     2  C   -0.031496
     3  C   -0.041455
     4  C   -0.084977
     5  C   -0.068196
     6  N   -0.287920
     7  C    0.091516
     8  C    0.039402
     9  C    0.048320
    10  C    0.146517
    11  C    0.007263
    12  C    0.041186
    13  C    0.068153
    14  C    0.477500
    15  O   -0.533221
    16  O   -0.244782
    17  N   -0.291933
    18  C    0.120006
    19  C    0.055785
    20  C   -0.076199
    21  C    0.151617
    22  C    0.057688
    23  C    0.348695
    24  O   -0.510263
    25  C    0.090088
    26  N   -0.273977
    27  C    0.142453
    28  C    0.030525
    29  C    0.040208
    30  C    0.122873
    31  C    0.013327
    32  C    0.019980
    33  C   -0.015067
    34  N   -0.310779
    35  C    0.090905
    36  C    0.001135
    37  C   -0.044922
    38  C    0.097647
    39  C    0.054435
    40  C    0.336570
    41  O   -0.517091
    42  C    0.099505
    43  C    0.497270
    44  O   -0.517641
    45  O   -0.282029
    46  C    0.204455
    47  C    0.182140
    48  C   -0.044251
    49  C    0.000593
    50  C    0.028847
    51  C    0.009409
    52  C    0.007730
    53  C    0.002842
    54  C    0.028143
    55  C   -0.017375
    56  C   -0.007971
    57  C   -0.012366
    58  C    0.018013
    59  C    0.028349
    60  C   -0.017444
    61  C   -0.007239
    62  C    0.000310
    63  C   -0.013802
    64  C    0.009157
    65  C   -0.000348
    66  C    0.001569
 Charge=             -0.0000 electrons
 Dipole moment (field-independent basis, Debye):
    X=              3.7753    Y=              3.4707    Z=             -0.1569  Tot=              5.1306
 N-N= 4.476119266087D+03 E-N= 0.000000000000D+00  KE=-9.626859593022D+03
 Leave Link  601 at Sat Apr 30 05:57:49 2022, MaxMem=  6710886400 cpu:               0.8 elap:               0.0
 (Enter /sw/apps/gaussian-16.0/g16/l9999.exe)
 1\1\GINC-BP1-COMPUTE156\SP\RZINDO CIS\STO-3G\C55H74Mg1N4O6\OF15641\30-
 Apr-2022\0\\#p ZINDO=(nstates=5)\\step_601_chromophore_20 ZINDO\\0,1\M
 g,0,7.343,57.679,41.586\C,0,6.444,54.292,41.511\C,0,10.429,56.701,40.2
 03\C,0,8.043,60.862,41.042\C,0,4.184,58.468,42.575\N,0,8.376,55.65,40.
 866\C,0,7.771,54.426,41.035\C,0,8.696,53.359,40.54\C,0,10.08,54.083,40
 .425\C,0,9.675,55.558,40.513\C,0,11.1,53.695,41.445\C,0,8.287,52.647,3
 9.197\C,0,8.532,51.141,39.038\C,0,8.742,50.496,37.684\O,0,9.791,50.304
 ,37.074\O,0,7.549,50.164,37.208\N,0,8.979,58.671,40.709\C,0,10.113,58.
 089,40.244\C,0,11.003,59.087,39.754\C,0,10.443,60.369,39.928\C,0,9.099
 ,59.977,40.612\C,0,12.38,58.745,39.265\C,0,11.04,61.702,39.495\O,0,12.
 202,61.85,39.185\C,0,10.105,62.825,39.604\N,0,6.185,59.443,41.71\C,0,6
 .783,60.638,41.523\C,0,5.826,61.798,42.093\C,0,4.637,60.972,42.66\C,0,
 5.01,59.539,42.309\C,0,6.462,62.794,43.165\C,0,3.282,61.495,42.17\C,0,
 2.174,61.84,43.229\N,0,5.595,56.649,42.006\C,0,4.399,57.067,42.443\C,0
 ,3.577,55.919,42.85\C,0,4.336,54.809,42.379\C,0,5.539,55.301,41.998\C,
 0,2.228,55.938,43.408\C,0,4.327,53.353,42.316\O,0,3.588,52.434,42.619\
 C,0,5.693,53.015,41.634\C,0,5.22,52.245,40.392\O,0,4.795,52.708,39.357
 \O,0,5.44,50.899,40.672\C,0,4.971,49.903,39.646\C,0,7.598,49.538,35.89
 6\C,0,7.302,50.688,34.907\C,0,6.26,50.935,34.17\C,0,4.965,50.129,34.21
 2\C,0,6.234,52.148,33.257\C,0,7.034,52.171,32.003\C,0,6.158,52.636,30.
 764\C,0,6.181,54.19,30.821\C,0,4.747,54.773,30.551\C,0,7.194,54.709,29
 .758\C,0,7.961,56.11,30.213\C,0,9.259,55.841,30.919\C,0,10.384,55.657,
 29.977\C,0,11.29,54.525,30.363\C,0,11.244,56.896,29.76\C,0,11.824,57.1
 47,28.333\C,0,13.221,57.825,28.465\C,0,14.471,56.901,28.279\C,0,15.569
 ,57.367,29.152\C,0,14.852,56.772,26.77\H,0,11.39,56.377,39.799\H,0,8.2
 52,61.931,40.956\H,0,3.184,58.777,42.885\H,0,8.903,52.58,41.274\H,0,10
 .567,53.965,39.457\H,0,11.125,52.71,41.91\H,0,11.095,54.447,42.234\H,0
 ,12.116,53.777,41.059\H,0,8.849,53.141,38.404\H,0,7.244,52.821,38.934\
 H,0,7.625,50.67,39.416\H,0,9.369,50.83,39.662\H,0,12.512,57.819,38.705
 \H,0,13.06,58.903,40.102\H,0,12.773,59.515,38.601\H,0,9.804,62.982,40.
 64\H,0,9.199,62.433,39.142\H,0,10.485,63.757,39.187\H,0,5.45,62.359,41
 .237\H,0,4.609,60.947,43.749\H,0,6.33,63.806,42.781\H,0,7.526,62.61,43
 .311\H,0,5.949,62.853,44.125\H,0,2.741,60.733,41.61\H,0,3.379,62.426,4
 1.61\H,0,1.378,62.391,42.727\H,0,2.423,62.463,44.089\H,0,1.748,60.937,
 43.666\H,0,1.459,56.433,42.815\H,0,2.256,56.49,44.348\H,0,1.944,54.895
 ,43.552\H,0,6.223,52.306,42.27\H,0,5.832,49.268,39.438\H,0,4.743,50.35
 7,38.681\H,0,4.085,49.414,40.05\H,0,6.755,48.848,35.941\H,0,8.45,48.90
 4,35.651\H,0,8.148,51.371,34.824\H,0,5.112,49.094,33.903\H,0,4.204,50.
 572,33.569\H,0,4.627,50.037,35.244\H,0,6.603,53.018,33.8\H,0,5.181,52.
 394,33.126\H,0,7.417,51.163,31.844\H,0,7.849,52.887,32.106\H,0,5.213,5
 2.093,30.788\H,0,6.725,52.264,29.911\H,0,6.509,54.595,31.778\H,0,4.733
 ,55.726,31.08\H,0,3.912,54.168,30.903\H,0,4.512,55.028,29.518\H,0,6.76
 2,54.729,28.758\H,0,7.961,53.934,29.77\H,0,7.239,56.733,30.74\H,0,8.24
 8,56.656,29.314\H,0,9.05,54.991,31.568\H,0,9.401,56.71,31.563\H,0,10.0
 8,55.324,28.985\H,0,12.178,54.812,30.926\H,0,11.604,53.904,29.524\H,0,
 10.688,53.856,30.977\H,0,11.995,57.108,30.521\H,0,10.59,57.759,29.885\
 H,0,11.3,57.856,27.692\H,0,11.916,56.191,27.818\H,0,13.26,58.282,29.45
 4\H,0,13.195,58.631,27.732\H,0,14.188,55.882,28.542\H,0,16.537,57.133,
 28.708\H,0,15.525,56.762,30.058\H,0,15.56,58.433,29.378\H,0,14.953,55.
 691,26.671\H,0,15.81,57.275,26.641\H,0,14.088,57.151,26.091\\Version=E
 S64L-G16RevA.03\State=1-A\HF=-474.6570211\RMSD=6.912e-09\PG=C01 [X(C55
 H74Mg1N4O6)]\\@


 THE MOST BEAUTIFUL EXPERIENCE WE CAN HAVE IS THE MYSTERIOUS.
 IT IS THE FUNDAMENTAL EMOTION WHICH STANDS AT AT THE CRADLE 
 OF TRUE ART AND TRUE SCIENCE.

                                    -- ALBERT EINSTEIN
 Job cpu time:       0 days  0 hours  2 minutes 56.3 seconds.
 Elapsed time:       0 days  0 hours  0 minutes  7.6 seconds.
 File lengths (MBytes):  RWF=   1263 Int=      0 D2E=      0 Chk=     38 Scr=      1
 Normal termination of Gaussian 16 at Sat Apr 30 05:57:49 2022.
