 Entering Gaussian System, Link 0=g16
 Initial command:
 /sw/apps/gaussian-16.0/g16/l1.exe "/tmp/Gau-21583.inp" -scrdir="/tmp/"
 Entering Link 1 = /sw/apps/gaussian-16.0/g16/l1.exe PID=     21584.
  
 Copyright (c) 1988,1990,1992,1993,1995,1998,2003,2009,2016,
            Gaussian, Inc.  All Rights Reserved.
  
 This is part of the Gaussian(R) 16 program.  It is based on
 the Gaussian(R) 09 system (copyright 2009, Gaussian, Inc.),
 the Gaussian(R) 03 system (copyright 2003, Gaussian, Inc.),
 the Gaussian(R) 98 system (copyright 1998, Gaussian, Inc.),
 the Gaussian(R) 94 system (copyright 1995, Gaussian, Inc.),
 the Gaussian 92(TM) system (copyright 1992, Gaussian, Inc.),
 the Gaussian 90(TM) system (copyright 1990, Gaussian, Inc.),
 the Gaussian 88(TM) system (copyright 1988, Gaussian, Inc.),
 the Gaussian 86(TM) system (copyright 1986, Carnegie Mellon
 University), and the Gaussian 82(TM) system (copyright 1983,
 Carnegie Mellon University). Gaussian is a federally registered
 trademark of Gaussian, Inc.
  
 This software contains proprietary and confidential information,
 including trade secrets, belonging to Gaussian, Inc.
  
 This software is provided under written license and may be
 used, copied, transmitted, or stored only in accord with that
 written license.
  
 The following legend is applicable only to US Government
 contracts under FAR:
  
                    RESTRICTED RIGHTS LEGEND
  
 Use, reproduction and disclosure by the US Government is
 subject to restrictions as set forth in subparagraphs (a)
 and (c) of the Commercial Computer Software - Restricted
 Rights clause in FAR 52.227-19.
  
 Gaussian, Inc.
 340 Quinnipiac St., Bldg. 40, Wallingford CT 06492
  
  
 ---------------------------------------------------------------
 Warning -- This program may not be used in any manner that
 competes with the business of Gaussian, Inc. or will provide
 assistance to any competitor of Gaussian, Inc.  The licensee
 of this program is prohibited from giving any competitor of
 Gaussian, Inc. access to this program.  By using this program,
 the user acknowledges that Gaussian, Inc. is engaged in the
 business of creating and licensing software in the field of
 computational chemistry and represents and warrants to the
 licensee that it is not a competitor of Gaussian, Inc. and that
 it will not use this program in any manner prohibited above.
 ---------------------------------------------------------------
  

 Cite this work as:
 Gaussian 16, Revision A.03,
 M. J. Frisch, G. W. Trucks, H. B. Schlegel, G. E. Scuseria, 
 M. A. Robb, J. R. Cheeseman, G. Scalmani, V. Barone, 
 G. A. Petersson, H. Nakatsuji, X. Li, M. Caricato, A. V. Marenich, 
 J. Bloino, B. G. Janesko, R. Gomperts, B. Mennucci, H. P. Hratchian, 
 J. V. Ortiz, A. F. Izmaylov, J. L. Sonnenberg, D. Williams-Young, 
 F. Ding, F. Lipparini, F. Egidi, J. Goings, B. Peng, A. Petrone, 
 T. Henderson, D. Ranasinghe, V. G. Zakrzewski, J. Gao, N. Rega, 
 G. Zheng, W. Liang, M. Hada, M. Ehara, K. Toyota, R. Fukuda, 
 J. Hasegawa, M. Ishida, T. Nakajima, Y. Honda, O. Kitao, H. Nakai, 
 T. Vreven, K. Throssell, J. A. Montgomery, Jr., J. E. Peralta, 
 F. Ogliaro, M. J. Bearpark, J. J. Heyd, E. N. Brothers, K. N. Kudin, 
 V. N. Staroverov, T. A. Keith, R. Kobayashi, J. Normand, 
 K. Raghavachari, A. P. Rendell, J. C. Burant, S. S. Iyengar, 
 J. Tomasi, M. Cossi, J. M. Millam, M. Klene, C. Adamo, R. Cammi, 
 J. W. Ochterski, R. L. Martin, K. Morokuma, O. Farkas, 
 J. B. Foresman, and D. J. Fox, Gaussian, Inc., Wallingford CT, 2016.
 
 ******************************************
 Gaussian 16:  ES64L-G16RevA.03 25-Dec-2016
                 4-May-2022 
 ******************************************
 %nproc=24
 Will use up to   24 processors via shared memory.
 %mem=50gb
 --------------------
 #p ZINDO=(nstates=5)
 --------------------
 1/38=1,172=1/1;
 2/12=2,17=6,18=5,40=1/2;
 3/5=2,25=1,41=400000/1,2,3,8;
 4/5=3,35=1/1;
 5/5=2,35=1,38=5/2;
 8/6=1,108=5/1;
 9/41=5,42=1,49=10/14;
 6/7=2,8=2,9=2,10=2/1;
 99/5=1,9=1/99;
 Leave Link    1 at Wed May  4 14:11:54 2022, MaxMem=  6710886400 cpu:               0.5 elap:               0.0
 (Enter /sw/apps/gaussian-16.0/g16/l101.exe)
 -----------------------------
 step_1751_chromophore_7 ZINDO
 -----------------------------
 Symbolic Z-matrix:
 Charge =  0 Multiplicity = 1
 Mg                    26.405    0.553     30.048 
 C                     28.591   -0.081     32.817 
 C                     23.752    0.878     32.061 
 C                     24.275    0.795     27.243 
 C                     28.913   -0.73      27.981 
 N                     26.264    0.405     32.204 
 C                     27.277    0.322     33.109 
 C                     26.668    0.536     34.519 
 C                     25.092    0.717     34.218 
 C                     24.971    0.584     32.672 
 C                     24.134   -0.291     34.864 
 C                     27.397    1.708     35.312 
 C                     26.8      2.173     36.612 
 C                     27.524    2.089     37.97 
 O                     28.319    2.901     38.481 
 O                     26.983    1.01      38.659 
 N                     24.311    0.915     29.758 
 C                     23.391    1.025     30.731 
 C                     22.119    1.236     30.173 
 C                     22.285    1.183     28.75 
 C                     23.679    0.907     28.526 
 C                     20.853    1.427     30.97 
 C                     21.226    1.259     27.703 
 O                     21.532    1.308     26.529 
 C                     19.81     1.559     28.018 
 N                     26.686    0.337     27.963 
 C                     25.642    0.463     27.03 
 C                     26.179    0.228     25.6 
 C                     27.684   -0.111     25.836 
 C                     27.824   -0.109     27.318 
 C                     25.377   -0.868     24.874 
 C                     28.777    0.731     25.206 
 C                     30.096    0.056     24.784 
 N                     28.352   -0.232     30.274 
 C                     29.229   -0.745     29.366 
 C                     30.496   -1.035     29.994 
 C                     30.36    -0.735     31.331 
 C                     28.961   -0.392     31.467 
 C                     31.686   -1.812     29.314 
 C                     30.947   -0.74      32.641 
 O                     32.074   -1.095     32.977 
 C                     29.828   -0.365     33.674 
 C                     29.65    -1.52      34.566 
 O                     29.082   -2.574     34.304 
 O                     30.053   -1.116     35.839 
 C                     29.708   -2.016     36.932 
 C                     27.454    0.782     40.041 
 C                     26.235    0.632     40.951 
 C                     26.036    0.964     42.192 
 C                     27.013    1.629     43.186 
 C                     24.698    0.443     42.733 
 C                     24.057    1.186     43.915 
 C                     22.516    1.06      43.917 
 C                     21.914    0.349     45.212 
 C                     20.846   -0.574     44.801 
 C                     21.319    1.442     46.094 
 C                     22.443    2.056     46.896 
 C                     21.903    2.457     48.22 
 C                     22.386    3.964     48.544 
 C                     22.597    4.036     50.053 
 C                     21.303    4.952     48.008 
 C                     21.751    6.316     47.432 
 C                     21.877    6.222     45.905 
 C                     23.27     6.614     45.387 
 C                     23.408    8.161     45.283 
 C                     23.548    5.979     43.948 
 H                     22.895    0.935     32.735 
 H                     23.679    0.793     26.328 
 H                     29.747   -1.217     27.472 
 H                     26.842   -0.409     35.034 
 H                     24.663    1.668     34.533 
 H                     23.323    0.223     35.38 
 H                     24.603   -0.916     35.624 
 H                     23.708   -1.002     34.157 
 H                     27.403    2.54      34.608 
 H                     28.428    1.431     35.533 
 H                     25.785    1.782     36.685 
 H                     26.675    3.253     36.539 
 H                     20.959    1.364     32.053 
 H                     20.186    0.635     30.63 
 H                     20.415    2.381     30.673 
 H                     19.443    0.812     28.721 
 H                     19.234    1.645     27.096 
 H                     19.831    2.542     28.489 
 H                     25.94     1.168     25.103 
 H                     27.782   -1.144     25.504 
 H                     24.309   -0.689     24.995 
 H                     25.705   -1.877     25.126 
 H                     25.73    -0.703     23.855 
 H                     29.176    1.305     26.042 
 H                     28.428    1.382     24.404 
 H                     30.003   -1.016     24.961 
 H                     30.909    0.406     25.42 
 H                     30.39     0.294     23.761 
 H                     32.118   -2.509     30.033 
 H                     32.427   -1.096     28.959 
 H                     31.27    -2.289     28.428 
 H                     30.184    0.417     34.345 
 H                     29.515   -3.051     36.651 
 H                     28.881   -1.527     37.446 
 H                     30.622   -2.042     37.526 
 H                     27.984    1.588     40.548 
 H                     27.934   -0.195     39.988 
 H                     25.383    0.195     40.43 
 H                     28.026    1.542     42.794 
 H                     26.977    1.002     44.077 
 H                     26.698    2.64      43.446 
 H                     24.838   -0.613     42.963 
 H                     24.02     0.549     41.887 
 H                     24.199    2.26      43.794 
 H                     24.525    0.843     44.837 
 H                     22.313    0.551     42.974 
 H                     22.138    2.081     43.868 
 H                     22.683   -0.161     45.793 
 H                     20.663   -1.287     45.606 
 H                     21.085   -1.172     43.922 
 H                     19.861   -0.108     44.812 
 H                     20.558    0.959     46.707 
 H                     20.779    2.156     45.471 
 H                     23.04     2.77      46.33 
 H                     23.174    1.279     47.121 
 H                     22.275    1.664     48.869 
 H                     20.814    2.435     48.188 
 H                     23.313    4.149     48. 
 H                     23.572    4.52      50.121 
 H                     22.628    3.05      50.517 
 H                     21.803    4.629     50.508 
 H                     20.647    5.237     48.831 
 H                     20.585    4.454     47.356 
 H                     22.757    6.509     47.805 
 H                     21.186    7.169     47.807 
 H                     21.203    6.949     45.452 
 H                     21.532    5.29      45.458 
 H                     24.085    6.288     46.034 
 H                     24.005    8.616     46.073 
 H                     22.468    8.667     45.506 
 H                     23.748    8.474     44.296 
 H                     23.342    6.67      43.131 
 H                     22.817    5.193     43.76 
 H                     24.552    5.562     43.868 
 
 ITRead=  0  0  0  0  0  0  0  0  0  0  0  0  0  0  0  0  0  0  0  0
 ITRead=  0  0  0  0  0  0  0  0  0  0  0  0  0  0  0  0  0  0  0  0
 ITRead=  0  0  0  0  0  0  0  0  0  0  0  0  0  0  0  0  0  0  0  0
 ITRead=  0  0  0  0  0  0  0  0  0  0  0  0  0  0  0  0  0  0  0  0
 ITRead=  0  0  0  0  0  0  0  0  0  0  0  0  0  0  0  0  0  0  0  0
 ITRead=  0  0  0  0  0  0  0  0  0  0  0  0  0  0  0  0  0  0  0  0
 ITRead=  0  0  0  0  0  0  0  0  0  0  0  0  0  0  0  0  0  0  0  0
 MicOpt= -1 -1 -1 -1 -1 -1 -1 -1 -1 -1 -1 -1 -1 -1 -1 -1 -1 -1 -1 -1
 MicOpt= -1 -1 -1 -1 -1 -1 -1 -1 -1 -1 -1 -1 -1 -1 -1 -1 -1 -1 -1 -1
 MicOpt= -1 -1 -1 -1 -1 -1 -1 -1 -1 -1 -1 -1 -1 -1 -1 -1 -1 -1 -1 -1
 MicOpt= -1 -1 -1 -1 -1 -1 -1 -1 -1 -1 -1 -1 -1 -1 -1 -1 -1 -1 -1 -1
 MicOpt= -1 -1 -1 -1 -1 -1 -1 -1 -1 -1 -1 -1 -1 -1 -1 -1 -1 -1 -1 -1
 MicOpt= -1 -1 -1 -1 -1 -1 -1 -1 -1 -1 -1 -1 -1 -1 -1 -1 -1 -1 -1 -1
 MicOpt= -1 -1 -1 -1 -1 -1 -1 -1 -1 -1 -1 -1 -1 -1 -1 -1 -1 -1 -1 -1
 NAtoms=    140 NQM=      140 NQMF=       0 NMMI=      0 NMMIF=      0
                NMic=       0 NMicF=      0.
                    Isotopes and Nuclear Properties:
 (Nuclear quadrupole moments (NQMom) in fm**2, nuclear magnetic moments (NMagM)
  in nuclear magnetons)

  Atom         1           2           3           4           5           6           7           8           9          10
 IAtWgt=          24          12          12          12          12          14          12          12          12          12
 AtmWgt=  23.9850450  12.0000000  12.0000000  12.0000000  12.0000000  14.0030740  12.0000000  12.0000000  12.0000000  12.0000000
 NucSpn=           0           0           0           0           0           2           0           0           0           0
 AtZEff=  -0.0000000  -0.0000000  -0.0000000  -0.0000000  -0.0000000  -0.0000000  -0.0000000  -0.0000000  -0.0000000  -0.0000000
 NQMom=    0.0000000   0.0000000   0.0000000   0.0000000   0.0000000   2.0440000   0.0000000   0.0000000   0.0000000   0.0000000
 NMagM=    0.0000000   0.0000000   0.0000000   0.0000000   0.0000000   0.4037610   0.0000000   0.0000000   0.0000000   0.0000000
 AtZNuc=  12.0000000   6.0000000   6.0000000   6.0000000   6.0000000   7.0000000   6.0000000   6.0000000   6.0000000   6.0000000

  Atom        11          12          13          14          15          16          17          18          19          20
 IAtWgt=          12          12          12          12          16          16          14          12          12          12
 AtmWgt=  12.0000000  12.0000000  12.0000000  12.0000000  15.9949146  15.9949146  14.0030740  12.0000000  12.0000000  12.0000000
 NucSpn=           0           0           0           0           0           0           2           0           0           0
 AtZEff=  -0.0000000  -0.0000000  -0.0000000  -0.0000000  -0.0000000  -0.0000000  -0.0000000  -0.0000000  -0.0000000  -0.0000000
 NQMom=    0.0000000   0.0000000   0.0000000   0.0000000   0.0000000   0.0000000   2.0440000   0.0000000   0.0000000   0.0000000
 NMagM=    0.0000000   0.0000000   0.0000000   0.0000000   0.0000000   0.0000000   0.4037610   0.0000000   0.0000000   0.0000000
 AtZNuc=   6.0000000   6.0000000   6.0000000   6.0000000   8.0000000   8.0000000   7.0000000   6.0000000   6.0000000   6.0000000

  Atom        21          22          23          24          25          26          27          28          29          30
 IAtWgt=          12          12          12          16          12          14          12          12          12          12
 AtmWgt=  12.0000000  12.0000000  12.0000000  15.9949146  12.0000000  14.0030740  12.0000000  12.0000000  12.0000000  12.0000000
 NucSpn=           0           0           0           0           0           2           0           0           0           0
 AtZEff=  -0.0000000  -0.0000000  -0.0000000  -0.0000000  -0.0000000  -0.0000000  -0.0000000  -0.0000000  -0.0000000  -0.0000000
 NQMom=    0.0000000   0.0000000   0.0000000   0.0000000   0.0000000   2.0440000   0.0000000   0.0000000   0.0000000   0.0000000
 NMagM=    0.0000000   0.0000000   0.0000000   0.0000000   0.0000000   0.4037610   0.0000000   0.0000000   0.0000000   0.0000000
 AtZNuc=   6.0000000   6.0000000   6.0000000   8.0000000   6.0000000   7.0000000   6.0000000   6.0000000   6.0000000   6.0000000

  Atom        31          32          33          34          35          36          37          38          39          40
 IAtWgt=          12          12          12          14          12          12          12          12          12          12
 AtmWgt=  12.0000000  12.0000000  12.0000000  14.0030740  12.0000000  12.0000000  12.0000000  12.0000000  12.0000000  12.0000000
 NucSpn=           0           0           0           2           0           0           0           0           0           0
 AtZEff=  -0.0000000  -0.0000000  -0.0000000  -0.0000000  -0.0000000  -0.0000000  -0.0000000  -0.0000000  -0.0000000  -0.0000000
 NQMom=    0.0000000   0.0000000   0.0000000   2.0440000   0.0000000   0.0000000   0.0000000   0.0000000   0.0000000   0.0000000
 NMagM=    0.0000000   0.0000000   0.0000000   0.4037610   0.0000000   0.0000000   0.0000000   0.0000000   0.0000000   0.0000000
 AtZNuc=   6.0000000   6.0000000   6.0000000   7.0000000   6.0000000   6.0000000   6.0000000   6.0000000   6.0000000   6.0000000

  Atom        41          42          43          44          45          46          47          48          49          50
 IAtWgt=          16          12          12          16          16          12          12          12          12          12
 AtmWgt=  15.9949146  12.0000000  12.0000000  15.9949146  15.9949146  12.0000000  12.0000000  12.0000000  12.0000000  12.0000000
 NucSpn=           0           0           0           0           0           0           0           0           0           0
 AtZEff=  -0.0000000  -0.0000000  -0.0000000  -0.0000000  -0.0000000  -0.0000000  -0.0000000  -0.0000000  -0.0000000  -0.0000000
 NQMom=    0.0000000   0.0000000   0.0000000   0.0000000   0.0000000   0.0000000   0.0000000   0.0000000   0.0000000   0.0000000
 NMagM=    0.0000000   0.0000000   0.0000000   0.0000000   0.0000000   0.0000000   0.0000000   0.0000000   0.0000000   0.0000000
 AtZNuc=   8.0000000   6.0000000   6.0000000   8.0000000   8.0000000   6.0000000   6.0000000   6.0000000   6.0000000   6.0000000

  Atom        51          52          53          54          55          56          57          58          59          60
 IAtWgt=          12          12          12          12          12          12          12          12          12          12
 AtmWgt=  12.0000000  12.0000000  12.0000000  12.0000000  12.0000000  12.0000000  12.0000000  12.0000000  12.0000000  12.0000000
 NucSpn=           0           0           0           0           0           0           0           0           0           0
 AtZEff=  -0.0000000  -0.0000000  -0.0000000  -0.0000000  -0.0000000  -0.0000000  -0.0000000  -0.0000000  -0.0000000  -0.0000000
 NQMom=    0.0000000   0.0000000   0.0000000   0.0000000   0.0000000   0.0000000   0.0000000   0.0000000   0.0000000   0.0000000
 NMagM=    0.0000000   0.0000000   0.0000000   0.0000000   0.0000000   0.0000000   0.0000000   0.0000000   0.0000000   0.0000000
 AtZNuc=   6.0000000   6.0000000   6.0000000   6.0000000   6.0000000   6.0000000   6.0000000   6.0000000   6.0000000   6.0000000

  Atom        61          62          63          64          65          66          67          68          69          70
 IAtWgt=          12          12          12          12          12          12           1           1           1           1
 AtmWgt=  12.0000000  12.0000000  12.0000000  12.0000000  12.0000000  12.0000000   1.0078250   1.0078250   1.0078250   1.0078250
 NucSpn=           0           0           0           0           0           0           1           1           1           1
 AtZEff=  -0.0000000  -0.0000000  -0.0000000  -0.0000000  -0.0000000  -0.0000000  -0.0000000  -0.0000000  -0.0000000  -0.0000000
 NQMom=    0.0000000   0.0000000   0.0000000   0.0000000   0.0000000   0.0000000   0.0000000   0.0000000   0.0000000   0.0000000
 NMagM=    0.0000000   0.0000000   0.0000000   0.0000000   0.0000000   0.0000000   2.7928460   2.7928460   2.7928460   2.7928460
 AtZNuc=   6.0000000   6.0000000   6.0000000   6.0000000   6.0000000   6.0000000   1.0000000   1.0000000   1.0000000   1.0000000

  Atom        71          72          73          74          75          76          77          78          79          80
 IAtWgt=           1           1           1           1           1           1           1           1           1           1
 AtmWgt=   1.0078250   1.0078250   1.0078250   1.0078250   1.0078250   1.0078250   1.0078250   1.0078250   1.0078250   1.0078250
 NucSpn=           1           1           1           1           1           1           1           1           1           1
 AtZEff=  -0.0000000  -0.0000000  -0.0000000  -0.0000000  -0.0000000  -0.0000000  -0.0000000  -0.0000000  -0.0000000  -0.0000000
 NQMom=    0.0000000   0.0000000   0.0000000   0.0000000   0.0000000   0.0000000   0.0000000   0.0000000   0.0000000   0.0000000
 NMagM=    2.7928460   2.7928460   2.7928460   2.7928460   2.7928460   2.7928460   2.7928460   2.7928460   2.7928460   2.7928460
 AtZNuc=   1.0000000   1.0000000   1.0000000   1.0000000   1.0000000   1.0000000   1.0000000   1.0000000   1.0000000   1.0000000

  Atom        81          82          83          84          85          86          87          88          89          90
 IAtWgt=           1           1           1           1           1           1           1           1           1           1
 AtmWgt=   1.0078250   1.0078250   1.0078250   1.0078250   1.0078250   1.0078250   1.0078250   1.0078250   1.0078250   1.0078250
 NucSpn=           1           1           1           1           1           1           1           1           1           1
 AtZEff=  -0.0000000  -0.0000000  -0.0000000  -0.0000000  -0.0000000  -0.0000000  -0.0000000  -0.0000000  -0.0000000  -0.0000000
 NQMom=    0.0000000   0.0000000   0.0000000   0.0000000   0.0000000   0.0000000   0.0000000   0.0000000   0.0000000   0.0000000
 NMagM=    2.7928460   2.7928460   2.7928460   2.7928460   2.7928460   2.7928460   2.7928460   2.7928460   2.7928460   2.7928460
 AtZNuc=   1.0000000   1.0000000   1.0000000   1.0000000   1.0000000   1.0000000   1.0000000   1.0000000   1.0000000   1.0000000

  Atom        91          92          93          94          95          96          97          98          99         100
 IAtWgt=           1           1           1           1           1           1           1           1           1           1
 AtmWgt=   1.0078250   1.0078250   1.0078250   1.0078250   1.0078250   1.0078250   1.0078250   1.0078250   1.0078250   1.0078250
 NucSpn=           1           1           1           1           1           1           1           1           1           1
 AtZEff=  -0.0000000  -0.0000000  -0.0000000  -0.0000000  -0.0000000  -0.0000000  -0.0000000  -0.0000000  -0.0000000  -0.0000000
 NQMom=    0.0000000   0.0000000   0.0000000   0.0000000   0.0000000   0.0000000   0.0000000   0.0000000   0.0000000   0.0000000
 NMagM=    2.7928460   2.7928460   2.7928460   2.7928460   2.7928460   2.7928460   2.7928460   2.7928460   2.7928460   2.7928460
 AtZNuc=   1.0000000   1.0000000   1.0000000   1.0000000   1.0000000   1.0000000   1.0000000   1.0000000   1.0000000   1.0000000

  Atom       101         102         103         104         105         106         107         108         109         110
 IAtWgt=           1           1           1           1           1           1           1           1           1           1
 AtmWgt=   1.0078250   1.0078250   1.0078250   1.0078250   1.0078250   1.0078250   1.0078250   1.0078250   1.0078250   1.0078250
 NucSpn=           1           1           1           1           1           1           1           1           1           1
 AtZEff=  -0.0000000  -0.0000000  -0.0000000  -0.0000000  -0.0000000  -0.0000000  -0.0000000  -0.0000000  -0.0000000  -0.0000000
 NQMom=    0.0000000   0.0000000   0.0000000   0.0000000   0.0000000   0.0000000   0.0000000   0.0000000   0.0000000   0.0000000
 NMagM=    2.7928460   2.7928460   2.7928460   2.7928460   2.7928460   2.7928460   2.7928460   2.7928460   2.7928460   2.7928460
 AtZNuc=   1.0000000   1.0000000   1.0000000   1.0000000   1.0000000   1.0000000   1.0000000   1.0000000   1.0000000   1.0000000

  Atom       111         112         113         114         115         116         117         118         119         120
 IAtWgt=           1           1           1           1           1           1           1           1           1           1
 AtmWgt=   1.0078250   1.0078250   1.0078250   1.0078250   1.0078250   1.0078250   1.0078250   1.0078250   1.0078250   1.0078250
 NucSpn=           1           1           1           1           1           1           1           1           1           1
 AtZEff=  -0.0000000  -0.0000000  -0.0000000  -0.0000000  -0.0000000  -0.0000000  -0.0000000  -0.0000000  -0.0000000  -0.0000000
 NQMom=    0.0000000   0.0000000   0.0000000   0.0000000   0.0000000   0.0000000   0.0000000   0.0000000   0.0000000   0.0000000
 NMagM=    2.7928460   2.7928460   2.7928460   2.7928460   2.7928460   2.7928460   2.7928460   2.7928460   2.7928460   2.7928460
 AtZNuc=   1.0000000   1.0000000   1.0000000   1.0000000   1.0000000   1.0000000   1.0000000   1.0000000   1.0000000   1.0000000

  Atom       121         122         123         124         125         126         127         128         129         130
 IAtWgt=           1           1           1           1           1           1           1           1           1           1
 AtmWgt=   1.0078250   1.0078250   1.0078250   1.0078250   1.0078250   1.0078250   1.0078250   1.0078250   1.0078250   1.0078250
 NucSpn=           1           1           1           1           1           1           1           1           1           1
 AtZEff=  -0.0000000  -0.0000000  -0.0000000  -0.0000000  -0.0000000  -0.0000000  -0.0000000  -0.0000000  -0.0000000  -0.0000000
 NQMom=    0.0000000   0.0000000   0.0000000   0.0000000   0.0000000   0.0000000   0.0000000   0.0000000   0.0000000   0.0000000
 NMagM=    2.7928460   2.7928460   2.7928460   2.7928460   2.7928460   2.7928460   2.7928460   2.7928460   2.7928460   2.7928460
 AtZNuc=   1.0000000   1.0000000   1.0000000   1.0000000   1.0000000   1.0000000   1.0000000   1.0000000   1.0000000   1.0000000

  Atom       131         132         133         134         135         136         137         138         139         140
 IAtWgt=           1           1           1           1           1           1           1           1           1           1
 AtmWgt=   1.0078250   1.0078250   1.0078250   1.0078250   1.0078250   1.0078250   1.0078250   1.0078250   1.0078250   1.0078250
 NucSpn=           1           1           1           1           1           1           1           1           1           1
 AtZEff=  -0.0000000  -0.0000000  -0.0000000  -0.0000000  -0.0000000  -0.0000000  -0.0000000  -0.0000000  -0.0000000  -0.0000000
 NQMom=    0.0000000   0.0000000   0.0000000   0.0000000   0.0000000   0.0000000   0.0000000   0.0000000   0.0000000   0.0000000
 NMagM=    2.7928460   2.7928460   2.7928460   2.7928460   2.7928460   2.7928460   2.7928460   2.7928460   2.7928460   2.7928460
 AtZNuc=   1.0000000   1.0000000   1.0000000   1.0000000   1.0000000   1.0000000   1.0000000   1.0000000   1.0000000   1.0000000
 Leave Link  101 at Wed May  4 14:11:54 2022, MaxMem=  6710886400 cpu:               3.5 elap:               0.2
 (Enter /sw/apps/gaussian-16.0/g16/l202.exe)
 Stoichiometry    C55H74MgN4O6
 Framework group  C1[X(C55H74MgN4O6)]
 Deg. of freedom   414
 Full point group                 C1      NOp   1
 Largest Abelian subgroup         C1      NOp   1
 Largest concise Abelian subgroup C1      NOp   1
                         Standard orientation:                         
 ---------------------------------------------------------------------
 Center     Atomic      Atomic             Coordinates (Angstroms)
 Number     Number       Type             X           Y           Z
 ---------------------------------------------------------------------
      1         12           0        5.668003    0.572590    0.325918
      2          6           0        3.582941   -2.338600    0.166539
      3          6           0        3.119253    2.589779   -0.468453
      4          6           0        7.871348    3.324756    0.140600
      5          6           0        8.414143   -1.582903    0.180282
      6          7           0        3.594979    0.103005   -0.089029
      7          6           0        2.953244   -1.085869    0.074794
      8          6           0        1.432187   -0.825331   -0.077787
      9          6           0        1.357897    0.754744   -0.401796
     10          6           0        2.841777    1.224366   -0.402318
     11          6           0        0.721866    1.168618   -1.734207
     12          6           0        0.608091   -1.350323    1.178844
     13          6           0       -0.850893   -0.997695    1.277084
     14          6           0       -1.988054   -2.037852    1.295418
     15          8           0       -2.461385   -2.658189    2.266824
     16          8           0       -2.564992   -2.039509    0.030988
     17          7           0        5.441403    2.679911   -0.002454
     18          6           0        4.293996    3.307835   -0.309695
     19          6           0        4.524707    4.683585   -0.476891
     20          6           0        5.935888    4.881572   -0.319845
     21          6           0        6.493716    3.575646   -0.089687
     22          6           0        3.458981    5.699000   -0.804924
     23          6           0        6.705651    6.147203   -0.490464
     24          8           0        7.888287    6.182792   -0.217664
     25          6           0        6.051410    7.457074   -0.715154
     26          7           0        7.769000    0.786735    0.439030
     27          6           0        8.423237    2.024127    0.308126
     28          6           0        9.952276    1.828661    0.419153
     29          6           0       10.103132    0.283498    0.578392
     30          6           0        8.708751   -0.226149    0.469343
     31          6           0       10.682777    2.426153   -0.797757
     32          6           0       10.782555   -0.308054    1.798623
     33          6           0       11.588096   -1.612968    1.651068
     34          7           0        6.002945   -1.509190    0.215835
     35          6           0        7.152914   -2.234420    0.124318
     36          6           0        6.868431   -3.647138    0.208400
     37          6           0        5.500778   -3.776952    0.301879
     38          6           0        5.014118   -2.423807    0.142174
     39          6           0        7.913466   -4.797449   -0.050284
     40          6           0        4.366513   -4.655280    0.353632
     41          8           0        4.345080   -5.883503    0.361192
     42          6           0        3.071136   -3.780913    0.221883
     43          6           0        2.389230   -4.191149   -1.014274
     44          8           0        2.715403   -3.915693   -2.163151
     45          8           0        1.176858   -4.768936   -0.636820
     46          6           0        0.220102   -5.001425   -1.711176
     47          6           0       -3.751761   -2.896203   -0.172493
     48          6           0       -4.853557   -2.054703   -0.816297
     49          6           0       -6.148083   -2.092356   -0.703642
     50          6           0       -7.020179   -3.048145    0.139391
     51          6           0       -6.852292   -1.157029   -1.695418
     52          6           0       -8.258209   -0.650730   -1.338889
     53          6           0       -8.559805    0.727675   -1.971028
     54          6           0       -9.799105    0.735733   -2.975528
     55          6           0       -9.458623    1.548183   -4.152588
     56          6           0      -10.971525    1.381289   -2.243896
     57          6           0      -11.619063    0.324613   -1.379195
     58          6           0      -13.077406    0.599596   -1.324450
     59          6           0      -13.564108    0.521304    0.213830
     60          6           0      -14.982399   -0.039696    0.191159
     61          6           0      -13.457602    1.949213    0.835168
     62          6           0      -13.061003    2.092194    2.323537
     63          6           0      -11.550789    2.341506    2.439898
     64          6           0      -10.833462    1.311260    3.326730
     65          6           0      -10.988721    1.672202    4.832945
     66          6           0       -9.276590    1.236979    2.977646
     67          1           0        2.281940    3.220980   -0.772533
     68          1           0        8.625648    4.107573    0.037280
     69          1           0        9.167123   -2.363587    0.056347
     70          1           0        1.147536   -1.399477   -0.959749
     71          1           0        0.790881    1.351379    0.312478
     72          1           0       -0.037976    1.934404   -1.578054
     73          1           0        0.204954    0.355595   -2.244090
     74          1           0        1.442193    1.530335   -2.467103
     75          1           0        1.132716   -0.926646    2.035081
     76          1           0        0.662675   -2.437453    1.239685
     77          1           0       -1.061834   -0.200034    0.564571
     78          1           0       -1.005271   -0.542156    2.254840
     79          1           0        2.452620    5.303961   -0.943766
     80          1           0        3.791221    6.163615   -1.733095
     81          1           0        3.477305    6.462367   -0.025755
     82          1           0        5.436516    7.390811   -1.612050
     83          1           0        6.800464    8.249534   -0.728627
     84          1           0        5.422960    7.609446    0.162572
     85          1           0       10.206942    2.456430    1.272840
     86          1           0       10.632193   -0.028944   -0.321270
     87          1           0       10.309974    3.430036   -0.999109
     88          1           0       10.694728    1.759092   -1.660343
     89          1           0       11.705094    2.413203   -0.417105
     90          1           0        9.957834   -0.718992    2.380462
     91          1           0       11.360169    0.413228    2.377346
     92          1           0       11.595455   -1.892515    0.597046
     93          1           0       11.083313   -2.419711    2.182410
     94          1           0       12.588492   -1.548901    2.080851
     95          1           0        7.441400   -5.587362   -0.635591
     96          1           0        8.278172   -5.173797    0.905286
     97          1           0        8.764836   -4.329104   -0.541611
     98          1           0        2.357685   -4.047861    1.001772
     99          1           0        0.639590   -5.060111   -2.715179
    100          1           0       -0.536581   -4.227867   -1.583565
    101          1           0       -0.154147   -6.002243   -1.493899
    102          1           0       -4.275661   -3.273713    0.705346
    103          1           0       -3.420917   -3.614919   -0.921978
    104          1           0       -4.451418   -1.267646   -1.454371
    105          1           0       -6.415516   -3.904284    0.437402
    106          1           0       -7.768327   -3.431301   -0.554707
    107          1           0       -7.521508   -2.524258    0.953735
    108          1           0       -6.849965   -1.659625   -2.662387
    109          1           0       -6.201269   -0.284419   -1.732254
    110          1           0       -8.309453   -0.430045   -0.272609
    111          1           0       -8.982698   -1.420505   -1.602174
    112          1           0       -7.603195    1.005371   -2.415238
    113          1           0       -8.779398    1.392007   -1.135464
    114          1           0      -10.102374   -0.272691   -3.258605
    115          1           0      -10.139178    1.296661   -4.967121
    116          1           0       -8.454548    1.376598   -4.539574
    117          1           0       -9.761090    2.589622   -4.045719
    118          1           0      -11.630991    1.779031   -3.015313
    119          1           0      -10.617404    2.250824   -1.688890
    120          1           0      -11.081506    0.134356   -0.451081
    121          1           0      -11.539359   -0.636793   -1.887193
    122          1           0      -13.477185   -0.145752   -2.012249
    123          1           0      -13.270758    1.602274   -1.704818
    124          1           0      -12.881420   -0.135593    0.754119
    125          1           0      -14.932333   -0.809178    0.962454
    126          1           0      -15.240496   -0.481486   -0.771473
    127          1           0      -15.694601    0.749711    0.433470
    128          1           0      -14.437776    2.425242    0.795848
    129          1           0      -12.890377    2.628648    0.198571
    130          1           0      -13.243939    1.128972    2.800143
    131          1           0      -13.696139    2.769185    2.894276
    132          1           0      -11.390397    3.294319    2.944315
    133          1           0      -11.022625    2.495970    1.499344
    134          1           0      -11.224268    0.298395    3.224334
    135          1           0      -11.705936    1.055645    5.374235
    136          1           0      -11.492715    2.629616    4.969745
    137          1           0      -10.027036    1.707068    5.344495
    138          1           0       -8.661958    1.842599    3.643122
    139          1           0       -9.104841    1.723076    2.017587
    140          1           0       -8.912870    0.210443    2.930351
 ---------------------------------------------------------------------
 Rotational constants (GHZ):           0.0500178           0.0092830           0.0083417
 Leave Link  202 at Wed May  4 14:11:54 2022, MaxMem=  6710886400 cpu:               0.2 elap:               0.0
 (Enter /sw/apps/gaussian-16.0/g16/l301.exe)
 Standard basis: VSTO-6G (5D, 7F)
 Ernie: Thresh=  0.10000D-02 Tol=  0.10000D-05 Strict=F.
 There are   338 symmetry adapted cartesian basis functions of A   symmetry.
 There are   338 symmetry adapted basis functions of A   symmetry.
   338 basis functions,  2028 primitive gaussians,   338 cartesian basis functions
   176 alpha electrons      176 beta electrons
       nuclear repulsion energy      4772.2195224761 Hartrees.
 IExCor=    0 DFT=F Ex=HF Corr=None ExCW=0 ScaHFX=  1.000000
 ScaDFX=  1.000000  1.000000  1.000000  1.000000 ScalE2=  1.000000  1.000000
 IRadAn=      5 IRanWt=     -1 IRanGd=            0 ICorTp=0 IEmpDi=  4
 Integral buffers will be    131072 words long.
 Regular integral format.
 Two-electron integral symmetry is turned off.
 Leave Link  301 at Wed May  4 14:11:54 2022, MaxMem=  6710886400 cpu:               1.3 elap:               0.1
 (Enter /sw/apps/gaussian-16.0/g16/l302.exe)
 Do NDO integrals.
 NPDir=0 NMtPBC=     1 NCelOv=     1 NCel=       1 NClECP=     1 NCelD=      1
         NCelK=      1 NCelE2=     1 NClLst=     1 CellRange=     0.0.
 One-electron integrals computed using PRISM.
 Generate ZINDO/S integrals.
 NDO Nuclear repulsion=  4289.230566511127 Hartrees.
 NBasis=   338 RedAO= F EigKep=  0.00D+00  NBF=   338
 NBsUse=   338 1.00D-04 EigRej=  0.00D+00 NBFU=   338
 Leave Link  302 at Wed May  4 14:11:55 2022, MaxMem=  6710886400 cpu:               8.6 elap:               0.4
 (Enter /sw/apps/gaussian-16.0/g16/l303.exe)
 DipDrv:  MaxL=1.
 DipDrv:  will hold  3 matrices at once.
 Leave Link  303 at Wed May  4 14:11:55 2022, MaxMem=  6710886400 cpu:               1.0 elap:               0.1
 (Enter /sw/apps/gaussian-16.0/g16/l308.exe)
 Leave Link  308 at Wed May  4 14:11:55 2022, MaxMem=  6710886400 cpu:               4.8 elap:               0.2
 (Enter /sw/apps/gaussian-16.0/g16/l401.exe)
 Simple Huckel Guess.
 JPrj=0 DoOrth=F DoCkMO=F.
 Leave Link  401 at Wed May  4 14:11:55 2022, MaxMem=  6710886400 cpu:               2.8 elap:               0.1
 (Enter /sw/apps/gaussian-16.0/g16/l502.exe)
 Two-electron integral symmetry not used.
 Closed shell SCF:
 Using DIIS extrapolation, IDIIS=  1040.
 Overlap will be assumed to be unity.
 NGot=  6710886400 LenX=  6710643598 LenY=  6710528913
 Requested convergence on RMS density matrix=1.00D-08 within 128 cycles.
 Requested convergence on MAX density matrix=1.00D-06.
 Requested convergence on             energy=1.00D-06.
 No special actions if energy rises.
 Fock matrices will be formed incrementally for  20 cycles.

 Cycle   1  Pass 1  IDiag  1:
 E= -472.448036329613    
 DIIS: error= 6.22D-02 at cycle   1 NSaved=   1.
 NSaved= 1 IEnMin= 1 EnMin= -472.448036329613     IErMin= 1 ErrMin= 6.22D-02
 ErrMax= 6.22D-02  0.00D+00 EMaxC= 1.00D-01 BMatC= 8.28D-01 BMatP= 8.28D-01
 IDIUse=3 WtCom= 3.78D-01 WtEn= 6.22D-01
 Coeff-Com:  0.100D+01
 Coeff-En:   0.100D+01
 Coeff:      0.100D+01
 GapD=    2.000 DampG=2.000 DampE=0.500 DampFc=1.0000 IDamp=-1.
 RMSDP=4.01D-03 MaxDP=1.76D-01              OVMax= 0.00D+00

 Cycle   2  Pass 1  IDiag  1:
 RMSU=  4.01D-03    CP:  9.95D-01
 E= -474.277782837625     Delta-E=       -1.829746508011 Rises=F Damp=F
 DIIS: error= 2.14D-02 at cycle   2 NSaved=   2.
 NSaved= 2 IEnMin= 2 EnMin= -474.277782837625     IErMin= 2 ErrMin= 2.14D-02
 ErrMax= 2.14D-02  0.00D+00 EMaxC= 1.00D-01 BMatC= 5.22D-02 BMatP= 8.28D-01
 IDIUse=3 WtCom= 7.86D-01 WtEn= 2.14D-01
 Coeff-Com: -0.709D-01 0.107D+01
 Coeff-En:   0.000D+00 0.100D+01
 Coeff:     -0.557D-01 0.106D+01
 RMSDP=1.11D-03 MaxDP=5.67D-02 DE=-1.83D+00 OVMax= 0.00D+00

 Cycle   3  Pass 1  IDiag  1:
 RMSU=  1.04D-03    CP:  9.93D-01  1.09D+00
 E= -474.380070079666     Delta-E=       -0.102287242041 Rises=F Damp=F
 DIIS: error= 9.66D-03 at cycle   3 NSaved=   3.
 NSaved= 3 IEnMin= 3 EnMin= -474.380070079666     IErMin= 3 ErrMin= 9.66D-03
 ErrMax= 9.66D-03  0.00D+00 EMaxC= 1.00D-01 BMatC= 7.19D-03 BMatP= 5.22D-02
 IDIUse=3 WtCom= 9.03D-01 WtEn= 9.66D-02
 Coeff-Com: -0.679D-01 0.239D+00 0.829D+00
 Coeff-En:   0.000D+00 0.000D+00 0.100D+01
 Coeff:     -0.613D-01 0.216D+00 0.846D+00
 RMSDP=3.76D-04 MaxDP=2.00D-02 DE=-1.02D-01 OVMax= 0.00D+00

 Cycle   4  Pass 1  IDiag  1:
 RMSU=  2.43D-04    CP:  9.93D-01  1.16D+00  9.25D-01
 E= -474.392966738184     Delta-E=       -0.012896658519 Rises=F Damp=F
 DIIS: error= 1.50D-03 at cycle   4 NSaved=   4.
 NSaved= 4 IEnMin= 4 EnMin= -474.392966738184     IErMin= 4 ErrMin= 1.50D-03
 ErrMax= 1.50D-03  0.00D+00 EMaxC= 1.00D-01 BMatC= 3.05D-04 BMatP= 7.19D-03
 IDIUse=3 WtCom= 9.85D-01 WtEn= 1.50D-02
 Coeff-Com:  0.281D-03-0.362D-01 0.271D-01 0.101D+01
 Coeff-En:   0.000D+00 0.000D+00 0.000D+00 0.100D+01
 Coeff:      0.277D-03-0.356D-01 0.267D-01 0.101D+01
 RMSDP=1.36D-04 MaxDP=8.60D-03 DE=-1.29D-02 OVMax= 0.00D+00

 Cycle   5  Pass 1  IDiag  1:
 RMSU=  9.00D-05    CP:  9.92D-01  1.17D+00  1.02D+00  1.06D+00
 E= -474.394014321445     Delta-E=       -0.001047583261 Rises=F Damp=F
 DIIS: error= 7.20D-04 at cycle   5 NSaved=   5.
 NSaved= 5 IEnMin= 5 EnMin= -474.394014321445     IErMin= 5 ErrMin= 7.20D-04
 ErrMax= 7.20D-04  0.00D+00 EMaxC= 1.00D-01 BMatC= 6.07D-05 BMatP= 3.05D-04
 IDIUse=3 WtCom= 9.93D-01 WtEn= 7.20D-03
 Coeff-Com:  0.634D-02-0.260D-01-0.968D-01 0.199D+00 0.917D+00
 Coeff-En:   0.000D+00 0.000D+00 0.000D+00 0.000D+00 0.100D+01
 Coeff:      0.629D-02-0.258D-01-0.961D-01 0.198D+00 0.918D+00
 RMSDP=5.70D-05 MaxDP=3.02D-03 DE=-1.05D-03 OVMax= 0.00D+00

 Cycle   6  Pass 1  IDiag  1:
 RMSU=  3.10D-05    CP:  9.92D-01  1.17D+00  1.04D+00  1.23D+00  1.11D+00
 E= -474.394214849213     Delta-E=       -0.000200527768 Rises=F Damp=F
 DIIS: error= 2.43D-04 at cycle   6 NSaved=   6.
 NSaved= 6 IEnMin= 6 EnMin= -474.394214849213     IErMin= 6 ErrMin= 2.43D-04
 ErrMax= 2.43D-04  0.00D+00 EMaxC= 1.00D-01 BMatC= 6.47D-06 BMatP= 6.07D-05
 IDIUse=3 WtCom= 9.98D-01 WtEn= 2.43D-03
 Coeff-Com: -0.261D-03 0.616D-02-0.129D-01-0.102D+00-0.699D-04 0.111D+01
 Coeff-En:   0.000D+00 0.000D+00 0.000D+00 0.000D+00 0.000D+00 0.100D+01
 Coeff:     -0.260D-03 0.615D-02-0.129D-01-0.102D+00-0.697D-04 0.111D+01
 RMSDP=3.56D-05 MaxDP=1.79D-03 DE=-2.01D-04 OVMax= 0.00D+00

 Cycle   7  Pass 1  IDiag  1:
 RMSU=  1.81D-05    CP:  9.92D-01  1.17D+00  1.05D+00  1.27D+00  1.38D+00
                    CP:  1.40D+00
 E= -474.394257719555     Delta-E=       -0.000042870342 Rises=F Damp=F
 DIIS: error= 1.00D-04 at cycle   7 NSaved=   7.
 NSaved= 7 IEnMin= 7 EnMin= -474.394257719555     IErMin= 7 ErrMin= 1.00D-04
 ErrMax= 1.00D-04  0.00D+00 EMaxC= 1.00D-01 BMatC= 1.78D-06 BMatP= 6.47D-06
 IDIUse=1 WtCom= 1.00D+00 WtEn= 0.00D+00
 Coeff-Com: -0.730D-03 0.374D-02 0.744D-02-0.264D-01-0.127D+00 0.193D+00
 Coeff-Com:  0.950D+00
 Coeff:     -0.730D-03 0.374D-02 0.744D-02-0.264D-01-0.127D+00 0.193D+00
 Coeff:      0.950D+00
 RMSDP=1.92D-05 MaxDP=1.09D-03 DE=-4.29D-05 OVMax= 0.00D+00

 Cycle   8  Pass 1  IDiag  1:
 RMSU=  6.14D-06    CP:  9.92D-01  1.17D+00  1.05D+00  1.28D+00  1.49D+00
                    CP:  1.75D+00  1.60D+00
 E= -474.394273385936     Delta-E=       -0.000015666381 Rises=F Damp=F
 DIIS: error= 5.41D-05 at cycle   8 NSaved=   8.
 NSaved= 8 IEnMin= 8 EnMin= -474.394273385936     IErMin= 8 ErrMin= 5.41D-05
 ErrMax= 5.41D-05  0.00D+00 EMaxC= 1.00D-01 BMatC= 7.00D-07 BMatP= 1.78D-06
 IDIUse=1 WtCom= 1.00D+00 WtEn= 0.00D+00
 Coeff-Com:  0.150D-03-0.179D-02 0.188D-02 0.299D-01-0.148D-01-0.164D+00
 Coeff-Com: -0.447D+00 0.160D+01
 Coeff:      0.150D-03-0.179D-02 0.188D-02 0.299D-01-0.148D-01-0.164D+00
 Coeff:     -0.447D+00 0.160D+01
 RMSDP=2.81D-05 MaxDP=1.19D-03 DE=-1.57D-05 OVMax= 0.00D+00

 Cycle   9  Pass 1  IDiag  1:
 RMSU=  5.41D-06    CP:  9.92D-01  1.17D+00  1.05D+00  1.28D+00  1.62D+00
                    CP:  2.12D+00  2.73D+00  2.08D+00
 E= -474.394288651000     Delta-E=       -0.000015265065 Rises=F Damp=F
 DIIS: error= 4.69D-05 at cycle   9 NSaved=   9.
 NSaved= 9 IEnMin= 9 EnMin= -474.394288651000     IErMin= 9 ErrMin= 4.69D-05
 ErrMax= 4.69D-05  0.00D+00 EMaxC= 1.00D-01 BMatC= 5.89D-07 BMatP= 7.00D-07
 IDIUse=1 WtCom= 1.00D+00 WtEn= 0.00D+00
 Coeff-Com:  0.384D-03-0.167D-02-0.485D-02 0.907D-02 0.526D-01 0.465D-01
 Coeff-Com: -0.974D+00 0.555D+00 0.132D+01
 Coeff:      0.384D-03-0.167D-02-0.485D-02 0.907D-02 0.526D-01 0.465D-01
 Coeff:     -0.974D+00 0.555D+00 0.132D+01
 RMSDP=2.93D-05 MaxDP=1.23D-03 DE=-1.53D-05 OVMax= 0.00D+00

 Cycle  10  Pass 1  IDiag  1:
 RMSU=  1.69D-05    CP:  9.92D-01  1.17D+00  1.05D+00  1.29D+00  1.75D+00
                    CP:  2.49D+00  3.00D+00  3.00D+00  2.11D+00
 E= -474.394300629463     Delta-E=       -0.000011978463 Rises=F Damp=F
 DIIS: error= 3.03D-05 at cycle  10 NSaved=  10.
 NSaved=10 IEnMin=10 EnMin= -474.394300629463     IErMin=10 ErrMin= 3.03D-05
 ErrMax= 3.03D-05  0.00D+00 EMaxC= 1.00D-01 BMatC= 2.26D-07 BMatP= 5.89D-07
 IDIUse=1 WtCom= 1.00D+00 WtEn= 0.00D+00
 Coeff-Com: -0.124D-03 0.115D-02-0.545D-03-0.171D-01-0.857D-03 0.141D+00
 Coeff-Com:  0.758D-01-0.215D+00-0.109D+01 0.210D+01
 Coeff:     -0.124D-03 0.115D-02-0.545D-03-0.171D-01-0.857D-03 0.141D+00
 Coeff:      0.758D-01-0.215D+00-0.109D+01 0.210D+01
 RMSDP=3.12D-05 MaxDP=1.29D-03 DE=-1.20D-05 OVMax= 0.00D+00

 Cycle  11  Pass 1  IDiag  1:
 RMSU=  6.62D-06    CP:  9.92D-01  1.17D+00  1.05D+00  1.29D+00  1.88D+00
                    CP:  2.84D+00  3.00D+00  3.00D+00  3.00D+00  2.47D+00
 E= -474.394308124108     Delta-E=       -0.000007494645 Rises=F Damp=F
 DIIS: error= 1.96D-05 at cycle  11 NSaved=  11.
 NSaved=11 IEnMin=11 EnMin= -474.394308124108     IErMin=11 ErrMin= 1.96D-05
 ErrMax= 1.96D-05  0.00D+00 EMaxC= 1.00D-01 BMatC= 7.21D-08 BMatP= 2.26D-07
 IDIUse=1 WtCom= 1.00D+00 WtEn= 0.00D+00
 Coeff-Com: -0.110D-03 0.444D-03 0.177D-02-0.300D-02-0.157D-01-0.137D-01
 Coeff-Com:  0.213D+00 0.775D-01-0.872D+00 0.205D+00 0.141D+01
 Coeff:     -0.110D-03 0.444D-03 0.177D-02-0.300D-02-0.157D-01-0.137D-01
 Coeff:      0.213D+00 0.775D-01-0.872D+00 0.205D+00 0.141D+01
 RMSDP=2.22D-05 MaxDP=9.14D-04 DE=-7.49D-06 OVMax= 0.00D+00

 Cycle  12  Pass 1  IDiag  1:
 RMSU=  9.41D-06    CP:  9.92D-01  1.17D+00  1.06D+00  1.29D+00  1.97D+00
                    CP:  3.00D+00  3.00D+00  3.00D+00  3.00D+00  3.00D+00
                    CP:  2.13D+00
 E= -474.394310287938     Delta-E=       -0.000002163831 Rises=F Damp=F
 DIIS: error= 6.66D-06 at cycle  12 NSaved=  12.
 NSaved=12 IEnMin=12 EnMin= -474.394310287938     IErMin=12 ErrMin= 6.66D-06
 ErrMax= 6.66D-06  0.00D+00 EMaxC= 1.00D-01 BMatC= 7.86D-09 BMatP= 7.21D-08
 IDIUse=1 WtCom= 1.00D+00 WtEn= 0.00D+00
 Coeff-Com:  0.358D-04-0.317D-03 0.238D-03 0.429D-02 0.927D-03-0.348D-01
 Coeff-Com: -0.448D-01 0.158D+00 0.203D+00-0.538D+00 0.821D-02 0.124D+01
 Coeff:      0.358D-04-0.317D-03 0.238D-03 0.429D-02 0.927D-03-0.348D-01
 Coeff:     -0.448D-01 0.158D+00 0.203D+00-0.538D+00 0.821D-02 0.124D+01
 RMSDP=4.83D-06 MaxDP=2.27D-04 DE=-2.16D-06 OVMax= 0.00D+00

 Cycle  13  Pass 1  IDiag  1:
 RMSU=  8.96D-07    CP:  9.92D-01  1.17D+00  1.06D+00  1.29D+00  1.98D+00
                    CP:  3.00D+00  3.00D+00  3.00D+00  3.00D+00  3.00D+00
                    CP:  2.44D+00  1.42D+00
 E= -474.394310419902     Delta-E=       -0.000000131964 Rises=F Damp=F
 DIIS: error= 2.89D-06 at cycle  13 NSaved=  13.
 NSaved=13 IEnMin=13 EnMin= -474.394310419902     IErMin=13 ErrMin= 2.89D-06
 ErrMax= 2.89D-06  0.00D+00 EMaxC= 1.00D-01 BMatC= 8.88D-10 BMatP= 7.86D-09
 IDIUse=1 WtCom= 1.00D+00 WtEn= 0.00D+00
 Coeff-Com:  0.196D-04-0.111D-03-0.196D-03 0.115D-02 0.246D-02-0.465D-02
 Coeff-Com: -0.389D-01 0.215D-01 0.129D+00-0.106D+00-0.155D+00 0.178D+00
 Coeff-Com:  0.973D+00
 Coeff:      0.196D-04-0.111D-03-0.196D-03 0.115D-02 0.246D-02-0.465D-02
 Coeff:     -0.389D-01 0.215D-01 0.129D+00-0.106D+00-0.155D+00 0.178D+00
 Coeff:      0.973D+00
 RMSDP=1.14D-06 MaxDP=5.02D-05 DE=-1.32D-07 OVMax= 0.00D+00

 Cycle  14  Pass 1  IDiag  1:
 RMSU=  2.42D-07    CP:  9.92D-01  1.17D+00  1.06D+00  1.29D+00  1.99D+00
                    CP:  3.00D+00  3.00D+00  3.00D+00  3.00D+00  3.00D+00
                    CP:  2.51D+00  1.52D+00  1.34D+00
 E= -474.394310430625     Delta-E=       -0.000000010722 Rises=F Damp=F
 DIIS: error= 1.82D-06 at cycle  14 NSaved=  14.
 NSaved=14 IEnMin=14 EnMin= -474.394310430625     IErMin=14 ErrMin= 1.82D-06
 ErrMax= 1.82D-06  0.00D+00 EMaxC= 1.00D-01 BMatC= 2.50D-10 BMatP= 8.88D-10
 IDIUse=1 WtCom= 1.00D+00 WtEn= 0.00D+00
 Coeff-Com: -0.971D-05 0.728D-04-0.235D-04-0.811D-03-0.827D-03 0.681D-02
 Coeff-Com:  0.128D-01-0.293D-01-0.462D-01 0.973D-01 0.237D-01-0.226D+00
 Coeff-Com: -0.190D+00 0.135D+01
 Coeff:     -0.971D-05 0.728D-04-0.235D-04-0.811D-03-0.827D-03 0.681D-02
 Coeff:      0.128D-01-0.293D-01-0.462D-01 0.973D-01 0.237D-01-0.226D+00
 Coeff:     -0.190D+00 0.135D+01
 RMSDP=3.93D-07 MaxDP=1.78D-05 DE=-1.07D-08 OVMax= 0.00D+00

 Cycle  15  Pass 1  IDiag  1:
 RMSU=  1.79D-07    CP:  9.92D-01  1.17D+00  1.06D+00  1.29D+00  1.99D+00
                    CP:  3.00D+00  3.00D+00  3.00D+00  3.00D+00  3.00D+00
                    CP:  2.52D+00  1.52D+00  1.60D+00  2.01D+00
 E= -474.394310434564     Delta-E=       -0.000000003940 Rises=F Damp=F
 DIIS: error= 8.44D-07 at cycle  15 NSaved=  15.
 NSaved=15 IEnMin=15 EnMin= -474.394310434564     IErMin=15 ErrMin= 8.44D-07
 ErrMax= 8.44D-07  0.00D+00 EMaxC= 1.00D-01 BMatC= 1.15D-10 BMatP= 2.50D-10
 IDIUse=1 WtCom= 1.00D+00 WtEn= 0.00D+00
 Coeff-Com: -0.495D-05 0.234D-04 0.776D-04-0.130D-03-0.125D-02 0.883D-03
 Coeff-Com:  0.122D-01-0.513D-02-0.291D-01 0.751D-02 0.543D-01-0.461D-02
 Coeff-Com: -0.376D+00-0.786D-01 0.142D+01
 Coeff:     -0.495D-05 0.234D-04 0.776D-04-0.130D-03-0.125D-02 0.883D-03
 Coeff:      0.122D-01-0.513D-02-0.291D-01 0.751D-02 0.543D-01-0.461D-02
 Coeff:     -0.376D+00-0.786D-01 0.142D+01
 RMSDP=3.59D-07 MaxDP=1.69D-05 DE=-3.94D-09 OVMax= 0.00D+00

 Cycle  16  Pass 1  IDiag  1:
 RMSU=  6.73D-08    CP:  9.92D-01  1.17D+00  1.06D+00  1.29D+00  1.99D+00
                    CP:  3.00D+00  3.00D+00  3.00D+00  3.00D+00  3.00D+00
                    CP:  2.53D+00  1.53D+00  1.79D+00  2.99D+00  1.76D+00
 E= -474.394310436626     Delta-E=       -0.000000002062 Rises=F Damp=F
 DIIS: error= 4.20D-07 at cycle  16 NSaved=  16.
 NSaved=16 IEnMin=16 EnMin= -474.394310436626     IErMin=16 ErrMin= 4.20D-07
 ErrMax= 4.20D-07  0.00D+00 EMaxC= 1.00D-01 BMatC= 3.60D-11 BMatP= 1.15D-10
 IDIUse=1 WtCom= 1.00D+00 WtEn= 0.00D+00
 Coeff-Com:  0.581D-05-0.393D-04-0.751D-05 0.468D-03 0.264D-03-0.255D-02
 Coeff-Com: -0.865D-02 0.112D-01 0.344D-01-0.506D-01-0.210D-01 0.104D+00
 Coeff-Com:  0.136D+00-0.474D+00-0.482D+00 0.175D+01
 Coeff:      0.581D-05-0.393D-04-0.751D-05 0.468D-03 0.264D-03-0.255D-02
 Coeff:     -0.865D-02 0.112D-01 0.344D-01-0.506D-01-0.210D-01 0.104D+00
 Coeff:      0.136D+00-0.474D+00-0.482D+00 0.175D+01
 RMSDP=2.96D-07 MaxDP=1.32D-05 DE=-2.06D-09 OVMax= 0.00D+00

 Cycle  17  Pass 1  IDiag  1:
 RMSU=  1.96D-07    CP:  9.92D-01  1.17D+00  1.06D+00  1.29D+00  1.99D+00
                    CP:  3.00D+00  3.00D+00  3.00D+00  3.00D+00  3.00D+00
                    CP:  2.53D+00  1.54D+00  1.94D+00  3.00D+00  2.54D+00
                    CP:  2.28D+00
 E= -474.394310437441     Delta-E=       -0.000000000815 Rises=F Damp=F
 DIIS: error= 2.61D-07 at cycle  17 NSaved=  17.
 NSaved=17 IEnMin=17 EnMin= -474.394310437441     IErMin=17 ErrMin= 2.61D-07
 ErrMax= 2.61D-07  0.00D+00 EMaxC= 1.00D-01 BMatC= 5.42D-12 BMatP= 3.60D-11
 IDIUse=1 WtCom= 1.00D+00 WtEn= 0.00D+00
 Coeff-Com:  0.115D-06 0.885D-06-0.172D-04-0.124D-04 0.944D-04 0.333D-03
 Coeff-Com: -0.124D-02-0.931D-03 0.268D-02 0.262D-02-0.519D-02-0.118D-01
 Coeff-Com:  0.396D-01 0.996D-01-0.183D+00-0.243D+00 0.130D+01
 Coeff:      0.115D-06 0.885D-06-0.172D-04-0.124D-04 0.944D-04 0.333D-03
 Coeff:     -0.124D-02-0.931D-03 0.268D-02 0.262D-02-0.519D-02-0.118D-01
 Coeff:      0.396D-01 0.996D-01-0.183D+00-0.243D+00 0.130D+01
 RMSDP=7.68D-08 MaxDP=3.50D-06 DE=-8.15D-10 OVMax= 0.00D+00

 Cycle  18  Pass 1  IDiag  1:
 RMSU=  1.83D-08    CP:  9.92D-01  1.17D+00  1.06D+00  1.29D+00  1.99D+00
                    CP:  3.00D+00  3.00D+00  3.00D+00  3.00D+00  3.00D+00
                    CP:  2.53D+00  1.54D+00  1.97D+00  3.00D+00  2.73D+00
                    CP:  2.82D+00  1.24D+00
 E= -474.394310437508     Delta-E=       -0.000000000067 Rises=F Damp=F
 DIIS: error= 2.04D-07 at cycle  18 NSaved=  18.
 NSaved=18 IEnMin=18 EnMin= -474.394310437508     IErMin=18 ErrMin= 2.04D-07
 ErrMax= 2.04D-07  0.00D+00 EMaxC= 1.00D-01 BMatC= 1.33D-12 BMatP= 5.42D-12
 IDIUse=1 WtCom= 1.00D+00 WtEn= 0.00D+00
 Coeff-Com: -0.173D-05 0.117D-04 0.127D-05-0.130D-03-0.102D-03 0.779D-03
 Coeff-Com:  0.244D-02-0.336D-02-0.921D-02 0.133D-01 0.697D-02-0.292D-01
 Coeff-Com: -0.434D-01 0.133D+00 0.140D+00-0.500D+00-0.376D-01 0.133D+01
 Coeff:     -0.173D-05 0.117D-04 0.127D-05-0.130D-03-0.102D-03 0.779D-03
 Coeff:      0.244D-02-0.336D-02-0.921D-02 0.133D-01 0.697D-02-0.292D-01
 Coeff:     -0.434D-01 0.133D+00 0.140D+00-0.500D+00-0.376D-01 0.133D+01
 RMSDP=4.46D-08 MaxDP=1.95D-06 DE=-6.73D-11 OVMax= 0.00D+00

 Cycle  19  Pass 1  IDiag  1:
 RMSU=  1.18D-08    CP:  9.92D-01  1.17D+00  1.06D+00  1.29D+00  1.99D+00
                    CP:  3.00D+00  3.00D+00  3.00D+00  3.00D+00  3.00D+00
                    CP:  2.54D+00  1.54D+00  1.99D+00  3.00D+00  2.84D+00
                    CP:  3.00D+00  1.37D+00  1.83D+00
 E= -474.394310437538     Delta-E=       -0.000000000030 Rises=F Damp=F
 DIIS: error= 1.08D-07 at cycle  19 NSaved=  19.
 NSaved=19 IEnMin=19 EnMin= -474.394310437538     IErMin=19 ErrMin= 1.08D-07
 ErrMax= 1.08D-07  0.00D+00 EMaxC= 1.00D-01 BMatC= 1.77D-13 BMatP= 1.33D-12
 IDIUse=1 WtCom= 1.00D+00 WtEn= 0.00D+00
 Coeff-Com:  0.900D-07-0.856D-06 0.364D-05 0.997D-05-0.130D-04-0.110D-03
 Coeff-Com:  0.466D-04 0.357D-03 0.341D-03-0.160D-02 0.628D-03 0.447D-02
 Coeff-Com: -0.490D-02-0.277D-01 0.182D-01 0.942D-01-0.224D+00-0.147D+00
 Coeff-Com:  0.129D+01
 Coeff:      0.900D-07-0.856D-06 0.364D-05 0.997D-05-0.130D-04-0.110D-03
 Coeff:      0.466D-04 0.357D-03 0.341D-03-0.160D-02 0.628D-03 0.447D-02
 Coeff:     -0.490D-02-0.277D-01 0.182D-01 0.942D-01-0.224D+00-0.147D+00
 Coeff:      0.129D+01
 RMSDP=1.28D-08 MaxDP=9.74D-07 DE=-3.00D-11 OVMax= 0.00D+00

 Cycle  20  Pass 1  IDiag  1:
 RMSU=  3.04D-09    CP:  9.92D-01  1.17D+00  1.06D+00  1.29D+00  1.99D+00
                    CP:  3.00D+00  3.00D+00  3.00D+00  3.00D+00  3.00D+00
                    CP:  2.54D+00  1.54D+00  1.99D+00  3.00D+00  2.86D+00
                    CP:  3.00D+00  1.40D+00  2.21D+00  1.52D+00
 E= -474.394310437520     Delta-E=        0.000000000018 Rises=F Damp=F
 DIIS: error= 4.47D-08 at cycle  20 NSaved=  20.
 NSaved=20 IEnMin=19 EnMin= -474.394310437538     IErMin=20 ErrMin= 4.47D-08
 ErrMax= 4.47D-08  0.00D+00 EMaxC= 1.00D-01 BMatC= 3.06D-14 BMatP= 1.77D-13
 IDIUse=1 WtCom= 1.00D+00 WtEn= 0.00D+00
 Coeff-Com:  0.287D-06-0.194D-05-0.325D-06 0.205D-04 0.205D-04-0.128D-03
 Coeff-Com: -0.396D-03 0.532D-03 0.149D-02-0.212D-02-0.118D-02 0.452D-02
 Coeff-Com:  0.736D-02-0.184D-01-0.261D-01 0.781D-01 0.270D-01-0.219D+00
 Coeff-Com: -0.863D-01 0.123D+01
 Coeff:      0.287D-06-0.194D-05-0.325D-06 0.205D-04 0.205D-04-0.128D-03
 Coeff:     -0.396D-03 0.532D-03 0.149D-02-0.212D-02-0.118D-02 0.452D-02
 Coeff:      0.736D-02-0.184D-01-0.261D-01 0.781D-01 0.270D-01-0.219D+00
 Coeff:     -0.863D-01 0.123D+01
 RMSDP=3.74D-09 MaxDP=4.62D-07 DE= 1.82D-11 OVMax= 0.00D+00

 SCF Done:  E(RZINDO/S) =  -474.394310438     A.U. after   20 cycles
            NFock= 20  Conv=0.37D-08     -V/T= 0.9487
 KE=-9.252748321932D+03 PE= 9.301402315032D-08 EE= 4.489123444890D+03
 Leave Link  502 at Wed May  4 14:11:56 2022, MaxMem=  6710886400 cpu:              23.9 elap:               1.0
 (Enter /sw/apps/gaussian-16.0/g16/l801.exe)
 Range of M.O.s used for correlation:     1   338
 NBasis=   338 NAE=   176 NBE=   176 NFC=     0 NFV=     0
 NROrb=    338 NOA=   176 NOB=   176 NVA=   162 NVB=   162
 Leave Link  801 at Wed May  4 14:11:56 2022, MaxMem=  6710886400 cpu:               0.5 elap:               0.0
 (Enter /sw/apps/gaussian-16.0/g16/l914.exe)
 RHF ground state
 Two-electron integral symmetry not used.
 MDV=  6710886400 DFT=F DoStab=F Mixed=F DoRPA=F DoScal=F NonHer=F
 Making orbital integer symmetry assigments:
 Orbital symmetries:
       Occupied  (A) (A) (A) (A) (A) (A) (A) (A) (A) (A) (A) (A)
                 (A) (A) (A) (A) (A) (A) (A) (A) (A) (A) (A) (A)
                 (A) (A) (A) (A) (A) (A) (A) (A) (A) (A) (A) (A)
                 (A) (A) (A) (A) (A) (A) (A) (A) (A) (A) (A) (A)
                 (A) (A) (A) (A) (A) (A) (A) (A) (A) (A) (A) (A)
                 (A) (A) (A) (A) (A) (A) (A) (A) (A) (A) (A) (A)
                 (A) (A) (A) (A) (A) (A) (A) (A) (A) (A) (A) (A)
                 (A) (A) (A) (A) (A) (A) (A) (A) (A) (A) (A) (A)
                 (A) (A) (A) (A) (A) (A) (A) (A) (A) (A) (A) (A)
                 (A) (A) (A) (A) (A) (A) (A) (A) (A) (A) (A) (A)
                 (A) (A) (A) (A) (A) (A) (A) (A) (A) (A) (A) (A)
                 (A) (A) (A) (A) (A) (A) (A) (A) (A) (A) (A) (A)
                 (A) (A) (A) (A) (A) (A) (A) (A) (A) (A) (A) (A)
                 (A) (A) (A) (A) (A) (A) (A) (A) (A) (A) (A) (A)
                 (A) (A) (A) (A) (A) (A) (A) (A)
       Virtual   (A) (A) (A) (A) (A) (A) (A) (A) (A) (A) (A) (A)
                 (A) (A) (A) (A) (A) (A) (A) (A) (A) (A) (A) (A)
                 (A) (A) (A) (A) (A) (A) (A) (A) (A) (A) (A) (A)
                 (A) (A) (A) (A) (A) (A) (A) (A) (A) (A) (A) (A)
                 (A) (A) (A) (A) (A) (A) (A) (A) (A) (A) (A) (A)
                 (A) (A) (A) (A) (A) (A) (A) (A) (A) (A) (A) (A)
                 (A) (A) (A) (A) (A) (A) (A) (A) (A) (A) (A) (A)
                 (A) (A) (A) (A) (A) (A) (A) (A) (A) (A) (A) (A)
                 (A) (A) (A) (A) (A) (A) (A) (A) (A) (A) (A) (A)
                 (A) (A) (A) (A) (A) (A) (A) (A) (A) (A) (A) (A)
                 (A) (A) (A) (A) (A) (A) (A) (A) (A) (A) (A) (A)
                 (A) (A) (A) (A) (A) (A) (A) (A) (A) (A) (A) (A)
                 (A) (A) (A) (A) (A) (A) (A) (A) (A) (A) (A) (A)
                 (A) (A) (A) (A) (A) (A)
    20 initial guesses have been made.
 Convergence on wavefunction:    0.001000000000000
 Davidson Disk Diagonalization:  ConvIn= 1.00D-03 SkipCon=T Conv= 1.00D-03.
 Max sub-space:  2000 roots to seek:    20 dimension of matrix:        57024
 Iteration     1 Dimension    20 NMult     0 NNew     20
 CISAX will form    20 AO SS matrices at one time.
 NMat=    20 NSing=    20 JSym2X= 0.
 New state      3 was old state      4
 New state      4 was old state     10
 New state      5 was old state      7
 Excitation Energies [eV] at current iteration:
 Root      1 :     1.594229657012762
 Root      2 :     2.124022000205543
 Root      3 :     3.216546163334991
 Root      4 :     3.402206573889010
 Root      5 :     3.453710940513252
 Root      6 :     3.471174680863391
 Root      7 :     3.673033330252701
 Root      8 :     3.689624149808890
 Root      9 :     3.814194744303957
 Root     10 :     3.918182500005134
 Root     11 :     4.107029922922677
 Root     12 :     4.172886436159858
 Root     13 :     4.275030012934315
 Root     14 :     4.337138136600196
 Root     15 :     4.448350111820721
 Root     16 :     4.465703166906071
 Root     17 :     4.494259134499740
 Root     18 :     4.587087779260385
 Root     19 :     5.317345476579040
 Root     20 :     6.152417068647487
 Iteration     2 Dimension    40 NMult    20 NNew     20
 CISAX will form    20 AO SS matrices at one time.
 NMat=    20 NSing=    20 JSym2X= 0.
 Root      1 not converged, maximum delta is    0.050151978051193
 Root      2 not converged, maximum delta is    0.031206527877086
 Root      3 not converged, maximum delta is    0.188334867421765
 New state      4 was old state      6
 Root      4 not converged, maximum delta is    0.221369291854221
 New state      5 was old state      4
 Root      5 not converged, maximum delta is    0.373029050021082
 Excitation Energies [eV] at current iteration:
 Root      1 :     1.235806373129493   Change is   -0.358423283883269
 Root      2 :     1.929685255569107   Change is   -0.194336744636436
 Root      3 :     2.952196360761539   Change is   -0.264349802573453
 Root      4 :     3.134175364843520   Change is   -0.336999316019871
 Root      5 :     3.238555037891788   Change is   -0.163651535997221
 Root      6 :     3.384921393806787   Change is   -0.288111936445914
 Root      7 :     3.391612384177496   Change is   -0.062098556335756
 Root      8 :     3.452733461747431   Change is   -0.236890688061459
 Root      9 :     3.538189599995565   Change is   -0.379992900009568
 Root     10 :     3.588325989438909   Change is   -0.225868754865048
 Root     11 :     3.702833222584606   Change is   -0.791425911915134
 Root     12 :     3.740536924583088   Change is   -0.596601212017108
 Root     13 :     3.809460275737493   Change is   -0.363426160422364
 Root     14 :     3.983938652203040   Change is   -0.123091270719637
 Root     15 :     4.043209045769496   Change is   -0.231820967164820
 Root     16 :     4.149732598492801   Change is   -0.315970568413269
 Root     17 :     4.315729798845608   Change is   -0.271357980414777
 Root     18 :     4.419270967991271   Change is   -0.029079143829450
 Root     19 :     5.311766340246408   Change is   -0.005579136332632
 Root     20 :     5.627502770144495
 Iteration     3 Dimension    45 NMult    40 NNew      5
 CISAX will form     5 AO SS matrices at one time.
 NMat=     5 NSing=     5 JSym2X= 0.
 Root      1 not converged, maximum delta is    0.013551419949712
 Root      2 not converged, maximum delta is    0.021172685252139
 Root      3 not converged, maximum delta is    0.019780687175494
 Root      4 not converged, maximum delta is    0.032935326485576
 Root      5 not converged, maximum delta is    0.026704881364267
 Excitation Energies [eV] at current iteration:
 Root      1 :     1.218989334202446   Change is   -0.016817038927047
 Root      2 :     1.904067077239643   Change is   -0.025618178329464
 Root      3 :     2.927689551879010   Change is   -0.024506808882528
 Root      4 :     3.104727454749344   Change is   -0.029447910094176
 Root      5 :     3.205875026387406   Change is   -0.032680011504382
 Iteration     4 Dimension    50 NMult    45 NNew      5
 CISAX will form     5 AO SS matrices at one time.
 NMat=     5 NSing=     5 JSym2X= 0.
 Root      1 not converged, maximum delta is    0.002367145781195
 Root      2 not converged, maximum delta is    0.002493265004496
 Root      3 not converged, maximum delta is    0.020404063066244
 Root      4 not converged, maximum delta is    0.066820825934679
 Root      5 not converged, maximum delta is    0.263136129909542
 Excitation Energies [eV] at current iteration:
 Root      1 :     1.218266248082529   Change is   -0.000723086119917
 Root      2 :     1.903417725306122   Change is   -0.000649351933521
 Root      3 :     2.924165812477898   Change is   -0.003523739401113
 Root      4 :     3.097428658176485   Change is   -0.007298796572859
 Root      5 :     3.151748625980983   Change is   -0.054126400406424
 Iteration     5 Dimension    55 NMult    50 NNew      5
 CISAX will form     5 AO SS matrices at one time.
 NMat=     5 NSing=     5 JSym2X= 0.
 Root      1 has converged.
 Root      2 has converged.
 Root      3 not converged, maximum delta is    0.111491797668290
 New state      4 was old state      5
 Root      4 not converged, maximum delta is    0.251136266872782
 New state      5 was old state      4
 Root      5 not converged, maximum delta is    0.097896483703641
 Excitation Energies [eV] at current iteration:
 Root      1 :     1.218222274055288   Change is   -0.000043974027242
 Root      2 :     1.903381177988917   Change is   -0.000036547317205
 Root      3 :     2.916089469232121   Change is   -0.008076343245777
 Root      4 :     2.974673334020393   Change is   -0.177075291960589
 Root      5 :     3.094558907185863   Change is   -0.002869750990622
 Iteration     6 Dimension    58 NMult    55 NNew      3
 CISAX will form     3 AO SS matrices at one time.
 NMat=     3 NSing=     3 JSym2X= 0.
 Root      1 has converged.
 Root      2 has converged.
 Root      3 not converged, maximum delta is    0.106359180636247
 New state      4 was old state      5
 Root      4 not converged, maximum delta is    0.413481902018670
 New state      5 was old state      4
 Root      5 not converged, maximum delta is    0.137983157384250
 Excitation Energies [eV] at current iteration:
 Root      1 :     1.218222119889384   Change is   -0.000000154165904
 Root      2 :     1.903380844434842   Change is   -0.000000333554075
 Root      3 :     2.904025693401082   Change is   -0.012063775831038
 Root      4 :     2.918774789978529   Change is   -0.175784117207334
 Root      5 :     2.950866917558410   Change is   -0.023806416461984
 Iteration     7 Dimension    61 NMult    58 NNew      3
 CISAX will form     3 AO SS matrices at one time.
 NMat=     3 NSing=     3 JSym2X= 0.
 Root      1 has converged.
 Root      2 has converged.
 New state      3 was old state      4
 Root      3 not converged, maximum delta is    0.111124338786344
 New state      4 was old state      3
 Root      4 not converged, maximum delta is    0.111281332782272
 Root      5 not converged, maximum delta is    0.064102841480311
 Excitation Energies [eV] at current iteration:
 Root      1 :     1.218222114287908   Change is   -0.000000005601476
 Root      2 :     1.903380717902828   Change is   -0.000000126532014
 Root      3 :     2.870469023561688   Change is   -0.048305766416841
 Root      4 :     2.900616483129955   Change is   -0.003409210271127
 Root      5 :     2.945679939311745   Change is   -0.005186978246664
 Iteration     8 Dimension    64 NMult    61 NNew      3
 CISAX will form     3 AO SS matrices at one time.
 NMat=     3 NSing=     3 JSym2X= 0.
 Root      1 has converged.
 Root      2 has converged.
 Root      3 not converged, maximum delta is    0.006312422346607
 Root      4 not converged, maximum delta is    0.007489405178433
 Root      5 not converged, maximum delta is    0.005031115769488
 Excitation Energies [eV] at current iteration:
 Root      1 :     1.218222108440475   Change is   -0.000000005847433
 Root      2 :     1.903380655951914   Change is   -0.000000061950914
 Root      3 :     2.865345264367564   Change is   -0.005123759194123
 Root      4 :     2.899853695777848   Change is   -0.000762787352108
 Root      5 :     2.944993236237551   Change is   -0.000686703074194
 Iteration     9 Dimension    67 NMult    64 NNew      3
 CISAX will form     3 AO SS matrices at one time.
 NMat=     3 NSing=     3 JSym2X= 0.
 Root      1 has converged.
 Root      2 has converged.
 Root      3 not converged, maximum delta is    0.002078151546737
 Root      4 not converged, maximum delta is    0.002093866425119
 Root      5 not converged, maximum delta is    0.001838726679946
 Excitation Energies [eV] at current iteration:
 Root      1 :     1.218222094481437   Change is   -0.000000013959038
 Root      2 :     1.903380629522591   Change is   -0.000000026429323
 Root      3 :     2.864817329924731   Change is   -0.000527934442834
 Root      4 :     2.899725107784540   Change is   -0.000128587993308
 Root      5 :     2.944855618897982   Change is   -0.000137617339569
 Iteration    10 Dimension    70 NMult    67 NNew      3
 CISAX will form     3 AO SS matrices at one time.
 NMat=     3 NSing=     3 JSym2X= 0.
 Root      1 has converged.
 Root      2 has converged.
 Root      3 has converged.
 Root      4 has converged.
 Root      5 has converged.
 Excitation Energies [eV] at current iteration:
 Root      1 :     1.218222086961714   Change is   -0.000000007519723
 Root      2 :     1.903380613043473   Change is   -0.000000016479118
 Root      3 :     2.864762128946788   Change is   -0.000055200977943
 Root      4 :     2.899709574855704   Change is   -0.000015532928835
 Root      5 :     2.944836264240966   Change is   -0.000019354657016
 Convergence achieved on expansion vectors.
 ***********************************************************************
 Excited states from <AA,BB:AA,BB> singles matrix:
 ***********************************************************************
 
 1PDM for each excited state written to RWF  633
 Ground to excited state transition densities written to RWF  633
 Ground to excited state transition electric dipole moments (Au):
       state          X           Y           Z        Dip. S.      Osc.
         1         0.8768     -4.4307      0.4322     20.5869      0.6144
         2         0.9242      0.3523      0.0733      0.9837      0.0459
         3        -0.0714     -0.0434      0.0153      0.0072      0.0005
         4         1.3948      0.4064      0.1014      2.1210      0.1507
         5        -2.2036     -0.8627     -0.0850      5.6072      0.4045
 Ground to excited state transition velocity dipole moments (Au):
       state          X           Y           Z        Dip. S.      Osc.
         1         0.0404     -0.0609      0.0026      0.0054      0.0797
         2        -0.0087     -0.0049     -0.0024      0.0001      0.0010
         3         0.0025     -0.0096      0.0066      0.0001      0.0009
         4        -0.0450     -0.0167      0.0062      0.0023      0.0146
         5         0.0684      0.0341      0.0005      0.0058      0.0360
 Ground to excited state transition magnetic dipole moments (Au):
       state          X           Y           Z
         1        -0.0191      0.0440     -0.5757
         2         0.0444      0.0201     -0.3704
         3        -0.6431     -0.1202     -0.3341
         4        -0.1887     -0.6221      0.2335
         5        -0.0588     -0.5228     -0.0303
 Ground to excited state transition velocity quadrupole moments (Au):
       state          XX          YY          ZZ          XY          XZ          YZ
         1         0.7106      0.0254     -0.0120     -0.6886     -0.0361     -0.1103
         2        -0.1522     -0.0124      0.0144      0.0063     -0.0101      0.0015
         3        -0.0161     -0.1354     -0.0340     -0.1249      0.0777      0.1312
         4        -0.3341     -0.3348      0.0378     -0.1313     -0.0006      0.0180
         5         0.7552      0.2991     -0.0480      0.2896      0.0158     -0.0720
 <0|del|b> * <b|rxdel|0> + <0|del|b> * <b|delr+rdel|0>
 Rotatory Strengths (R) in cgs (10**-40 erg-esu-cm/Gauss)
       state          XX          YY          ZZ    R(velocity)    E-M Angle
         1       -64.5003    -38.9812     25.2777    -26.0679       96.73
         2         3.6488      2.5244     -2.1390      1.3448       84.04
         3        -3.7671     -8.9692     -5.2055     -5.9806      107.78
         4        36.5142     32.9491     65.3383     44.9339       52.56
         5       -59.6201    -29.7849    -53.6161    -47.6737      122.93
 1/2[<0|r|b>*<b|rxdel|0> + (<0|rxdel|b>*<b|r|0>)*]
 Rotatory Strengths (R) in cgs (10**-40 erg-esu-cm/Gauss)
       state          XX          YY          ZZ     R(length)
         1        11.8709    137.8166    175.9456    108.5444
         2       -29.0362     -5.0056     19.2076     -4.9447
         3       -32.4927     -3.6853      3.6189    -10.8530
         4       186.1544    178.8035    -16.7508    116.0690
         5       -91.6486   -318.9563     -1.8233   -137.4761
  1/2[<0|del|b>*<b|r|0> + (<0|r|b>*<b|del|0>)*] (Au)
       state          X           Y           Z        Dip. S.   Osc.(frdel)
         1         0.0354      0.2699      0.0011     -0.3064     -0.2043
         2        -0.0081     -0.0017     -0.0002      0.0100      0.0066
         3        -0.0002      0.0004      0.0001     -0.0003     -0.0002
         4        -0.0627     -0.0068      0.0006      0.0689      0.0459
         5        -0.1506     -0.0295     -0.0000      0.1801      0.1201

 Excitation energies and oscillator strengths:
 
 Excited State   1:      Singlet-A      1.2182 eV 1017.75 nm  f=0.6144  <S**2>=0.000
     175 ->178        -0.18332
     176 ->177         0.66401
 This state for optimization and/or second-order correction.
 Total Energy, E(CIS/TDA) =  -474.349541600    
 Copying the excited state density for this state as the 1-particle RhoCI density.
 
 Excited State   2:      Singlet-A      1.9034 eV  651.39 nm  f=0.0459  <S**2>=0.000
     175 ->177         0.54585
     176 ->178         0.41461
     176 ->179        -0.10032
 
 Excited State   3:      Singlet-A      2.8648 eV  432.79 nm  f=0.0005  <S**2>=0.000
     170 ->177         0.28635
     170 ->179         0.27574
     170 ->181         0.42085
     170 ->182         0.11540
     170 ->185        -0.21111
     170 ->187        -0.21408
 
 Excited State   4:      Singlet-A      2.8997 eV  427.57 nm  f=0.1507  <S**2>=0.000
     167 ->179        -0.12483
     168 ->177         0.23974
     168 ->178        -0.14674
     168 ->179        -0.27807
     168 ->181         0.12262
     168 ->185         0.12214
     171 ->177        -0.16040
     171 ->179         0.10334
     175 ->177         0.15872
     176 ->178        -0.27829
     176 ->179        -0.26501
 
 Excited State   5:      Singlet-A      2.9448 eV  421.02 nm  f=0.4045  <S**2>=0.000
     168 ->177         0.21397
     168 ->178        -0.11791
     168 ->179        -0.23994
     168 ->181         0.10041
     168 ->185         0.10605
     175 ->177        -0.23727
     176 ->178         0.38227
     176 ->179         0.28439
 SavETr:  write IOETrn=   770 NScale= 10 NData=  16 NLR=1 NState=    5 LETran=     100.
 Leave Link  914 at Wed May  4 14:12:00 2022, MaxMem=  6710886400 cpu:              84.3 elap:               3.5
 (Enter /sw/apps/gaussian-16.0/g16/l601.exe)
 Copying SCF densities to generalized density rwf, IOpCl= 0 IROHF=0.

 **********************************************************************

            Population analysis using the SCF density.

 **********************************************************************

 Orbital symmetries:
       Occupied  (A) (A) (A) (A) (A) (A) (A) (A) (A) (A) (A) (A)
                 (A) (A) (A) (A) (A) (A) (A) (A) (A) (A) (A) (A)
                 (A) (A) (A) (A) (A) (A) (A) (A) (A) (A) (A) (A)
                 (A) (A) (A) (A) (A) (A) (A) (A) (A) (A) (A) (A)
                 (A) (A) (A) (A) (A) (A) (A) (A) (A) (A) (A) (A)
                 (A) (A) (A) (A) (A) (A) (A) (A) (A) (A) (A) (A)
                 (A) (A) (A) (A) (A) (A) (A) (A) (A) (A) (A) (A)
                 (A) (A) (A) (A) (A) (A) (A) (A) (A) (A) (A) (A)
                 (A) (A) (A) (A) (A) (A) (A) (A) (A) (A) (A) (A)
                 (A) (A) (A) (A) (A) (A) (A) (A) (A) (A) (A) (A)
                 (A) (A) (A) (A) (A) (A) (A) (A) (A) (A) (A) (A)
                 (A) (A) (A) (A) (A) (A) (A) (A) (A) (A) (A) (A)
                 (A) (A) (A) (A) (A) (A) (A) (A) (A) (A) (A) (A)
                 (A) (A) (A) (A) (A) (A) (A) (A) (A) (A) (A) (A)
                 (A) (A) (A) (A) (A) (A) (A) (A)
       Virtual   (A) (A) (A) (A) (A) (A) (A) (A) (A) (A) (A) (A)
                 (A) (A) (A) (A) (A) (A) (A) (A) (A) (A) (A) (A)
                 (A) (A) (A) (A) (A) (A) (A) (A) (A) (A) (A) (A)
                 (A) (A) (A) (A) (A) (A) (A) (A) (A) (A) (A) (A)
                 (A) (A) (A) (A) (A) (A) (A) (A) (A) (A) (A) (A)
                 (A) (A) (A) (A) (A) (A) (A) (A) (A) (A) (A) (A)
                 (A) (A) (A) (A) (A) (A) (A) (A) (A) (A) (A) (A)
                 (A) (A) (A) (A) (A) (A) (A) (A) (A) (A) (A) (A)
                 (A) (A) (A) (A) (A) (A) (A) (A) (A) (A) (A) (A)
                 (A) (A) (A) (A) (A) (A) (A) (A) (A) (A) (A) (A)
                 (A) (A) (A) (A) (A) (A) (A) (A) (A) (A) (A) (A)
                 (A) (A) (A) (A) (A) (A) (A) (A) (A) (A) (A) (A)
                 (A) (A) (A) (A) (A) (A) (A) (A) (A) (A) (A) (A)
                 (A) (A) (A) (A) (A) (A)
 The electronic state is 1-A.
 Alpha  occ. eigenvalues --   -1.84473  -1.81107  -1.78794  -1.72640  -1.71347
 Alpha  occ. eigenvalues --   -1.69863  -1.68560  -1.61248  -1.61031  -1.59030
 Alpha  occ. eigenvalues --   -1.55908  -1.52006  -1.48567  -1.48112  -1.47183
 Alpha  occ. eigenvalues --   -1.44205  -1.43608  -1.40967  -1.40027  -1.38600
 Alpha  occ. eigenvalues --   -1.37798  -1.34220  -1.32992  -1.32206  -1.29719
 Alpha  occ. eigenvalues --   -1.28127  -1.25584  -1.21856  -1.21166  -1.18936
 Alpha  occ. eigenvalues --   -1.18486  -1.17345  -1.15421  -1.15261  -1.12625
 Alpha  occ. eigenvalues --   -1.11110  -1.10637  -1.09771  -1.04137  -1.04024
 Alpha  occ. eigenvalues --   -1.02538  -1.00451  -0.98510  -0.98100  -0.97511
 Alpha  occ. eigenvalues --   -0.95984  -0.94836  -0.93899  -0.92221  -0.91939
 Alpha  occ. eigenvalues --   -0.91395  -0.89920  -0.89319  -0.87891  -0.87372
 Alpha  occ. eigenvalues --   -0.86060  -0.84091  -0.83194  -0.82277  -0.79847
 Alpha  occ. eigenvalues --   -0.79565  -0.79283  -0.77327  -0.76470  -0.76077
 Alpha  occ. eigenvalues --   -0.75852  -0.75595  -0.75192  -0.74284  -0.73106
 Alpha  occ. eigenvalues --   -0.72640  -0.72458  -0.72389  -0.71158  -0.70417
 Alpha  occ. eigenvalues --   -0.69684  -0.69358  -0.68620  -0.68367  -0.67733
 Alpha  occ. eigenvalues --   -0.67116  -0.66731  -0.66555  -0.66320  -0.66088
 Alpha  occ. eigenvalues --   -0.65975  -0.65790  -0.64874  -0.64135  -0.63748
 Alpha  occ. eigenvalues --   -0.63677  -0.63246  -0.62704  -0.62445  -0.62393
 Alpha  occ. eigenvalues --   -0.62036  -0.61052  -0.60858  -0.60470  -0.60100
 Alpha  occ. eigenvalues --   -0.59689  -0.59279  -0.58886  -0.58441  -0.57902
 Alpha  occ. eigenvalues --   -0.57846  -0.57382  -0.57067  -0.56763  -0.56384
 Alpha  occ. eigenvalues --   -0.56060  -0.55526  -0.55400  -0.55188  -0.55137
 Alpha  occ. eigenvalues --   -0.54475  -0.53706  -0.53640  -0.53470  -0.53090
 Alpha  occ. eigenvalues --   -0.52878  -0.52576  -0.52440  -0.52099  -0.51677
 Alpha  occ. eigenvalues --   -0.51522  -0.50657  -0.50437  -0.50342  -0.50100
 Alpha  occ. eigenvalues --   -0.50048  -0.49544  -0.49367  -0.49167  -0.48936
 Alpha  occ. eigenvalues --   -0.48612  -0.48439  -0.48076  -0.48015  -0.47416
 Alpha  occ. eigenvalues --   -0.47264  -0.47128  -0.46878  -0.46850  -0.46604
 Alpha  occ. eigenvalues --   -0.46525  -0.46305  -0.45772  -0.45386  -0.45114
 Alpha  occ. eigenvalues --   -0.44999  -0.44854  -0.44485  -0.44450  -0.43439
 Alpha  occ. eigenvalues --   -0.43272  -0.42806  -0.42676  -0.42335  -0.41849
 Alpha  occ. eigenvalues --   -0.41650  -0.41320  -0.39516  -0.39432  -0.39008
 Alpha  occ. eigenvalues --   -0.38479  -0.36715  -0.35937  -0.34755  -0.33980
 Alpha  occ. eigenvalues --   -0.33596  -0.33094  -0.32417  -0.32058  -0.26766
 Alpha  occ. eigenvalues --   -0.21744
 Alpha virt. eigenvalues --   -0.08753  -0.02205  -0.00738   0.00967   0.01274
 Alpha virt. eigenvalues --    0.02011   0.02346   0.02690   0.04662   0.05744
 Alpha virt. eigenvalues --    0.06171   0.06641   0.07534   0.07637   0.08358
 Alpha virt. eigenvalues --    0.08526   0.08722   0.08901   0.09409   0.09897
 Alpha virt. eigenvalues --    0.10059   0.10148   0.10291   0.10319   0.10590
 Alpha virt. eigenvalues --    0.11216   0.11268   0.11722   0.11902   0.12708
 Alpha virt. eigenvalues --    0.12940   0.13172   0.13289   0.13350   0.13449
 Alpha virt. eigenvalues --    0.13658   0.13868   0.14186   0.14271   0.14886
 Alpha virt. eigenvalues --    0.15011   0.15310   0.15579   0.15720   0.15843
 Alpha virt. eigenvalues --    0.16018   0.16080   0.16482   0.16738   0.17002
 Alpha virt. eigenvalues --    0.17117   0.17279   0.17621   0.17654   0.18096
 Alpha virt. eigenvalues --    0.18289   0.18405   0.18954   0.19177   0.19203
 Alpha virt. eigenvalues --    0.19663   0.19671   0.19979   0.20537   0.21249
 Alpha virt. eigenvalues --    0.21499   0.21637   0.22857   0.23168   0.23627
 Alpha virt. eigenvalues --    0.23671   0.24084   0.24102   0.24132   0.24405
 Alpha virt. eigenvalues --    0.24462   0.24584   0.24609   0.24728   0.24756
 Alpha virt. eigenvalues --    0.24791   0.24807   0.24851   0.25028   0.25054
 Alpha virt. eigenvalues --    0.25056   0.25093   0.25187   0.25279   0.25317
 Alpha virt. eigenvalues --    0.25415   0.25436   0.25587   0.25594   0.25680
 Alpha virt. eigenvalues --    0.25702   0.25837   0.25976   0.26168   0.26235
 Alpha virt. eigenvalues --    0.26385   0.26476   0.26499   0.26547   0.26592
 Alpha virt. eigenvalues --    0.26694   0.26801   0.26822   0.26891   0.26931
 Alpha virt. eigenvalues --    0.27191   0.27264   0.27691   0.27755   0.28241
 Alpha virt. eigenvalues --    0.28355   0.28682   0.28784   0.29509   0.29662
 Alpha virt. eigenvalues --    0.29989   0.30065   0.30638   0.31049   0.31260
 Alpha virt. eigenvalues --    0.31580   0.32012   0.32456   0.33714   0.34491
 Alpha virt. eigenvalues --    0.34935   0.35151   0.35505   0.35535   0.35583
 Alpha virt. eigenvalues --    0.36582   0.36622   0.36752   0.37086   0.38571
 Alpha virt. eigenvalues --    0.39608   0.40205   0.40417   0.40523   0.40914
 Alpha virt. eigenvalues --    0.41001   0.41519   0.41586   0.41817   0.42429
 Alpha virt. eigenvalues --    0.43732   0.44449   0.45552   0.45927   0.47003
 Alpha virt. eigenvalues --    0.47349   0.47696   0.48357   0.50594   0.52917
 Alpha virt. eigenvalues --    0.55429   0.55575
          Condensed to atoms (all electrons):
 Mulliken charges:
               1
     1  Mg   0.421293
     2  C   -0.049530
     3  C   -0.057614
     4  C   -0.065956
     5  C   -0.081128
     6  N   -0.280261
     7  C    0.138203
     8  C   -0.001407
     9  C   -0.003206
    10  C    0.104048
    11  C   -0.050858
    12  C   -0.014232
    13  C    0.008163
    14  C    0.468039
    15  O   -0.514193
    16  O   -0.273695
    17  N   -0.329707
    18  C    0.105668
    19  C   -0.004752
    20  C   -0.059176
    21  C    0.131046
    22  C   -0.045222
    23  C    0.324000
    24  O   -0.537918
    25  C   -0.027797
    26  N   -0.278994
    27  C    0.110173
    28  C   -0.001788
    29  C    0.017461
    30  C    0.157848
    31  C   -0.053118
    32  C   -0.030063
    33  C   -0.057675
    34  N   -0.317578
    35  C    0.113955
    36  C    0.040358
    37  C   -0.042401
    38  C    0.117819
    39  C   -0.043369
    40  C    0.341555
    41  O   -0.514504
    42  C    0.064282
    43  C    0.491981
    44  O   -0.519853
    45  O   -0.276774
    46  C    0.072495
    47  C    0.094255
    48  C   -0.082988
    49  C   -0.015138
    50  C   -0.043262
    51  C   -0.027608
    52  C   -0.041823
    53  C   -0.047542
    54  C   -0.011366
    55  C   -0.056235
    56  C   -0.030178
    57  C   -0.036680
    58  C   -0.043042
    59  C   -0.013742
    60  C   -0.058451
    61  C   -0.036014
    62  C   -0.033904
    63  C   -0.028016
    64  C   -0.010384
    65  C   -0.062531
    66  C   -0.066946
    67  H    0.021311
    68  H    0.063335
    69  H    0.028166
    70  H    0.037572
    71  H    0.029789
    72  H    0.015064
    73  H    0.015117
    74  H    0.025028
    75  H    0.025485
    76  H    0.028865
    77  H    0.036853
    78  H    0.032290
    79  H    0.027130
    80  H    0.027456
    81  H    0.029567
    82  H    0.034359
    83  H    0.039675
    84  H    0.038626
    85  H    0.037083
    86  H    0.028751
    87  H    0.039768
    88  H    0.025735
    89  H    0.011243
    90  H    0.020958
    91  H    0.026715
    92  H    0.019961
    93  H    0.016927
    94  H    0.023130
    95  H    0.044328
    96  H    0.033629
    97  H    0.025451
    98  H    0.060273
    99  H    0.055650
   100  H    0.039203
   101  H    0.032454
   102  H    0.068526
   103  H    0.047427
   104  H    0.021946
   105  H    0.025522
   106  H    0.022141
   107  H    0.039904
   108  H    0.029248
   109  H    0.022834
   110  H    0.016195
   111  H    0.022549
   112  H    0.022777
   113  H    0.019677
   114  H    0.028417
   115  H    0.000371
   116  H    0.018649
   117  H    0.021821
   118  H    0.014288
   119  H    0.021083
   120  H    0.025603
   121  H    0.007503
   122  H    0.022771
   123  H    0.022781
   124  H    0.026523
   125  H    0.016349
   126  H    0.022756
   127  H    0.023750
   128  H    0.004885
   129  H    0.019336
   130  H    0.013138
   131  H    0.026578
   132  H    0.011238
   133  H    0.022438
   134  H    0.023476
   135  H    0.014694
   136  H    0.013096
   137  H    0.023917
   138  H    0.020828
   139  H    0.011621
   140  H    0.022381
 Sum of Mulliken charges =  -0.00000
 Mulliken charges with hydrogens summed into heavy atoms:
               1
     1  Mg   0.421293
     2  C   -0.049530
     3  C   -0.036303
     4  C   -0.002620
     5  C   -0.052963
     6  N   -0.280261
     7  C    0.138203
     8  C    0.036165
     9  C    0.026582
    10  C    0.104048
    11  C    0.004350
    12  C    0.040118
    13  C    0.077306
    14  C    0.468039
    15  O   -0.514193
    16  O   -0.273695
    17  N   -0.329707
    18  C    0.105668
    19  C   -0.004752
    20  C   -0.059176
    21  C    0.131046
    22  C    0.038931
    23  C    0.324000
    24  O   -0.537918
    25  C    0.084863
    26  N   -0.278994
    27  C    0.110173
    28  C    0.035294
    29  C    0.046212
    30  C    0.157848
    31  C    0.023628
    32  C    0.017609
    33  C    0.002344
    34  N   -0.317578
    35  C    0.113955
    36  C    0.040358
    37  C   -0.042401
    38  C    0.117819
    39  C    0.060038
    40  C    0.341555
    41  O   -0.514504
    42  C    0.124555
    43  C    0.491981
    44  O   -0.519853
    45  O   -0.276774
    46  C    0.199802
    47  C    0.210208
    48  C   -0.061042
    49  C   -0.015138
    50  C    0.044305
    51  C    0.024475
    52  C   -0.003079
    53  C   -0.005088
    54  C    0.017051
    55  C   -0.015394
    56  C    0.005193
    57  C   -0.003575
    58  C    0.002511
    59  C    0.012780
    60  C    0.004405
    61  C   -0.011792
    62  C    0.005811
    63  C    0.005659
    64  C    0.013092
    65  C   -0.010824
    66  C   -0.012116
 Charge=             -0.0000 electrons
 Dipole moment (field-independent basis, Debye):
    X=             -3.0878    Y=              3.8831    Z=             -1.1043  Tot=              5.0825
 N-N= 4.289230566511D+03 E-N= 0.000000000000D+00  KE=-9.252748321932D+03
 Leave Link  601 at Wed May  4 14:12:00 2022, MaxMem=  6710886400 cpu:               0.8 elap:               0.0
 (Enter /sw/apps/gaussian-16.0/g16/l9999.exe)
 1\1\GINC-BP1-COMPUTE128\SP\RZINDO CIS\STO-3G\C55H74Mg1N4O6\OF15641\04-
 May-2022\0\\#p ZINDO=(nstates=5)\\step_1751_chromophore_7 ZINDO\\0,1\M
 g,0,26.405,0.553,30.048\C,0,28.591,-0.081,32.817\C,0,23.752,0.878,32.0
 61\C,0,24.275,0.795,27.243\C,0,28.913,-0.73,27.981\N,0,26.264,0.405,32
 .204\C,0,27.277,0.322,33.109\C,0,26.668,0.536,34.519\C,0,25.092,0.717,
 34.218\C,0,24.971,0.584,32.672\C,0,24.134,-0.291,34.864\C,0,27.397,1.7
 08,35.312\C,0,26.8,2.173,36.612\C,0,27.524,2.089,37.97\O,0,28.319,2.90
 1,38.481\O,0,26.983,1.01,38.659\N,0,24.311,0.915,29.758\C,0,23.391,1.0
 25,30.731\C,0,22.119,1.236,30.173\C,0,22.285,1.183,28.75\C,0,23.679,0.
 907,28.526\C,0,20.853,1.427,30.97\C,0,21.226,1.259,27.703\O,0,21.532,1
 .308,26.529\C,0,19.81,1.559,28.018\N,0,26.686,0.337,27.963\C,0,25.642,
 0.463,27.03\C,0,26.179,0.228,25.6\C,0,27.684,-0.111,25.836\C,0,27.824,
 -0.109,27.318\C,0,25.377,-0.868,24.874\C,0,28.777,0.731,25.206\C,0,30.
 096,0.056,24.784\N,0,28.352,-0.232,30.274\C,0,29.229,-0.745,29.366\C,0
 ,30.496,-1.035,29.994\C,0,30.36,-0.735,31.331\C,0,28.961,-0.392,31.467
 \C,0,31.686,-1.812,29.314\C,0,30.947,-0.74,32.641\O,0,32.074,-1.095,32
 .977\C,0,29.828,-0.365,33.674\C,0,29.65,-1.52,34.566\O,0,29.082,-2.574
 ,34.304\O,0,30.053,-1.116,35.839\C,0,29.708,-2.016,36.932\C,0,27.454,0
 .782,40.041\C,0,26.235,0.632,40.951\C,0,26.036,0.964,42.192\C,0,27.013
 ,1.629,43.186\C,0,24.698,0.443,42.733\C,0,24.057,1.186,43.915\C,0,22.5
 16,1.06,43.917\C,0,21.914,0.349,45.212\C,0,20.846,-0.574,44.801\C,0,21
 .319,1.442,46.094\C,0,22.443,2.056,46.896\C,0,21.903,2.457,48.22\C,0,2
 2.386,3.964,48.544\C,0,22.597,4.036,50.053\C,0,21.303,4.952,48.008\C,0
 ,21.751,6.316,47.432\C,0,21.877,6.222,45.905\C,0,23.27,6.614,45.387\C,
 0,23.408,8.161,45.283\C,0,23.548,5.979,43.948\H,0,22.895,0.935,32.735\
 H,0,23.679,0.793,26.328\H,0,29.747,-1.217,27.472\H,0,26.842,-0.409,35.
 034\H,0,24.663,1.668,34.533\H,0,23.323,0.223,35.38\H,0,24.603,-0.916,3
 5.624\H,0,23.708,-1.002,34.157\H,0,27.403,2.54,34.608\H,0,28.428,1.431
 ,35.533\H,0,25.785,1.782,36.685\H,0,26.675,3.253,36.539\H,0,20.959,1.3
 64,32.053\H,0,20.186,0.635,30.63\H,0,20.415,2.381,30.673\H,0,19.443,0.
 812,28.721\H,0,19.234,1.645,27.096\H,0,19.831,2.542,28.489\H,0,25.94,1
 .168,25.103\H,0,27.782,-1.144,25.504\H,0,24.309,-0.689,24.995\H,0,25.7
 05,-1.877,25.126\H,0,25.73,-0.703,23.855\H,0,29.176,1.305,26.042\H,0,2
 8.428,1.382,24.404\H,0,30.003,-1.016,24.961\H,0,30.909,0.406,25.42\H,0
 ,30.39,0.294,23.761\H,0,32.118,-2.509,30.033\H,0,32.427,-1.096,28.959\
 H,0,31.27,-2.289,28.428\H,0,30.184,0.417,34.345\H,0,29.515,-3.051,36.6
 51\H,0,28.881,-1.527,37.446\H,0,30.622,-2.042,37.526\H,0,27.984,1.588,
 40.548\H,0,27.934,-0.195,39.988\H,0,25.383,0.195,40.43\H,0,28.026,1.54
 2,42.794\H,0,26.977,1.002,44.077\H,0,26.698,2.64,43.446\H,0,24.838,-0.
 613,42.963\H,0,24.02,0.549,41.887\H,0,24.199,2.26,43.794\H,0,24.525,0.
 843,44.837\H,0,22.313,0.551,42.974\H,0,22.138,2.081,43.868\H,0,22.683,
 -0.161,45.793\H,0,20.663,-1.287,45.606\H,0,21.085,-1.172,43.922\H,0,19
 .861,-0.108,44.812\H,0,20.558,0.959,46.707\H,0,20.779,2.156,45.471\H,0
 ,23.04,2.77,46.33\H,0,23.174,1.279,47.121\H,0,22.275,1.664,48.869\H,0,
 20.814,2.435,48.188\H,0,23.313,4.149,48.\H,0,23.572,4.52,50.121\H,0,22
 .628,3.05,50.517\H,0,21.803,4.629,50.508\H,0,20.647,5.237,48.831\H,0,2
 0.585,4.454,47.356\H,0,22.757,6.509,47.805\H,0,21.186,7.169,47.807\H,0
 ,21.203,6.949,45.452\H,0,21.532,5.29,45.458\H,0,24.085,6.288,46.034\H,
 0,24.005,8.616,46.073\H,0,22.468,8.667,45.506\H,0,23.748,8.474,44.296\
 H,0,23.342,6.67,43.131\H,0,22.817,5.193,43.76\H,0,24.552,5.562,43.868\
 \Version=ES64L-G16RevA.03\State=1-A\HF=-474.3943104\RMSD=3.737e-09\PG=
 C01 [X(C55H74Mg1N4O6)]\\@


 "MATHEMATICS IS THE ART OF GIVING THE SAME NAME
 TO DIFFERENT THINGS."
                    - H. POINCARE
 Job cpu time:       0 days  0 hours  2 minutes 13.5 seconds.
 Elapsed time:       0 days  0 hours  0 minutes  5.8 seconds.
 File lengths (MBytes):  RWF=   1263 Int=      0 D2E=      0 Chk=     38 Scr=      1
 Normal termination of Gaussian 16 at Wed May  4 14:12:00 2022.
