 Entering Gaussian System, Link 0=g16
 Initial command:
 /sw/apps/gaussian-16.0/g16/l1.exe "/tmp/Gau-31325.inp" -scrdir="/tmp/"
 Entering Link 1 = /sw/apps/gaussian-16.0/g16/l1.exe PID=     31326.
  
 Copyright (c) 1988,1990,1992,1993,1995,1998,2003,2009,2016,
            Gaussian, Inc.  All Rights Reserved.
  
 This is part of the Gaussian(R) 16 program.  It is based on
 the Gaussian(R) 09 system (copyright 2009, Gaussian, Inc.),
 the Gaussian(R) 03 system (copyright 2003, Gaussian, Inc.),
 the Gaussian(R) 98 system (copyright 1998, Gaussian, Inc.),
 the Gaussian(R) 94 system (copyright 1995, Gaussian, Inc.),
 the Gaussian 92(TM) system (copyright 1992, Gaussian, Inc.),
 the Gaussian 90(TM) system (copyright 1990, Gaussian, Inc.),
 the Gaussian 88(TM) system (copyright 1988, Gaussian, Inc.),
 the Gaussian 86(TM) system (copyright 1986, Carnegie Mellon
 University), and the Gaussian 82(TM) system (copyright 1983,
 Carnegie Mellon University). Gaussian is a federally registered
 trademark of Gaussian, Inc.
  
 This software contains proprietary and confidential information,
 including trade secrets, belonging to Gaussian, Inc.
  
 This software is provided under written license and may be
 used, copied, transmitted, or stored only in accord with that
 written license.
  
 The following legend is applicable only to US Government
 contracts under FAR:
  
                    RESTRICTED RIGHTS LEGEND
  
 Use, reproduction and disclosure by the US Government is
 subject to restrictions as set forth in subparagraphs (a)
 and (c) of the Commercial Computer Software - Restricted
 Rights clause in FAR 52.227-19.
  
 Gaussian, Inc.
 340 Quinnipiac St., Bldg. 40, Wallingford CT 06492
  
  
 ---------------------------------------------------------------
 Warning -- This program may not be used in any manner that
 competes with the business of Gaussian, Inc. or will provide
 assistance to any competitor of Gaussian, Inc.  The licensee
 of this program is prohibited from giving any competitor of
 Gaussian, Inc. access to this program.  By using this program,
 the user acknowledges that Gaussian, Inc. is engaged in the
 business of creating and licensing software in the field of
 computational chemistry and represents and warrants to the
 licensee that it is not a competitor of Gaussian, Inc. and that
 it will not use this program in any manner prohibited above.
 ---------------------------------------------------------------
  

 Cite this work as:
 Gaussian 16, Revision A.03,
 M. J. Frisch, G. W. Trucks, H. B. Schlegel, G. E. Scuseria, 
 M. A. Robb, J. R. Cheeseman, G. Scalmani, V. Barone, 
 G. A. Petersson, H. Nakatsuji, X. Li, M. Caricato, A. V. Marenich, 
 J. Bloino, B. G. Janesko, R. Gomperts, B. Mennucci, H. P. Hratchian, 
 J. V. Ortiz, A. F. Izmaylov, J. L. Sonnenberg, D. Williams-Young, 
 F. Ding, F. Lipparini, F. Egidi, J. Goings, B. Peng, A. Petrone, 
 T. Henderson, D. Ranasinghe, V. G. Zakrzewski, J. Gao, N. Rega, 
 G. Zheng, W. Liang, M. Hada, M. Ehara, K. Toyota, R. Fukuda, 
 J. Hasegawa, M. Ishida, T. Nakajima, Y. Honda, O. Kitao, H. Nakai, 
 T. Vreven, K. Throssell, J. A. Montgomery, Jr., J. E. Peralta, 
 F. Ogliaro, M. J. Bearpark, J. J. Heyd, E. N. Brothers, K. N. Kudin, 
 V. N. Staroverov, T. A. Keith, R. Kobayashi, J. Normand, 
 K. Raghavachari, A. P. Rendell, J. C. Burant, S. S. Iyengar, 
 J. Tomasi, M. Cossi, J. M. Millam, M. Klene, C. Adamo, R. Cammi, 
 J. W. Ochterski, R. L. Martin, K. Morokuma, O. Farkas, 
 J. B. Foresman, and D. J. Fox, Gaussian, Inc., Wallingford CT, 2016.
 
 ******************************************
 Gaussian 16:  ES64L-G16RevA.03 25-Dec-2016
                 4-May-2022 
 ******************************************
 %nproc=24
 Will use up to   24 processors via shared memory.
 %mem=50gb
 --------------------
 #p ZINDO=(nstates=5)
 --------------------
 1/38=1,172=1/1;
 2/12=2,17=6,18=5,40=1/2;
 3/5=2,25=1,41=400000/1,2,3,8;
 4/5=3,35=1/1;
 5/5=2,35=1,38=5/2;
 8/6=1,108=5/1;
 9/41=5,42=1,49=10/14;
 6/7=2,8=2,9=2,10=2/1;
 99/5=1,9=1/99;
 Leave Link    1 at Wed May  4 08:02:36 2022, MaxMem=  6710886400 cpu:               0.8 elap:               0.0
 (Enter /sw/apps/gaussian-16.0/g16/l101.exe)
 ------------------------------
 step_1501_chromophore_15 ZINDO
 ------------------------------
 Symbolic Z-matrix:
 Charge =  0 Multiplicity = 1
 Mg                    46.491    34.852    27.537 
 C                     44.657    33.013    30.035 
 C                     46.747    37.303    29.91 
 C                     47.51     36.692    25.18 
 C                     45.461    32.263    25.295 
 N                     45.714    35.196    29.675 
 C                     45.151    34.233    30.513 
 C                     45.259    34.636    32.04 
 C                     45.473    36.139    31.849 
 C                     46.158    36.211    30.45 
 C                     44.204    37.027    31.921 
 C                     46.5      33.893    32.64 
 C                     46.726    34.029    34.193 
 C                     45.799    34.997    34.921 
 O                     44.584    34.894    35.034 
 O                     46.525    36.031    35.45 
 N                     47.134    36.684    27.573 
 C                     47.232    37.567    28.612 
 C                     47.703    38.866    28.159 
 C                     48.004    38.744    26.756 
 C                     47.453    37.373    26.409 
 C                     47.987    40.102    29.049 
 C                     48.626    39.714    25.808 
 O                     48.832    39.411    24.589 
 C                     49.006    41.125    26.286 
 N                     46.529    34.446    25.545 
 C                     47.049    35.449    24.753 
 C                     46.97     35.048    23.263 
 C                     46.211    33.673    23.248 
 C                     45.969    33.451    24.76 
 C                     46.308    36.148    22.33 
 C                     46.763    32.5      22.413 
 C                     45.88     32.11     21.21 
 N                     45.42     32.985    27.648 
 C                     45.239    32.042    26.663 
 C                     44.642    30.939    27.219 
 C                     44.39     31.231    28.542 
 C                     44.85     32.512    28.709 
 C                     44.303    29.678    26.452 
 C                     43.805    30.655    29.743 
 O                     43.304    29.525    29.933 
 C                     43.787    31.836    30.693 
 C                     44.       31.42     32.121 
 O                     45.046    30.871    32.459 
 O                     43.013    31.863    32.94 
 C                     43.241    31.712    34.343 
 C                     45.804    36.883    36.401 
 C                     46.825    37.967    36.772 
 C                     46.954    38.706    37.928 
 C                     46.023    38.452    39.063 
 C                     48.025    39.74     38.002 
 C                     47.818    40.864    36.987 
 C                     49.158    41.389    36.51 
 C                     49.034    42.737    35.78 
 C                     50.088    42.858    34.699 
 C                     49.058    43.879    36.874 
 C                     47.921    44.94     36.618 
 C                     46.722    44.73     37.56 
 C                     46.412    45.714    38.682 
 C                     47.665    45.731    39.675 
 C                     45.152    45.27     39.495 
 C                     44.127    46.366    39.523 
 C                     42.696    45.834    39.815 
 C                     41.909    45.63     38.517 
 C                     41.497    46.914    37.743 
 C                     40.621    44.853    38.871 
 H                     46.932    38.137    30.59 
 H                     47.847    37.239    24.297 
 H                     45.257    31.47     24.573 
 H                     44.352    34.377    32.586 
 H                     46.183    36.403    32.633 
 H                     43.312    36.468    31.639 
 H                     44.33     37.868    31.239 
 H                     44.066    37.609    32.832 
 H                     47.426    34.237    32.179 
 H                     46.424    32.82     32.463 
 H                     47.741    34.341    34.438 
 H                     46.708    33.008    34.576 
 H                     47.538    40.003    30.037 
 H                     47.636    41.032    28.602 
 H                     49.015    40.186    29.399 
 H                     49.708    41.028    27.114 
 H                     48.093    41.616    26.623 
 H                     49.458    41.677    25.462 
 H                     47.963    34.939    22.827 
 H                     45.233    33.863    22.806 
 H                     46.081    36.936    23.048 
 H                     45.4      35.866    21.797 
 H                     47.072    36.545    21.662 
 H                     46.941    31.619    23.029 
 H                     47.731    32.78     21.997 
 H                     46.418    32.614    20.408 
 H                     44.855    32.431    21.397 
 H                     45.858    31.031    21.051 
 H                     45.269    29.173    26.441 
 H                     43.908    29.849    25.45 
 H                     43.6      29.03     26.976 
 H                     42.739    32.1      30.833 
 H                     43.973    30.974    34.669 
 H                     42.303    31.397    34.8 
 H                     43.425    32.694    34.779 
 H                     45.531    36.327    37.298 
 H                     44.917    37.432    36.087 
 H                     47.549    38.127    35.972 
 H                     46.591    38.542    39.988 
 H                     45.566    37.463    39.012 
 H                     45.224    39.193    39.081 
 H                     48.981    39.231    37.877 
 H                     48.044    40.135    39.017 
 H                     47.422    41.736    37.509 
 H                     47.07     40.683    36.216 
 H                     49.593    40.6      35.897 
 H                     49.719    41.471    37.442 
 H                     48.091    42.677    35.235 
 H                     50.668    43.771    34.832 
 H                     49.603    42.89     33.723 
 H                     50.785    42.021    34.7 
 H                     49.96     44.49     36.849 
 H                     48.859    43.485    37.871 
 H                     47.605    44.905    35.575 
 H                     48.332    45.932    36.804 
 H                     46.644    43.755    38.042 
 H                     45.912    44.754    36.831 
 H                     46.267    46.731    38.318 
 H                     47.706    46.621    40.303 
 H                     48.606    45.539    39.159 
 H                     47.479    44.867    40.312 
 H                     45.506    45.019    40.495 
 H                     44.745    44.345    39.087 
 H                     44.041    46.958    38.612 
 H                     44.412    47.057    40.316 
 H                     42.36     46.657    40.446 
 H                     42.866    44.912    40.372 
 H                     42.404    45.052    37.737 
 H                     41.274    47.689    38.476 
 H                     40.621    46.817    37.102 
 H                     42.338    47.168    37.098 
 H                     39.773    45.528    38.762 
 H                     40.682    44.467    39.889 
 H                     40.584    44.08     38.104 
 
 ITRead=  0  0  0  0  0  0  0  0  0  0  0  0  0  0  0  0  0  0  0  0
 ITRead=  0  0  0  0  0  0  0  0  0  0  0  0  0  0  0  0  0  0  0  0
 ITRead=  0  0  0  0  0  0  0  0  0  0  0  0  0  0  0  0  0  0  0  0
 ITRead=  0  0  0  0  0  0  0  0  0  0  0  0  0  0  0  0  0  0  0  0
 ITRead=  0  0  0  0  0  0  0  0  0  0  0  0  0  0  0  0  0  0  0  0
 ITRead=  0  0  0  0  0  0  0  0  0  0  0  0  0  0  0  0  0  0  0  0
 ITRead=  0  0  0  0  0  0  0  0  0  0  0  0  0  0  0  0  0  0  0  0
 MicOpt= -1 -1 -1 -1 -1 -1 -1 -1 -1 -1 -1 -1 -1 -1 -1 -1 -1 -1 -1 -1
 MicOpt= -1 -1 -1 -1 -1 -1 -1 -1 -1 -1 -1 -1 -1 -1 -1 -1 -1 -1 -1 -1
 MicOpt= -1 -1 -1 -1 -1 -1 -1 -1 -1 -1 -1 -1 -1 -1 -1 -1 -1 -1 -1 -1
 MicOpt= -1 -1 -1 -1 -1 -1 -1 -1 -1 -1 -1 -1 -1 -1 -1 -1 -1 -1 -1 -1
 MicOpt= -1 -1 -1 -1 -1 -1 -1 -1 -1 -1 -1 -1 -1 -1 -1 -1 -1 -1 -1 -1
 MicOpt= -1 -1 -1 -1 -1 -1 -1 -1 -1 -1 -1 -1 -1 -1 -1 -1 -1 -1 -1 -1
 MicOpt= -1 -1 -1 -1 -1 -1 -1 -1 -1 -1 -1 -1 -1 -1 -1 -1 -1 -1 -1 -1
 NAtoms=    140 NQM=      140 NQMF=       0 NMMI=      0 NMMIF=      0
                NMic=       0 NMicF=      0.
                    Isotopes and Nuclear Properties:
 (Nuclear quadrupole moments (NQMom) in fm**2, nuclear magnetic moments (NMagM)
  in nuclear magnetons)

  Atom         1           2           3           4           5           6           7           8           9          10
 IAtWgt=          24          12          12          12          12          14          12          12          12          12
 AtmWgt=  23.9850450  12.0000000  12.0000000  12.0000000  12.0000000  14.0030740  12.0000000  12.0000000  12.0000000  12.0000000
 NucSpn=           0           0           0           0           0           2           0           0           0           0
 AtZEff=  -0.0000000  -0.0000000  -0.0000000  -0.0000000  -0.0000000  -0.0000000  -0.0000000  -0.0000000  -0.0000000  -0.0000000
 NQMom=    0.0000000   0.0000000   0.0000000   0.0000000   0.0000000   2.0440000   0.0000000   0.0000000   0.0000000   0.0000000
 NMagM=    0.0000000   0.0000000   0.0000000   0.0000000   0.0000000   0.4037610   0.0000000   0.0000000   0.0000000   0.0000000
 AtZNuc=  12.0000000   6.0000000   6.0000000   6.0000000   6.0000000   7.0000000   6.0000000   6.0000000   6.0000000   6.0000000

  Atom        11          12          13          14          15          16          17          18          19          20
 IAtWgt=          12          12          12          12          16          16          14          12          12          12
 AtmWgt=  12.0000000  12.0000000  12.0000000  12.0000000  15.9949146  15.9949146  14.0030740  12.0000000  12.0000000  12.0000000
 NucSpn=           0           0           0           0           0           0           2           0           0           0
 AtZEff=  -0.0000000  -0.0000000  -0.0000000  -0.0000000  -0.0000000  -0.0000000  -0.0000000  -0.0000000  -0.0000000  -0.0000000
 NQMom=    0.0000000   0.0000000   0.0000000   0.0000000   0.0000000   0.0000000   2.0440000   0.0000000   0.0000000   0.0000000
 NMagM=    0.0000000   0.0000000   0.0000000   0.0000000   0.0000000   0.0000000   0.4037610   0.0000000   0.0000000   0.0000000
 AtZNuc=   6.0000000   6.0000000   6.0000000   6.0000000   8.0000000   8.0000000   7.0000000   6.0000000   6.0000000   6.0000000

  Atom        21          22          23          24          25          26          27          28          29          30
 IAtWgt=          12          12          12          16          12          14          12          12          12          12
 AtmWgt=  12.0000000  12.0000000  12.0000000  15.9949146  12.0000000  14.0030740  12.0000000  12.0000000  12.0000000  12.0000000
 NucSpn=           0           0           0           0           0           2           0           0           0           0
 AtZEff=  -0.0000000  -0.0000000  -0.0000000  -0.0000000  -0.0000000  -0.0000000  -0.0000000  -0.0000000  -0.0000000  -0.0000000
 NQMom=    0.0000000   0.0000000   0.0000000   0.0000000   0.0000000   2.0440000   0.0000000   0.0000000   0.0000000   0.0000000
 NMagM=    0.0000000   0.0000000   0.0000000   0.0000000   0.0000000   0.4037610   0.0000000   0.0000000   0.0000000   0.0000000
 AtZNuc=   6.0000000   6.0000000   6.0000000   8.0000000   6.0000000   7.0000000   6.0000000   6.0000000   6.0000000   6.0000000

  Atom        31          32          33          34          35          36          37          38          39          40
 IAtWgt=          12          12          12          14          12          12          12          12          12          12
 AtmWgt=  12.0000000  12.0000000  12.0000000  14.0030740  12.0000000  12.0000000  12.0000000  12.0000000  12.0000000  12.0000000
 NucSpn=           0           0           0           2           0           0           0           0           0           0
 AtZEff=  -0.0000000  -0.0000000  -0.0000000  -0.0000000  -0.0000000  -0.0000000  -0.0000000  -0.0000000  -0.0000000  -0.0000000
 NQMom=    0.0000000   0.0000000   0.0000000   2.0440000   0.0000000   0.0000000   0.0000000   0.0000000   0.0000000   0.0000000
 NMagM=    0.0000000   0.0000000   0.0000000   0.4037610   0.0000000   0.0000000   0.0000000   0.0000000   0.0000000   0.0000000
 AtZNuc=   6.0000000   6.0000000   6.0000000   7.0000000   6.0000000   6.0000000   6.0000000   6.0000000   6.0000000   6.0000000

  Atom        41          42          43          44          45          46          47          48          49          50
 IAtWgt=          16          12          12          16          16          12          12          12          12          12
 AtmWgt=  15.9949146  12.0000000  12.0000000  15.9949146  15.9949146  12.0000000  12.0000000  12.0000000  12.0000000  12.0000000
 NucSpn=           0           0           0           0           0           0           0           0           0           0
 AtZEff=  -0.0000000  -0.0000000  -0.0000000  -0.0000000  -0.0000000  -0.0000000  -0.0000000  -0.0000000  -0.0000000  -0.0000000
 NQMom=    0.0000000   0.0000000   0.0000000   0.0000000   0.0000000   0.0000000   0.0000000   0.0000000   0.0000000   0.0000000
 NMagM=    0.0000000   0.0000000   0.0000000   0.0000000   0.0000000   0.0000000   0.0000000   0.0000000   0.0000000   0.0000000
 AtZNuc=   8.0000000   6.0000000   6.0000000   8.0000000   8.0000000   6.0000000   6.0000000   6.0000000   6.0000000   6.0000000

  Atom        51          52          53          54          55          56          57          58          59          60
 IAtWgt=          12          12          12          12          12          12          12          12          12          12
 AtmWgt=  12.0000000  12.0000000  12.0000000  12.0000000  12.0000000  12.0000000  12.0000000  12.0000000  12.0000000  12.0000000
 NucSpn=           0           0           0           0           0           0           0           0           0           0
 AtZEff=  -0.0000000  -0.0000000  -0.0000000  -0.0000000  -0.0000000  -0.0000000  -0.0000000  -0.0000000  -0.0000000  -0.0000000
 NQMom=    0.0000000   0.0000000   0.0000000   0.0000000   0.0000000   0.0000000   0.0000000   0.0000000   0.0000000   0.0000000
 NMagM=    0.0000000   0.0000000   0.0000000   0.0000000   0.0000000   0.0000000   0.0000000   0.0000000   0.0000000   0.0000000
 AtZNuc=   6.0000000   6.0000000   6.0000000   6.0000000   6.0000000   6.0000000   6.0000000   6.0000000   6.0000000   6.0000000

  Atom        61          62          63          64          65          66          67          68          69          70
 IAtWgt=          12          12          12          12          12          12           1           1           1           1
 AtmWgt=  12.0000000  12.0000000  12.0000000  12.0000000  12.0000000  12.0000000   1.0078250   1.0078250   1.0078250   1.0078250
 NucSpn=           0           0           0           0           0           0           1           1           1           1
 AtZEff=  -0.0000000  -0.0000000  -0.0000000  -0.0000000  -0.0000000  -0.0000000  -0.0000000  -0.0000000  -0.0000000  -0.0000000
 NQMom=    0.0000000   0.0000000   0.0000000   0.0000000   0.0000000   0.0000000   0.0000000   0.0000000   0.0000000   0.0000000
 NMagM=    0.0000000   0.0000000   0.0000000   0.0000000   0.0000000   0.0000000   2.7928460   2.7928460   2.7928460   2.7928460
 AtZNuc=   6.0000000   6.0000000   6.0000000   6.0000000   6.0000000   6.0000000   1.0000000   1.0000000   1.0000000   1.0000000

  Atom        71          72          73          74          75          76          77          78          79          80
 IAtWgt=           1           1           1           1           1           1           1           1           1           1
 AtmWgt=   1.0078250   1.0078250   1.0078250   1.0078250   1.0078250   1.0078250   1.0078250   1.0078250   1.0078250   1.0078250
 NucSpn=           1           1           1           1           1           1           1           1           1           1
 AtZEff=  -0.0000000  -0.0000000  -0.0000000  -0.0000000  -0.0000000  -0.0000000  -0.0000000  -0.0000000  -0.0000000  -0.0000000
 NQMom=    0.0000000   0.0000000   0.0000000   0.0000000   0.0000000   0.0000000   0.0000000   0.0000000   0.0000000   0.0000000
 NMagM=    2.7928460   2.7928460   2.7928460   2.7928460   2.7928460   2.7928460   2.7928460   2.7928460   2.7928460   2.7928460
 AtZNuc=   1.0000000   1.0000000   1.0000000   1.0000000   1.0000000   1.0000000   1.0000000   1.0000000   1.0000000   1.0000000

  Atom        81          82          83          84          85          86          87          88          89          90
 IAtWgt=           1           1           1           1           1           1           1           1           1           1
 AtmWgt=   1.0078250   1.0078250   1.0078250   1.0078250   1.0078250   1.0078250   1.0078250   1.0078250   1.0078250   1.0078250
 NucSpn=           1           1           1           1           1           1           1           1           1           1
 AtZEff=  -0.0000000  -0.0000000  -0.0000000  -0.0000000  -0.0000000  -0.0000000  -0.0000000  -0.0000000  -0.0000000  -0.0000000
 NQMom=    0.0000000   0.0000000   0.0000000   0.0000000   0.0000000   0.0000000   0.0000000   0.0000000   0.0000000   0.0000000
 NMagM=    2.7928460   2.7928460   2.7928460   2.7928460   2.7928460   2.7928460   2.7928460   2.7928460   2.7928460   2.7928460
 AtZNuc=   1.0000000   1.0000000   1.0000000   1.0000000   1.0000000   1.0000000   1.0000000   1.0000000   1.0000000   1.0000000

  Atom        91          92          93          94          95          96          97          98          99         100
 IAtWgt=           1           1           1           1           1           1           1           1           1           1
 AtmWgt=   1.0078250   1.0078250   1.0078250   1.0078250   1.0078250   1.0078250   1.0078250   1.0078250   1.0078250   1.0078250
 NucSpn=           1           1           1           1           1           1           1           1           1           1
 AtZEff=  -0.0000000  -0.0000000  -0.0000000  -0.0000000  -0.0000000  -0.0000000  -0.0000000  -0.0000000  -0.0000000  -0.0000000
 NQMom=    0.0000000   0.0000000   0.0000000   0.0000000   0.0000000   0.0000000   0.0000000   0.0000000   0.0000000   0.0000000
 NMagM=    2.7928460   2.7928460   2.7928460   2.7928460   2.7928460   2.7928460   2.7928460   2.7928460   2.7928460   2.7928460
 AtZNuc=   1.0000000   1.0000000   1.0000000   1.0000000   1.0000000   1.0000000   1.0000000   1.0000000   1.0000000   1.0000000

  Atom       101         102         103         104         105         106         107         108         109         110
 IAtWgt=           1           1           1           1           1           1           1           1           1           1
 AtmWgt=   1.0078250   1.0078250   1.0078250   1.0078250   1.0078250   1.0078250   1.0078250   1.0078250   1.0078250   1.0078250
 NucSpn=           1           1           1           1           1           1           1           1           1           1
 AtZEff=  -0.0000000  -0.0000000  -0.0000000  -0.0000000  -0.0000000  -0.0000000  -0.0000000  -0.0000000  -0.0000000  -0.0000000
 NQMom=    0.0000000   0.0000000   0.0000000   0.0000000   0.0000000   0.0000000   0.0000000   0.0000000   0.0000000   0.0000000
 NMagM=    2.7928460   2.7928460   2.7928460   2.7928460   2.7928460   2.7928460   2.7928460   2.7928460   2.7928460   2.7928460
 AtZNuc=   1.0000000   1.0000000   1.0000000   1.0000000   1.0000000   1.0000000   1.0000000   1.0000000   1.0000000   1.0000000

  Atom       111         112         113         114         115         116         117         118         119         120
 IAtWgt=           1           1           1           1           1           1           1           1           1           1
 AtmWgt=   1.0078250   1.0078250   1.0078250   1.0078250   1.0078250   1.0078250   1.0078250   1.0078250   1.0078250   1.0078250
 NucSpn=           1           1           1           1           1           1           1           1           1           1
 AtZEff=  -0.0000000  -0.0000000  -0.0000000  -0.0000000  -0.0000000  -0.0000000  -0.0000000  -0.0000000  -0.0000000  -0.0000000
 NQMom=    0.0000000   0.0000000   0.0000000   0.0000000   0.0000000   0.0000000   0.0000000   0.0000000   0.0000000   0.0000000
 NMagM=    2.7928460   2.7928460   2.7928460   2.7928460   2.7928460   2.7928460   2.7928460   2.7928460   2.7928460   2.7928460
 AtZNuc=   1.0000000   1.0000000   1.0000000   1.0000000   1.0000000   1.0000000   1.0000000   1.0000000   1.0000000   1.0000000

  Atom       121         122         123         124         125         126         127         128         129         130
 IAtWgt=           1           1           1           1           1           1           1           1           1           1
 AtmWgt=   1.0078250   1.0078250   1.0078250   1.0078250   1.0078250   1.0078250   1.0078250   1.0078250   1.0078250   1.0078250
 NucSpn=           1           1           1           1           1           1           1           1           1           1
 AtZEff=  -0.0000000  -0.0000000  -0.0000000  -0.0000000  -0.0000000  -0.0000000  -0.0000000  -0.0000000  -0.0000000  -0.0000000
 NQMom=    0.0000000   0.0000000   0.0000000   0.0000000   0.0000000   0.0000000   0.0000000   0.0000000   0.0000000   0.0000000
 NMagM=    2.7928460   2.7928460   2.7928460   2.7928460   2.7928460   2.7928460   2.7928460   2.7928460   2.7928460   2.7928460
 AtZNuc=   1.0000000   1.0000000   1.0000000   1.0000000   1.0000000   1.0000000   1.0000000   1.0000000   1.0000000   1.0000000

  Atom       131         132         133         134         135         136         137         138         139         140
 IAtWgt=           1           1           1           1           1           1           1           1           1           1
 AtmWgt=   1.0078250   1.0078250   1.0078250   1.0078250   1.0078250   1.0078250   1.0078250   1.0078250   1.0078250   1.0078250
 NucSpn=           1           1           1           1           1           1           1           1           1           1
 AtZEff=  -0.0000000  -0.0000000  -0.0000000  -0.0000000  -0.0000000  -0.0000000  -0.0000000  -0.0000000  -0.0000000  -0.0000000
 NQMom=    0.0000000   0.0000000   0.0000000   0.0000000   0.0000000   0.0000000   0.0000000   0.0000000   0.0000000   0.0000000
 NMagM=    2.7928460   2.7928460   2.7928460   2.7928460   2.7928460   2.7928460   2.7928460   2.7928460   2.7928460   2.7928460
 AtZNuc=   1.0000000   1.0000000   1.0000000   1.0000000   1.0000000   1.0000000   1.0000000   1.0000000   1.0000000   1.0000000
 Leave Link  101 at Wed May  4 08:02:37 2022, MaxMem=  6710886400 cpu:               3.3 elap:               0.2
 (Enter /sw/apps/gaussian-16.0/g16/l202.exe)
 Stoichiometry    C55H74MgN4O6
 Framework group  C1[X(C55H74MgN4O6)]
 Deg. of freedom   414
 Full point group                 C1      NOp   1
 Largest Abelian subgroup         C1      NOp   1
 Largest concise Abelian subgroup C1      NOp   1
                         Standard orientation:                         
 ---------------------------------------------------------------------
 Center     Atomic      Atomic             Coordinates (Angstroms)
 Number     Number       Type             X           Y           Z
 ---------------------------------------------------------------------
      1         12           0       -4.670216    0.910973   -0.153945
      2          6           0       -3.993093   -2.576938    0.447275
      3          6           0       -1.271875    1.270099   -0.316343
      4          6           0       -5.234533    4.016723   -0.030365
      5          6           0       -8.055306    0.093196    0.660177
      6          7           0       -2.831009   -0.440131    0.137508
      7          6           0       -2.832635   -1.834036    0.197563
      8          6           0       -1.420281   -2.447475   -0.169522
      9          6           0       -0.573548   -1.198004    0.081779
     10          6           0       -1.582319   -0.041214   -0.193590
     11          6           0        0.076230   -1.080668    1.484672
     12          6           0       -1.469287   -2.884948   -1.672302
     13          6           0       -0.214498   -3.658735   -2.227405
     14          6           0        0.978317   -3.762744   -1.282571
     15          8           0        1.004504   -4.346235   -0.206256
     16          8           0        2.052576   -3.097201   -1.810862
     17          7           0       -3.439095    2.408285   -0.269566
     18          6           0       -2.076535    2.426977   -0.378629
     19          6           0       -1.563225    3.787309   -0.357214
     20          6           0       -2.700098    4.670735   -0.326038
     21          6           0       -3.861350    3.720891   -0.095947
     22          6           0       -0.081074    4.212637   -0.508134
     23          6           0       -2.776945    6.158406   -0.412173
     24          8           0       -3.894301    6.767545   -0.386289
     25          6           0       -1.489573    6.993855   -0.504390
     26          7           0       -6.435015    1.860295    0.190461
     27          6           0       -6.372104    3.238443    0.169914
     28          6           0       -7.755562    3.841167    0.501445
     29          6           0       -8.668437    2.609454    0.842726
     30          6           0       -7.677135    1.439340    0.637434
     31          6           0       -7.725560    4.943773    1.642538
     32          6           0      -10.074065    2.498756    0.218376
     33          6           0      -11.228511    2.640893    1.231317
     34          7           0       -5.810730   -0.856653    0.314860
     35          6           0       -7.171683   -0.980721    0.471864
     36          6           0       -7.477305   -2.312465    0.595187
     37          6           0       -6.288722   -3.009771    0.583670
     38          6           0       -5.321403   -2.045905    0.458339
     39          6           0       -8.883125   -2.850696    0.760434
     40          6           0       -5.762070   -4.362521    0.679094
     41          8           0       -6.361216   -5.454061    0.795566
     42          6           0       -4.268835   -4.122405    0.779974
     43          6           0       -3.472136   -5.211663    0.119369
     44          8           0       -3.588469   -5.423438   -1.085363
     45          8           0       -2.556954   -5.761624    0.956725
     46          6           0       -1.604273   -6.644167    0.359472
     47          6           0        3.334809   -3.344283   -1.143797
     48          6           0        4.321110   -2.439545   -1.894660
     49          6           0        5.676307   -2.582294   -2.099996
     50          6           0        6.368505   -3.794541   -1.579591
     51          6           0        6.406097   -1.512497   -2.837975
     52          6           0        6.386861   -0.177296   -2.094122
     53          6           0        6.364736    0.970773   -3.084174
     54          6           0        6.706810    2.318740   -2.427401
     55          6           0        5.966474    3.449327   -3.111355
     56          6           0        8.282175    2.458549   -2.411459
     57          6           0        8.798688    2.946238   -1.004547
     58          6           0        9.376966    1.785611   -0.175328
     59          6           0       10.871646    1.675901    0.102404
     60          6           0       11.619349    1.535295   -1.303838
     61          6           0       11.199051    0.407924    0.957240
     62          6           0       11.951175    0.786925    2.199532
     63          6           0       11.830385   -0.285821    3.317868
     64          6           0       10.726579    0.079950    4.314670
     65          6           0       10.995556    1.305197    5.233307
     66          6           0       10.489598   -1.150668    5.218776
     67          1           0       -0.212030    1.505995   -0.431502
     68          1           0       -5.539520    5.064089    0.019380
     69          1           0       -9.119504   -0.095113    0.814356
     70          1           0       -1.174079   -3.293655    0.471733
     71          1           0        0.184274   -1.234789   -0.701039
     72          1           0       -0.497731   -1.624628    2.234569
     73          1           0        0.117880   -0.026909    1.760604
     74          1           0        1.145787   -1.280612    1.545986
     75          1           0       -1.595681   -2.024288   -2.329281
     76          1           0       -2.309782   -3.557049   -1.846318
     77          1           0        0.167727   -3.220675   -3.149144
     78          1           0       -0.600394   -4.616327   -2.578910
     79          1           0        0.599297    3.374548   -0.358976
     80          1           0        0.199500    5.011351    0.178338
     81          1           0        0.229476    4.431118   -1.528999
     82          1           0       -0.936864    6.673901   -1.387532
     83          1           0       -0.905404    6.799785    0.395222
     84          1           0       -1.747810    8.050418   -0.574899
     85          1           0       -8.162628    4.393028   -0.345770
     86          1           0       -8.867668    2.657782    1.913202
     87          1           0       -6.664381    4.974235    1.889454
     88          1           0       -8.305176    4.742127    2.543349
     89          1           0       -7.971261    5.909505    1.201492
     90          1           0      -10.194015    1.567954   -0.335266
     91          1           0      -10.209206    3.302219   -0.505961
     92          1           0      -11.502552    3.681583    1.062409
     93          1           0      -10.868370    2.378692    2.226396
     94          1           0      -12.059855    1.973199    1.000972
     95          1           0       -9.232014   -2.846889   -0.272312
     96          1           0       -9.520066   -2.260540    1.420201
     97          1           0       -8.911716   -3.882137    1.112573
     98          1           0       -3.981444   -4.404175    1.792699
     99          1           0       -1.851953   -7.095432   -0.600610
    100          1           0       -1.461655   -7.486393    1.036402
    101          1           0       -0.630068   -6.155303    0.344883
    102          1           0        3.643886   -4.383259   -1.259008
    103          1           0        3.467961   -3.089370   -0.093056
    104          1           0        3.820142   -1.573791   -2.329719
    105          1           0        7.118517   -4.091455   -2.311489
    106          1           0        5.681011   -4.623494   -1.407081
    107          1           0        6.877122   -3.576292   -0.640719
    108          1           0        5.968996   -1.445294   -3.834504
    109          1           0        7.429186   -1.850254   -2.998658
    110          1           0        7.357508   -0.029294   -1.619123
    111          1           0        5.693869   -0.104060   -1.256803
    112          1           0        5.380197    0.950948   -3.550871
    113          1           0        7.114781    0.661411   -3.813419
    114          1           0        6.264947    2.267484   -1.431407
    115          1           0        6.664483    4.219461   -3.438975
    116          1           0        5.258024    3.893283   -2.411479
    117          1           0        5.409557    3.114972   -3.985672
    118          1           0        8.659728    3.230713   -3.081359
    119          1           0        8.772725    1.498899   -2.576620
    120          1           0        7.994398    3.445708   -0.463642
    121          1           0        9.589938    3.677856   -1.166536
    122          1           0        9.096262    0.777818   -0.482884
    123          1           0        8.851285    1.954404    0.764504
    124          1           0       11.270420    2.559751    0.599997
    125          1           0       12.678180    1.789958   -1.257064
    126          1           0       11.097802    2.059012   -2.105281
    127          1           0       11.529170    0.471139   -1.519018
    128          1           0       11.782007   -0.252056    0.314662
    129          1           0       10.285197   -0.139221    1.187983
    130          1           0       11.658074    1.729142    2.662242
    131          1           0       13.000786    0.889633    1.925081
    132          1           0       12.850130   -0.217152    3.697067
    133          1           0       11.639113   -1.212157    2.775143
    134          1           0        9.755360    0.332314    3.889752
    135          1           0       12.059395    1.318804    5.469325
    136          1           0       10.456642    1.311166    6.180514
    137          1           0       10.672179    2.184511    4.676480
    138          1           0       10.859619   -0.918749    6.216728
    139          1           0       10.999222   -2.022988    4.808432
    140          1           0        9.403517   -1.236624    5.233818
 ---------------------------------------------------------------------
 Rotational constants (GHZ):           0.0402022           0.0123511           0.0104570
 Leave Link  202 at Wed May  4 08:02:37 2022, MaxMem=  6710886400 cpu:               0.3 elap:               0.0
 (Enter /sw/apps/gaussian-16.0/g16/l301.exe)
 Standard basis: VSTO-6G (5D, 7F)
 Ernie: Thresh=  0.10000D-02 Tol=  0.10000D-05 Strict=F.
 There are   338 symmetry adapted cartesian basis functions of A   symmetry.
 There are   338 symmetry adapted basis functions of A   symmetry.
   338 basis functions,  2028 primitive gaussians,   338 cartesian basis functions
   176 alpha electrons      176 beta electrons
       nuclear repulsion energy      4906.4115588263 Hartrees.
 IExCor=    0 DFT=F Ex=HF Corr=None ExCW=0 ScaHFX=  1.000000
 ScaDFX=  1.000000  1.000000  1.000000  1.000000 ScalE2=  1.000000  1.000000
 IRadAn=      5 IRanWt=     -1 IRanGd=            0 ICorTp=0 IEmpDi=  4
 Integral buffers will be    131072 words long.
 Regular integral format.
 Two-electron integral symmetry is turned off.
 Leave Link  301 at Wed May  4 08:02:37 2022, MaxMem=  6710886400 cpu:               1.2 elap:               0.1
 (Enter /sw/apps/gaussian-16.0/g16/l302.exe)
 Do NDO integrals.
 NPDir=0 NMtPBC=     1 NCelOv=     1 NCel=       1 NClECP=     1 NCelD=      1
         NCelK=      1 NCelE2=     1 NClLst=     1 CellRange=     0.0.
 One-electron integrals computed using PRISM.
 Generate ZINDO/S integrals.
 NDO Nuclear repulsion=  4416.179850755786 Hartrees.
 NBasis=   338 RedAO= F EigKep=  0.00D+00  NBF=   338
 NBsUse=   338 1.00D-04 EigRej=  0.00D+00 NBFU=   338
 Leave Link  302 at Wed May  4 08:02:37 2022, MaxMem=  6710886400 cpu:               9.1 elap:               0.4
 (Enter /sw/apps/gaussian-16.0/g16/l303.exe)
 DipDrv:  MaxL=1.
 DipDrv:  will hold  3 matrices at once.
 Leave Link  303 at Wed May  4 08:02:37 2022, MaxMem=  6710886400 cpu:               0.9 elap:               0.1
 (Enter /sw/apps/gaussian-16.0/g16/l308.exe)
 Leave Link  308 at Wed May  4 08:02:38 2022, MaxMem=  6710886400 cpu:               6.3 elap:               0.3
 (Enter /sw/apps/gaussian-16.0/g16/l401.exe)
 Simple Huckel Guess.
 JPrj=0 DoOrth=F DoCkMO=F.
 Leave Link  401 at Wed May  4 08:02:38 2022, MaxMem=  6710886400 cpu:               2.6 elap:               0.1
 (Enter /sw/apps/gaussian-16.0/g16/l502.exe)
 Two-electron integral symmetry not used.
 Closed shell SCF:
 Using DIIS extrapolation, IDIIS=  1040.
 Overlap will be assumed to be unity.
 NGot=  6710886400 LenX=  6710643598 LenY=  6710528913
 Requested convergence on RMS density matrix=1.00D-08 within 128 cycles.
 Requested convergence on MAX density matrix=1.00D-06.
 Requested convergence on             energy=1.00D-06.
 No special actions if energy rises.
 Fock matrices will be formed incrementally for  20 cycles.

 Cycle   1  Pass 1  IDiag  1:
 E= -472.449895719909    
 DIIS: error= 6.15D-02 at cycle   1 NSaved=   1.
 NSaved= 1 IEnMin= 1 EnMin= -472.449895719909     IErMin= 1 ErrMin= 6.15D-02
 ErrMax= 6.15D-02  0.00D+00 EMaxC= 1.00D-01 BMatC= 8.32D-01 BMatP= 8.32D-01
 IDIUse=3 WtCom= 3.85D-01 WtEn= 6.15D-01
 Coeff-Com:  0.100D+01
 Coeff-En:   0.100D+01
 Coeff:      0.100D+01
 GapD=    2.000 DampG=2.000 DampE=0.500 DampFc=1.0000 IDamp=-1.
 RMSDP=4.05D-03 MaxDP=1.85D-01              OVMax= 0.00D+00

 Cycle   2  Pass 1  IDiag  1:
 RMSU=  4.04D-03    CP:  9.95D-01
 E= -474.292722354990     Delta-E=       -1.842826635080 Rises=F Damp=F
 DIIS: error= 2.14D-02 at cycle   2 NSaved=   2.
 NSaved= 2 IEnMin= 2 EnMin= -474.292722354990     IErMin= 2 ErrMin= 2.14D-02
 ErrMax= 2.14D-02  0.00D+00 EMaxC= 1.00D-01 BMatC= 5.25D-02 BMatP= 8.32D-01
 IDIUse=3 WtCom= 7.86D-01 WtEn= 2.14D-01
 Coeff-Com: -0.692D-01 0.107D+01
 Coeff-En:   0.000D+00 0.100D+01
 Coeff:     -0.544D-01 0.105D+01
 RMSDP=1.12D-03 MaxDP=6.65D-02 DE=-1.84D+00 OVMax= 0.00D+00

 Cycle   3  Pass 1  IDiag  1:
 RMSU=  1.06D-03    CP:  9.93D-01  1.09D+00
 E= -474.395842438315     Delta-E=       -0.103120083325 Rises=F Damp=F
 DIIS: error= 9.26D-03 at cycle   3 NSaved=   3.
 NSaved= 3 IEnMin= 3 EnMin= -474.395842438315     IErMin= 3 ErrMin= 9.26D-03
 ErrMax= 9.26D-03  0.00D+00 EMaxC= 1.00D-01 BMatC= 7.19D-03 BMatP= 5.25D-02
 IDIUse=3 WtCom= 9.07D-01 WtEn= 9.26D-02
 Coeff-Com: -0.681D-01 0.237D+00 0.831D+00
 Coeff-En:   0.000D+00 0.000D+00 0.100D+01
 Coeff:     -0.618D-01 0.215D+00 0.847D+00
 RMSDP=3.65D-04 MaxDP=1.78D-02 DE=-1.03D-01 OVMax= 0.00D+00

 Cycle   4  Pass 1  IDiag  1:
 RMSU=  2.34D-04    CP:  9.93D-01  1.15D+00  9.36D-01
 E= -474.408674018574     Delta-E=       -0.012831580259 Rises=F Damp=F
 DIIS: error= 1.76D-03 at cycle   4 NSaved=   4.
 NSaved= 4 IEnMin= 4 EnMin= -474.408674018574     IErMin= 4 ErrMin= 1.76D-03
 ErrMax= 1.76D-03  0.00D+00 EMaxC= 1.00D-01 BMatC= 2.91D-04 BMatP= 7.19D-03
 IDIUse=3 WtCom= 9.82D-01 WtEn= 1.76D-02
 Coeff-Com:  0.358D-03-0.344D-01 0.171D-01 0.102D+01
 Coeff-En:   0.000D+00 0.000D+00 0.000D+00 0.100D+01
 Coeff:      0.352D-03-0.338D-01 0.168D-01 0.102D+01
 RMSDP=1.33D-04 MaxDP=7.80D-03 DE=-1.28D-02 OVMax= 0.00D+00

 Cycle   5  Pass 1  IDiag  1:
 RMSU=  8.89D-05    CP:  9.92D-01  1.16D+00  1.03D+00  1.07D+00
 E= -474.409677283554     Delta-E=       -0.001003264980 Rises=F Damp=F
 DIIS: error= 5.65D-04 at cycle   5 NSaved=   5.
 NSaved= 5 IEnMin= 5 EnMin= -474.409677283554     IErMin= 5 ErrMin= 5.65D-04
 ErrMax= 5.65D-04  0.00D+00 EMaxC= 1.00D-01 BMatC= 6.11D-05 BMatP= 2.91D-04
 IDIUse=3 WtCom= 9.94D-01 WtEn= 5.65D-03
 Coeff-Com:  0.624D-02-0.253D-01-0.985D-01 0.206D+00 0.912D+00
 Coeff-En:   0.000D+00 0.000D+00 0.000D+00 0.000D+00 0.100D+01
 Coeff:      0.620D-02-0.252D-01-0.980D-01 0.204D+00 0.913D+00
 RMSDP=5.89D-05 MaxDP=3.32D-03 DE=-1.00D-03 OVMax= 0.00D+00

 Cycle   6  Pass 1  IDiag  1:
 RMSU=  3.46D-05    CP:  9.92D-01  1.16D+00  1.04D+00  1.25D+00  1.05D+00
 E= -474.409872688303     Delta-E=       -0.000195404749 Rises=F Damp=F
 DIIS: error= 2.39D-04 at cycle   6 NSaved=   6.
 NSaved= 6 IEnMin= 6 EnMin= -474.409872688303     IErMin= 6 ErrMin= 2.39D-04
 ErrMax= 2.39D-04  0.00D+00 EMaxC= 1.00D-01 BMatC= 7.54D-06 BMatP= 6.11D-05
 IDIUse=3 WtCom= 9.98D-01 WtEn= 2.39D-03
 Coeff-Com:  0.244D-03 0.414D-02-0.200D-01-0.942D-01 0.978D-01 0.101D+01
 Coeff-En:   0.000D+00 0.000D+00 0.000D+00 0.000D+00 0.000D+00 0.100D+01
 Coeff:      0.243D-03 0.413D-02-0.200D-01-0.940D-01 0.976D-01 0.101D+01
 RMSDP=3.01D-05 MaxDP=2.02D-03 DE=-1.95D-04 OVMax= 0.00D+00

 Cycle   7  Pass 1  IDiag  1:
 RMSU=  1.56D-05    CP:  9.92D-01  1.16D+00  1.05D+00  1.29D+00  1.29D+00
                    CP:  1.26D+00
 E= -474.409910294176     Delta-E=       -0.000037605873 Rises=F Damp=F
 DIIS: error= 9.01D-05 at cycle   7 NSaved=   7.
 NSaved= 7 IEnMin= 7 EnMin= -474.409910294176     IErMin= 7 ErrMin= 9.01D-05
 ErrMax= 9.01D-05  0.00D+00 EMaxC= 1.00D-01 BMatC= 1.32D-06 BMatP= 7.54D-06
 IDIUse=1 WtCom= 1.00D+00 WtEn= 0.00D+00
 Coeff-Com: -0.725D-03 0.367D-02 0.777D-02-0.290D-01-0.106D+00 0.846D-01
 Coeff-Com:  0.104D+01
 Coeff:     -0.725D-03 0.367D-02 0.777D-02-0.290D-01-0.106D+00 0.846D-01
 Coeff:      0.104D+01
 RMSDP=1.83D-05 MaxDP=1.09D-03 DE=-3.76D-05 OVMax= 0.00D+00

 Cycle   8  Pass 1  IDiag  1:
 RMSU=  6.50D-06    CP:  9.92D-01  1.16D+00  1.05D+00  1.31D+00  1.36D+00
                    CP:  1.60D+00  1.57D+00
 E= -474.409922656047     Delta-E=       -0.000012361870 Rises=F Damp=F
 DIIS: error= 4.77D-05 at cycle   8 NSaved=   8.
 NSaved= 8 IEnMin= 8 EnMin= -474.409922656047     IErMin= 8 ErrMin= 4.77D-05
 ErrMax= 4.77D-05  0.00D+00 EMaxC= 1.00D-01 BMatC= 4.55D-07 BMatP= 1.32D-06
 IDIUse=1 WtCom= 1.00D+00 WtEn= 0.00D+00
 Coeff-Com:  0.253D-04-0.120D-02 0.329D-02 0.240D-01-0.166D-01-0.210D+00
 Coeff-Com: -0.621D-01 0.126D+01
 Coeff:      0.253D-04-0.120D-02 0.329D-02 0.240D-01-0.166D-01-0.210D+00
 Coeff:     -0.621D-01 0.126D+01
 RMSDP=1.69D-05 MaxDP=8.40D-04 DE=-1.24D-05 OVMax= 0.00D+00

 Cycle   9  Pass 1  IDiag  1:
 RMSU=  3.76D-06    CP:  9.92D-01  1.16D+00  1.05D+00  1.31D+00  1.43D+00
                    CP:  1.83D+00  2.33D+00  1.71D+00
 E= -474.409929874359     Delta-E=       -0.000007218312 Rises=F Damp=F
 DIIS: error= 3.07D-05 at cycle   9 NSaved=   9.
 NSaved= 9 IEnMin= 9 EnMin= -474.409929874359     IErMin= 9 ErrMin= 3.07D-05
 ErrMax= 3.07D-05  0.00D+00 EMaxC= 1.00D-01 BMatC= 2.21D-07 BMatP= 4.55D-07
 IDIUse=1 WtCom= 1.00D+00 WtEn= 0.00D+00
 Coeff-Com:  0.329D-03-0.152D-02-0.390D-02 0.853D-02 0.532D-01-0.384D-02
 Coeff-Com: -0.560D+00 0.264D-02 0.150D+01
 Coeff:      0.329D-03-0.152D-02-0.390D-02 0.853D-02 0.532D-01-0.384D-02
 Coeff:     -0.560D+00 0.264D-02 0.150D+01
 RMSDP=1.84D-05 MaxDP=8.80D-04 DE=-7.22D-06 OVMax= 0.00D+00

 Cycle  10  Pass 1  IDiag  1:
 RMSU=  2.80D-06    CP:  9.92D-01  1.16D+00  1.06D+00  1.32D+00  1.49D+00
                    CP:  2.07D+00  3.00D+00  2.82D+00  2.12D+00
 E= -474.409934531728     Delta-E=       -0.000004657370 Rises=F Damp=F
 DIIS: error= 1.71D-05 at cycle  10 NSaved=  10.
 NSaved=10 IEnMin=10 EnMin= -474.409934531728     IErMin=10 ErrMin= 1.71D-05
 ErrMax= 1.71D-05  0.00D+00 EMaxC= 1.00D-01 BMatC= 5.49D-08 BMatP= 2.21D-07
 IDIUse=1 WtCom= 1.00D+00 WtEn= 0.00D+00
 Coeff-Com: -0.312D-04 0.479D-03-0.771D-03-0.939D-02 0.764D-02 0.716D-01
 Coeff-Com:  0.107D-01-0.194D+00-0.393D+00 0.151D+01
 Coeff:     -0.312D-04 0.479D-03-0.771D-03-0.939D-02 0.764D-02 0.716D-01
 Coeff:      0.107D-01-0.194D+00-0.393D+00 0.151D+01
 RMSDP=1.05D-05 MaxDP=4.63D-04 DE=-4.66D-06 OVMax= 0.00D+00

 Cycle  11  Pass 1  IDiag  1:
 RMSU=  4.69D-06    CP:  9.92D-01  1.16D+00  1.06D+00  1.33D+00  1.53D+00
                    CP:  2.18D+00  3.00D+00  3.00D+00  3.00D+00  3.00D+00
 E= -474.409935799291     Delta-E=       -0.000001267563 Rises=F Damp=F
 DIIS: error= 1.05D-05 at cycle  11 NSaved=  11.
 NSaved=11 IEnMin=11 EnMin= -474.409935799291     IErMin=11 ErrMin= 1.05D-05
 ErrMax= 1.05D-05  0.00D+00 EMaxC= 1.00D-01 BMatC= 1.71D-08 BMatP= 5.49D-08
 IDIUse=1 WtCom= 1.00D+00 WtEn= 0.00D+00
 Coeff-Com: -0.716D-04 0.331D-03 0.985D-03-0.270D-02-0.105D-01 0.380D-02
 Coeff-Com:  0.968D-01 0.109D+00-0.545D+00 0.847D-01 0.126D+01
 Coeff:     -0.716D-04 0.331D-03 0.985D-03-0.270D-02-0.105D-01 0.380D-02
 Coeff:      0.968D-01 0.109D+00-0.545D+00 0.847D-01 0.126D+01
 RMSDP=5.51D-06 MaxDP=2.67D-04 DE=-1.27D-06 OVMax= 0.00D+00

 Cycle  12  Pass 1  IDiag  1:
 RMSU=  3.85D-06    CP:  9.92D-01  1.16D+00  1.06D+00  1.33D+00  1.54D+00
                    CP:  2.23D+00  3.00D+00  3.00D+00  3.00D+00  3.00D+00
                    CP:  1.69D+00
 E= -474.409936098408     Delta-E=       -0.000000299117 Rises=F Damp=F
 DIIS: error= 4.91D-06 at cycle  12 NSaved=  12.
 NSaved=12 IEnMin=12 EnMin= -474.409936098408     IErMin=12 ErrMin= 4.91D-06
 ErrMax= 4.91D-06  0.00D+00 EMaxC= 1.00D-01 BMatC= 4.08D-09 BMatP= 1.71D-08
 IDIUse=1 WtCom= 1.00D+00 WtEn= 0.00D+00
 Coeff-Com:  0.233D-04-0.185D-03 0.383D-04 0.259D-02 0.144D-03-0.118D-01
 Coeff-Com: -0.474D-01 0.101D+00 0.111D+00-0.307D+00-0.300D+00 0.145D+01
 Coeff:      0.233D-04-0.185D-03 0.383D-04 0.259D-02 0.144D-03-0.118D-01
 Coeff:     -0.474D-01 0.101D+00 0.111D+00-0.307D+00-0.300D+00 0.145D+01
 RMSDP=2.18D-06 MaxDP=1.16D-04 DE=-2.99D-07 OVMax= 0.00D+00

 Cycle  13  Pass 1  IDiag  1:
 RMSU=  8.79D-07    CP:  9.92D-01  1.16D+00  1.06D+00  1.33D+00  1.55D+00
                    CP:  2.23D+00  3.00D+00  3.00D+00  3.00D+00  3.00D+00
                    CP:  1.88D+00  1.44D+00
 E= -474.409936165553     Delta-E=       -0.000000067144 Rises=F Damp=F
 DIIS: error= 3.06D-06 at cycle  13 NSaved=  13.
 NSaved=13 IEnMin=13 EnMin= -474.409936165553     IErMin=13 ErrMin= 3.06D-06
 ErrMax= 3.06D-06  0.00D+00 EMaxC= 1.00D-01 BMatC= 1.70D-09 BMatP= 4.08D-09
 IDIUse=1 WtCom= 1.00D+00 WtEn= 0.00D+00
 Coeff-Com:  0.130D-04-0.602D-04-0.201D-03 0.713D-03 0.106D-02 0.368D-02
 Coeff-Com: -0.345D-01 0.146D-01 0.668D-01 0.215D-01-0.295D+00 0.125D+00
 Coeff-Com:  0.110D+01
 Coeff:      0.130D-04-0.602D-04-0.201D-03 0.713D-03 0.106D-02 0.368D-02
 Coeff:     -0.345D-01 0.146D-01 0.668D-01 0.215D-01-0.295D+00 0.125D+00
 Coeff:      0.110D+01
 RMSDP=9.34D-07 MaxDP=4.14D-05 DE=-6.71D-08 OVMax= 0.00D+00

 Cycle  14  Pass 1  IDiag  1:
 RMSU=  2.31D-07    CP:  9.92D-01  1.16D+00  1.06D+00  1.33D+00  1.55D+00
                    CP:  2.23D+00  3.00D+00  3.00D+00  3.00D+00  3.00D+00
                    CP:  1.92D+00  1.58D+00  1.74D+00
 E= -474.409936188207     Delta-E=       -0.000000022655 Rises=F Damp=F
 DIIS: error= 2.60D-06 at cycle  14 NSaved=  14.
 NSaved=14 IEnMin=14 EnMin= -474.409936188207     IErMin=14 ErrMin= 2.60D-06
 ErrMax= 2.60D-06  0.00D+00 EMaxC= 1.00D-01 BMatC= 1.07D-09 BMatP= 1.70D-09
 IDIUse=1 WtCom= 1.00D+00 WtEn= 0.00D+00
 Coeff-Com: -0.180D-04 0.126D-03 0.177D-04-0.135D-02-0.230D-02 0.119D-01
 Coeff-Com:  0.188D-01-0.271D-01-0.116D+00 0.194D+00 0.153D+00-0.668D+00
 Coeff-Com: -0.618D+00 0.205D+01
 Coeff:     -0.180D-04 0.126D-03 0.177D-04-0.135D-02-0.230D-02 0.119D-01
 Coeff:      0.188D-01-0.271D-01-0.116D+00 0.194D+00 0.153D+00-0.668D+00
 Coeff:     -0.618D+00 0.205D+01
 RMSDP=1.62D-06 MaxDP=7.09D-05 DE=-2.27D-08 OVMax= 0.00D+00

 Cycle  15  Pass 1  IDiag  1:
 RMSU=  1.89D-07    CP:  9.92D-01  1.16D+00  1.06D+00  1.33D+00  1.56D+00
                    CP:  2.22D+00  3.00D+00  3.00D+00  3.00D+00  3.00D+00
                    CP:  2.00D+00  1.80D+00  3.00D+00  3.00D+00
 E= -474.409936215586     Delta-E=       -0.000000027379 Rises=F Damp=F
 DIIS: error= 1.88D-06 at cycle  15 NSaved=  15.
 NSaved=15 IEnMin=15 EnMin= -474.409936215586     IErMin=15 ErrMin= 1.88D-06
 ErrMax= 1.88D-06  0.00D+00 EMaxC= 1.00D-01 BMatC= 4.23D-10 BMatP= 1.07D-09
 IDIUse=1 WtCom= 1.00D+00 WtEn= 0.00D+00
 Coeff-Com: -0.495D-05 0.161D-04 0.130D-03-0.324D-04-0.169D-02 0.382D-03
 Coeff-Com:  0.889D-02 0.117D-01-0.348D-01-0.276D-01 0.106D+00 0.160D+00
 Coeff-Com: -0.788D+00-0.226D+00 0.179D+01
 Coeff:     -0.495D-05 0.161D-04 0.130D-03-0.324D-04-0.169D-02 0.382D-03
 Coeff:      0.889D-02 0.117D-01-0.348D-01-0.276D-01 0.106D+00 0.160D+00
 Coeff:     -0.788D+00-0.226D+00 0.179D+01
 RMSDP=1.50D-06 MaxDP=6.33D-05 DE=-2.74D-08 OVMax= 0.00D+00

 Cycle  16  Pass 1  IDiag  1:
 RMSU=  1.22D-06    CP:  9.92D-01  1.16D+00  1.06D+00  1.33D+00  1.56D+00
                    CP:  2.22D+00  3.00D+00  3.00D+00  3.00D+00  3.00D+00
                    CP:  2.05D+00  1.97D+00  3.00D+00  3.00D+00  2.49D+00
 E= -474.409936228802     Delta-E=       -0.000000013216 Rises=F Damp=F
 DIIS: error= 6.50D-07 at cycle  16 NSaved=  16.
 NSaved=16 IEnMin=16 EnMin= -474.409936228802     IErMin=16 ErrMin= 6.50D-07
 ErrMax= 6.50D-07  0.00D+00 EMaxC= 1.00D-01 BMatC= 6.63D-11 BMatP= 4.23D-10
 IDIUse=1 WtCom= 1.00D+00 WtEn= 0.00D+00
 Coeff-Com:  0.689D-05-0.461D-04-0.628D-05 0.521D-03 0.420D-03-0.271D-02
 Coeff-Com: -0.976D-02 0.117D-01 0.404D-01-0.640D-01-0.706D-01 0.253D+00
 Coeff-Com:  0.164D+00-0.639D+00-0.443D-01 0.136D+01
 Coeff:      0.689D-05-0.461D-04-0.628D-05 0.521D-03 0.420D-03-0.271D-02
 Coeff:     -0.976D-02 0.117D-01 0.404D-01-0.640D-01-0.706D-01 0.253D+00
 Coeff:      0.164D+00-0.639D+00-0.443D-01 0.136D+01
 RMSDP=6.71D-07 MaxDP=2.87D-05 DE=-1.32D-08 OVMax= 0.00D+00

 Cycle  17  Pass 1  IDiag  1:
 RMSU=  7.20D-08    CP:  9.92D-01  1.16D+00  1.06D+00  1.33D+00  1.56D+00
                    CP:  2.21D+00  3.00D+00  3.00D+00  3.00D+00  3.00D+00
                    CP:  2.07D+00  2.05D+00  3.00D+00  3.00D+00  3.00D+00
                    CP:  1.44D+00
 E= -474.409936230542     Delta-E=       -0.000000001741 Rises=F Damp=F
 DIIS: error= 2.17D-07 at cycle  17 NSaved=  17.
 NSaved=17 IEnMin=17 EnMin= -474.409936230542     IErMin=17 ErrMin= 2.17D-07
 ErrMax= 2.17D-07  0.00D+00 EMaxC= 1.00D-01 BMatC= 4.11D-12 BMatP= 6.63D-11
 IDIUse=1 WtCom= 1.00D+00 WtEn= 0.00D+00
 Coeff-Com:  0.112D-05-0.553D-05-0.190D-04 0.489D-04 0.198D-03-0.753D-04
 Coeff-Com: -0.223D-02 0.325D-04 0.656D-02-0.149D-02-0.165D-01-0.242D-02
 Coeff-Com:  0.905D-01 0.174D-02-0.191D+00 0.410D-01 0.107D+01
 Coeff:      0.112D-05-0.553D-05-0.190D-04 0.489D-04 0.198D-03-0.753D-04
 Coeff:     -0.223D-02 0.325D-04 0.656D-02-0.149D-02-0.165D-01-0.242D-02
 Coeff:      0.905D-01 0.174D-02-0.191D+00 0.410D-01 0.107D+01
 RMSDP=7.87D-08 MaxDP=3.81D-06 DE=-1.74D-09 OVMax= 0.00D+00

 Cycle  18  Pass 1  IDiag  1:
 RMSU=  1.37D-08    CP:  9.92D-01  1.16D+00  1.06D+00  1.33D+00  1.56D+00
                    CP:  2.21D+00  3.00D+00  3.00D+00  3.00D+00  3.00D+00
                    CP:  2.07D+00  2.06D+00  3.00D+00  3.00D+00  3.00D+00
                    CP:  1.49D+00  1.41D+00
 E= -474.409936230579     Delta-E=       -0.000000000036 Rises=F Damp=F
 DIIS: error= 1.37D-07 at cycle  18 NSaved=  18.
 NSaved=18 IEnMin=18 EnMin= -474.409936230579     IErMin=18 ErrMin= 1.37D-07
 ErrMax= 1.37D-07  0.00D+00 EMaxC= 1.00D-01 BMatC= 8.62D-13 BMatP= 4.11D-12
 IDIUse=1 WtCom= 1.00D+00 WtEn= 0.00D+00
 Coeff-Com: -0.131D-05 0.862D-05 0.912D-06-0.938D-04-0.758D-04 0.507D-03
 Coeff-Com:  0.164D-02-0.173D-02-0.726D-02 0.108D-01 0.137D-01-0.438D-01
 Coeff-Com: -0.301D-01 0.107D+00 0.199D-01-0.256D+00-0.310D-01 0.122D+01
 Coeff:     -0.131D-05 0.862D-05 0.912D-06-0.938D-04-0.758D-04 0.507D-03
 Coeff:      0.164D-02-0.173D-02-0.726D-02 0.108D-01 0.137D-01-0.438D-01
 Coeff:     -0.301D-01 0.107D+00 0.199D-01-0.256D+00-0.310D-01 0.122D+01
 RMSDP=2.52D-08 MaxDP=1.23D-06 DE=-3.64D-11 OVMax= 0.00D+00

 Cycle  19  Pass 1  IDiag  1:
 RMSU=  6.97D-09    CP:  9.92D-01  1.16D+00  1.06D+00  1.33D+00  1.56D+00
                    CP:  2.21D+00  3.00D+00  3.00D+00  3.00D+00  3.00D+00
                    CP:  2.07D+00  2.06D+00  3.00D+00  3.00D+00  3.00D+00
                    CP:  1.50D+00  1.59D+00  1.50D+00
 E= -474.409936230620     Delta-E=       -0.000000000041 Rises=F Damp=F
 DIIS: error= 6.87D-08 at cycle  19 NSaved=  19.
 NSaved=19 IEnMin=19 EnMin= -474.409936230620     IErMin=19 ErrMin= 6.87D-08
 ErrMax= 6.87D-08  0.00D+00 EMaxC= 1.00D-01 BMatC= 1.19D-13 BMatP= 8.62D-13
 IDIUse=1 WtCom= 1.00D+00 WtEn= 0.00D+00
 Coeff-Com: -0.188D-06 0.103D-05 0.307D-05-0.103D-04-0.296D-04 0.254D-04
 Coeff-Com:  0.309D-03 0.832D-06-0.109D-02 0.340D-03 0.280D-02-0.375D-03
 Coeff-Com: -0.122D-01-0.416D-02 0.340D-01-0.567D-02-0.167D+00 0.374D-01
 Coeff-Com:  0.112D+01
 Coeff:     -0.188D-06 0.103D-05 0.307D-05-0.103D-04-0.296D-04 0.254D-04
 Coeff:      0.309D-03 0.832D-06-0.109D-02 0.340D-03 0.280D-02-0.375D-03
 Coeff:     -0.122D-01-0.416D-02 0.340D-01-0.567D-02-0.167D+00 0.374D-01
 Coeff:      0.112D+01
 RMSDP=5.75D-09 MaxDP=5.53D-07 DE=-4.09D-11 OVMax= 0.00D+00

 SCF Done:  E(RZINDO/S) =  -474.409936231     A.U. after   19 cycles
            NFock= 19  Conv=0.57D-08     -V/T= 0.9501
 KE=-9.506760829254D+03 PE=-1.235841409652D-06 EE= 4.616171043503D+03
 Leave Link  502 at Wed May  4 08:02:39 2022, MaxMem=  6710886400 cpu:              20.0 elap:               0.9
 (Enter /sw/apps/gaussian-16.0/g16/l801.exe)
 Range of M.O.s used for correlation:     1   338
 NBasis=   338 NAE=   176 NBE=   176 NFC=     0 NFV=     0
 NROrb=    338 NOA=   176 NOB=   176 NVA=   162 NVB=   162
 Leave Link  801 at Wed May  4 08:02:39 2022, MaxMem=  6710886400 cpu:               0.7 elap:               0.0
 (Enter /sw/apps/gaussian-16.0/g16/l914.exe)
 RHF ground state
 Two-electron integral symmetry not used.
 MDV=  6710886400 DFT=F DoStab=F Mixed=F DoRPA=F DoScal=F NonHer=F
 Making orbital integer symmetry assigments:
 Orbital symmetries:
       Occupied  (A) (A) (A) (A) (A) (A) (A) (A) (A) (A) (A) (A)
                 (A) (A) (A) (A) (A) (A) (A) (A) (A) (A) (A) (A)
                 (A) (A) (A) (A) (A) (A) (A) (A) (A) (A) (A) (A)
                 (A) (A) (A) (A) (A) (A) (A) (A) (A) (A) (A) (A)
                 (A) (A) (A) (A) (A) (A) (A) (A) (A) (A) (A) (A)
                 (A) (A) (A) (A) (A) (A) (A) (A) (A) (A) (A) (A)
                 (A) (A) (A) (A) (A) (A) (A) (A) (A) (A) (A) (A)
                 (A) (A) (A) (A) (A) (A) (A) (A) (A) (A) (A) (A)
                 (A) (A) (A) (A) (A) (A) (A) (A) (A) (A) (A) (A)
                 (A) (A) (A) (A) (A) (A) (A) (A) (A) (A) (A) (A)
                 (A) (A) (A) (A) (A) (A) (A) (A) (A) (A) (A) (A)
                 (A) (A) (A) (A) (A) (A) (A) (A) (A) (A) (A) (A)
                 (A) (A) (A) (A) (A) (A) (A) (A) (A) (A) (A) (A)
                 (A) (A) (A) (A) (A) (A) (A) (A) (A) (A) (A) (A)
                 (A) (A) (A) (A) (A) (A) (A) (A)
       Virtual   (A) (A) (A) (A) (A) (A) (A) (A) (A) (A) (A) (A)
                 (A) (A) (A) (A) (A) (A) (A) (A) (A) (A) (A) (A)
                 (A) (A) (A) (A) (A) (A) (A) (A) (A) (A) (A) (A)
                 (A) (A) (A) (A) (A) (A) (A) (A) (A) (A) (A) (A)
                 (A) (A) (A) (A) (A) (A) (A) (A) (A) (A) (A) (A)
                 (A) (A) (A) (A) (A) (A) (A) (A) (A) (A) (A) (A)
                 (A) (A) (A) (A) (A) (A) (A) (A) (A) (A) (A) (A)
                 (A) (A) (A) (A) (A) (A) (A) (A) (A) (A) (A) (A)
                 (A) (A) (A) (A) (A) (A) (A) (A) (A) (A) (A) (A)
                 (A) (A) (A) (A) (A) (A) (A) (A) (A) (A) (A) (A)
                 (A) (A) (A) (A) (A) (A) (A) (A) (A) (A) (A) (A)
                 (A) (A) (A) (A) (A) (A) (A) (A) (A) (A) (A) (A)
                 (A) (A) (A) (A) (A) (A) (A) (A) (A) (A) (A) (A)
                 (A) (A) (A) (A) (A) (A)
    20 initial guesses have been made.
 Convergence on wavefunction:    0.001000000000000
 Davidson Disk Diagonalization:  ConvIn= 1.00D-03 SkipCon=T Conv= 1.00D-03.
 Max sub-space:  2000 roots to seek:    20 dimension of matrix:        57024
 Iteration     1 Dimension    20 NMult     0 NNew     20
 CISAX will form    20 AO SS matrices at one time.
 NMat=    20 NSing=    20 JSym2X= 0.
 New state      3 was old state      4
 New state      4 was old state      7
 New state      5 was old state     10
 Excitation Energies [eV] at current iteration:
 Root      1 :     1.608912556436352
 Root      2 :     2.147507762983439
 Root      3 :     3.207357754450602
 Root      4 :     3.400045833176463
 Root      5 :     3.492384110068345
 Root      6 :     3.513230849455368
 Root      7 :     3.722525475882139
 Root      8 :     3.789093744040482
 Root      9 :     3.879590360105075
 Root     10 :     3.971696087035224
 Root     11 :     4.216058200074155
 Root     12 :     4.315046156132078
 Root     13 :     4.361742370548945
 Root     14 :     4.436894397319881
 Root     15 :     4.460393089253197
 Root     16 :     4.573554632224393
 Root     17 :     4.608339183505135
 Root     18 :     4.613554172642796
 Root     19 :     4.703246288267684
 Root     20 :     5.813603772233821
 Iteration     2 Dimension    40 NMult    20 NNew     20
 CISAX will form    20 AO SS matrices at one time.
 NMat=    20 NSing=    20 JSym2X= 0.
 Root      1 not converged, maximum delta is    0.037281635176654
 Root      2 not converged, maximum delta is    0.027612519280379
 Root      3 not converged, maximum delta is    0.161728320863016
 New state      4 was old state      6
 Root      4 not converged, maximum delta is    0.361353808998951
 New state      5 was old state      4
 Root      5 not converged, maximum delta is    0.410402881025672
 Excitation Energies [eV] at current iteration:
 Root      1 :     1.246027536192434   Change is   -0.362885020243918
 Root      2 :     1.945478020695067   Change is   -0.202029742288372
 Root      3 :     2.945514262633003   Change is   -0.261843491817599
 Root      4 :     3.175561204774575   Change is   -0.337669644680793
 Root      5 :     3.226105200308512   Change is   -0.173940632867951
 Root      6 :     3.435499517282694   Change is   -0.056884592785651
 Root      7 :     3.463355034410672   Change is   -0.259170441471467
 Root      8 :     3.565466385336217   Change is   -0.223627358704265
 Root      9 :     3.576151401384909   Change is   -0.395544685650315
 Root     10 :     3.622908590231837   Change is   -0.256681769873237
 Root     11 :     3.683235131544331   Change is   -0.930319041098465
 Root     12 :     3.739568537156942   Change is   -0.697325860162939
 Root     13 :     3.868399018019434   Change is   -0.347659182054721
 Root     14 :     4.039639996306816   Change is   -0.275406159825261
 Root     15 :     4.138562829955021   Change is   -0.321830259298176
 Root     16 :     4.236247998785772   Change is   -0.125494371763172
 Root     17 :     4.454605410154255   Change is   -0.248640878113429
 Root     18 :     4.513609779141819   Change is   -0.059944853082574
 Root     19 :     4.600772862279530   Change is   -0.007566321225607
 Root     20 :     5.665854366556162
 Iteration     3 Dimension    45 NMult    40 NNew      5
 CISAX will form     5 AO SS matrices at one time.
 NMat=     5 NSing=     5 JSym2X= 0.
 Root      1 not converged, maximum delta is    0.011900360797691
 Root      2 not converged, maximum delta is    0.018674012406796
 Root      3 not converged, maximum delta is    0.018144000775093
 Root      4 not converged, maximum delta is    0.024804659790111
 Root      5 not converged, maximum delta is    0.016844252576360
 Excitation Energies [eV] at current iteration:
 Root      1 :     1.228935040198371   Change is   -0.017092495994063
 Root      2 :     1.920385077282544   Change is   -0.025092943412523
 Root      3 :     2.919835676110412   Change is   -0.025678586522591
 Root      4 :     3.146405793691629   Change is   -0.029155411082946
 Root      5 :     3.198450482361797   Change is   -0.027654717946715
 Iteration     4 Dimension    50 NMult    45 NNew      5
 CISAX will form     5 AO SS matrices at one time.
 NMat=     5 NSing=     5 JSym2X= 0.
 Root      1 not converged, maximum delta is    0.002450012600581
 Root      2 not converged, maximum delta is    0.002129778375896
 Root      3 not converged, maximum delta is    0.007602715857978
 Root      4 not converged, maximum delta is    0.012989945945867
 Root      5 not converged, maximum delta is    0.049542560887893
 Excitation Energies [eV] at current iteration:
 Root      1 :     1.228077161962047   Change is   -0.000857878236325
 Root      2 :     1.919691594294241   Change is   -0.000693482988304
 Root      3 :     2.917062185852977   Change is   -0.002773490257434
 Root      4 :     3.143089011824312   Change is   -0.003316781867317
 Root      5 :     3.187815335911535   Change is   -0.010635146450262
 Iteration     5 Dimension    55 NMult    50 NNew      5
 CISAX will form     5 AO SS matrices at one time.
 NMat=     5 NSing=     5 JSym2X= 0.
 Root      1 has converged.
 Root      2 has converged.
 Root      3 not converged, maximum delta is    0.027029053563917
 New state      4 was old state      5
 Root      4 not converged, maximum delta is    0.331945116800521
 New state      5 was old state      4
 Root      5 not converged, maximum delta is    0.030664402900791
 Excitation Energies [eV] at current iteration:
 Root      1 :     1.228024426993811   Change is   -0.000052734968236
 Root      2 :     1.919639798113090   Change is   -0.000051796181151
 Root      3 :     2.915332494232500   Change is   -0.001729691620478
 Root      4 :     3.021150207214254   Change is   -0.166665128697280
 Root      5 :     3.143139921152715   Change is    0.000050909328402
 Iteration     6 Dimension    58 NMult    55 NNew      3
 CISAX will form     3 AO SS matrices at one time.
 NMat=     3 NSing=     3 JSym2X= 0.
 Root      1 has converged.
 Root      2 has converged.
 Root      3 not converged, maximum delta is    0.039375829886664
 Root      4 not converged, maximum delta is    0.072103169392859
 Root      5 not converged, maximum delta is    0.007879069506656
 Excitation Energies [eV] at current iteration:
 Root      1 :     1.228024385001207   Change is   -0.000000041992604
 Root      2 :     1.919638597431085   Change is   -0.000001200682005
 Root      3 :     2.913399726821654   Change is   -0.001932767410845
 Root      4 :     2.967844691099175   Change is   -0.053305516115079
 Root      5 :     3.142855940543817   Change is   -0.000283980608897
 Iteration     7 Dimension    61 NMult    58 NNew      3
 CISAX will form     3 AO SS matrices at one time.
 NMat=     3 NSing=     3 JSym2X= 0.
 Root      1 has converged.
 Root      2 has converged.
 Root      3 not converged, maximum delta is    0.034266042121307
 Root      4 not converged, maximum delta is    0.050176644498607
 Root      5 not converged, maximum delta is    0.002478212046048
 Excitation Energies [eV] at current iteration:
 Root      1 :     1.228024259818983   Change is   -0.000000125182224
 Root      2 :     1.919637580929852   Change is   -0.000001016501233
 Root      3 :     2.912023999299587   Change is   -0.001375727522068
 Root      4 :     2.952962033793415   Change is   -0.014882657305760
 Root      5 :     3.142770702786909   Change is   -0.000085237756909
 Iteration     8 Dimension    64 NMult    61 NNew      3
 CISAX will form     3 AO SS matrices at one time.
 NMat=     3 NSing=     3 JSym2X= 0.
 Root      1 has converged.
 Root      2 has converged.
 Root      3 not converged, maximum delta is    0.061704123690667
 Root      4 not converged, maximum delta is    0.085786736011681
 No map to state      5
 Excitation Energies [eV] at current iteration:
 Root      1 :     1.228024151644063   Change is   -0.000000108174920
 Root      2 :     1.919635205524059   Change is   -0.000002375405793
 Root      3 :     2.909874653803992   Change is   -0.002149345495595
 Root      4 :     2.939169547359552   Change is   -0.013792486433864
 Root      5 :     3.095262842854456
 Iteration     9 Dimension    67 NMult    64 NNew      3
 CISAX will form     3 AO SS matrices at one time.
 NMat=     3 NSing=     3 JSym2X= 0.
 Root      1 has converged.
 Root      2 has converged.
 Root      3 not converged, maximum delta is    0.097674247188068
 Root      4 not converged, maximum delta is    0.114670817283403
 Root      5 not converged, maximum delta is    0.090101642610343
 Excitation Energies [eV] at current iteration:
 Root      1 :     1.228023981360681   Change is   -0.000000170283383
 Root      2 :     1.919634219929369   Change is   -0.000000985594689
 Root      3 :     2.905359204837779   Change is   -0.004515448966213
 Root      4 :     2.927167226723475   Change is   -0.012002320636076
 Root      5 :     3.027067745910806   Change is   -0.068195096943649
 Iteration    10 Dimension    70 NMult    67 NNew      3
 CISAX will form     3 AO SS matrices at one time.
 NMat=     3 NSing=     3 JSym2X= 0.
 Root      1 has converged.
 Root      2 has converged.
 Root      3 not converged, maximum delta is    0.073719131205396
 Root      4 not converged, maximum delta is    0.053352651144090
 Root      5 not converged, maximum delta is    0.036649609202501
 Excitation Energies [eV] at current iteration:
 Root      1 :     1.228023915921318   Change is   -0.000000065439362
 Root      2 :     1.919634104374029   Change is   -0.000000115555341
 Root      3 :     2.901508032848364   Change is   -0.003851171989415
 Root      4 :     2.923121941519804   Change is   -0.004045285203671
 Root      5 :     3.012346006804990   Change is   -0.014721739105816
 Iteration    11 Dimension    73 NMult    70 NNew      3
 CISAX will form     3 AO SS matrices at one time.
 NMat=     3 NSing=     3 JSym2X= 0.
 Root      1 has converged.
 Root      2 has converged.
 Root      3 not converged, maximum delta is    0.016623562876689
 Root      4 not converged, maximum delta is    0.012277025030871
 Root      5 not converged, maximum delta is    0.010073633125199
 Excitation Energies [eV] at current iteration:
 Root      1 :     1.228023767475872   Change is   -0.000000148445447
 Root      2 :     1.919633804299132   Change is   -0.000000300074897
 Root      3 :     2.900501856627939   Change is   -0.001006176220425
 Root      4 :     2.922414883020203   Change is   -0.000707058499601
 Root      5 :     3.009685063435939   Change is   -0.002660943369051
 Iteration    12 Dimension    76 NMult    73 NNew      3
 CISAX will form     3 AO SS matrices at one time.
 NMat=     3 NSing=     3 JSym2X= 0.
 Root      1 has converged.
 Root      2 has converged.
 Root      3 not converged, maximum delta is    0.001790346059808
 Root      4 not converged, maximum delta is    0.001366712910728
 Root      5 not converged, maximum delta is    0.001642351078636
 Excitation Energies [eV] at current iteration:
 Root      1 :     1.228023765467609   Change is   -0.000000002008263
 Root      2 :     1.919633680001121   Change is   -0.000000124298011
 Root      3 :     2.900389772057413   Change is   -0.000112084570526
 Root      4 :     2.922341375071229   Change is   -0.000073507948973
 Root      5 :     3.009393428387531   Change is   -0.000291635048409
 Iteration    13 Dimension    79 NMult    76 NNew      3
 CISAX will form     3 AO SS matrices at one time.
 NMat=     3 NSing=     3 JSym2X= 0.
 Root      1 has converged.
 Root      2 has converged.
 Root      3 has converged.
 Root      4 has converged.
 Root      5 has converged.
 Excitation Energies [eV] at current iteration:
 Root      1 :     1.228023758520615   Change is   -0.000000006946994
 Root      2 :     1.919633604370352   Change is   -0.000000075630769
 Root      3 :     2.900376085749686   Change is   -0.000013686307727
 Root      4 :     2.922332348515260   Change is   -0.000009026555970
 Root      5 :     3.009355687749654   Change is   -0.000037740637876
 Convergence achieved on expansion vectors.
 ***********************************************************************
 Excited states from <AA,BB:AA,BB> singles matrix:
 ***********************************************************************
 
 1PDM for each excited state written to RWF  633
 Ground to excited state transition densities written to RWF  633
 Ground to excited state transition electric dipole moments (Au):
       state          X           Y           Z        Dip. S.      Osc.
         1         2.9079      3.3859     -0.5909     20.2698      0.6098
         2         0.8390     -0.9814      0.1694      1.6957      0.0797
         3         0.9393     -0.7283     -0.0974      1.4222      0.1011
         4        -1.7325      1.5689      0.1407      5.4825      0.3925
         5         0.1509      0.0521     -0.0210      0.0259      0.0019
 Ground to excited state transition velocity dipole moments (Au):
       state          X           Y           Z        Dip. S.      Osc.
         1         0.0595      0.0299     -0.0132      0.0046      0.0681
         2        -0.0087      0.0214     -0.0030      0.0005      0.0051
         3        -0.0358      0.0137      0.0026      0.0015      0.0092
         4         0.0657     -0.0313     -0.0154      0.0055      0.0343
         5        -0.0120     -0.0014      0.0072      0.0002      0.0012
 Ground to excited state transition magnetic dipole moments (Au):
       state          X           Y           Z
         1         0.0236     -0.0210      0.1301
         2        -0.0422      0.0045      0.0523
         3         0.4725     -0.3404     -0.2094
         4         0.3121     -0.2624      0.3326
         5         0.2456      0.7555     -0.0506
 Ground to excited state transition velocity quadrupole moments (Au):
       state          XX          YY          ZZ          XY          XZ          YZ
         1        -1.1729      0.0775     -0.0017     -0.3203      0.1047      0.0067
         2         0.0335      0.0242     -0.0088     -0.1101      0.0374     -0.0559
         3         0.7680     -0.3219      0.0264     -0.3244     -0.0877     -0.0008
         4        -1.2916      0.5238     -0.0067      0.6316      0.1372     -0.1773
         5         0.2292     -0.1208      0.0216     -0.0551     -0.0372     -0.0543
 <0|del|b> * <b|rxdel|0> + <0|del|b> * <b|delr+rdel|0>
 Rotatory Strengths (R) in cgs (10**-40 erg-esu-cm/Gauss)
       state          XX          YY          ZZ    R(velocity)    E-M Angle
         1        -9.7666    -32.3827     27.4119     -4.9125       95.94
         2        -2.6407      1.8166      3.8813      1.0191       78.77
         3       -16.1483    -55.0394    -75.6981    -48.9619      158.54
         4        -7.5321     44.2594    118.7411     51.8228       52.89
         5        -5.8870     -7.2291    -14.6243     -9.2468      112.82
 1/2[<0|r|b>*<b|rxdel|0> + (<0|rxdel|b>*<b|r|0>)*]
 Rotatory Strengths (R) in cgs (10**-40 erg-esu-cm/Gauss)
       state          XX          YY          ZZ     R(length)
         1       -48.4529     50.3755     54.3472     18.7566
         2        25.0091      3.1099     -6.2619      7.2857
         3      -313.8363   -175.3150    -14.4158   -167.8557
         4       382.3243    291.1188    -33.0913    213.4506
         5       -26.1998    -27.8305     -0.7499    -18.2601
  1/2[<0|del|b>*<b|r|0> + (<0|r|b>*<b|del|0>)*] (Au)
       state          X           Y           Z        Dip. S.   Osc.(frdel)
         1         0.1731      0.1011      0.0078     -0.2820     -0.1880
         2        -0.0073     -0.0210     -0.0005      0.0288      0.0192
         3        -0.0336     -0.0100     -0.0003      0.0439      0.0293
         4        -0.1138     -0.0491     -0.0022      0.1651      0.1101
         5        -0.0018     -0.0001     -0.0002      0.0020      0.0014

 Excitation energies and oscillator strengths:
 
 Excited State   1:      Singlet-A      1.2280 eV 1009.62 nm  f=0.6098  <S**2>=0.000
     175 ->178        -0.17204
     176 ->177         0.66401
 This state for optimization and/or second-order correction.
 Total Energy, E(CIS/TDA) =  -474.364807188    
 Copying the excited state density for this state as the 1-particle RhoCI density.
 
 Excited State   2:      Singlet-A      1.9196 eV  645.87 nm  f=0.0797  <S**2>=0.000
     175 ->177         0.56494
     176 ->178         0.38522
     176 ->179        -0.10788
 
 Excited State   3:      Singlet-A      2.9004 eV  427.48 nm  f=0.1011  <S**2>=0.000
     168 ->177         0.27436
     168 ->178        -0.25723
     168 ->179        -0.33033
     168 ->180         0.19475
     168 ->186        -0.18226
     168 ->187        -0.10706
     171 ->177        -0.11246
     175 ->177         0.13645
     176 ->178        -0.25480
     176 ->179        -0.16415
 
 Excited State   4:      Singlet-A      2.9223 eV  424.26 nm  f=0.3925  <S**2>=0.000
     168 ->177         0.16492
     168 ->178        -0.14733
     168 ->179        -0.19811
     168 ->180         0.11365
     168 ->186        -0.10804
     175 ->177        -0.24871
     176 ->178         0.45549
     176 ->179         0.27010
 
 Excited State   5:      Singlet-A      3.0094 eV  412.00 nm  f=0.0019  <S**2>=0.000
     169 ->177        -0.12184
     169 ->179        -0.11869
     169 ->180        -0.15634
     170 ->177         0.29306
     170 ->179         0.25721
     170 ->180         0.37033
     170 ->186         0.17161
     170 ->187        -0.12788
     173 ->177         0.11609
 SavETr:  write IOETrn=   770 NScale= 10 NData=  16 NLR=1 NState=    5 LETran=     100.
 Leave Link  914 at Wed May  4 08:02:44 2022, MaxMem=  6710886400 cpu:             119.8 elap:               5.0
 (Enter /sw/apps/gaussian-16.0/g16/l601.exe)
 Copying SCF densities to generalized density rwf, IOpCl= 0 IROHF=0.

 **********************************************************************

            Population analysis using the SCF density.

 **********************************************************************

 Orbital symmetries:
       Occupied  (A) (A) (A) (A) (A) (A) (A) (A) (A) (A) (A) (A)
                 (A) (A) (A) (A) (A) (A) (A) (A) (A) (A) (A) (A)
                 (A) (A) (A) (A) (A) (A) (A) (A) (A) (A) (A) (A)
                 (A) (A) (A) (A) (A) (A) (A) (A) (A) (A) (A) (A)
                 (A) (A) (A) (A) (A) (A) (A) (A) (A) (A) (A) (A)
                 (A) (A) (A) (A) (A) (A) (A) (A) (A) (A) (A) (A)
                 (A) (A) (A) (A) (A) (A) (A) (A) (A) (A) (A) (A)
                 (A) (A) (A) (A) (A) (A) (A) (A) (A) (A) (A) (A)
                 (A) (A) (A) (A) (A) (A) (A) (A) (A) (A) (A) (A)
                 (A) (A) (A) (A) (A) (A) (A) (A) (A) (A) (A) (A)
                 (A) (A) (A) (A) (A) (A) (A) (A) (A) (A) (A) (A)
                 (A) (A) (A) (A) (A) (A) (A) (A) (A) (A) (A) (A)
                 (A) (A) (A) (A) (A) (A) (A) (A) (A) (A) (A) (A)
                 (A) (A) (A) (A) (A) (A) (A) (A) (A) (A) (A) (A)
                 (A) (A) (A) (A) (A) (A) (A) (A)
       Virtual   (A) (A) (A) (A) (A) (A) (A) (A) (A) (A) (A) (A)
                 (A) (A) (A) (A) (A) (A) (A) (A) (A) (A) (A) (A)
                 (A) (A) (A) (A) (A) (A) (A) (A) (A) (A) (A) (A)
                 (A) (A) (A) (A) (A) (A) (A) (A) (A) (A) (A) (A)
                 (A) (A) (A) (A) (A) (A) (A) (A) (A) (A) (A) (A)
                 (A) (A) (A) (A) (A) (A) (A) (A) (A) (A) (A) (A)
                 (A) (A) (A) (A) (A) (A) (A) (A) (A) (A) (A) (A)
                 (A) (A) (A) (A) (A) (A) (A) (A) (A) (A) (A) (A)
                 (A) (A) (A) (A) (A) (A) (A) (A) (A) (A) (A) (A)
                 (A) (A) (A) (A) (A) (A) (A) (A) (A) (A) (A) (A)
                 (A) (A) (A) (A) (A) (A) (A) (A) (A) (A) (A) (A)
                 (A) (A) (A) (A) (A) (A) (A) (A) (A) (A) (A) (A)
                 (A) (A) (A) (A) (A) (A) (A) (A) (A) (A) (A) (A)
                 (A) (A) (A) (A) (A) (A)
 The electronic state is 1-A.
 Alpha  occ. eigenvalues --   -1.87772  -1.81332  -1.79343  -1.73494  -1.73116
 Alpha  occ. eigenvalues --   -1.70369  -1.67226  -1.63172  -1.57969  -1.56405
 Alpha  occ. eigenvalues --   -1.55397  -1.52326  -1.49033  -1.47971  -1.46265
 Alpha  occ. eigenvalues --   -1.44903  -1.41878  -1.40442  -1.40184  -1.38150
 Alpha  occ. eigenvalues --   -1.35627  -1.34801  -1.33748  -1.32923  -1.28220
 Alpha  occ. eigenvalues --   -1.28066  -1.25365  -1.22087  -1.20860  -1.18652
 Alpha  occ. eigenvalues --   -1.17581  -1.15556  -1.15230  -1.14991  -1.14118
 Alpha  occ. eigenvalues --   -1.12151  -1.11084  -1.09798  -1.04309  -1.03949
 Alpha  occ. eigenvalues --   -1.02407  -1.00489  -0.98218  -0.97867  -0.96566
 Alpha  occ. eigenvalues --   -0.95425  -0.95095  -0.94141  -0.93136  -0.92449
 Alpha  occ. eigenvalues --   -0.91175  -0.90353  -0.89820  -0.88464  -0.86331
 Alpha  occ. eigenvalues --   -0.86325  -0.86019  -0.83584  -0.83142  -0.81079
 Alpha  occ. eigenvalues --   -0.80048  -0.78930  -0.77361  -0.76863  -0.76308
 Alpha  occ. eigenvalues --   -0.75747  -0.75305  -0.74220  -0.73552  -0.73302
 Alpha  occ. eigenvalues --   -0.72619  -0.72292  -0.71351  -0.71029  -0.70420
 Alpha  occ. eigenvalues --   -0.69872  -0.69787  -0.68968  -0.68170  -0.67778
 Alpha  occ. eigenvalues --   -0.67378  -0.66673  -0.66409  -0.66256  -0.66088
 Alpha  occ. eigenvalues --   -0.65109  -0.64938  -0.64810  -0.63860  -0.63325
 Alpha  occ. eigenvalues --   -0.62956  -0.62892  -0.62513  -0.62148  -0.61745
 Alpha  occ. eigenvalues --   -0.61586  -0.61510  -0.60760  -0.60438  -0.59506
 Alpha  occ. eigenvalues --   -0.59428  -0.59167  -0.59010  -0.58753  -0.58157
 Alpha  occ. eigenvalues --   -0.58019  -0.57626  -0.57235  -0.56904  -0.56245
 Alpha  occ. eigenvalues --   -0.56103  -0.55623  -0.55428  -0.54947  -0.54299
 Alpha  occ. eigenvalues --   -0.53979  -0.53466  -0.53206  -0.52983  -0.52759
 Alpha  occ. eigenvalues --   -0.52339  -0.52058  -0.51956  -0.51596  -0.51425
 Alpha  occ. eigenvalues --   -0.51169  -0.50479  -0.50254  -0.50242  -0.49919
 Alpha  occ. eigenvalues --   -0.49768  -0.49510  -0.49329  -0.49269  -0.49014
 Alpha  occ. eigenvalues --   -0.48796  -0.48566  -0.48335  -0.48034  -0.47786
 Alpha  occ. eigenvalues --   -0.47512  -0.47358  -0.46967  -0.46846  -0.46526
 Alpha  occ. eigenvalues --   -0.46416  -0.46344  -0.46158  -0.45654  -0.45494
 Alpha  occ. eigenvalues --   -0.44894  -0.44809  -0.44639  -0.44212  -0.44021
 Alpha  occ. eigenvalues --   -0.43796  -0.43476  -0.43231  -0.42840  -0.42492
 Alpha  occ. eigenvalues --   -0.41595  -0.41483  -0.40504  -0.39367  -0.38996
 Alpha  occ. eigenvalues --   -0.37674  -0.37027  -0.36058  -0.34866  -0.34730
 Alpha  occ. eigenvalues --   -0.33654  -0.32765  -0.32491  -0.31169  -0.26804
 Alpha  occ. eigenvalues --   -0.22112
 Alpha virt. eigenvalues --   -0.08927  -0.02199  -0.00699   0.01217   0.01647
 Alpha virt. eigenvalues --    0.02147   0.02547   0.02736   0.04460   0.04746
 Alpha virt. eigenvalues --    0.05939   0.06796   0.07023   0.07780   0.08585
 Alpha virt. eigenvalues --    0.08781   0.08977   0.09161   0.09361   0.09968
 Alpha virt. eigenvalues --    0.09999   0.10206   0.10434   0.10615   0.10878
 Alpha virt. eigenvalues --    0.11022   0.11201   0.11511   0.11964   0.12306
 Alpha virt. eigenvalues --    0.12350   0.12945   0.13122   0.13357   0.13591
 Alpha virt. eigenvalues --    0.13615   0.14057   0.14283   0.14574   0.14914
 Alpha virt. eigenvalues --    0.15042   0.15240   0.15272   0.15363   0.15686
 Alpha virt. eigenvalues --    0.15874   0.16538   0.16629   0.16759   0.16775
 Alpha virt. eigenvalues --    0.16844   0.17525   0.17921   0.18082   0.18267
 Alpha virt. eigenvalues --    0.18707   0.18804   0.18867   0.19106   0.19280
 Alpha virt. eigenvalues --    0.19514   0.19703   0.20299   0.21082   0.21278
 Alpha virt. eigenvalues --    0.21474   0.21813   0.22970   0.23402   0.23626
 Alpha virt. eigenvalues --    0.23930   0.23984   0.24208   0.24220   0.24257
 Alpha virt. eigenvalues --    0.24471   0.24577   0.24578   0.24729   0.24897
 Alpha virt. eigenvalues --    0.24926   0.24967   0.25059   0.25104   0.25139
 Alpha virt. eigenvalues --    0.25174   0.25208   0.25228   0.25229   0.25464
 Alpha virt. eigenvalues --    0.25561   0.25578   0.25666   0.25675   0.25815
 Alpha virt. eigenvalues --    0.25924   0.26055   0.26100   0.26116   0.26250
 Alpha virt. eigenvalues --    0.26250   0.26275   0.26312   0.26483   0.26512
 Alpha virt. eigenvalues --    0.26582   0.26632   0.26670   0.26789   0.26841
 Alpha virt. eigenvalues --    0.27174   0.27385   0.27526   0.27949   0.28209
 Alpha virt. eigenvalues --    0.28328   0.28460   0.28508   0.28655   0.29154
 Alpha virt. eigenvalues --    0.29726   0.30434   0.30458   0.31079   0.31261
 Alpha virt. eigenvalues --    0.31413   0.31856   0.32418   0.33348   0.34525
 Alpha virt. eigenvalues --    0.34973   0.35281   0.35684   0.35755   0.36439
 Alpha virt. eigenvalues --    0.36618   0.37007   0.37441   0.37718   0.38101
 Alpha virt. eigenvalues --    0.38947   0.39214   0.39565   0.40135   0.40868
 Alpha virt. eigenvalues --    0.41031   0.41635   0.41684   0.41847   0.43650
 Alpha virt. eigenvalues --    0.44279   0.44346   0.44567   0.45655   0.47202
 Alpha virt. eigenvalues --    0.47346   0.47716   0.48472   0.50452   0.53177
 Alpha virt. eigenvalues --    0.54319   0.57214
          Condensed to atoms (all electrons):
 Mulliken charges:
               1
     1  Mg   0.433763
     2  C   -0.058532
     3  C   -0.072376
     4  C   -0.048127
     5  C   -0.048848
     6  N   -0.302003
     7  C    0.119436
     8  C    0.007946
     9  C    0.015909
    10  C    0.139909
    11  C   -0.047777
    12  C   -0.019439
    13  C   -0.001862
    14  C    0.474063
    15  O   -0.527700
    16  O   -0.262973
    17  N   -0.310824
    18  C    0.125377
    19  C    0.003993
    20  C   -0.041105
    21  C    0.125192
    22  C   -0.048246
    23  C    0.325593
    24  O   -0.541627
    25  C   -0.026951
    26  N   -0.261185
    27  C    0.136888
    28  C    0.001509
    29  C   -0.001403
    30  C    0.096709
    31  C   -0.061986
    32  C   -0.028116
    33  C   -0.062240
    34  N   -0.322704
    35  C    0.085777
    36  C    0.042442
    37  C   -0.061068
    38  C    0.143468
    39  C   -0.047012
    40  C    0.336062
    41  O   -0.530024
    42  C    0.049268
    43  C    0.485192
    44  O   -0.527873
    45  O   -0.250502
    46  C    0.072878
    47  C    0.104669
    48  C   -0.113693
    49  C   -0.009542
    50  C   -0.039217
    51  C   -0.010595
    52  C   -0.034429
    53  C   -0.034006
    54  C   -0.009512
    55  C   -0.055061
    56  C   -0.039283
    57  C   -0.040331
    58  C   -0.032589
    59  C   -0.016565
    60  C   -0.068704
    61  C   -0.031001
    62  C   -0.042962
    63  C   -0.036357
    64  C   -0.012618
    65  C   -0.056805
    66  C   -0.066599
    67  H    0.013835
    68  H    0.041479
    69  H    0.034513
    70  H    0.047761
    71  H    0.020797
    72  H    0.031325
    73  H    0.012630
    74  H    0.026582
    75  H    0.024768
    76  H    0.040840
    77  H    0.026791
    78  H    0.048967
    79  H    0.018197
    80  H    0.033498
    81  H    0.033721
    82  H    0.037258
    83  H    0.039554
    84  H    0.040345
    85  H    0.033611
    86  H    0.028024
    87  H    0.023771
    88  H    0.028690
    89  H    0.024613
    90  H    0.021677
    91  H    0.016940
    92  H    0.026781
    93  H    0.025928
    94  H    0.020011
    95  H    0.032983
    96  H    0.026884
    97  H    0.031977
    98  H    0.054805
    99  H    0.053703
   100  H    0.024214
   101  H    0.044116
   102  H    0.047103
   103  H    0.058867
   104  H    0.024021
   105  H    0.021624
   106  H    0.025823
   107  H    0.030444
   108  H    0.028164
   109  H    0.015399
   110  H    0.009157
   111  H    0.029114
   112  H    0.014506
   113  H    0.019567
   114  H    0.023087
   115  H    0.016561
   116  H    0.014707
   117  H    0.019275
   118  H    0.023393
   119  H    0.027743
   120  H    0.020304
   121  H    0.015374
   122  H    0.022331
   123  H    0.000513
   124  H    0.023391
   125  H    0.021543
   126  H    0.020914
   127  H    0.014702
   128  H    0.020883
   129  H    0.017932
   130  H    0.022027
   131  H    0.010012
   132  H    0.026036
   133  H    0.024054
   134  H    0.022088
   135  H    0.019271
   136  H    0.020373
   137  H    0.013735
   138  H    0.020604
   139  H    0.021941
   140  H    0.018155
 Sum of Mulliken charges =  -0.00000
 Mulliken charges with hydrogens summed into heavy atoms:
               1
     1  Mg   0.433763
     2  C   -0.058532
     3  C   -0.058541
     4  C   -0.006648
     5  C   -0.014334
     6  N   -0.302003
     7  C    0.119436
     8  C    0.055707
     9  C    0.036707
    10  C    0.139909
    11  C    0.022760
    12  C    0.046169
    13  C    0.073896
    14  C    0.474063
    15  O   -0.527700
    16  O   -0.262973
    17  N   -0.310824
    18  C    0.125377
    19  C    0.003993
    20  C   -0.041105
    21  C    0.125192
    22  C    0.037169
    23  C    0.325593
    24  O   -0.541627
    25  C    0.090207
    26  N   -0.261185
    27  C    0.136888
    28  C    0.035120
    29  C    0.026621
    30  C    0.096709
    31  C    0.015088
    32  C    0.010500
    33  C    0.010480
    34  N   -0.322704
    35  C    0.085777
    36  C    0.042442
    37  C   -0.061068
    38  C    0.143468
    39  C    0.044832
    40  C    0.336062
    41  O   -0.530024
    42  C    0.104073
    43  C    0.485192
    44  O   -0.527873
    45  O   -0.250502
    46  C    0.194912
    47  C    0.210640
    48  C   -0.089673
    49  C   -0.009542
    50  C    0.038674
    51  C    0.032969
    52  C    0.003842
    53  C    0.000067
    54  C    0.013575
    55  C   -0.004519
    56  C    0.011852
    57  C   -0.004654
    58  C   -0.009746
    59  C    0.006826
    60  C   -0.011545
    61  C    0.007815
    62  C   -0.010923
    63  C    0.013733
    64  C    0.009470
    65  C   -0.003426
    66  C   -0.005899
 Charge=              0.0000 electrons
 Dipole moment (field-independent basis, Debye):
    X=              7.7102    Y=              5.0337    Z=             -0.4264  Tot=              9.2177
 N-N= 4.416179850756D+03 E-N= 0.000000000000D+00  KE=-9.506760829254D+03
 Leave Link  601 at Wed May  4 08:02:44 2022, MaxMem=  6710886400 cpu:               0.8 elap:               0.1
 (Enter /sw/apps/gaussian-16.0/g16/l9999.exe)
 1\1\GINC-BP1-COMPUTE100\SP\RZINDO CIS\STO-3G\C55H74Mg1N4O6\OF15641\04-
 May-2022\0\\#p ZINDO=(nstates=5)\\step_1501_chromophore_15 ZINDO\\0,1\
 Mg,0,46.491,34.852,27.537\C,0,44.657,33.013,30.035\C,0,46.747,37.303,2
 9.91\C,0,47.51,36.692,25.18\C,0,45.461,32.263,25.295\N,0,45.714,35.196
 ,29.675\C,0,45.151,34.233,30.513\C,0,45.259,34.636,32.04\C,0,45.473,36
 .139,31.849\C,0,46.158,36.211,30.45\C,0,44.204,37.027,31.921\C,0,46.5,
 33.893,32.64\C,0,46.726,34.029,34.193\C,0,45.799,34.997,34.921\O,0,44.
 584,34.894,35.034\O,0,46.525,36.031,35.45\N,0,47.134,36.684,27.573\C,0
 ,47.232,37.567,28.612\C,0,47.703,38.866,28.159\C,0,48.004,38.744,26.75
 6\C,0,47.453,37.373,26.409\C,0,47.987,40.102,29.049\C,0,48.626,39.714,
 25.808\O,0,48.832,39.411,24.589\C,0,49.006,41.125,26.286\N,0,46.529,34
 .446,25.545\C,0,47.049,35.449,24.753\C,0,46.97,35.048,23.263\C,0,46.21
 1,33.673,23.248\C,0,45.969,33.451,24.76\C,0,46.308,36.148,22.33\C,0,46
 .763,32.5,22.413\C,0,45.88,32.11,21.21\N,0,45.42,32.985,27.648\C,0,45.
 239,32.042,26.663\C,0,44.642,30.939,27.219\C,0,44.39,31.231,28.542\C,0
 ,44.85,32.512,28.709\C,0,44.303,29.678,26.452\C,0,43.805,30.655,29.743
 \O,0,43.304,29.525,29.933\C,0,43.787,31.836,30.693\C,0,44.,31.42,32.12
 1\O,0,45.046,30.871,32.459\O,0,43.013,31.863,32.94\C,0,43.241,31.712,3
 4.343\C,0,45.804,36.883,36.401\C,0,46.825,37.967,36.772\C,0,46.954,38.
 706,37.928\C,0,46.023,38.452,39.063\C,0,48.025,39.74,38.002\C,0,47.818
 ,40.864,36.987\C,0,49.158,41.389,36.51\C,0,49.034,42.737,35.78\C,0,50.
 088,42.858,34.699\C,0,49.058,43.879,36.874\C,0,47.921,44.94,36.618\C,0
 ,46.722,44.73,37.56\C,0,46.412,45.714,38.682\C,0,47.665,45.731,39.675\
 C,0,45.152,45.27,39.495\C,0,44.127,46.366,39.523\C,0,42.696,45.834,39.
 815\C,0,41.909,45.63,38.517\C,0,41.497,46.914,37.743\C,0,40.621,44.853
 ,38.871\H,0,46.932,38.137,30.59\H,0,47.847,37.239,24.297\H,0,45.257,31
 .47,24.573\H,0,44.352,34.377,32.586\H,0,46.183,36.403,32.633\H,0,43.31
 2,36.468,31.639\H,0,44.33,37.868,31.239\H,0,44.066,37.609,32.832\H,0,4
 7.426,34.237,32.179\H,0,46.424,32.82,32.463\H,0,47.741,34.341,34.438\H
 ,0,46.708,33.008,34.576\H,0,47.538,40.003,30.037\H,0,47.636,41.032,28.
 602\H,0,49.015,40.186,29.399\H,0,49.708,41.028,27.114\H,0,48.093,41.61
 6,26.623\H,0,49.458,41.677,25.462\H,0,47.963,34.939,22.827\H,0,45.233,
 33.863,22.806\H,0,46.081,36.936,23.048\H,0,45.4,35.866,21.797\H,0,47.0
 72,36.545,21.662\H,0,46.941,31.619,23.029\H,0,47.731,32.78,21.997\H,0,
 46.418,32.614,20.408\H,0,44.855,32.431,21.397\H,0,45.858,31.031,21.051
 \H,0,45.269,29.173,26.441\H,0,43.908,29.849,25.45\H,0,43.6,29.03,26.97
 6\H,0,42.739,32.1,30.833\H,0,43.973,30.974,34.669\H,0,42.303,31.397,34
 .8\H,0,43.425,32.694,34.779\H,0,45.531,36.327,37.298\H,0,44.917,37.432
 ,36.087\H,0,47.549,38.127,35.972\H,0,46.591,38.542,39.988\H,0,45.566,3
 7.463,39.012\H,0,45.224,39.193,39.081\H,0,48.981,39.231,37.877\H,0,48.
 044,40.135,39.017\H,0,47.422,41.736,37.509\H,0,47.07,40.683,36.216\H,0
 ,49.593,40.6,35.897\H,0,49.719,41.471,37.442\H,0,48.091,42.677,35.235\
 H,0,50.668,43.771,34.832\H,0,49.603,42.89,33.723\H,0,50.785,42.021,34.
 7\H,0,49.96,44.49,36.849\H,0,48.859,43.485,37.871\H,0,47.605,44.905,35
 .575\H,0,48.332,45.932,36.804\H,0,46.644,43.755,38.042\H,0,45.912,44.7
 54,36.831\H,0,46.267,46.731,38.318\H,0,47.706,46.621,40.303\H,0,48.606
 ,45.539,39.159\H,0,47.479,44.867,40.312\H,0,45.506,45.019,40.495\H,0,4
 4.745,44.345,39.087\H,0,44.041,46.958,38.612\H,0,44.412,47.057,40.316\
 H,0,42.36,46.657,40.446\H,0,42.866,44.912,40.372\H,0,42.404,45.052,37.
 737\H,0,41.274,47.689,38.476\H,0,40.621,46.817,37.102\H,0,42.338,47.16
 8,37.098\H,0,39.773,45.528,38.762\H,0,40.682,44.467,39.889\H,0,40.584,
 44.08,38.104\\Version=ES64L-G16RevA.03\State=1-A\HF=-474.4099362\RMSD=
 5.749e-09\PG=C01 [X(C55H74Mg1N4O6)]\\@


 IN SO FAR AS QUANTUM MECHANICS IS CORRECT, CHEMICAL 
 QUESTIONS ARE PROBLEMS IN APPLIED MATHEMATICS.

                    -- EYRING, WALTER, & KIMBALL, 1944
 Job cpu time:       0 days  0 hours  2 minutes 47.3 seconds.
 Elapsed time:       0 days  0 hours  0 minutes  7.3 seconds.
 File lengths (MBytes):  RWF=   1275 Int=      0 D2E=      0 Chk=     38 Scr=      1
 Normal termination of Gaussian 16 at Wed May  4 08:02:44 2022.
