 Entering Gaussian System, Link 0=g16
 Initial command:
 /sw/apps/gaussian-16.0/g16/l1.exe "/tmp/Gau-271742.inp" -scrdir="/tmp/"
 Entering Link 1 = /sw/apps/gaussian-16.0/g16/l1.exe PID=    271743.
  
 Copyright (c) 1988,1990,1992,1993,1995,1998,2003,2009,2016,
            Gaussian, Inc.  All Rights Reserved.
  
 This is part of the Gaussian(R) 16 program.  It is based on
 the Gaussian(R) 09 system (copyright 2009, Gaussian, Inc.),
 the Gaussian(R) 03 system (copyright 2003, Gaussian, Inc.),
 the Gaussian(R) 98 system (copyright 1998, Gaussian, Inc.),
 the Gaussian(R) 94 system (copyright 1995, Gaussian, Inc.),
 the Gaussian 92(TM) system (copyright 1992, Gaussian, Inc.),
 the Gaussian 90(TM) system (copyright 1990, Gaussian, Inc.),
 the Gaussian 88(TM) system (copyright 1988, Gaussian, Inc.),
 the Gaussian 86(TM) system (copyright 1986, Carnegie Mellon
 University), and the Gaussian 82(TM) system (copyright 1983,
 Carnegie Mellon University). Gaussian is a federally registered
 trademark of Gaussian, Inc.
  
 This software contains proprietary and confidential information,
 including trade secrets, belonging to Gaussian, Inc.
  
 This software is provided under written license and may be
 used, copied, transmitted, or stored only in accord with that
 written license.
  
 The following legend is applicable only to US Government
 contracts under FAR:
  
                    RESTRICTED RIGHTS LEGEND
  
 Use, reproduction and disclosure by the US Government is
 subject to restrictions as set forth in subparagraphs (a)
 and (c) of the Commercial Computer Software - Restricted
 Rights clause in FAR 52.227-19.
  
 Gaussian, Inc.
 340 Quinnipiac St., Bldg. 40, Wallingford CT 06492
  
  
 ---------------------------------------------------------------
 Warning -- This program may not be used in any manner that
 competes with the business of Gaussian, Inc. or will provide
 assistance to any competitor of Gaussian, Inc.  The licensee
 of this program is prohibited from giving any competitor of
 Gaussian, Inc. access to this program.  By using this program,
 the user acknowledges that Gaussian, Inc. is engaged in the
 business of creating and licensing software in the field of
 computational chemistry and represents and warrants to the
 licensee that it is not a competitor of Gaussian, Inc. and that
 it will not use this program in any manner prohibited above.
 ---------------------------------------------------------------
  

 Cite this work as:
 Gaussian 16, Revision A.03,
 M. J. Frisch, G. W. Trucks, H. B. Schlegel, G. E. Scuseria, 
 M. A. Robb, J. R. Cheeseman, G. Scalmani, V. Barone, 
 G. A. Petersson, H. Nakatsuji, X. Li, M. Caricato, A. V. Marenich, 
 J. Bloino, B. G. Janesko, R. Gomperts, B. Mennucci, H. P. Hratchian, 
 J. V. Ortiz, A. F. Izmaylov, J. L. Sonnenberg, D. Williams-Young, 
 F. Ding, F. Lipparini, F. Egidi, J. Goings, B. Peng, A. Petrone, 
 T. Henderson, D. Ranasinghe, V. G. Zakrzewski, J. Gao, N. Rega, 
 G. Zheng, W. Liang, M. Hada, M. Ehara, K. Toyota, R. Fukuda, 
 J. Hasegawa, M. Ishida, T. Nakajima, Y. Honda, O. Kitao, H. Nakai, 
 T. Vreven, K. Throssell, J. A. Montgomery, Jr., J. E. Peralta, 
 F. Ogliaro, M. J. Bearpark, J. J. Heyd, E. N. Brothers, K. N. Kudin, 
 V. N. Staroverov, T. A. Keith, R. Kobayashi, J. Normand, 
 K. Raghavachari, A. P. Rendell, J. C. Burant, S. S. Iyengar, 
 J. Tomasi, M. Cossi, J. M. Millam, M. Klene, C. Adamo, R. Cammi, 
 J. W. Ochterski, R. L. Martin, K. Morokuma, O. Farkas, 
 J. B. Foresman, and D. J. Fox, Gaussian, Inc., Wallingford CT, 2016.
 
 ******************************************
 Gaussian 16:  ES64L-G16RevA.03 25-Dec-2016
                30-Apr-2022 
 ******************************************
 %nproc=24
 Will use up to   24 processors via shared memory.
 %mem=75GB
 -----------------------------------
 #p cam-b3lyp/Def2SVP td=(nstates=5)
 -----------------------------------
 1/38=1,172=1/1;
 2/12=2,17=6,18=5,40=1/2;
 3/5=43,7=101,11=9,25=1,30=1,74=-40/1,2,3,8;
 4//1;
 5/5=2,38=5/2;
 8/6=1,10=1,108=5/1;
 9/41=5,42=1,70=2/14;
 6/7=2,8=2,9=2,10=2/1;
 99/5=1,9=1/99;
 Leave Link    1 at Sat Apr 30 08:34:28 2022, MaxMem= 10066329600 cpu:               1.4 elap:               0.1
 (Enter /sw/apps/gaussian-16.0/g16/l101.exe)
 -------------------------------------------------------
 step_701_chromophore_13 TDDFT with cam-b3lyp functional
 -------------------------------------------------------
 Symbolic Z-matrix:
 Charge =  0 Multiplicity = 1
 Mg                    47.262    24.665    27.626 
 C                     47.775    26.909    30.36 
 C                     46.252    22.329    29.81 
 C                     46.793    22.822    25.043 
 C                     48.281    27.41     25.484 
 N                     46.896    24.603    29.86 
 C                     47.241    25.613    30.738 
 C                     46.921    25.249    32.14 
 C                     46.536    23.678    32.003 
 C                     46.543    23.489    30.513 
 C                     47.391    22.683    32.909 
 C                     45.792    26.258    32.69 
 C                     45.99     26.84     34.117 
 C                     44.912    26.782    35.157 
 O                     43.722    26.531    34.969 
 O                     45.41     27.101    36.454 
 N                     46.609    22.707    27.407 
 C                     46.207    21.929    28.377 
 C                     45.639    20.729    27.796 
 C                     45.812    20.796    26.415 
 C                     46.483    22.12     26.221 
 C                     45.14     19.574    28.653 
 C                     45.377    19.836    25.307 
 O                     45.731    20.106    24.151 
 C                     44.666    18.48     25.589 
 N                     47.735    25.033    25.54 
 C                     47.375    24.072    24.72 
 C                     47.468    24.522    23.209 
 C                     47.753    26.059    23.305 
 C                     48.031    26.17     24.824 
 C                     48.446    23.647    22.286 
 C                     46.576    26.934    22.886 
 C                     45.388    27.103    23.787 
 N                     47.897    26.685    27.838 
 C                     48.338    27.637    26.895 
 C                     48.62     28.941    27.574 
 C                     48.493    28.593    28.968 
 C                     48.032    27.287    29.035 
 C                     49.165    30.205    27.013 
 C                     48.581    29.171    30.291 
 O                     48.911    30.312    30.61 
 C                     48.139    28.041    31.236 
 C                     49.269    27.721    32.123 
 O                     50.182    27.01     31.773 
 O                     49.08     28.115    33.456 
 C                     49.976    27.425    34.431 
 C                     44.468    27.378    37.54 
 C                     44.455    26.23     38.565 
 C                     44.046    26.314    39.822 
 C                     43.184    27.36     40.344 
 C                     44.098    25.101    40.693 
 C                     42.927    24.04     40.505 
 C                     42.698    23.307    41.942 
 C                     41.279    22.885    42.299 
 C                     40.575    21.881    41.426 
 C                     40.32     24.113    42.59 
 C                     39.88     24.195    44.042 
 C                     40.718    25.044    45.004 
 C                     40.903    24.241    46.327 
 C                     39.545    23.887    46.99 
 C                     41.821    25.033    47.234 
 C                     42.681    24.311    48.228 
 C                     44.235    24.643    48.01 
 C                     45.018    23.413    47.435 
 C                     46.541    23.661    47.466 
 C                     44.634    22.982    45.995 
 H                     45.831    21.645    30.549 
 H                     46.475    22.298    24.14 
 H                     48.612    28.265    24.891 
 H                     47.852    25.406    32.685 
 H                     45.529    23.686    32.421 
 H                     48.42     23.005    33.066 
 H                     47.444    21.751    32.348 
 H                     46.819    22.572    33.83 
 H                     44.86     25.704    32.801 
 H                     45.765    27.158    32.076 
 H                     46.336    27.87     34.205 
 H                     46.869    26.409    34.595 
 H                     45.644    18.682    28.279 
 H                     44.057    19.537    28.54 
 H                     45.356    19.511    29.72 
 H                     45.326    17.798    26.126 
 H                     44.297    17.998    24.684 
 H                     43.761    18.647    26.173 
 H                     46.48     24.332    22.789 
 H                     48.673    26.251    22.753 
 H                     47.829    23.265    21.473 
 H                     48.861    22.767    22.777 
 H                     49.188    24.232    21.743 
 H                     46.229    26.428    21.985 
 H                     46.9      27.911    22.529 
 H                     45.165    28.122    24.1 
 H                     45.595    26.451    24.636 
 H                     44.532    26.715    23.235 
 H                     49.564    30.947    27.705 
 H                     48.301    30.698    26.568 
 H                     49.802    29.949    26.166 
 H                     47.409    28.59     31.832 
 H                     49.941    26.361    34.197 
 H                     49.606    27.542    35.45 
 H                     51.02     27.701    34.279 
 H                     43.43     27.554    37.256 
 H                     44.785    28.276    38.069 
 H                     45.161    25.415    38.403 
 H                     43.34     28.344    39.901 
 H                     43.305    27.471    41.422 
 H                     42.157    27.153    40.042 
 H                     44.076    25.444    41.727 
 H                     45.081    24.657    40.537 
 H                     43.338    23.324    39.793 
 H                     42.081    24.608    40.117 
 H                     42.948    23.89     42.828 
 H                     43.401    22.474    41.955 
 H                     41.477    22.306    43.201 
 H                     39.537    22.111    41.182 
 H                     40.65     20.897    41.889 
 H                     41.089    21.886    40.465 
 H                     39.319    24.062    42.161 
 H                     40.839    25.041    42.348 
 H                     39.772    23.164    44.378 
 H                     38.848    24.535    44.141 
 H                     40.182    25.966    45.228 
 H                     41.682    25.227    44.53 
 H                     41.324    23.288    46.006 
 H                     39.482    22.807    46.855 
 H                     38.668    24.394    46.589 
 H                     39.645    24.125    48.049 
 H                     41.149    25.595    47.883 
 H                     42.348    25.813    46.684 
 H                     42.558    23.231    48.144 
 H                     42.417    24.74     49.194 
 H                     44.56     24.655    49.05 
 H                     44.287    25.609    47.507 
 H                     44.811    22.632    48.167 
 H                     46.828    24.011    46.475 
 H                     47.144    22.764    47.607 
 H                     46.673    24.512    48.135 
 H                     43.81     22.272    46.056 
 H                     45.478    22.567    45.444 
 H                     44.37     23.886    45.445 
 
 ITRead=  0  0  0  0  0  0  0  0  0  0  0  0  0  0  0  0  0  0  0  0
 ITRead=  0  0  0  0  0  0  0  0  0  0  0  0  0  0  0  0  0  0  0  0
 ITRead=  0  0  0  0  0  0  0  0  0  0  0  0  0  0  0  0  0  0  0  0
 ITRead=  0  0  0  0  0  0  0  0  0  0  0  0  0  0  0  0  0  0  0  0
 ITRead=  0  0  0  0  0  0  0  0  0  0  0  0  0  0  0  0  0  0  0  0
 ITRead=  0  0  0  0  0  0  0  0  0  0  0  0  0  0  0  0  0  0  0  0
 ITRead=  0  0  0  0  0  0  0  0  0  0  0  0  0  0  0  0  0  0  0  0
 MicOpt= -1 -1 -1 -1 -1 -1 -1 -1 -1 -1 -1 -1 -1 -1 -1 -1 -1 -1 -1 -1
 MicOpt= -1 -1 -1 -1 -1 -1 -1 -1 -1 -1 -1 -1 -1 -1 -1 -1 -1 -1 -1 -1
 MicOpt= -1 -1 -1 -1 -1 -1 -1 -1 -1 -1 -1 -1 -1 -1 -1 -1 -1 -1 -1 -1
 MicOpt= -1 -1 -1 -1 -1 -1 -1 -1 -1 -1 -1 -1 -1 -1 -1 -1 -1 -1 -1 -1
 MicOpt= -1 -1 -1 -1 -1 -1 -1 -1 -1 -1 -1 -1 -1 -1 -1 -1 -1 -1 -1 -1
 MicOpt= -1 -1 -1 -1 -1 -1 -1 -1 -1 -1 -1 -1 -1 -1 -1 -1 -1 -1 -1 -1
 MicOpt= -1 -1 -1 -1 -1 -1 -1 -1 -1 -1 -1 -1 -1 -1 -1 -1 -1 -1 -1 -1
 NAtoms=    140 NQM=      140 NQMF=       0 NMMI=      0 NMMIF=      0
                NMic=       0 NMicF=      0.
                    Isotopes and Nuclear Properties:
 (Nuclear quadrupole moments (NQMom) in fm**2, nuclear magnetic moments (NMagM)
  in nuclear magnetons)

  Atom         1           2           3           4           5           6           7           8           9          10
 IAtWgt=          24          12          12          12          12          14          12          12          12          12
 AtmWgt=  23.9850450  12.0000000  12.0000000  12.0000000  12.0000000  14.0030740  12.0000000  12.0000000  12.0000000  12.0000000
 NucSpn=           0           0           0           0           0           2           0           0           0           0
 AtZEff=  -0.0000000  -0.0000000  -0.0000000  -0.0000000  -0.0000000  -0.0000000  -0.0000000  -0.0000000  -0.0000000  -0.0000000
 NQMom=    0.0000000   0.0000000   0.0000000   0.0000000   0.0000000   2.0440000   0.0000000   0.0000000   0.0000000   0.0000000
 NMagM=    0.0000000   0.0000000   0.0000000   0.0000000   0.0000000   0.4037610   0.0000000   0.0000000   0.0000000   0.0000000
 AtZNuc=  12.0000000   6.0000000   6.0000000   6.0000000   6.0000000   7.0000000   6.0000000   6.0000000   6.0000000   6.0000000

  Atom        11          12          13          14          15          16          17          18          19          20
 IAtWgt=          12          12          12          12          16          16          14          12          12          12
 AtmWgt=  12.0000000  12.0000000  12.0000000  12.0000000  15.9949146  15.9949146  14.0030740  12.0000000  12.0000000  12.0000000
 NucSpn=           0           0           0           0           0           0           2           0           0           0
 AtZEff=  -0.0000000  -0.0000000  -0.0000000  -0.0000000  -0.0000000  -0.0000000  -0.0000000  -0.0000000  -0.0000000  -0.0000000
 NQMom=    0.0000000   0.0000000   0.0000000   0.0000000   0.0000000   0.0000000   2.0440000   0.0000000   0.0000000   0.0000000
 NMagM=    0.0000000   0.0000000   0.0000000   0.0000000   0.0000000   0.0000000   0.4037610   0.0000000   0.0000000   0.0000000
 AtZNuc=   6.0000000   6.0000000   6.0000000   6.0000000   8.0000000   8.0000000   7.0000000   6.0000000   6.0000000   6.0000000

  Atom        21          22          23          24          25          26          27          28          29          30
 IAtWgt=          12          12          12          16          12          14          12          12          12          12
 AtmWgt=  12.0000000  12.0000000  12.0000000  15.9949146  12.0000000  14.0030740  12.0000000  12.0000000  12.0000000  12.0000000
 NucSpn=           0           0           0           0           0           2           0           0           0           0
 AtZEff=  -0.0000000  -0.0000000  -0.0000000  -0.0000000  -0.0000000  -0.0000000  -0.0000000  -0.0000000  -0.0000000  -0.0000000
 NQMom=    0.0000000   0.0000000   0.0000000   0.0000000   0.0000000   2.0440000   0.0000000   0.0000000   0.0000000   0.0000000
 NMagM=    0.0000000   0.0000000   0.0000000   0.0000000   0.0000000   0.4037610   0.0000000   0.0000000   0.0000000   0.0000000
 AtZNuc=   6.0000000   6.0000000   6.0000000   8.0000000   6.0000000   7.0000000   6.0000000   6.0000000   6.0000000   6.0000000

  Atom        31          32          33          34          35          36          37          38          39          40
 IAtWgt=          12          12          12          14          12          12          12          12          12          12
 AtmWgt=  12.0000000  12.0000000  12.0000000  14.0030740  12.0000000  12.0000000  12.0000000  12.0000000  12.0000000  12.0000000
 NucSpn=           0           0           0           2           0           0           0           0           0           0
 AtZEff=  -0.0000000  -0.0000000  -0.0000000  -0.0000000  -0.0000000  -0.0000000  -0.0000000  -0.0000000  -0.0000000  -0.0000000
 NQMom=    0.0000000   0.0000000   0.0000000   2.0440000   0.0000000   0.0000000   0.0000000   0.0000000   0.0000000   0.0000000
 NMagM=    0.0000000   0.0000000   0.0000000   0.4037610   0.0000000   0.0000000   0.0000000   0.0000000   0.0000000   0.0000000
 AtZNuc=   6.0000000   6.0000000   6.0000000   7.0000000   6.0000000   6.0000000   6.0000000   6.0000000   6.0000000   6.0000000

  Atom        41          42          43          44          45          46          47          48          49          50
 IAtWgt=          16          12          12          16          16          12          12          12          12          12
 AtmWgt=  15.9949146  12.0000000  12.0000000  15.9949146  15.9949146  12.0000000  12.0000000  12.0000000  12.0000000  12.0000000
 NucSpn=           0           0           0           0           0           0           0           0           0           0
 AtZEff=  -0.0000000  -0.0000000  -0.0000000  -0.0000000  -0.0000000  -0.0000000  -0.0000000  -0.0000000  -0.0000000  -0.0000000
 NQMom=    0.0000000   0.0000000   0.0000000   0.0000000   0.0000000   0.0000000   0.0000000   0.0000000   0.0000000   0.0000000
 NMagM=    0.0000000   0.0000000   0.0000000   0.0000000   0.0000000   0.0000000   0.0000000   0.0000000   0.0000000   0.0000000
 AtZNuc=   8.0000000   6.0000000   6.0000000   8.0000000   8.0000000   6.0000000   6.0000000   6.0000000   6.0000000   6.0000000

  Atom        51          52          53          54          55          56          57          58          59          60
 IAtWgt=          12          12          12          12          12          12          12          12          12          12
 AtmWgt=  12.0000000  12.0000000  12.0000000  12.0000000  12.0000000  12.0000000  12.0000000  12.0000000  12.0000000  12.0000000
 NucSpn=           0           0           0           0           0           0           0           0           0           0
 AtZEff=  -0.0000000  -0.0000000  -0.0000000  -0.0000000  -0.0000000  -0.0000000  -0.0000000  -0.0000000  -0.0000000  -0.0000000
 NQMom=    0.0000000   0.0000000   0.0000000   0.0000000   0.0000000   0.0000000   0.0000000   0.0000000   0.0000000   0.0000000
 NMagM=    0.0000000   0.0000000   0.0000000   0.0000000   0.0000000   0.0000000   0.0000000   0.0000000   0.0000000   0.0000000
 AtZNuc=   6.0000000   6.0000000   6.0000000   6.0000000   6.0000000   6.0000000   6.0000000   6.0000000   6.0000000   6.0000000

  Atom        61          62          63          64          65          66          67          68          69          70
 IAtWgt=          12          12          12          12          12          12           1           1           1           1
 AtmWgt=  12.0000000  12.0000000  12.0000000  12.0000000  12.0000000  12.0000000   1.0078250   1.0078250   1.0078250   1.0078250
 NucSpn=           0           0           0           0           0           0           1           1           1           1
 AtZEff=  -0.0000000  -0.0000000  -0.0000000  -0.0000000  -0.0000000  -0.0000000  -0.0000000  -0.0000000  -0.0000000  -0.0000000
 NQMom=    0.0000000   0.0000000   0.0000000   0.0000000   0.0000000   0.0000000   0.0000000   0.0000000   0.0000000   0.0000000
 NMagM=    0.0000000   0.0000000   0.0000000   0.0000000   0.0000000   0.0000000   2.7928460   2.7928460   2.7928460   2.7928460
 AtZNuc=   6.0000000   6.0000000   6.0000000   6.0000000   6.0000000   6.0000000   1.0000000   1.0000000   1.0000000   1.0000000

  Atom        71          72          73          74          75          76          77          78          79          80
 IAtWgt=           1           1           1           1           1           1           1           1           1           1
 AtmWgt=   1.0078250   1.0078250   1.0078250   1.0078250   1.0078250   1.0078250   1.0078250   1.0078250   1.0078250   1.0078250
 NucSpn=           1           1           1           1           1           1           1           1           1           1
 AtZEff=  -0.0000000  -0.0000000  -0.0000000  -0.0000000  -0.0000000  -0.0000000  -0.0000000  -0.0000000  -0.0000000  -0.0000000
 NQMom=    0.0000000   0.0000000   0.0000000   0.0000000   0.0000000   0.0000000   0.0000000   0.0000000   0.0000000   0.0000000
 NMagM=    2.7928460   2.7928460   2.7928460   2.7928460   2.7928460   2.7928460   2.7928460   2.7928460   2.7928460   2.7928460
 AtZNuc=   1.0000000   1.0000000   1.0000000   1.0000000   1.0000000   1.0000000   1.0000000   1.0000000   1.0000000   1.0000000

  Atom        81          82          83          84          85          86          87          88          89          90
 IAtWgt=           1           1           1           1           1           1           1           1           1           1
 AtmWgt=   1.0078250   1.0078250   1.0078250   1.0078250   1.0078250   1.0078250   1.0078250   1.0078250   1.0078250   1.0078250
 NucSpn=           1           1           1           1           1           1           1           1           1           1
 AtZEff=  -0.0000000  -0.0000000  -0.0000000  -0.0000000  -0.0000000  -0.0000000  -0.0000000  -0.0000000  -0.0000000  -0.0000000
 NQMom=    0.0000000   0.0000000   0.0000000   0.0000000   0.0000000   0.0000000   0.0000000   0.0000000   0.0000000   0.0000000
 NMagM=    2.7928460   2.7928460   2.7928460   2.7928460   2.7928460   2.7928460   2.7928460   2.7928460   2.7928460   2.7928460
 AtZNuc=   1.0000000   1.0000000   1.0000000   1.0000000   1.0000000   1.0000000   1.0000000   1.0000000   1.0000000   1.0000000

  Atom        91          92          93          94          95          96          97          98          99         100
 IAtWgt=           1           1           1           1           1           1           1           1           1           1
 AtmWgt=   1.0078250   1.0078250   1.0078250   1.0078250   1.0078250   1.0078250   1.0078250   1.0078250   1.0078250   1.0078250
 NucSpn=           1           1           1           1           1           1           1           1           1           1
 AtZEff=  -0.0000000  -0.0000000  -0.0000000  -0.0000000  -0.0000000  -0.0000000  -0.0000000  -0.0000000  -0.0000000  -0.0000000
 NQMom=    0.0000000   0.0000000   0.0000000   0.0000000   0.0000000   0.0000000   0.0000000   0.0000000   0.0000000   0.0000000
 NMagM=    2.7928460   2.7928460   2.7928460   2.7928460   2.7928460   2.7928460   2.7928460   2.7928460   2.7928460   2.7928460
 AtZNuc=   1.0000000   1.0000000   1.0000000   1.0000000   1.0000000   1.0000000   1.0000000   1.0000000   1.0000000   1.0000000

  Atom       101         102         103         104         105         106         107         108         109         110
 IAtWgt=           1           1           1           1           1           1           1           1           1           1
 AtmWgt=   1.0078250   1.0078250   1.0078250   1.0078250   1.0078250   1.0078250   1.0078250   1.0078250   1.0078250   1.0078250
 NucSpn=           1           1           1           1           1           1           1           1           1           1
 AtZEff=  -0.0000000  -0.0000000  -0.0000000  -0.0000000  -0.0000000  -0.0000000  -0.0000000  -0.0000000  -0.0000000  -0.0000000
 NQMom=    0.0000000   0.0000000   0.0000000   0.0000000   0.0000000   0.0000000   0.0000000   0.0000000   0.0000000   0.0000000
 NMagM=    2.7928460   2.7928460   2.7928460   2.7928460   2.7928460   2.7928460   2.7928460   2.7928460   2.7928460   2.7928460
 AtZNuc=   1.0000000   1.0000000   1.0000000   1.0000000   1.0000000   1.0000000   1.0000000   1.0000000   1.0000000   1.0000000

  Atom       111         112         113         114         115         116         117         118         119         120
 IAtWgt=           1           1           1           1           1           1           1           1           1           1
 AtmWgt=   1.0078250   1.0078250   1.0078250   1.0078250   1.0078250   1.0078250   1.0078250   1.0078250   1.0078250   1.0078250
 NucSpn=           1           1           1           1           1           1           1           1           1           1
 AtZEff=  -0.0000000  -0.0000000  -0.0000000  -0.0000000  -0.0000000  -0.0000000  -0.0000000  -0.0000000  -0.0000000  -0.0000000
 NQMom=    0.0000000   0.0000000   0.0000000   0.0000000   0.0000000   0.0000000   0.0000000   0.0000000   0.0000000   0.0000000
 NMagM=    2.7928460   2.7928460   2.7928460   2.7928460   2.7928460   2.7928460   2.7928460   2.7928460   2.7928460   2.7928460
 AtZNuc=   1.0000000   1.0000000   1.0000000   1.0000000   1.0000000   1.0000000   1.0000000   1.0000000   1.0000000   1.0000000

  Atom       121         122         123         124         125         126         127         128         129         130
 IAtWgt=           1           1           1           1           1           1           1           1           1           1
 AtmWgt=   1.0078250   1.0078250   1.0078250   1.0078250   1.0078250   1.0078250   1.0078250   1.0078250   1.0078250   1.0078250
 NucSpn=           1           1           1           1           1           1           1           1           1           1
 AtZEff=  -0.0000000  -0.0000000  -0.0000000  -0.0000000  -0.0000000  -0.0000000  -0.0000000  -0.0000000  -0.0000000  -0.0000000
 NQMom=    0.0000000   0.0000000   0.0000000   0.0000000   0.0000000   0.0000000   0.0000000   0.0000000   0.0000000   0.0000000
 NMagM=    2.7928460   2.7928460   2.7928460   2.7928460   2.7928460   2.7928460   2.7928460   2.7928460   2.7928460   2.7928460
 AtZNuc=   1.0000000   1.0000000   1.0000000   1.0000000   1.0000000   1.0000000   1.0000000   1.0000000   1.0000000   1.0000000

  Atom       131         132         133         134         135         136         137         138         139         140
 IAtWgt=           1           1           1           1           1           1           1           1           1           1
 AtmWgt=   1.0078250   1.0078250   1.0078250   1.0078250   1.0078250   1.0078250   1.0078250   1.0078250   1.0078250   1.0078250
 NucSpn=           1           1           1           1           1           1           1           1           1           1
 AtZEff=  -0.0000000  -0.0000000  -0.0000000  -0.0000000  -0.0000000  -0.0000000  -0.0000000  -0.0000000  -0.0000000  -0.0000000
 NQMom=    0.0000000   0.0000000   0.0000000   0.0000000   0.0000000   0.0000000   0.0000000   0.0000000   0.0000000   0.0000000
 NMagM=    2.7928460   2.7928460   2.7928460   2.7928460   2.7928460   2.7928460   2.7928460   2.7928460   2.7928460   2.7928460
 AtZNuc=   1.0000000   1.0000000   1.0000000   1.0000000   1.0000000   1.0000000   1.0000000   1.0000000   1.0000000   1.0000000
 Leave Link  101 at Sat Apr 30 08:34:28 2022, MaxMem= 10066329600 cpu:               4.2 elap:               0.2
 (Enter /sw/apps/gaussian-16.0/g16/l202.exe)
 Stoichiometry    C55H74MgN4O6
 Framework group  C1[X(C55H74MgN4O6)]
 Deg. of freedom   414
 Full point group                 C1      NOp   1
 Largest Abelian subgroup         C1      NOp   1
 Largest concise Abelian subgroup C1      NOp   1
                         Standard orientation:                         
 ---------------------------------------------------------------------
 Center     Atomic      Atomic             Coordinates (Angstroms)
 Number     Number       Type             X           Y           Z
 ---------------------------------------------------------------------
      1         12           0       -6.152073    0.357221    0.270722
      2          6           0       -3.678176   -2.221466    0.210127
      3          6           0       -3.733903    2.579360    0.949990
      4          6           0       -8.499642    2.542131    0.210820
      5          6           0       -8.541294   -2.235235   -0.585051
      6          7           0       -3.895290    0.276506    0.440941
      7          6           0       -3.151422   -0.888255    0.439769
      8          6           0       -1.705549   -0.611452    0.622332
      9          6           0       -1.707972    0.966186    1.004548
     10          6           0       -3.150128    1.330351    0.796130
     11          6           0       -1.013898    1.334656    2.391768
     12          6           0       -0.921430   -1.064456   -0.710022
     13          6           0        0.400586   -1.859339   -0.523767
     14          6           0        1.672496   -1.460710   -1.209615
     15          8           0        1.785337   -0.675857   -2.150741
     16          8           0        2.801694   -2.141903   -0.668446
     17          7           0       -6.159792    2.408313    0.588676
     18          6           0       -5.103197    3.145391    0.808017
     19          6           0       -5.500395    4.538520    0.767888
     20          6           0       -6.883207    4.587222    0.603452
     21          6           0       -7.265490    3.142576    0.515652
     22          6           0       -4.520959    5.667069    1.058674
     23          6           0       -7.829407    5.779590    0.456978
     24          8           0       -9.042789    5.537146    0.398006
     25          6           0       -7.351315    7.258687    0.543462
     26          7           0       -8.298522    0.099823    0.078233
     27          6           0       -8.983649    1.220356    0.055252
     28          6           0      -10.482061    0.985087   -0.384839
     29          6           0      -10.494291   -0.511822   -0.845191
     30          6           0       -9.091460   -0.940032   -0.349542
     31          6           0      -11.594324    1.438493    0.678801
     32          6           0      -10.635024   -0.694453   -2.352956
     33          6           0       -9.476491   -0.427479   -3.268506
     34          7           0       -6.148220   -1.739449   -0.093328
     35          6           0       -7.192193   -2.651208   -0.355718
     36          6           0       -6.632881   -4.019869   -0.590064
     37          6           0       -5.242054   -3.843389   -0.251058
     38          6           0       -5.034395   -2.492488   -0.017411
     39          6           0       -7.339017   -5.305193   -0.832460
     40          6           0       -3.994057   -4.570983   -0.178494
     41          8           0       -3.791690   -5.769157   -0.368152
     42          6           0       -2.943727   -3.502110    0.167346
     43          6           0       -2.350755   -3.850567    1.468511
     44          8           0       -2.895413   -3.589532    2.515793
     45          8           0       -1.021412   -4.292000    1.392147
     46          6           0       -0.277547   -4.220267    2.684842
     47          6           0        4.077296   -2.106330   -1.386125
     48          6           0        5.101346   -1.226401   -0.647380
     49          6           0        6.417737   -1.284784   -0.781889
     50          6           0        7.108933   -1.887402   -1.908273
     51          6           0        7.278174   -0.356204    0.011901
     52          6           0        7.405393    1.134179   -0.531127
     53          6           0        8.871741    1.690431   -0.089419
     54          6           0        9.572756    2.656209   -1.035433
     55          6           0        8.920860    3.977383   -1.344128
     56          6           0       10.059257    1.968123   -2.377893
     57          6           0       11.572326    1.899258   -2.498339
     58          6           0       12.281589    0.642141   -1.983470
     59          6           0       13.538397    1.088210   -1.176735
     60          6           0       14.519725    1.925229   -2.040126
     61          6           0       14.176216   -0.147430   -0.577555
     62          6           0       14.948007   -0.033761    0.703202
     63          6           0       14.351079   -0.999976    1.835795
     64          6           0       13.632005   -0.192267    2.970323
     65          6           0       13.286043   -1.103944    4.166629
     66          6           0       12.339053    0.555369    2.550639
     67          1           0       -2.898901    3.273274    1.061666
     68          1           0       -9.285714    3.269572    0.000992
     69          1           0       -9.216850   -3.058868   -0.824817
     70          1           0       -1.407037   -1.244372    1.458237
     71          1           0       -1.058036    1.358297    0.221816
     72          1           0       -1.119330    0.564203    3.154959
     73          1           0       -1.548938    2.207934    2.762271
     74          1           0        0.020861    1.567176    2.140860
     75          1           0       -0.574250   -0.169437   -1.226033
     76          1           0       -1.531384   -1.763009   -1.282476
     77          1           0        0.377661   -2.935772   -0.694430
     78          1           0        0.660557   -1.941314    0.531023
     79          1           0       -4.985227    6.275904    1.835418
     80          1           0       -4.366417    6.204754    0.123773
     81          1           0       -3.537292    5.481191    1.491064
     82          1           0       -6.975010    7.489109    1.540655
     83          1           0       -8.127915    7.972437    0.269667
     84          1           0       -6.568929    7.442123   -0.192875
     85          1           0      -10.644728    1.656046   -1.228639
     86          1           0      -11.257713   -1.022860   -0.258679
     87          1           0      -12.223772    2.163858    0.163803
     88          1           0      -11.198429    1.960489    1.549717
     89          1           0      -12.314967    0.660271    0.929164
     90          1           0      -11.412530    0.029966   -2.595745
     91          1           0      -11.082886   -1.654268   -2.608161
     92          1           0       -9.142660   -1.267162   -3.876411
     93          1           0       -8.688222   -0.060640   -2.610619
     94          1           0       -9.794604    0.376120   -3.932597
     95          1           0       -6.782358   -6.233046   -0.698861
     96          1           0       -7.572087   -5.289109   -1.896880
     97          1           0       -8.309209   -5.253521   -0.337717
     98          1           0       -2.201200   -3.736228   -0.596435
     99          1           0       -0.471001   -3.234858    3.108660
    100          1           0        0.797796   -4.293325    2.519765
    101          1           0       -0.685191   -4.915327    3.419644
    102          1           0        4.050081   -1.753754   -2.417641
    103          1           0        4.492163   -3.112674   -1.429624
    104          1           0        4.791752   -0.805373    0.309590
    105          1           0        6.618348   -2.765817   -2.328456
    106          1           0        8.122280   -2.185198   -1.637177
    107          1           0        7.070572   -1.199710   -2.753489
    108          1           0        8.278171   -0.787933    0.041973
    109          1           0        6.898365   -0.388359    1.032916
    110          1           0        6.631837    1.675439    0.014006
    111          1           0        7.221462    1.068321   -1.603841
    112          1           0        9.656473    0.944019    0.030785
    113          1           0        8.733000    2.105113    0.909109
    114          1           0       10.412896    2.955621   -0.408882
    115          1           0        8.931168    4.276964   -2.392949
    116          1           0        9.374689    4.748623   -0.721650
    117          1           0        7.863897    3.869938   -1.101175
    118          1           0        9.887762    2.523626   -3.300199
    119          1           0        9.676662    0.947819   -2.419247
    120          1           0       11.948585    2.811813   -2.036610
    121          1           0       11.911210    2.052943   -3.523992
    122          1           0       12.607474    0.041535   -2.832369
    123          1           0       11.583322    0.108630   -1.339071
    124          1           0       13.147130    1.781227   -0.431665
    125          1           0       14.429455    2.924074   -1.612627
    126          1           0       14.332154    1.928924   -3.113337
    127          1           0       15.516772    1.527523   -1.850782
    128          1           0       14.955734   -0.426381   -1.286897
    129          1           0       13.496473   -0.999383   -0.605023
    130          1           0       14.921778    0.985352    1.089603
    131          1           0       15.938871   -0.422694    0.471226
    132          1           0       15.280310   -1.297641    2.320867
    133          1           0       13.828013   -1.807401    1.322632
    134          1           0       14.410476    0.491316    3.309927
    135          1           0       12.247076   -1.408839    4.046067
    136          1           0       13.297236   -0.604848    5.135586
    137          1           0       13.882744   -2.004032    4.015053
    138          1           0       12.615154    1.545809    2.190649
    139          1           0       11.609311    0.613723    3.358249
    140          1           0       11.848677   -0.048136    1.785966
 ---------------------------------------------------------------------
 Rotational constants (GHZ):           0.0546031           0.0084165           0.0077124
 Leave Link  202 at Sat Apr 30 08:34:28 2022, MaxMem= 10066329600 cpu:               0.2 elap:               0.0
 (Enter /sw/apps/gaussian-16.0/g16/l301.exe)
 Standard basis: def2SVP (5D, 7F)
 Ernie: Thresh=  0.10000D-02 Tol=  0.10000D-05 Strict=F.
 There are  1364 symmetry adapted cartesian basis functions of A   symmetry.
 There are  1298 symmetry adapted basis functions of A   symmetry.
  1298 basis functions,  2180 primitive gaussians,  1364 cartesian basis functions
   246 alpha electrons      246 beta electrons
       nuclear repulsion energy      9418.4388534448 Hartrees.
 IExCor=20419 DFT=T Ex+Corr=CAM-B3LYP ExCW=0 ScaHFX=  1.000000
 ScaDFX=  1.000000  1.000000  1.000000  0.810000 ScalE2=  1.000000  1.000000
 IRadAn=      5 IRanWt=     -1 IRanGd=            0 ICorTp=0 IEmpDi=  4
 HFx  wShort=  0.000000 wLong=  0.330000 cFull=  0.190000 cShort=  0.000000 cLong=  0.460000
 DFx  wShort=  0.000000 wLong=  0.330000 cFull=  0.190000 cShort=  0.000000 cLong=  0.460000
 NAtoms=  140 NActive=  140 NUniq=  140 SFac= 1.00D+00 NAtFMM=   60 NAOKFM=T Big=T
 Integral buffers will be    131072 words long.
 Raffenetti 1 integral format.
 Two-electron integral symmetry is turned on.
 Leave Link  301 at Sat Apr 30 08:34:28 2022, MaxMem= 10066329600 cpu:               1.3 elap:               0.1
 (Enter /sw/apps/gaussian-16.0/g16/l302.exe)
 NPDir=0 NMtPBC=     1 NCelOv=     1 NCel=       1 NClECP=     1 NCelD=      1
         NCelK=      1 NCelE2=     1 NClLst=     1 CellRange=     0.0.
 One-electron integrals computed using PRISM.
 One-electron integral symmetry used in STVInt
   1 Symmetry operations used in ECPInt.
 ECPInt:  NShTT=  192510 NPrTT=  683786 LenC2=   91258 LenP2D=  202621.
 LDataN:  DoStor=T MaxTD1= 4 Len=   56
 NBasis=  1298 RedAO= T EigKep=  2.46D-04  NBF=  1298
 NBsUse=  1298 1.00D-06 EigRej= -1.00D+00 NBFU=  1298
 Precomputing XC quadrature grid using
 IXCGrd= 4 IRadAn=           5 IRanWt=          -1 IRanGd=           0 AccXCQ= 0.00D+00.
 Generated NRdTot=       0 NPtTot=           0 NUsed=           0 NTot=          32
 NSgBfM=   984   949   962   974   984 MxSgAt=   140 MxSgA2=   140.
 Leave Link  302 at Sat Apr 30 08:34:32 2022, MaxMem= 10066329600 cpu:              89.1 elap:               3.7
 (Enter /sw/apps/gaussian-16.0/g16/l303.exe)
 DipDrv:  MaxL=1.
 Leave Link  303 at Sat Apr 30 08:34:32 2022, MaxMem= 10066329600 cpu:               5.7 elap:               0.3
 (Enter /sw/apps/gaussian-16.0/g16/l308.exe)
 Leave Link  308 at Sat Apr 30 08:34:32 2022, MaxMem= 10066329600 cpu:              12.8 elap:               0.6
 (Enter /sw/apps/gaussian-16.0/g16/l401.exe)
 ExpMin= 3.36D-02 ExpMax= 4.95D+03 ExpMxC= 7.45D+02 IAcc=3 IRadAn=         5 AccDes= 0.00D+00
 Harris functional with IExCor=20419 and IRadAn=       5 diagonalized for initial guess.
 HarFok:  IExCor=20419 AccDes= 0.00D+00 IRadAn=         5 IDoV= 1 UseB2=F ITyADJ=14
 ICtDFT=  3500011 ScaDFX=  1.000000  1.000000  1.000000  1.000000
 FoFCou: FMM=F IPFlag=           0 FMFlag=      100000 FMFlg1=        2001
         NFxFlg=           0 DoJE=T BraDBF=F KetDBF=T FulRan=T
         wScrn=  0.000000 ICntrl=       500 IOpCl=  0 I1Cent=   200000004 NGrid=           0
         NMat0=    1 NMatS0=      1 NMatT0=    0 NMatD0=    1 NMtDS0=    0 NMtDT0=    0
 Petite list used in FoFCou.
 Harris En= -2890.85243960015    
 JPrj=0 DoOrth=F DoCkMO=F.
 Leave Link  401 at Sat Apr 30 08:34:38 2022, MaxMem= 10066329600 cpu:             141.7 elap:               5.9
 (Enter /sw/apps/gaussian-16.0/g16/l502.exe)
 Integral symmetry usage will be decided dynamically.
 Closed shell SCF:
 Using DIIS extrapolation, IDIIS=  1040.
 NGot= 10066329600 LenX= 10062561258 LenY= 10060699398
 Requested convergence on RMS density matrix=1.00D-08 within 128 cycles.
 Requested convergence on MAX density matrix=1.00D-06.
 Requested convergence on             energy=1.00D-06.
 No special actions if energy rises.
 Fock matrices will be formed incrementally for  20 cycles.

 Cycle   1  Pass 1  IDiag  1:
 FoFJK:  IHMeth= 1 ICntrl=       0 DoSepK=T KAlg= 0 I1Cent=           0 FoldK=F
 IRaf=         1 NMat=       1 IRICut=       1 DoRegI=T DoRafI=F ISym2E= 0 IDoP0=0 IntGTp=1.
 FoFCou: FMM=T IPFlag=           0 FMFlag=      100000 FMFlg1=        2001
         NFxFlg=           0 DoJE=T BraDBF=F KetDBF=F FulRan=T
         wScrn=  0.000000 ICntrl=       500 IOpCl=  0 I1Cent=           0 NGrid=           0
         NMat0=    1 NMatS0=      1 NMatT0=    0 NMatD0=    1 NMtDS0=    0 NMtDT0=    0
 Symmetry not used in FoFCou.
 FMM levels:  10  Number of levels for PrismC:   9
 E= -3006.48176891279    
 DIIS: error= 3.10D-02 at cycle   1 NSaved=   1.
 NSaved= 1 IEnMin= 1 EnMin= -3006.48176891279     IErMin= 1 ErrMin= 3.10D-02
 ErrMax= 3.10D-02  0.00D+00 EMaxC= 1.00D-01 BMatC= 1.26D+00 BMatP= 1.26D+00
 IDIUse=3 WtCom= 6.90D-01 WtEn= 3.10D-01
 Coeff-Com:  0.100D+01
 Coeff-En:   0.100D+01
 Coeff:      0.100D+01
 Gap=     0.129 Goal=   None    Shift=    0.000
 GapD=    0.129 DampG=1.000 DampE=0.500 DampFc=0.5000 IDamp=-1.
 Damping current iteration by 5.00D-01
 RMSDP=1.55D-03 MaxDP=1.42D-01              OVMax= 1.56D-01

 Cycle   2  Pass 1  IDiag  1:
 RMSU=  7.63D-04    CP:  9.84D-01
 E= -3006.79093897312     Delta-E=       -0.309170060327 Rises=F Damp=T
 DIIS: error= 1.24D-02 at cycle   2 NSaved=   2.
 NSaved= 2 IEnMin= 2 EnMin= -3006.79093897312     IErMin= 2 ErrMin= 1.24D-02
 ErrMax= 1.24D-02  0.00D+00 EMaxC= 1.00D-01 BMatC= 2.29D-01 BMatP= 1.26D+00
 IDIUse=3 WtCom= 8.76D-01 WtEn= 1.24D-01
 Coeff-Com: -0.237D+00 0.124D+01
 Coeff-En:   0.000D+00 0.100D+01
 Coeff:     -0.208D+00 0.121D+01
 Gap=     0.135 Goal=   None    Shift=    0.000
 RMSDP=6.78D-04 MaxDP=6.90D-02 DE=-3.09D-01 OVMax= 1.42D-01

 Cycle   3  Pass 1  IDiag  1:
 RMSU=  6.55D-04    CP:  9.75D-01  1.20D+00
 E= -3007.02883964459     Delta-E=       -0.237900671476 Rises=F Damp=F
 DIIS: error= 1.47D-02 at cycle   3 NSaved=   3.
 NSaved= 3 IEnMin= 3 EnMin= -3007.02883964459     IErMin= 2 ErrMin= 1.24D-02
 ErrMax= 1.47D-02  0.00D+00 EMaxC= 1.00D-01 BMatC= 1.34D-01 BMatP= 2.29D-01
 IDIUse=3 WtCom= 8.53D-01 WtEn= 1.47D-01
 Coeff-Com: -0.265D+00 0.642D+00 0.624D+00
 Coeff-En:   0.000D+00 0.000D+00 0.100D+01
 Coeff:     -0.227D+00 0.548D+00 0.679D+00
 Gap=     0.128 Goal=   None    Shift=    0.000
 RMSDP=4.56D-04 MaxDP=5.52D-02 DE=-2.38D-01 OVMax= 9.24D-02

 Cycle   4  Pass 1  IDiag  1:
 RMSU=  2.64D-04    CP:  9.71D-01  1.51D+00  5.62D-01
 E= -3007.11536352218     Delta-E=       -0.086523877584 Rises=F Damp=F
 DIIS: error= 6.54D-03 at cycle   4 NSaved=   4.
 NSaved= 4 IEnMin= 4 EnMin= -3007.11536352218     IErMin= 4 ErrMin= 6.54D-03
 ErrMax= 6.54D-03  0.00D+00 EMaxC= 1.00D-01 BMatC= 3.37D-02 BMatP= 1.34D-01
 IDIUse=3 WtCom= 9.35D-01 WtEn= 6.54D-02
 Coeff-Com: -0.108D+00 0.221D+00 0.407D+00 0.480D+00
 Coeff-En:   0.000D+00 0.000D+00 0.211D+00 0.789D+00
 Coeff:     -0.101D+00 0.206D+00 0.395D+00 0.500D+00
 Gap=     0.126 Goal=   None    Shift=    0.000
 RMSDP=1.69D-04 MaxDP=1.68D-02 DE=-8.65D-02 OVMax= 3.18D-02

 Cycle   5  Pass 1  IDiag  1:
 RMSU=  6.26D-05    CP:  9.71D-01  1.46D+00  7.14D-01  5.61D-01
 E= -3007.14353502207     Delta-E=       -0.028171499893 Rises=F Damp=F
 DIIS: error= 7.83D-04 at cycle   5 NSaved=   5.
 NSaved= 5 IEnMin= 5 EnMin= -3007.14353502207     IErMin= 5 ErrMin= 7.83D-04
 ErrMax= 7.83D-04  0.00D+00 EMaxC= 1.00D-01 BMatC= 5.78D-04 BMatP= 3.37D-02
 IDIUse=3 WtCom= 9.92D-01 WtEn= 7.83D-03
 Coeff-Com: -0.361D-01 0.705D-01 0.160D+00 0.236D+00 0.570D+00
 Coeff-En:   0.000D+00 0.000D+00 0.000D+00 0.000D+00 0.100D+01
 Coeff:     -0.358D-01 0.700D-01 0.159D+00 0.234D+00 0.573D+00
 Gap=     0.126 Goal=   None    Shift=    0.000
 RMSDP=3.27D-05 MaxDP=7.96D-03 DE=-2.82D-02 OVMax= 8.65D-03

 Cycle   6  Pass 1  IDiag  1:
 RMSU=  2.58D-05    CP:  9.71D-01  1.46D+00  7.13D-01  6.18D-01  7.96D-01
 E= -3007.14397898918     Delta-E=       -0.000443967110 Rises=F Damp=F
 DIIS: error= 2.91D-04 at cycle   6 NSaved=   6.
 NSaved= 6 IEnMin= 6 EnMin= -3007.14397898918     IErMin= 6 ErrMin= 2.91D-04
 ErrMax= 2.91D-04  0.00D+00 EMaxC= 1.00D-01 BMatC= 8.60D-05 BMatP= 5.78D-04
 IDIUse=3 WtCom= 9.97D-01 WtEn= 2.91D-03
 Coeff-Com:  0.226D-02-0.627D-02 0.649D-02 0.274D-01 0.297D+00 0.673D+00
 Coeff-En:   0.000D+00 0.000D+00 0.000D+00 0.000D+00 0.689D-01 0.931D+00
 Coeff:      0.225D-02-0.625D-02 0.647D-02 0.273D-01 0.297D+00 0.673D+00
 Gap=     0.126 Goal=   None    Shift=    0.000
 RMSDP=1.27D-05 MaxDP=1.60D-03 DE=-4.44D-04 OVMax= 4.76D-03

 Cycle   7  Pass 1  IDiag  1:
 RMSU=  9.14D-06    CP:  9.71D-01  1.46D+00  7.17D-01  6.20D-01  8.85D-01
                    CP:  7.70D-01
 E= -3007.14406566419     Delta-E=       -0.000086675011 Rises=F Damp=F
 DIIS: error= 7.75D-05 at cycle   7 NSaved=   7.
 NSaved= 7 IEnMin= 7 EnMin= -3007.14406566419     IErMin= 7 ErrMin= 7.75D-05
 ErrMax= 7.75D-05  0.00D+00 EMaxC= 1.00D-01 BMatC= 1.11D-05 BMatP= 8.60D-05
 IDIUse=1 WtCom= 1.00D+00 WtEn= 0.00D+00
 Coeff-Com:  0.427D-02-0.918D-02-0.103D-01-0.838D-02 0.890D-01 0.338D+00
 Coeff-Com:  0.597D+00
 Coeff:      0.427D-02-0.918D-02-0.103D-01-0.838D-02 0.890D-01 0.338D+00
 Coeff:      0.597D+00
 Gap=     0.126 Goal=   None    Shift=    0.000
 RMSDP=6.63D-06 MaxDP=2.02D-03 DE=-8.67D-05 OVMax= 2.98D-03

 Cycle   8  Pass 1  IDiag  1:
 RMSU=  4.36D-06    CP:  9.71D-01  1.46D+00  7.18D-01  6.25D-01  9.00D-01
                    CP:  9.39D-01  8.66D-01
 E= -3007.14408005091     Delta-E=       -0.000014386715 Rises=F Damp=F
 DIIS: error= 3.95D-05 at cycle   8 NSaved=   8.
 NSaved= 8 IEnMin= 8 EnMin= -3007.14408005091     IErMin= 8 ErrMin= 3.95D-05
 ErrMax= 3.95D-05  0.00D+00 EMaxC= 1.00D-01 BMatC= 2.41D-06 BMatP= 1.11D-05
 IDIUse=1 WtCom= 1.00D+00 WtEn= 0.00D+00
 Coeff-Com:  0.211D-02-0.411D-02-0.794D-02-0.127D-01-0.244D-01 0.332D-01
 Coeff-Com:  0.334D+00 0.680D+00
 Coeff:      0.211D-02-0.411D-02-0.794D-02-0.127D-01-0.244D-01 0.332D-01
 Coeff:      0.334D+00 0.680D+00
 Gap=     0.126 Goal=   None    Shift=    0.000
 RMSDP=3.02D-06 MaxDP=3.16D-04 DE=-1.44D-05 OVMax= 1.84D-03

 Cycle   9  Pass 1  IDiag  1:
 RMSU=  1.95D-06    CP:  9.71D-01  1.46D+00  7.19D-01  6.26D-01  9.17D-01
                    CP:  9.62D-01  1.08D+00  1.01D+00
 E= -3007.14408524759     Delta-E=       -0.000005196680 Rises=F Damp=F
 DIIS: error= 1.74D-05 at cycle   9 NSaved=   9.
 NSaved= 9 IEnMin= 9 EnMin= -3007.14408524759     IErMin= 9 ErrMin= 1.74D-05
 ErrMax= 1.74D-05  0.00D+00 EMaxC= 1.00D-01 BMatC= 4.39D-07 BMatP= 2.41D-06
 IDIUse=1 WtCom= 1.00D+00 WtEn= 0.00D+00
 Coeff-Com:  0.261D-03-0.373D-03-0.185D-02-0.459D-02-0.274D-01-0.422D-01
 Coeff-Com:  0.569D-01 0.330D+00 0.689D+00
 Coeff:      0.261D-03-0.373D-03-0.185D-02-0.459D-02-0.274D-01-0.422D-01
 Coeff:      0.569D-01 0.330D+00 0.689D+00
 Gap=     0.126 Goal=   None    Shift=    0.000
 RMSDP=1.79D-06 MaxDP=3.29D-04 DE=-5.20D-06 OVMax= 1.05D-03

 Cycle  10  Pass 1  IDiag  1:
 RMSU=  9.27D-07    CP:  9.71D-01  1.46D+00  7.19D-01  6.27D-01  9.20D-01
                    CP:  9.91D-01  1.15D+00  1.25D+00  1.19D+00
 E= -3007.14408678987     Delta-E=       -0.000001542285 Rises=F Damp=F
 DIIS: error= 1.08D-05 at cycle  10 NSaved=  10.
 NSaved=10 IEnMin=10 EnMin= -3007.14408678987     IErMin=10 ErrMin= 1.08D-05
 ErrMax= 1.08D-05  0.00D+00 EMaxC= 1.00D-01 BMatC= 1.17D-07 BMatP= 4.39D-07
 IDIUse=1 WtCom= 1.00D+00 WtEn= 0.00D+00
 Coeff-Com: -0.667D-03 0.136D-02 0.213D-02 0.250D-02-0.523D-02-0.361D-01
 Coeff-Com: -0.979D-01-0.815D-01 0.298D+00 0.917D+00
 Coeff:     -0.667D-03 0.136D-02 0.213D-02 0.250D-02-0.523D-02-0.361D-01
 Coeff:     -0.979D-01-0.815D-01 0.298D+00 0.917D+00
 Gap=     0.126 Goal=   None    Shift=    0.000
 RMSDP=1.61D-06 MaxDP=2.24D-04 DE=-1.54D-06 OVMax= 9.90D-04

 Cycle  11  Pass 1  IDiag  1:
 RMSU=  5.39D-07    CP:  9.71D-01  1.46D+00  7.19D-01  6.28D-01  9.25D-01
                    CP:  1.01D+00  1.23D+00  1.42D+00  1.62D+00  1.38D+00
 E= -3007.14408760382     Delta-E=       -0.000000813950 Rises=F Damp=F
 DIIS: error= 6.70D-06 at cycle  11 NSaved=  11.
 NSaved=11 IEnMin=11 EnMin= -3007.14408760382     IErMin=11 ErrMin= 6.70D-06
 ErrMax= 6.70D-06  0.00D+00 EMaxC= 1.00D-01 BMatC= 3.64D-08 BMatP= 1.17D-07
 IDIUse=1 WtCom= 1.00D+00 WtEn= 0.00D+00
 Coeff-Com: -0.366D-03 0.708D-03 0.149D-02 0.249D-02 0.547D-02-0.411D-02
 Coeff-Com: -0.581D-01-0.128D+00-0.657D-01 0.450D+00 0.796D+00
 Coeff:     -0.366D-03 0.708D-03 0.149D-02 0.249D-02 0.547D-02-0.411D-02
 Coeff:     -0.581D-01-0.128D+00-0.657D-01 0.450D+00 0.796D+00
 Gap=     0.126 Goal=   None    Shift=    0.000
 RMSDP=8.69D-07 MaxDP=8.37D-05 DE=-8.14D-07 OVMax= 5.46D-04

 Cycle  12  Pass 1  IDiag  1:
 RMSU=  2.74D-07    CP:  9.71D-01  1.46D+00  7.19D-01  6.28D-01  9.26D-01
                    CP:  1.02D+00  1.25D+00  1.53D+00  1.84D+00  1.82D+00
                    CP:  1.15D+00
 E= -3007.14408782841     Delta-E=       -0.000000224592 Rises=F Damp=F
 DIIS: error= 3.15D-06 at cycle  12 NSaved=  12.
 NSaved=12 IEnMin=12 EnMin= -3007.14408782841     IErMin=12 ErrMin= 3.15D-06
 ErrMax= 3.15D-06  0.00D+00 EMaxC= 1.00D-01 BMatC= 1.11D-08 BMatP= 3.64D-08
 IDIUse=1 WtCom= 1.00D+00 WtEn= 0.00D+00
 Coeff-Com:  0.934D-05-0.357D-04 0.116D-03 0.490D-03 0.358D-02 0.725D-02
 Coeff-Com:  0.284D-02-0.382D-01-0.108D+00-0.898D-01 0.346D+00 0.876D+00
 Coeff:      0.934D-05-0.357D-04 0.116D-03 0.490D-03 0.358D-02 0.725D-02
 Coeff:      0.284D-02-0.382D-01-0.108D+00-0.898D-01 0.346D+00 0.876D+00
 Gap=     0.126 Goal=   None    Shift=    0.000
 RMSDP=5.16D-07 MaxDP=3.67D-05 DE=-2.25D-07 OVMax= 2.99D-04

 Cycle  13  Pass 1  IDiag  1:
 RMSU=  1.42D-07    CP:  9.71D-01  1.46D+00  7.19D-01  6.28D-01  9.27D-01
                    CP:  1.02D+00  1.27D+00  1.58D+00  1.98D+00  2.06D+00
                    CP:  1.50D+00  1.23D+00
 E= -3007.14408788637     Delta-E=       -0.000000057958 Rises=F Damp=F
 DIIS: error= 2.02D-06 at cycle  13 NSaved=  13.
 NSaved=13 IEnMin=13 EnMin= -3007.14408788637     IErMin=13 ErrMin= 2.02D-06
 ErrMax= 2.02D-06  0.00D+00 EMaxC= 1.00D-01 BMatC= 2.54D-09 BMatP= 1.11D-08
 IDIUse=1 WtCom= 1.00D+00 WtEn= 0.00D+00
 Coeff-Com:  0.117D-03-0.236D-03-0.392D-03-0.474D-03 0.224D-03 0.478D-02
 Coeff-Com:  0.206D-01 0.170D-01-0.270D-01-0.175D+00-0.215D-01 0.438D+00
 Coeff-Com:  0.743D+00
 Coeff:      0.117D-03-0.236D-03-0.392D-03-0.474D-03 0.224D-03 0.478D-02
 Coeff:      0.206D-01 0.170D-01-0.270D-01-0.175D+00-0.215D-01 0.438D+00
 Coeff:      0.743D+00
 Gap=     0.126 Goal=   None    Shift=    0.000
 RMSDP=1.71D-07 MaxDP=1.38D-05 DE=-5.80D-08 OVMax= 1.18D-04

 Cycle  14  Pass 1  IDiag  1:
 RMSU=  7.08D-08    CP:  9.71D-01  1.46D+00  7.19D-01  6.28D-01  9.26D-01
                    CP:  1.02D+00  1.27D+00  1.59D+00  2.01D+00  2.14D+00
                    CP:  1.62D+00  1.54D+00  9.04D-01
 E= -3007.14408789504     Delta-E=       -0.000000008666 Rises=F Damp=F
 DIIS: error= 6.92D-07 at cycle  14 NSaved=  14.
 NSaved=14 IEnMin=14 EnMin= -3007.14408789504     IErMin=14 ErrMin= 6.92D-07
 ErrMax= 6.92D-07  0.00D+00 EMaxC= 1.00D-01 BMatC= 8.42D-10 BMatP= 2.54D-09
 IDIUse=1 WtCom= 1.00D+00 WtEn= 0.00D+00
 Coeff-Com:  0.678D-04-0.134D-03-0.254D-03-0.359D-03-0.441D-03 0.148D-02
 Coeff-Com:  0.120D-01 0.147D-01 0.258D-02-0.943D-01-0.634D-01 0.974D-01
 Coeff-Com:  0.435D+00 0.596D+00
 Coeff:      0.678D-04-0.134D-03-0.254D-03-0.359D-03-0.441D-03 0.148D-02
 Coeff:      0.120D-01 0.147D-01 0.258D-02-0.943D-01-0.634D-01 0.974D-01
 Coeff:      0.435D+00 0.596D+00
 Gap=     0.126 Goal=   None    Shift=    0.000
 RMSDP=7.38D-08 MaxDP=5.63D-06 DE=-8.67D-09 OVMax= 4.25D-05

 Cycle  15  Pass 1  IDiag  1:
 RMSU=  3.29D-08    CP:  9.71D-01  1.46D+00  7.19D-01  6.28D-01  9.27D-01
                    CP:  1.02D+00  1.28D+00  1.59D+00  2.02D+00  2.17D+00
                    CP:  1.68D+00  1.61D+00  1.12D+00  9.46D-01
 E= -3007.14408789688     Delta-E=       -0.000000001844 Rises=F Damp=F
 DIIS: error= 3.60D-07 at cycle  15 NSaved=  15.
 NSaved=15 IEnMin=15 EnMin= -3007.14408789688     IErMin=15 ErrMin= 3.60D-07
 ErrMax= 3.60D-07  0.00D+00 EMaxC= 1.00D-01 BMatC= 1.27D-10 BMatP= 8.42D-10
 IDIUse=1 WtCom= 1.00D+00 WtEn= 0.00D+00
 Coeff-Com:  0.151D-05-0.157D-05-0.170D-04-0.417D-04-0.219D-03-0.601D-03
 Coeff-Com:  0.722D-03 0.100D-02 0.955D-02-0.282D-02-0.135D-01-0.675D-01
 Coeff-Com:  0.178D-01 0.231D+00 0.824D+00
 Coeff:      0.151D-05-0.157D-05-0.170D-04-0.417D-04-0.219D-03-0.601D-03
 Coeff:      0.722D-03 0.100D-02 0.955D-02-0.282D-02-0.135D-01-0.675D-01
 Coeff:      0.178D-01 0.231D+00 0.824D+00
 Gap=     0.126 Goal=   None    Shift=    0.000
 RMSDP=3.66D-08 MaxDP=2.63D-06 DE=-1.84D-09 OVMax= 2.43D-05

 Cycle  16  Pass 1  IDiag  1:
 RMSU=  1.77D-08    CP:  9.71D-01  1.46D+00  7.19D-01  6.28D-01  9.27D-01
                    CP:  1.02D+00  1.28D+00  1.60D+00  2.03D+00  2.18D+00
                    CP:  1.70D+00  1.66D+00  1.18D+00  1.23D+00  1.27D+00
 E= -3007.14408789749     Delta-E=       -0.000000000608 Rises=F Damp=F
 DIIS: error= 2.62D-07 at cycle  16 NSaved=  16.
 NSaved=16 IEnMin=16 EnMin= -3007.14408789749     IErMin=16 ErrMin= 2.62D-07
 ErrMax= 2.62D-07  0.00D+00 EMaxC= 1.00D-01 BMatC= 5.07D-11 BMatP= 1.27D-10
 IDIUse=1 WtCom= 1.00D+00 WtEn= 0.00D+00
 Coeff-Com: -0.155D-04 0.312D-04 0.524D-04 0.652D-04 0.191D-04-0.662D-03
 Coeff-Com: -0.229D-02-0.377D-02 0.496D-02 0.184D-01 0.139D-01-0.548D-01
 Coeff-Com: -0.975D-01-0.586D-01 0.394D+00 0.786D+00
 Coeff:     -0.155D-04 0.312D-04 0.524D-04 0.652D-04 0.191D-04-0.662D-03
 Coeff:     -0.229D-02-0.377D-02 0.496D-02 0.184D-01 0.139D-01-0.548D-01
 Coeff:     -0.975D-01-0.586D-01 0.394D+00 0.786D+00
 Gap=     0.126 Goal=   None    Shift=    0.000
 RMSDP=2.25D-08 MaxDP=1.76D-06 DE=-6.08D-10 OVMax= 1.37D-05

 Cycle  17  Pass 1  IDiag  1:
 RMSU=  8.85D-09    CP:  9.71D-01  1.46D+00  7.19D-01  6.28D-01  9.27D-01
                    CP:  1.02D+00  1.28D+00  1.60D+00  2.03D+00  2.19D+00
                    CP:  1.70D+00  1.68D+00  1.23D+00  1.36D+00  1.67D+00
                    CP:  1.40D+00
 E= -3007.14408789776     Delta-E=       -0.000000000275 Rises=F Damp=F
 DIIS: error= 1.23D-07 at cycle  17 NSaved=  17.
 NSaved=17 IEnMin=17 EnMin= -3007.14408789776     IErMin=17 ErrMin= 1.23D-07
 ErrMax= 1.23D-07  0.00D+00 EMaxC= 1.00D-01 BMatC= 1.47D-11 BMatP= 5.07D-11
 IDIUse=1 WtCom= 1.00D+00 WtEn= 0.00D+00
 Coeff-Com: -0.579D-05 0.112D-04 0.235D-04 0.350D-04 0.961D-04-0.518D-04
 Coeff-Com: -0.869D-03-0.214D-02-0.156D-03 0.624D-02 0.129D-01 0.157D-02
 Coeff-Com: -0.452D-01-0.118D+00-0.116D+00 0.300D+00 0.961D+00
 Coeff:     -0.579D-05 0.112D-04 0.235D-04 0.350D-04 0.961D-04-0.518D-04
 Coeff:     -0.869D-03-0.214D-02-0.156D-03 0.624D-02 0.129D-01 0.157D-02
 Coeff:     -0.452D-01-0.118D+00-0.116D+00 0.300D+00 0.961D+00
 Gap=     0.126 Goal=   None    Shift=    0.000
 RMSDP=1.87D-08 MaxDP=1.60D-06 DE=-2.75D-10 OVMax= 1.33D-05

 Cycle  18  Pass 1  IDiag  1:
 RMSU=  4.79D-09    CP:  9.71D-01  1.46D+00  7.19D-01  6.28D-01  9.27D-01
                    CP:  1.02D+00  1.28D+00  1.60D+00  2.03D+00  2.19D+00
                    CP:  1.71D+00  1.69D+00  1.26D+00  1.49D+00  1.97D+00
                    CP:  1.96D+00  1.41D+00
 E= -3007.14408789773     Delta-E=        0.000000000031 Rises=F Damp=F
 DIIS: error= 8.19D-08 at cycle  18 NSaved=  18.
 NSaved=18 IEnMin=17 EnMin= -3007.14408789776     IErMin=18 ErrMin= 8.19D-08
 ErrMax= 8.19D-08  0.00D+00 EMaxC= 1.00D-01 BMatC= 5.53D-12 BMatP= 1.47D-11
 IDIUse=1 WtCom= 1.00D+00 WtEn= 0.00D+00
 Coeff-Com:  0.313D-05-0.658D-05-0.903D-05-0.831D-05 0.528D-04 0.233D-03
 Coeff-Com:  0.560D-03 0.201D-03-0.191D-02-0.564D-02 0.189D-02 0.232D-01
 Coeff-Com:  0.163D-01-0.402D-01-0.210D+00-0.198D+00 0.511D+00 0.902D+00
 Coeff:      0.313D-05-0.658D-05-0.903D-05-0.831D-05 0.528D-04 0.233D-03
 Coeff:      0.560D-03 0.201D-03-0.191D-02-0.564D-02 0.189D-02 0.232D-01
 Coeff:      0.163D-01-0.402D-01-0.210D+00-0.198D+00 0.511D+00 0.902D+00
 Gap=     0.126 Goal=   None    Shift=    0.000
 RMSDP=1.35D-08 MaxDP=1.14D-06 DE= 3.09D-11 OVMax= 8.22D-06

 Cycle  19  Pass 1  IDiag  1:
 RMSU=  2.40D-09    CP:  9.71D-01  1.46D+00  7.19D-01  6.28D-01  9.27D-01
                    CP:  1.02D+00  1.28D+00  1.60D+00  2.03D+00  2.19D+00
                    CP:  1.71D+00  1.69D+00  1.28D+00  1.57D+00  2.19D+00
                    CP:  2.37D+00  1.95D+00  1.18D+00
 E= -3007.14408789780     Delta-E=       -0.000000000071 Rises=F Damp=F
 DIIS: error= 2.22D-08 at cycle  19 NSaved=  19.
 NSaved=19 IEnMin=19 EnMin= -3007.14408789780     IErMin=19 ErrMin= 2.22D-08
 ErrMax= 2.22D-08  0.00D+00 EMaxC= 1.00D-01 BMatC= 6.80D-13 BMatP= 5.53D-12
 IDIUse=1 WtCom= 1.00D+00 WtEn= 0.00D+00
 Coeff-Com:  0.288D-05-0.578D-05-0.102D-04-0.127D-04 0.332D-05 0.115D-03
 Coeff-Com:  0.500D-03 0.595D-03-0.658D-03-0.425D-02-0.183D-02 0.102D-01
 Coeff-Com:  0.174D-01 0.831D-02-0.653D-01-0.154D+00 0.504D-01 0.399D+00
 Coeff-Com:  0.739D+00
 Coeff:      0.288D-05-0.578D-05-0.102D-04-0.127D-04 0.332D-05 0.115D-03
 Coeff:      0.500D-03 0.595D-03-0.658D-03-0.425D-02-0.183D-02 0.102D-01
 Coeff:      0.174D-01 0.831D-02-0.653D-01-0.154D+00 0.504D-01 0.399D+00
 Coeff:      0.739D+00
 Gap=     0.126 Goal=   None    Shift=    0.000
 RMSDP=3.34D-09 MaxDP=3.16D-07 DE=-7.09D-11 OVMax= 2.43D-06

 SCF Done:  E(RCAM-B3LYP) =  -3007.14408790     A.U. after   19 cycles
            NFock= 19  Conv=0.33D-08     -V/T= 2.0107
 KE= 2.975254362688D+03 PE=-2.582833468708D+04 EE= 1.042749738304D+04
 Leave Link  502 at Sat Apr 30 08:40:59 2022, MaxMem= 10066329600 cpu:            8720.5 elap:             380.5
 (Enter /sw/apps/gaussian-16.0/g16/l801.exe)
 DoSCS=F DFT=T ScalE2(SS,OS)=  1.000000  1.000000
 ExpMin= 3.36D-02 ExpMax= 4.95D+03 ExpMxC= 7.45D+02 IAcc=3 IRadAn=         5 AccDes= 0.00D+00
 HarFok:  IExCor=  205 AccDes= 0.00D+00 IRadAn=         5 IDoV=-2 UseB2=F ITyADJ=14
 ICtDFT= 12500011 ScaDFX=  1.000000  1.000000  1.000000  1.000000
 GSVD:  LWork=       -5460 too small for GESVD, short by       25550 words or       25550 for optimal perf.
 Largest valence mixing into a core orbital is  1.40D-04
 Largest core mixing into a valence orbital is  4.87D-05
 Range of M.O.s used for correlation:    71  1298
 NBasis=  1298 NAE=   246 NBE=   246 NFC=    70 NFV=     0
 NROrb=   1228 NOA=   176 NOB=   176 NVA=  1052 NVB=  1052
 Leave Link  801 at Sat Apr 30 08:40:59 2022, MaxMem= 10066329600 cpu:               7.6 elap:               0.4
 (Enter /sw/apps/gaussian-16.0/g16/l914.exe)
 RHF ground state
 Two-electron integrals replicated using symmetry.
 MDV= 10066329600 DFT=T DoStab=F Mixed=T DoRPA=T DoScal=F NonHer=T
 Making orbital integer symmetry assigments:
 Orbital symmetries:
       Occupied  (A) (A) (A) (A) (A) (A) (A) (A) (A) (A) (A) (A)
                 (A) (A) (A) (A) (A) (A) (A) (A) (A) (A) (A) (A)
                 (A) (A) (A) (A) (A) (A) (A) (A) (A) (A) (A) (A)
                 (A) (A) (A) (A) (A) (A) (A) (A) (A) (A) (A) (A)
                 (A) (A) (A) (A) (A) (A) (A) (A) (A) (A) (A) (A)
                 (A) (A) (A) (A) (A) (A) (A) (A) (A) (A) (A) (A)
                 (A) (A) (A) (A) (A) (A) (A) (A) (A) (A) (A) (A)
                 (A) (A) (A) (A) (A) (A) (A) (A) (A) (A) (A) (A)
                 (A) (A) (A) (A) (A) (A) (A) (A) (A) (A) (A) (A)
                 (A) (A) (A) (A) (A) (A) (A) (A) (A) (A) (A) (A)
                 (A) (A) (A) (A) (A) (A) (A) (A) (A) (A) (A) (A)
                 (A) (A) (A) (A) (A) (A) (A) (A) (A) (A) (A) (A)
                 (A) (A) (A) (A) (A) (A) (A) (A) (A) (A) (A) (A)
                 (A) (A) (A) (A) (A) (A) (A) (A) (A) (A) (A) (A)
                 (A) (A) (A) (A) (A) (A) (A) (A) (A) (A) (A) (A)
                 (A) (A) (A) (A) (A) (A) (A) (A) (A) (A) (A) (A)
                 (A) (A) (A) (A) (A) (A) (A) (A) (A) (A) (A) (A)
                 (A) (A) (A) (A) (A) (A) (A) (A) (A) (A) (A) (A)
                 (A) (A) (A) (A) (A) (A) (A) (A) (A) (A) (A) (A)
                 (A) (A) (A) (A) (A) (A) (A) (A) (A) (A) (A) (A)
                 (A) (A) (A) (A) (A) (A)
       Virtual   (A) (A) (A) (A) (A) (A) (A) (A) (A) (A) (A) (A)
                 (A) (A) (A) (A) (A) (A) (A) (A) (A) (A) (A) (A)
                 (A) (A) (A) (A) (A) (A) (A) (A) (A) (A) (A) (A)
                 (A) (A) (A) (A) (A) (A) (A) (A) (A) (A) (A) (A)
                 (A) (A) (A) (A) (A) (A) (A) (A) (A) (A) (A) (A)
                 (A) (A) (A) (A) (A) (A) (A) (A) (A) (A) (A) (A)
                 (A) (A) (A) (A) (A) (A) (A) (A) (A) (A) (A) (A)
                 (A) (A) (A) (A) (A) (A) (A) (A) (A) (A) (A) (A)
                 (A) (A) (A) (A) (A) (A) (A) (A) (A) (A) (A) (A)
                 (A) (A) (A) (A) (A) (A) (A) (A) (A) (A) (A) (A)
                 (A) (A) (A) (A) (A) (A) (A) (A) (A) (A) (A) (A)
                 (A) (A) (A) (A) (A) (A) (A) (A) (A) (A) (A) (A)
                 (A) (A) (A) (A) (A) (A) (A) (A) (A) (A) (A) (A)
                 (A) (A) (A) (A) (A) (A) (A) (A) (A) (A) (A) (A)
                 (A) (A) (A) (A) (A) (A) (A) (A) (A) (A) (A) (A)
                 (A) (A) (A) (A) (A) (A) (A) (A) (A) (A) (A) (A)
                 (A) (A) (A) (A) (A) (A) (A) (A) (A) (A) (A) (A)
                 (A) (A) (A) (A) (A) (A) (A) (A) (A) (A) (A) (A)
                 (A) (A) (A) (A) (A) (A) (A) (A) (A) (A) (A) (A)
                 (A) (A) (A) (A) (A) (A) (A) (A) (A) (A) (A) (A)
                 (A) (A) (A) (A) (A) (A) (A) (A) (A) (A) (A) (A)
                 (A) (A) (A) (A) (A) (A) (A) (A) (A) (A) (A) (A)
                 (A) (A) (A) (A) (A) (A) (A) (A) (A) (A) (A) (A)
                 (A) (A) (A) (A) (A) (A) (A) (A) (A) (A) (A) (A)
                 (A) (A) (A) (A) (A) (A) (A) (A) (A) (A) (A) (A)
                 (A) (A) (A) (A) (A) (A) (A) (A) (A) (A) (A) (A)
                 (A) (A) (A) (A) (A) (A) (A) (A) (A) (A) (A) (A)
                 (A) (A) (A) (A) (A) (A) (A) (A) (A) (A) (A) (A)
                 (A) (A) (A) (A) (A) (A) (A) (A) (A) (A) (A) (A)
                 (A) (A) (A) (A) (A) (A) (A) (A) (A) (A) (A) (A)
                 (A) (A) (A) (A) (A) (A) (A) (A) (A) (A) (A) (A)
                 (A) (A) (A) (A) (A) (A) (A) (A) (A) (A) (A) (A)
                 (A) (A) (A) (A) (A) (A) (A) (A) (A) (A) (A) (A)
                 (A) (A) (A) (A) (A) (A) (A) (A) (A) (A) (A) (A)
                 (A) (A) (A) (A) (A) (A) (A) (A) (A) (A) (A) (A)
                 (A) (A) (A) (A) (A) (A) (A) (A) (A) (A) (A) (A)
                 (A) (A) (A) (A) (A) (A) (A) (A) (A) (A) (A) (A)
                 (A) (A) (A) (A) (A) (A) (A) (A) (A) (A) (A) (A)
                 (A) (A) (A) (A) (A) (A) (A) (A) (A) (A) (A) (A)
                 (A) (A) (A) (A) (A) (A) (A) (A) (A) (A) (A) (A)
                 (A) (A) (A) (A) (A) (A) (A) (A) (A) (A) (A) (A)
                 (A) (A) (A) (A) (A) (A) (A) (A) (A) (A) (A) (A)
                 (A) (A) (A) (A) (A) (A) (A) (A) (A) (A) (A) (A)
                 (A) (A) (A) (A) (A) (A) (A) (A) (A) (A) (A) (A)
                 (A) (A) (A) (A) (A) (A) (A) (A) (A) (A) (A) (A)
                 (A) (A) (A) (A) (A) (A) (A) (A) (A) (A) (A) (A)
                 (A) (A) (A) (A) (A) (A) (A) (A) (A) (A) (A) (A)
                 (A) (A) (A) (A) (A) (A) (A) (A) (A) (A) (A) (A)
                 (A) (A) (A) (A) (A) (A) (A) (A) (A) (A) (A) (A)
                 (A) (A) (A) (A) (A) (A) (A) (A) (A) (A) (A) (A)
                 (A) (A) (A) (A) (A) (A) (A) (A) (A) (A) (A) (A)
                 (A) (A) (A) (A) (A) (A) (A) (A) (A) (A) (A) (A)
                 (A) (A) (A) (A) (A) (A) (A) (A) (A) (A) (A) (A)
                 (A) (A) (A) (A) (A) (A) (A) (A) (A) (A) (A) (A)
                 (A) (A) (A) (A) (A) (A) (A) (A) (A) (A) (A) (A)
                 (A) (A) (A) (A) (A) (A) (A) (A) (A) (A) (A) (A)
                 (A) (A) (A) (A) (A) (A) (A) (A) (A) (A) (A) (A)
                 (A) (A) (A) (A) (A) (A) (A) (A) (A) (A) (A) (A)
                 (A) (A) (A) (A) (A) (A) (A) (A) (A) (A) (A) (A)
                 (A) (A) (A) (A) (A) (A) (A) (A) (A) (A) (A) (A)
                 (A) (A) (A) (A) (A) (A) (A) (A) (A) (A) (A) (A)
                 (A) (A) (A) (A) (A) (A) (A) (A) (A) (A) (A) (A)
                 (A) (A) (A) (A) (A) (A) (A) (A) (A) (A) (A) (A)
                 (A) (A) (A) (A) (A) (A) (A) (A) (A) (A) (A) (A)
                 (A) (A) (A) (A) (A) (A) (A) (A) (A) (A) (A) (A)
                 (A) (A) (A) (A) (A) (A) (A) (A) (A) (A) (A) (A)
                 (A) (A) (A) (A) (A) (A) (A) (A) (A) (A) (A) (A)
                 (A) (A) (A) (A) (A) (A) (A) (A) (A) (A) (A) (A)
                 (A) (A) (A) (A) (A) (A) (A) (A) (A) (A) (A) (A)
                 (A) (A) (A) (A) (A) (A) (A) (A) (A) (A) (A) (A)
                 (A) (A) (A) (A) (A) (A) (A) (A) (A) (A) (A) (A)
                 (A) (A) (A) (A) (A) (A) (A) (A) (A) (A) (A) (A)
                 (A) (A) (A) (A) (A) (A) (A) (A) (A) (A) (A) (A)
                 (A) (A) (A) (A) (A) (A) (A) (A) (A) (A) (A) (A)
                 (A) (A) (A) (A) (A) (A) (A) (A) (A) (A) (A) (A)
                 (A) (A) (A) (A) (A) (A) (A) (A) (A) (A) (A) (A)
                 (A) (A) (A) (A) (A) (A) (A) (A) (A) (A) (A) (A)
                 (A) (A) (A) (A) (A) (A) (A) (A) (A) (A) (A) (A)
                 (A) (A) (A) (A) (A) (A) (A) (A) (A) (A) (A) (A)
                 (A) (A) (A) (A) (A) (A) (A) (A) (A) (A) (A) (A)
                 (A) (A) (A) (A) (A) (A) (A) (A) (A) (A) (A) (A)
                 (A) (A) (A) (A) (A) (A) (A) (A) (A) (A) (A) (A)
                 (A) (A) (A) (A) (A) (A) (A) (A) (A) (A) (A) (A)
                 (A) (A) (A) (A) (A) (A) (A) (A) (A) (A) (A) (A)
                 (A) (A) (A) (A) (A) (A) (A) (A) (A) (A) (A) (A)
                 (A) (A) (A) (A) (A) (A) (A) (A) (A) (A) (A) (A)
                 (A) (A) (A) (A) (A) (A) (A) (A) (A) (A) (A) (A)
                 (A) (A) (A) (A) (A) (A) (A) (A)
    20 initial guesses have been made.
 Convergence on wavefunction:    0.001000000000000
 Davidson Disk Diagonalization:  ConvIn= 1.00D-03 SkipCon=T Conv= 1.00D-03.
 Max sub-space:  2000 roots to seek:    20 dimension of matrix:       370304
 Iteration     1 Dimension    20 NMult     0 NNew     20
 CISAX will form    20 AO SS matrices at one time.
 NMat=    20 NSing=    20 JSym2X= 0.
 FoFJK:  IHMeth= 1 ICntrl=       0 DoSepK=T KAlg= 0 I1Cent=           0 FoldK=F
 IRaf=         1 NMat=      40 IRICut=       1 DoRegI=T DoRafI=F ISym2E= 0 IDoP0=3 IntGTp=3.
 FoFCou: FMM=T IPFlag=           0 FMFlag=      100000 FMFlg1=        2001
         NFxFlg=           0 DoJE=F BraDBF=F KetDBF=F FulRan=T
         wScrn=  0.000000 ICntrl=       500 IOpCl=  0 I1Cent=           0 NGrid=           0
         NMat0=   20 NMatS0=     20 NMatT0=    0 NMatD0=   20 NMtDS0=    0 NMtDT0=    0
 Symmetry not used in FoFCou.
 FMM levels:  10  Number of levels for PrismC:   9
 New state      3 was old state      5
 New state      4 was old state      3
 New state      5 was old state      9
 Excitation Energies [eV] at current iteration:
 Root      1 :     2.218311848733657
 Root      2 :     2.644579890515953
 Root      3 :     3.824054504993652
 Root      4 :     4.062068704363694
 Root      5 :     4.202033335723077
 Root      6 :     4.248480277379207
 Root      7 :     4.392189373809487
 Root      8 :     4.411168367008270
 Root      9 :     4.421980550142449
 Root     10 :     4.479233062771547
 Root     11 :     4.581372583409442
 Root     12 :     4.802278429374161
 Root     13 :     4.916547736303060
 Root     14 :     4.931675476413407
 Root     15 :     5.071819144706044
 Root     16 :     5.163190352886085
 Root     17 :     5.316164557159791
 Root     18 :     5.369495588313490
 Root     19 :     5.871314369079144
 Root     20 :     6.393970080643836
 Iteration     2 Dimension    30 NMult    20 NNew     10
 CISAX will form    10 AO SS matrices at one time.
 NMat=    10 NSing=    10 JSym2X= 0.
 Root      1 not converged, maximum delta is    0.068632837929110
 Root      2 not converged, maximum delta is    0.062814705916607
 Root      3 not converged, maximum delta is    0.043277869232628
 Root      4 not converged, maximum delta is    0.095927870295062
 Root      5 not converged, maximum delta is    0.236780716604851
 Excitation Energies [eV] at current iteration:
 Root      1 :     1.767090985415595   Change is   -0.451220863318062
 Root      2 :     2.246406536749506   Change is   -0.398173353766448
 Root      3 :     3.478360018433052   Change is   -0.345694486560600
 Root      4 :     3.581780127004068   Change is   -0.480288577359626
 Root      5 :     3.768227509595124   Change is   -0.433805826127953
 Iteration     3 Dimension    40 NMult    30 NNew     10
 CISAX will form    10 AO SS matrices at one time.
 NMat=    10 NSing=    10 JSym2X= 0.
 Root      1 not converged, maximum delta is    0.015855351832813
 Root      2 not converged, maximum delta is    0.011066620951096
 Root      3 not converged, maximum delta is    0.036791987420393
 Root      4 not converged, maximum delta is    0.060027206818478
 Root      5 not converged, maximum delta is    0.101444936034328
 Excitation Energies [eV] at current iteration:
 Root      1 :     1.735408954250180   Change is   -0.031682031165415
 Root      2 :     2.225424135276641   Change is   -0.020982401472864
 Root      3 :     3.462466686721962   Change is   -0.015893331711090
 Root      4 :     3.524692111773319   Change is   -0.057088015230749
 Root      5 :     3.629895719310968   Change is   -0.138331790284157
 Iteration     4 Dimension    50 NMult    40 NNew     10
 CISAX will form    10 AO SS matrices at one time.
 NMat=    10 NSing=    10 JSym2X= 0.
 Root      1 not converged, maximum delta is    0.002801739033438
 Root      2 not converged, maximum delta is    0.002302935833027
 Root      3 not converged, maximum delta is    0.008523953345067
 Root      4 not converged, maximum delta is    0.022008909831227
 Root      5 not converged, maximum delta is    0.037257976302227
 Excitation Energies [eV] at current iteration:
 Root      1 :     1.731676109180274   Change is   -0.003732845069906
 Root      2 :     2.222609984254193   Change is   -0.002814151022448
 Root      3 :     3.458852224359628   Change is   -0.003614462362334
 Root      4 :     3.515364726453108   Change is   -0.009327385320210
 Root      5 :     3.612205871828142   Change is   -0.017689847482825
 Iteration     5 Dimension    60 NMult    50 NNew     10
 CISAX will form    10 AO SS matrices at one time.
 NMat=    10 NSing=    10 JSym2X= 0.
 Root      1 not converged, maximum delta is    0.001026406177079
 Root      2 has converged.
 Root      3 not converged, maximum delta is    0.003437691175918
 Root      4 not converged, maximum delta is    0.004444267561664
 Root      5 not converged, maximum delta is    0.010649067257724
 Excitation Energies [eV] at current iteration:
 Root      1 :     1.731351996246596   Change is   -0.000324112933678
 Root      2 :     2.222396904925859   Change is   -0.000213079328333
 Root      3 :     3.458374538733862   Change is   -0.000477685625765
 Root      4 :     3.514001222335797   Change is   -0.001363504117311
 Root      5 :     3.609442413604084   Change is   -0.002763458224059
 Iteration     6 Dimension    68 NMult    60 NNew      8
 CISAX will form     8 AO SS matrices at one time.
 NMat=     8 NSing=     8 JSym2X= 0.
 Root      1 has converged.
 Root      2 has converged.
 Root      3 has converged.
 Root      4 not converged, maximum delta is    0.005987296314834
 Root      5 not converged, maximum delta is    0.004730529047103
 Excitation Energies [eV] at current iteration:
 Root      1 :     1.731321356047087   Change is   -0.000030640199508
 Root      2 :     2.222393992537431   Change is   -0.000002912388429
 Root      3 :     3.458315944654571   Change is   -0.000058594079292
 Root      4 :     3.513504537870421   Change is   -0.000496684465376
 Root      5 :     3.608836323474763   Change is   -0.000606090129321
 Iteration     7 Dimension    72 NMult    68 NNew      4
 CISAX will form     4 AO SS matrices at one time.
 NMat=     4 NSing=     4 JSym2X= 0.
 Root      1 has converged.
 Root      2 has converged.
 Root      3 has converged.
 Root      4 not converged, maximum delta is    0.009359061211322
 Root      5 not converged, maximum delta is    0.001592819834295
 Excitation Energies [eV] at current iteration:
 Root      1 :     1.731321128722520   Change is   -0.000000227324568
 Root      2 :     2.222392113671052   Change is   -0.000001878866378
 Root      3 :     3.458314800834791   Change is   -0.000001143819780
 Root      4 :     3.513078671023929   Change is   -0.000425866846492
 Root      5 :     3.608752819123602   Change is   -0.000083504351161
 Iteration     8 Dimension    76 NMult    72 NNew      4
 CISAX will form     4 AO SS matrices at one time.
 NMat=     4 NSing=     4 JSym2X= 0.
 Root      1 has converged.
 Root      2 has converged.
 Root      3 has converged.
 Root      4 not converged, maximum delta is    0.004983437088112
 Root      5 has converged.
 Excitation Energies [eV] at current iteration:
 Root      1 :     1.731321088639093   Change is   -0.000000040083427
 Root      2 :     2.222391180210116   Change is   -0.000000933460936
 Root      3 :     3.458314309127021   Change is   -0.000000491707771
 Root      4 :     3.512885009643866   Change is   -0.000193661380063
 Root      5 :     3.608740553613955   Change is   -0.000012265509647
 Iteration     9 Dimension    78 NMult    76 NNew      2
 CISAX will form     2 AO SS matrices at one time.
 NMat=     2 NSing=     2 JSym2X= 0.
 Root      1 has converged.
 Root      2 has converged.
 Root      3 has converged.
 Root      4 not converged, maximum delta is    0.001160992611076
 Root      5 has converged.
 Excitation Energies [eV] at current iteration:
 Root      1 :     1.731321056767105   Change is   -0.000000031871988
 Root      2 :     2.222391131675196   Change is   -0.000000048534920
 Root      3 :     3.458313913313912   Change is   -0.000000395813109
 Root      4 :     3.512849728382820   Change is   -0.000035281261047
 Root      5 :     3.608740512421588   Change is   -0.000000041192367
 Iteration    10 Dimension    80 NMult    78 NNew      2
 CISAX will form     2 AO SS matrices at one time.
 NMat=     2 NSing=     2 JSym2X= 0.
 Root      1 has converged.
 Root      2 has converged.
 Root      3 has converged.
 Root      4 has converged.
 Root      5 has converged.
 Excitation Energies [eV] at current iteration:
 Root      1 :     1.731321049604127   Change is   -0.000000007162978
 Root      2 :     2.222390949827473   Change is   -0.000000181847723
 Root      3 :     3.458313752347399   Change is   -0.000000160966512
 Root      4 :     3.512844177747902   Change is   -0.000005550634917
 Root      5 :     3.608740493562388   Change is   -0.000000018859200
 Convergence achieved on expansion vectors.
 ***********************************************************************
 Excited states from <AA,BB:AA,BB> singles matrix:
 ***********************************************************************
 
 1PDM for each excited state written to RWF  633
 Ground to excited state transition densities written to RWF  633
 Ground to excited state transition electric dipole moments (Au):
       state          X           Y           Z        Dip. S.      Osc.
         1        -0.4167      2.9778      0.3872      9.1909      0.3898
         2        -1.3831      0.0264     -0.2578      1.9801      0.1078
         3        -0.2852     -0.1706     -0.0187      0.1108      0.0094
         4        -2.7504     -0.3302     -0.4287      7.8572      0.6762
         5         0.0713      0.0601     -0.0267      0.0094      0.0008
 Ground to excited state transition velocity dipole moments (Au):
       state          X           Y           Z        Dip. S.      Osc.
         1         0.0255     -0.1840     -0.0244      0.0351      0.3677
         2         0.1070     -0.0025      0.0208      0.0119      0.0970
         3         0.0315      0.0185      0.0019      0.0013      0.0070
         4         0.3442      0.0405      0.0541      0.1231      0.6355
         5        -0.0091     -0.0073      0.0002      0.0001      0.0007
 Ground to excited state transition magnetic dipole moments (Au):
       state          X           Y           Z
         1         0.0648     -0.3411      2.4284
         2        -0.0102      0.2854     -0.0410
         3         0.1337      0.2095     -1.0107
         4        -0.1816      0.7139     -0.1384
         5         0.2075     -0.6890     -0.0771
 Ground to excited state transition velocity quadrupole moments (Au):
       state          XX          YY          ZZ          XY          XZ          YZ
         1        -0.4269     -0.2682      0.0170      2.1492      0.3238     -0.0962
         2        -2.1869     -0.0766      0.0164     -0.0283     -0.2078     -0.0437
         3        -0.8642      0.2742     -0.0015      0.1357     -0.0596      0.1472
         4        -7.4625      0.9658     -0.0264     -0.7181     -0.6655      0.0693
         5         0.1764     -0.0006      0.0266      0.0243      0.0235     -0.0226
 <0|del|b> * <b|rxdel|0> + <0|del|b> * <b|delr+rdel|0>
 Rotatory Strengths (R) in cgs (10**-40 erg-esu-cm/Gauss)
       state          XX          YY          ZZ    R(velocity)    E-M Angle
         1        59.3993    -42.2970     40.6247     19.2424       89.35
         2       -11.5256    -26.1365     14.6968     -7.6551       94.84
         3         9.2643     18.5953      6.5551     11.4716       80.66
         4        26.1081    -20.0902   -231.1471    -75.0431       98.99
         5        13.7479     -4.5412      7.2812      5.4960       68.47
 1/2[<0|r|b>*<b|rxdel|0> + (<0|rxdel|b>*<b|r|0>)*]
 Rotatory Strengths (R) in cgs (10**-40 erg-esu-cm/Gauss)
       state          XX          YY          ZZ     R(length)
         1        19.0941    718.3733   -664.9690     24.1661
         2        -9.9932     -5.3237     -7.4722     -7.5964
         3        26.9672     25.2780    -13.3864     12.9529
         4      -353.1974    166.6804    -41.9433    -76.1534
         5       -10.4666     29.2990     -1.4559      5.7921
  1/2[<0|del|b>*<b|r|0> + (<0|r|b>*<b|del|0>)*] (Au)
[...]
 Alpha virt. eigenvalues --    1.22388   1.22538   1.23261   1.23355   1.23416
 Alpha virt. eigenvalues --    1.24411   1.24823   1.25772   1.25951   1.26211
 Alpha virt. eigenvalues --    1.26857   1.26980   1.27773   1.28253   1.28873
 Alpha virt. eigenvalues --    1.28882   1.29783   1.30213   1.30787   1.31294
 Alpha virt. eigenvalues --    1.31621   1.31965   1.32297   1.33104   1.33489
 Alpha virt. eigenvalues --    1.34040   1.34641   1.34748   1.35084   1.35766
 Alpha virt. eigenvalues --    1.36160   1.36674   1.36954   1.37364   1.37961
 Alpha virt. eigenvalues --    1.38297   1.38876   1.39061   1.39290   1.39576
 Alpha virt. eigenvalues --    1.40316   1.40907   1.40990   1.41584   1.42041
 Alpha virt. eigenvalues --    1.42085   1.42252   1.43053   1.43901   1.44013
 Alpha virt. eigenvalues --    1.44430   1.44762   1.44878   1.45815   1.46031
 Alpha virt. eigenvalues --    1.46829   1.47166   1.47728   1.48201   1.48483
 Alpha virt. eigenvalues --    1.48704   1.48955   1.49589   1.49633   1.49988
 Alpha virt. eigenvalues --    1.50242   1.50407   1.50825   1.51457   1.52313
 Alpha virt. eigenvalues --    1.52387   1.53023   1.53334   1.54102   1.54575
 Alpha virt. eigenvalues --    1.55000   1.55623   1.55680   1.56607   1.56915
 Alpha virt. eigenvalues --    1.57736   1.58099   1.58589   1.58722   1.59084
 Alpha virt. eigenvalues --    1.59129   1.59334   1.59742   1.59848   1.60315
 Alpha virt. eigenvalues --    1.60373   1.60865   1.61046   1.61157   1.61268
 Alpha virt. eigenvalues --    1.61584   1.61722   1.61885   1.62086   1.62554
 Alpha virt. eigenvalues --    1.62690   1.62779   1.63175   1.63340   1.63466
 Alpha virt. eigenvalues --    1.63951   1.64213   1.64586   1.64802   1.64922
 Alpha virt. eigenvalues --    1.65530   1.65908   1.66522   1.66633   1.67365
 Alpha virt. eigenvalues --    1.67539   1.67775   1.68220   1.68654   1.69349
 Alpha virt. eigenvalues --    1.69822   1.69929   1.70711   1.71033   1.71191
 Alpha virt. eigenvalues --    1.71940   1.72410   1.72725   1.73234   1.73394
 Alpha virt. eigenvalues --    1.74052   1.74170   1.74281   1.74969   1.75170
 Alpha virt. eigenvalues --    1.75267   1.75515   1.75626   1.76232   1.76248
 Alpha virt. eigenvalues --    1.76951   1.77511   1.77685   1.77819   1.77949
 Alpha virt. eigenvalues --    1.78243   1.78456   1.78567   1.78894   1.79457
 Alpha virt. eigenvalues --    1.79613   1.79923   1.80331   1.80335   1.80594
 Alpha virt. eigenvalues --    1.80830   1.81083   1.81712   1.81938   1.82066
 Alpha virt. eigenvalues --    1.82419   1.82462   1.82819   1.83109   1.83170
 Alpha virt. eigenvalues --    1.83348   1.83559   1.83777   1.83870   1.84253
 Alpha virt. eigenvalues --    1.84406   1.84717   1.84881   1.85121   1.85286
 Alpha virt. eigenvalues --    1.85631   1.85934   1.86044   1.86186   1.86493
 Alpha virt. eigenvalues --    1.86732   1.86768   1.87187   1.87280   1.87340
 Alpha virt. eigenvalues --    1.87489   1.87799   1.88020   1.88166   1.88378
 Alpha virt. eigenvalues --    1.88512   1.88804   1.89002   1.89384   1.89461
 Alpha virt. eigenvalues --    1.89576   1.89744   1.89773   1.90013   1.90091
 Alpha virt. eigenvalues --    1.90464   1.90491   1.91104   1.91174   1.91343
 Alpha virt. eigenvalues --    1.91576   1.91784   1.92146   1.92213   1.92344
 Alpha virt. eigenvalues --    1.92743   1.92869   1.92968   1.93165   1.93201
 Alpha virt. eigenvalues --    1.93579   1.93748   1.93837   1.94051   1.94377
 Alpha virt. eigenvalues --    1.94621   1.94819   1.95136   1.95328   1.95778
 Alpha virt. eigenvalues --    1.95995   1.96467   1.96585   1.96708   1.97115
 Alpha virt. eigenvalues --    1.97243   1.97633   1.97834   1.97979   1.98362
 Alpha virt. eigenvalues --    1.98955   1.99227   1.99318   1.99643   1.99698
 Alpha virt. eigenvalues --    1.99918   2.00478   2.00648   2.00951   2.01302
 Alpha virt. eigenvalues --    2.01766   2.02108   2.02361   2.02491   2.03059
 Alpha virt. eigenvalues --    2.03089   2.03229   2.03538   2.03996   2.04319
 Alpha virt. eigenvalues --    2.04616   2.04844   2.04976   2.05519   2.05565
 Alpha virt. eigenvalues --    2.05915   2.06318   2.06507   2.06995   2.07313
 Alpha virt. eigenvalues --    2.07763   2.08155   2.08247   2.08737   2.08864
 Alpha virt. eigenvalues --    2.09123   2.09259   2.09698   2.10211   2.10460
 Alpha virt. eigenvalues --    2.10626   2.10726   2.11139   2.11428   2.12479
 Alpha virt. eigenvalues --    2.12653   2.12927   2.13500   2.13660   2.14052
 Alpha virt. eigenvalues --    2.14268   2.14761   2.14835   2.15012   2.15339
 Alpha virt. eigenvalues --    2.15589   2.15768   2.15866   2.16257   2.17019
 Alpha virt. eigenvalues --    2.17275   2.17402   2.17491   2.17510   2.18113
 Alpha virt. eigenvalues --    2.18459   2.18565   2.19108   2.19514   2.19689
 Alpha virt. eigenvalues --    2.20102   2.20336   2.20406   2.20995   2.21308
 Alpha virt. eigenvalues --    2.21415   2.22453   2.22558   2.22806   2.23092
 Alpha virt. eigenvalues --    2.23709   2.24232   2.25138   2.25648   2.25719
 Alpha virt. eigenvalues --    2.26040   2.26314   2.26450   2.26758   2.26983
 Alpha virt. eigenvalues --    2.27332   2.27801   2.27912   2.28194   2.29062
 Alpha virt. eigenvalues --    2.29447   2.30042   2.30274   2.30383   2.30774
 Alpha virt. eigenvalues --    2.31487   2.31863   2.32219   2.32627   2.32851
 Alpha virt. eigenvalues --    2.33439   2.33980   2.34838   2.35291   2.35580
 Alpha virt. eigenvalues --    2.35890   2.36023   2.36583   2.36843   2.37037
 Alpha virt. eigenvalues --    2.37421   2.37938   2.38323   2.38361   2.38813
 Alpha virt. eigenvalues --    2.38947   2.39116   2.39745   2.40595   2.40631
 Alpha virt. eigenvalues --    2.40902   2.41476   2.41673   2.41908   2.42377
 Alpha virt. eigenvalues --    2.42944   2.42967   2.43419   2.43693   2.43792
 Alpha virt. eigenvalues --    2.43928   2.44456   2.44736   2.44983   2.45102
 Alpha virt. eigenvalues --    2.45365   2.45780   2.46371   2.46686   2.46858
 Alpha virt. eigenvalues --    2.47034   2.48036   2.48163   2.48591   2.48963
 Alpha virt. eigenvalues --    2.49337   2.49601   2.50157   2.50379   2.50552
 Alpha virt. eigenvalues --    2.51008   2.51733   2.52131   2.52975   2.53403
 Alpha virt. eigenvalues --    2.53570   2.54302   2.54624   2.55430   2.55579
 Alpha virt. eigenvalues --    2.55790   2.56420   2.57362   2.57780   2.58521
 Alpha virt. eigenvalues --    2.58791   2.59117   2.59254   2.59556   2.59680
 Alpha virt. eigenvalues --    2.60184   2.60770   2.60802   2.61154   2.61708
 Alpha virt. eigenvalues --    2.62367   2.62693   2.62855   2.63946   2.64311
 Alpha virt. eigenvalues --    2.64390   2.65108   2.66573   2.66791   2.67017
 Alpha virt. eigenvalues --    2.67155   2.67390   2.67651   2.68174   2.68354
 Alpha virt. eigenvalues --    2.68786   2.69006   2.69232   2.69405   2.70349
 Alpha virt. eigenvalues --    2.70731   2.71245   2.71466   2.71781   2.72282
 Alpha virt. eigenvalues --    2.72339   2.73080   2.73201   2.73568   2.73921
 Alpha virt. eigenvalues --    2.74439   2.74987   2.75657   2.75881   2.75983
 Alpha virt. eigenvalues --    2.76955   2.77281   2.77526   2.77795   2.78696
 Alpha virt. eigenvalues --    2.78926   2.79171   2.79298   2.79667   2.80236
 Alpha virt. eigenvalues --    2.80313   2.80347   2.80989   2.81224   2.81301
 Alpha virt. eigenvalues --    2.82421   2.82901   2.83386   2.83928   2.84107
 Alpha virt. eigenvalues --    2.84372   2.84379   2.84778   2.86405   2.87119
 Alpha virt. eigenvalues --    2.87217   2.87716   2.88021   2.88403   2.88780
 Alpha virt. eigenvalues --    2.89265   2.89743   2.90805   2.91471   2.92023
 Alpha virt. eigenvalues --    2.92465   2.92843   2.93224   2.93763   2.94103
 Alpha virt. eigenvalues --    2.94631   2.95425   2.95797   2.95829   2.96313
 Alpha virt. eigenvalues --    2.97204   2.97625   2.97807   2.97944   2.98083
 Alpha virt. eigenvalues --    2.98746   2.99563   2.99739   2.99883   3.00400
 Alpha virt. eigenvalues --    3.00560   3.00633   3.00964   3.01190   3.01465
 Alpha virt. eigenvalues --    3.01972   3.02195   3.02350   3.02723   3.02867
 Alpha virt. eigenvalues --    3.02969   3.03049   3.03332   3.03462   3.03800
 Alpha virt. eigenvalues --    3.04122   3.04232   3.04309   3.04830   3.05021
 Alpha virt. eigenvalues --    3.05371   3.05865   3.06176   3.06513   3.06707
 Alpha virt. eigenvalues --    3.07051   3.07196   3.07683   3.07932   3.08794
 Alpha virt. eigenvalues --    3.08882   3.09072   3.09112   3.09389   3.09428
 Alpha virt. eigenvalues --    3.10228   3.10788   3.11029   3.11894   3.11926
 Alpha virt. eigenvalues --    3.12825   3.13458   3.14118   3.14169   3.15028
 Alpha virt. eigenvalues --    3.15409   3.15779   3.16317   3.16425   3.17201
 Alpha virt. eigenvalues --    3.17816   3.18066   3.19629   3.20325   3.20357
 Alpha virt. eigenvalues --    3.20745   3.21414   3.22144   3.22907   3.23709
 Alpha virt. eigenvalues --    3.24712   3.25022   3.27061   3.28556   3.30363
 Alpha virt. eigenvalues --    3.32144   3.32672   3.43406   3.44051   3.46913
 Alpha virt. eigenvalues --    3.47231   3.48738   3.51894   3.55870   3.57427
 Alpha virt. eigenvalues --    3.60595   3.61983   3.67290   3.68414   3.68443
 Alpha virt. eigenvalues --    3.71701   3.73811
          Condensed to atoms (all electrons):
 Mulliken charges:
               1
     1  Mg   0.812293
     2  C   -0.038479
     3  C   -0.061991
     4  C   -0.061288
     5  C   -0.050795
     6  N   -0.268147
     7  C   -0.033947
     8  C   -0.060810
     9  C   -0.005108
    10  C   -0.005054
    11  C    0.074624
    12  C    0.111649
    13  C    0.006478
    14  C    0.166228
    15  O   -0.228299
    16  O   -0.373532
    17  N   -0.318173
    18  C    0.115480
    19  C   -0.142545
    20  C   -0.014968
    21  C    0.099261
    22  C    0.093731
    23  C    0.015922
    24  O   -0.215934
    25  C    0.045757
    26  N   -0.249865
    27  C    0.034415
    28  C   -0.081177
    29  C    0.036225
    30  C   -0.018858
    31  C    0.059324
    32  C    0.020424
    33  C    0.030066
    34  N   -0.337726
    35  C    0.100223
    36  C   -0.168378
    37  C   -0.016491
    38  C    0.163004
    39  C    0.129540
    40  C    0.008683
    41  O   -0.174288
    42  C    0.013255
    43  C    0.189366
    44  O   -0.203328
    45  O   -0.364696
    46  C    0.185188
    47  C    0.284499
    48  C   -0.099216
    49  C   -0.192483
    50  C    0.075801
    51  C    0.046626
    52  C    0.043058
    53  C    0.015413
    54  C   -0.099875
    55  C    0.059348
    56  C    0.075796
    57  C   -0.025629
    58  C    0.054514
    59  C   -0.188525
    60  C    0.071574
    61  C    0.068766
    62  C    0.042882
    63  C    0.024834
    64  C   -0.172863
    65  C    0.062666
    66  C    0.044047
    67  H   -0.037810
    68  H   -0.004216
    69  H   -0.025069
    70  H    0.020244
    71  H    0.014548
    72  H    0.027131
    73  H    0.012505
    74  H    0.026152
    75  H    0.032835
    76  H    0.032629
    77  H    0.044741
    78  H    0.014859
    79  H    0.023354
    80  H    0.031160
    81  H    0.021221
    82  H    0.048235
    83  H    0.028383
    84  H    0.023804
    85  H    0.017872
    86  H    0.002619
    87  H    0.009213
    88  H    0.034522
    89  H    0.012436
    90  H   -0.001756
    91  H    0.003228
    92  H    0.024737
    93  H    0.025800
    94  H    0.010746
    95  H    0.045542
    96  H    0.016498
    97  H    0.024646
    98  H    0.036636
    99  H    0.021115
   100  H    0.050781
   101  H    0.046623
   102  H    0.033360
   103  H    0.030210
   104  H   -0.008778
   105  H   -0.002442
   106  H    0.016722
   107  H    0.033902
   108  H   -0.016263
   109  H   -0.000179
   110  H    0.014713
   111  H    0.014674
   112  H    0.002245
   113  H   -0.005363
   114  H   -0.008645
   115  H    0.005792
   116  H    0.005273
   117  H   -0.001738
   118  H   -0.002009
   119  H   -0.007017
   120  H   -0.014618
   121  H   -0.017885
   122  H   -0.003315
   123  H   -0.007450
   124  H   -0.008195
   125  H    0.008057
   126  H    0.015711
   127  H    0.003229
   128  H   -0.025159
   129  H   -0.014726
   130  H   -0.000639
   131  H   -0.005710
   132  H   -0.003443
   133  H    0.004666
   134  H   -0.004080
   135  H   -0.009634
   136  H    0.016816
   137  H    0.001388
   138  H    0.018205
   139  H    0.007447
   140  H    0.010422
 Sum of Mulliken charges =  -0.00000
 Mulliken charges with hydrogens summed into heavy atoms:
               1
     1  Mg   0.812293
     2  C   -0.038479
     3  C   -0.099800
     4  C   -0.065504
     5  C   -0.075864
     6  N   -0.268147
     7  C   -0.033947
     8  C   -0.040565
     9  C    0.009440
    10  C   -0.005054
    11  C    0.140413
    12  C    0.177113
    13  C    0.066078
    14  C    0.166228
    15  O   -0.228299
    16  O   -0.373532
    17  N   -0.318173
    18  C    0.115480
    19  C   -0.142545
    20  C   -0.014968
    21  C    0.099261
    22  C    0.169467
    23  C    0.015922
    24  O   -0.215934
    25  C    0.146178
    26  N   -0.249865
    27  C    0.034415
    28  C   -0.063305
    29  C    0.038844
    30  C   -0.018858
    31  C    0.115494
    32  C    0.021896
    33  C    0.091350
    34  N   -0.337726
    35  C    0.100223
    36  C   -0.168378
    37  C   -0.016491
    38  C    0.163004
    39  C    0.216225
    40  C    0.008683
    41  O   -0.174288
    42  C    0.049891
    43  C    0.189366
    44  O   -0.203328
    45  O   -0.364696
    46  C    0.303706
    47  C    0.348069
    48  C   -0.107994
    49  C   -0.192483
    50  C    0.123982
    51  C    0.030184
    52  C    0.072445
    53  C    0.012295
    54  C   -0.108520
    55  C    0.068675
    56  C    0.066770
    57  C   -0.058132
    58  C    0.043749
    59  C   -0.196720
    60  C    0.098571
    61  C    0.028881
    62  C    0.036533
    63  C    0.026057
    64  C   -0.176943
    65  C    0.071236
    66  C    0.080121
 Electronic spatial extent (au):  <R**2>=         135105.6706
 Charge=              0.0000 electrons
 Dipole moment (field-independent basis, Debye):
    X=              2.1008    Y=              3.2157    Z=              0.2554  Tot=              3.8496
 Quadrupole moment (field-independent basis, Debye-Ang):
   XX=           -373.1547   YY=           -416.1527   ZZ=           -405.9183
   XY=             -0.7071   XZ=             15.5730   YZ=              7.7073
 Traceless Quadrupole moment (field-independent basis, Debye-Ang):
   XX=             25.2539   YY=            -17.7441   ZZ=             -7.5097
   XY=             -0.7071   XZ=             15.5730   YZ=              7.7073
 Octapole moment (field-independent basis, Debye-Ang**2):
  XXX=           -108.2994  YYY=            221.4928  ZZZ=              3.6564  XYY=             65.1099
  XXY=           -243.5198  XXZ=           -191.5731  XZZ=            -10.5136  YZZ=            -12.3772
  YYZ=             12.5337  XYZ=             -1.8071
 Hexadecapole moment (field-independent basis, Debye-Ang**3):
 XXXX=        -157114.7822 YYYY=         -19848.8828 ZZZZ=          -5803.3099 XXXY=           3046.0011
 XXXZ=            917.4009 YYYX=           -888.5603 YYYZ=             42.2975 ZZZX=            -78.7688
 ZZZY=            -12.4408 XXYY=         -31200.2023 XXZZ=         -28108.9861 YYZZ=          -4169.1154
 XXYZ=            510.5970 YYXZ=             57.2490 ZZXY=            -50.5917
 N-N= 9.418438853445D+03 E-N=-2.582833467961D+04  KE= 2.975254362688D+03
 Leave Link  601 at Sat Apr 30 08:59:21 2022, MaxMem= 10066329600 cpu:              13.0 elap:               0.6
 (Enter /sw/apps/gaussian-16.0/g16/l9999.exe)
 1\1\GINC-BP1-COMPUTE161\SP\RCAM-B3LYP TD-FC\def2SVP\C55H74Mg1N4O6\OF15
 641\30-Apr-2022\0\\#p cam-b3lyp/Def2SVP td=(nstates=5)\\step_701_chrom
 ophore_13 TDDFT with cam-b3lyp functional\\0,1\Mg,0,47.262,24.665,27.6
 26\C,0,47.775,26.909,30.36\C,0,46.252,22.329,29.81\C,0,46.793,22.822,2
 5.043\C,0,48.281,27.41,25.484\N,0,46.896,24.603,29.86\C,0,47.241,25.61
 3,30.738\C,0,46.921,25.249,32.14\C,0,46.536,23.678,32.003\C,0,46.543,2
 3.489,30.513\C,0,47.391,22.683,32.909\C,0,45.792,26.258,32.69\C,0,45.9
 9,26.84,34.117\C,0,44.912,26.782,35.157\O,0,43.722,26.531,34.969\O,0,4
 5.41,27.101,36.454\N,0,46.609,22.707,27.407\C,0,46.207,21.929,28.377\C
 ,0,45.639,20.729,27.796\C,0,45.812,20.796,26.415\C,0,46.483,22.12,26.2
 21\C,0,45.14,19.574,28.653\C,0,45.377,19.836,25.307\O,0,45.731,20.106,
 24.151\C,0,44.666,18.48,25.589\N,0,47.735,25.033,25.54\C,0,47.375,24.0
 72,24.72\C,0,47.468,24.522,23.209\C,0,47.753,26.059,23.305\C,0,48.031,
 26.17,24.824\C,0,48.446,23.647,22.286\C,0,46.576,26.934,22.886\C,0,45.
 388,27.103,23.787\N,0,47.897,26.685,27.838\C,0,48.338,27.637,26.895\C,
 0,48.62,28.941,27.574\C,0,48.493,28.593,28.968\C,0,48.032,27.287,29.03
 5\C,0,49.165,30.205,27.013\C,0,48.581,29.171,30.291\O,0,48.911,30.312,
 30.61\C,0,48.139,28.041,31.236\C,0,49.269,27.721,32.123\O,0,50.182,27.
 01,31.773\O,0,49.08,28.115,33.456\C,0,49.976,27.425,34.431\C,0,44.468,
 27.378,37.54\C,0,44.455,26.23,38.565\C,0,44.046,26.314,39.822\C,0,43.1
 84,27.36,40.344\C,0,44.098,25.101,40.693\C,0,42.927,24.04,40.505\C,0,4
 2.698,23.307,41.942\C,0,41.279,22.885,42.299\C,0,40.575,21.881,41.426\
 C,0,40.32,24.113,42.59\C,0,39.88,24.195,44.042\C,0,40.718,25.044,45.00
 4\C,0,40.903,24.241,46.327\C,0,39.545,23.887,46.99\C,0,41.821,25.033,4
 7.234\C,0,42.681,24.311,48.228\C,0,44.235,24.643,48.01\C,0,45.018,23.4
 13,47.435\C,0,46.541,23.661,47.466\C,0,44.634,22.982,45.995\H,0,45.831
 ,21.645,30.549\H,0,46.475,22.298,24.14\H,0,48.612,28.265,24.891\H,0,47
 .852,25.406,32.685\H,0,45.529,23.686,32.421\H,0,48.42,23.005,33.066\H,
 0,47.444,21.751,32.348\H,0,46.819,22.572,33.83\H,0,44.86,25.704,32.801
 \H,0,45.765,27.158,32.076\H,0,46.336,27.87,34.205\H,0,46.869,26.409,34
 .595\H,0,45.644,18.682,28.279\H,0,44.057,19.537,28.54\H,0,45.356,19.51
 1,29.72\H,0,45.326,17.798,26.126\H,0,44.297,17.998,24.684\H,0,43.761,1
 8.647,26.173\H,0,46.48,24.332,22.789\H,0,48.673,26.251,22.753\H,0,47.8
 29,23.265,21.473\H,0,48.861,22.767,22.777\H,0,49.188,24.232,21.743\H,0
 ,46.229,26.428,21.985\H,0,46.9,27.911,22.529\H,0,45.165,28.122,24.1\H,
 0,45.595,26.451,24.636\H,0,44.532,26.715,23.235\H,0,49.564,30.947,27.7
 05\H,0,48.301,30.698,26.568\H,0,49.802,29.949,26.166\H,0,47.409,28.59,
 31.832\H,0,49.941,26.361,34.197\H,0,49.606,27.542,35.45\H,0,51.02,27.7
 01,34.279\H,0,43.43,27.554,37.256\H,0,44.785,28.276,38.069\H,0,45.161,
 25.415,38.403\H,0,43.34,28.344,39.901\H,0,43.305,27.471,41.422\H,0,42.
 157,27.153,40.042\H,0,44.076,25.444,41.727\H,0,45.081,24.657,40.537\H,
 0,43.338,23.324,39.793\H,0,42.081,24.608,40.117\H,0,42.948,23.89,42.82
 8\H,0,43.401,22.474,41.955\H,0,41.477,22.306,43.201\H,0,39.537,22.111,
 41.182\H,0,40.65,20.897,41.889\H,0,41.089,21.886,40.465\H,0,39.319,24.
 062,42.161\H,0,40.839,25.041,42.348\H,0,39.772,23.164,44.378\H,0,38.84
 8,24.535,44.141\H,0,40.182,25.966,45.228\H,0,41.682,25.227,44.53\H,0,4
 1.324,23.288,46.006\H,0,39.482,22.807,46.855\H,0,38.668,24.394,46.589\
 H,0,39.645,24.125,48.049\H,0,41.149,25.595,47.883\H,0,42.348,25.813,46
 .684\H,0,42.558,23.231,48.144\H,0,42.417,24.74,49.194\H,0,44.56,24.655
 ,49.05\H,0,44.287,25.609,47.507\H,0,44.811,22.632,48.167\H,0,46.828,24
 .011,46.475\H,0,47.144,22.764,47.607\H,0,46.673,24.512,48.135\H,0,43.8
 1,22.272,46.056\H,0,45.478,22.567,45.444\H,0,44.37,23.886,45.445\\Vers
 ion=ES64L-G16RevA.03\State=1-A\HF=-3007.1440879\RMSD=3.342e-09\PG=C01 
 [X(C55H74Mg1N4O6)]\\@


 At the touch of love, everyone becomves a poet.
                                -- Plato
 Job cpu time:       0 days  9 hours 45 minutes 50.2 seconds.
 Elapsed time:       0 days  0 hours 24 minutes 53.4 seconds.
 File lengths (MBytes):  RWF=   8929 Int=      0 D2E=      0 Chk=    390 Scr=      1
 Normal termination of Gaussian 16 at Sat Apr 30 08:59:22 2022.
