 Entering Gaussian System, Link 0=g16
 Initial command:
 /sw/apps/gaussian-16.0/g16/l1.exe "/tmp/Gau-36255.inp" -scrdir="/tmp/"
 Entering Link 1 = /sw/apps/gaussian-16.0/g16/l1.exe PID=     36256.
  
 Copyright (c) 1988,1990,1992,1993,1995,1998,2003,2009,2016,
            Gaussian, Inc.  All Rights Reserved.
  
 This is part of the Gaussian(R) 16 program.  It is based on
 the Gaussian(R) 09 system (copyright 2009, Gaussian, Inc.),
 the Gaussian(R) 03 system (copyright 2003, Gaussian, Inc.),
 the Gaussian(R) 98 system (copyright 1998, Gaussian, Inc.),
 the Gaussian(R) 94 system (copyright 1995, Gaussian, Inc.),
 the Gaussian 92(TM) system (copyright 1992, Gaussian, Inc.),
 the Gaussian 90(TM) system (copyright 1990, Gaussian, Inc.),
 the Gaussian 88(TM) system (copyright 1988, Gaussian, Inc.),
 the Gaussian 86(TM) system (copyright 1986, Carnegie Mellon
 University), and the Gaussian 82(TM) system (copyright 1983,
 Carnegie Mellon University). Gaussian is a federally registered
 trademark of Gaussian, Inc.
  
 This software contains proprietary and confidential information,
 including trade secrets, belonging to Gaussian, Inc.
  
 This software is provided under written license and may be
 used, copied, transmitted, or stored only in accord with that
 written license.
  
 The following legend is applicable only to US Government
 contracts under FAR:
  
                    RESTRICTED RIGHTS LEGEND
  
 Use, reproduction and disclosure by the US Government is
 subject to restrictions as set forth in subparagraphs (a)
 and (c) of the Commercial Computer Software - Restricted
 Rights clause in FAR 52.227-19.
  
 Gaussian, Inc.
 340 Quinnipiac St., Bldg. 40, Wallingford CT 06492
  
  
 ---------------------------------------------------------------
 Warning -- This program may not be used in any manner that
 competes with the business of Gaussian, Inc. or will provide
 assistance to any competitor of Gaussian, Inc.  The licensee
 of this program is prohibited from giving any competitor of
 Gaussian, Inc. access to this program.  By using this program,
 the user acknowledges that Gaussian, Inc. is engaged in the
 business of creating and licensing software in the field of
 computational chemistry and represents and warrants to the
 licensee that it is not a competitor of Gaussian, Inc. and that
 it will not use this program in any manner prohibited above.
 ---------------------------------------------------------------
  

 Cite this work as:
 Gaussian 16, Revision A.03,
 M. J. Frisch, G. W. Trucks, H. B. Schlegel, G. E. Scuseria, 
 M. A. Robb, J. R. Cheeseman, G. Scalmani, V. Barone, 
 G. A. Petersson, H. Nakatsuji, X. Li, M. Caricato, A. V. Marenich, 
 J. Bloino, B. G. Janesko, R. Gomperts, B. Mennucci, H. P. Hratchian, 
 J. V. Ortiz, A. F. Izmaylov, J. L. Sonnenberg, D. Williams-Young, 
 F. Ding, F. Lipparini, F. Egidi, J. Goings, B. Peng, A. Petrone, 
 T. Henderson, D. Ranasinghe, V. G. Zakrzewski, J. Gao, N. Rega, 
 G. Zheng, W. Liang, M. Hada, M. Ehara, K. Toyota, R. Fukuda, 
 J. Hasegawa, M. Ishida, T. Nakajima, Y. Honda, O. Kitao, H. Nakai, 
 T. Vreven, K. Throssell, J. A. Montgomery, Jr., J. E. Peralta, 
 F. Ogliaro, M. J. Bearpark, J. J. Heyd, E. N. Brothers, K. N. Kudin, 
 V. N. Staroverov, T. A. Keith, R. Kobayashi, J. Normand, 
 K. Raghavachari, A. P. Rendell, J. C. Burant, S. S. Iyengar, 
 J. Tomasi, M. Cossi, J. M. Millam, M. Klene, C. Adamo, R. Cammi, 
 J. W. Ochterski, R. L. Martin, K. Morokuma, O. Farkas, 
 J. B. Foresman, and D. J. Fox, Gaussian, Inc., Wallingford CT, 2016.
 
 ******************************************
 Gaussian 16:  ES64L-G16RevA.03 25-Dec-2016
                29-Apr-2022 
 ******************************************
 %nproc=24
 Will use up to   24 processors via shared memory.
 %mem=50gb
 --------------------
 #p ZINDO=(nstates=5)
 --------------------
 1/38=1,172=1/1;
 2/12=2,17=6,18=5,40=1/2;
 3/5=2,25=1,41=400000/1,2,3,8;
 4/5=3,35=1/1;
 5/5=2,35=1,38=5/2;
 8/6=1,108=5/1;
 9/41=5,42=1,49=10/14;
 6/7=2,8=2,9=2,10=2/1;
 99/5=1,9=1/99;
 Leave Link    1 at Fri Apr 29 14:28:22 2022, MaxMem=  6710886400 cpu:               0.7 elap:               0.0
 (Enter /sw/apps/gaussian-16.0/g16/l101.exe)
 ----------------------------
 step_301_chromophore_5 ZINDO
 ----------------------------
 Symbolic Z-matrix:
 Charge =  0 Multiplicity = 1
 Mg                    24.896   -6.357     45.682 
 C                     27.447   -4.313     44.366 
 C                     22.71    -4.757     43.58 
 C                     22.785   -8.998     46.123 
 C                     27.361   -8.069     47.451 
 N                     25.142   -4.852     44.093 
 C                     26.237   -4.136     43.737 
 C                     26.029   -3.177     42.624 
 C                     24.47    -3.116     42.627 
 C                     24.067   -4.363     43.487 
 C                     23.934   -1.811     43.178 
 C                     26.594   -3.552     41.239 
 C                     26.777   -2.489     40.192 
 C                     25.933   -2.621     38.947 
 O                     25.023   -1.922     38.622 
 O                     26.479   -3.569     38.135 
 N                     22.98    -6.761     44.961 
 C                     22.201   -5.888     44.291 
 C                     20.875   -6.46      44.259 
 C                     20.941   -7.722     44.83 
 C                     22.234   -7.866     45.392 
 C                     19.706   -5.804     43.532 
 C                     19.737   -8.641     44.964 
 O                     18.597   -8.35      44.715 
 C                     19.925   -10.05     45.512 
 N                     25.145   -8.344     46.491 
 C                     24.074   -9.126     46.65 
 C                     24.364   -10.34     47.599 
 C                     25.834   -10.029    48.036 
 C                     26.167   -8.701     47.323 
 C                     23.28    -10.641    48.753 
 C                     26.947   -11.163    47.736 
 C                     27.997   -11.499    48.81 
 N                     27.047   -6.184     46.015 
 C                     27.85    -6.939     46.766 
 C                     29.178   -6.337     46.777 
 C                     29.055   -5.321     45.812 
 C                     27.737   -5.259     45.403 
 C                     30.402   -6.889     47.566 
 C                     29.814   -4.324     45.048 
 O                     30.988   -4.078     45.004 
 C                     28.778   -3.642     44.14 
 C                     28.758   -2.194     44.34 
 O                     29.022   -1.403     43.407 
 O                     28.431   -1.878     45.61 
 C                     28.049   -0.468     45.841 
 C                     25.832   -3.857     36.876 
 C                     25.518   -5.317     36.757 
 C                     25.945   -6.351     35.942 
 C                     27.091   -6.313     35.021 
 C                     25.182   -7.693     36.071 
 C                     23.784   -7.838     35.389 
 C                     23.794   -7.844     33.823 
 C                     22.707   -6.983     33.086 
 C                     21.415   -7.802     32.758 
 C                     23.123   -6.265     31.778 
 C                     24.129   -5.111     32.028 
 C                     25.323   -5.194     31.137 
 C                     25.05    -4.411     29.869 
 C                     25.531   -3.006     30.186 
 C                     25.755   -5.022     28.671 
 C                     24.628   -5.508     27.679 
 C                     24.27    -4.404     26.694 
 C                     22.817   -4.524     26.106 
 C                     22.701   -3.871     24.642 
 C                     21.961   -3.712     27.09 
 H                     22.02    -4.178     42.962 
 H                     22.207   -9.888     46.381 
 H                     28.123   -8.494     48.107 
 H                     26.615   -2.298     42.894 
 H                     24.101   -3.088     41.602 
 H                     23.424   -2.076     44.104 
 H                     23.254   -1.425     42.418 
 H                     24.831   -1.211     43.332 
 H                     26.016   -4.395     40.86 
 H                     27.531   -4.051     41.485 
 H                     27.842   -2.401     39.979 
 H                     26.466   -1.497     40.518 
 H                     19.59    -6.194     42.521 
 H                     19.935   -4.742     43.442 
 H                     18.661   -5.814     43.844 
 H                     20.067   -9.991     46.591 
 H                     20.748   -10.476    44.937 
 H                     19.029   -10.632    45.296 
 H                     24.397   -11.212    46.947 
 H                     25.842   -9.802     49.102 
 H                     22.774   -11.517    48.349 
 H                     22.549   -9.844     48.892 
 H                     23.78    -10.899    49.687 
 H                     27.464   -11.08     46.78 
 H                     26.328   -12.043    47.563 
 H                     28.257   -12.557    48.776 
 H                     27.734   -11.177    49.817 
 H                     28.918   -11.028    48.466 
 H                     30.922   -7.527     46.851 
 H                     30.217   -7.457     48.479 
 H                     31.096   -6.117     47.896 
 H                     29.006   -3.903     43.106 
 H                     26.967   -0.409     45.959 
 H                     28.366    0.182     45.025 
 H                     28.506   -0.042     46.734 
 H                     26.476   -3.517     36.064 
 H                     24.854   -3.384     36.784 
 H                     24.586   -5.508     37.289 
 H                     26.56    -6.768     34.185 
 H                     27.806   -6.962     35.528 
 H                     27.49    -5.311     34.862 
 H                     24.998   -7.836     37.135 
 H                     25.74    -8.575     35.756 
 H                     23.04    -7.213     35.883 
 H                     23.45    -8.846     35.636 
 H                     23.661   -8.91      33.634 
 H                     24.768   -7.637     33.38 
 H                     22.418   -6.214     33.802 
 H                     21.659   -8.853     32.912 
 H                     21.006   -7.687     31.754 
 H                     20.586   -7.475     33.386 
 H                     22.278   -5.726     31.352 
 H                     23.51    -6.971     31.043 
 H                     24.489   -5.178     33.055 
 H                     23.524   -4.205     32.016 
 H                     25.552   -6.244     30.951 
 H                     26.141   -4.732     31.69 
 H                     23.968   -4.313     29.778 
 H                     25.306   -2.679     31.201 
 H                     25.027   -2.278     29.549 
 H                     26.571   -2.842     29.903 
 H                     26.415   -5.822     29.008 
 H                     26.384   -4.326     28.115 
 H                     23.799   -5.929     28.249 
 H                     25.06    -6.154     26.915 
 H                     24.882   -4.48      25.794 
 H                     24.455   -3.415     27.112 
 H                     22.557   -5.582     26.106 
 H                     22.174   -2.918     24.583 
 H                     22.143   -4.522     23.969 
 H                     23.638   -3.836     24.086 
 H                     20.987   -4.17      27.263 
 H                     21.709   -2.712     26.738 
 H                     22.445   -3.597     28.06 
 
 ITRead=  0  0  0  0  0  0  0  0  0  0  0  0  0  0  0  0  0  0  0  0
 ITRead=  0  0  0  0  0  0  0  0  0  0  0  0  0  0  0  0  0  0  0  0
 ITRead=  0  0  0  0  0  0  0  0  0  0  0  0  0  0  0  0  0  0  0  0
 ITRead=  0  0  0  0  0  0  0  0  0  0  0  0  0  0  0  0  0  0  0  0
 ITRead=  0  0  0  0  0  0  0  0  0  0  0  0  0  0  0  0  0  0  0  0
 ITRead=  0  0  0  0  0  0  0  0  0  0  0  0  0  0  0  0  0  0  0  0
 ITRead=  0  0  0  0  0  0  0  0  0  0  0  0  0  0  0  0  0  0  0  0
 MicOpt= -1 -1 -1 -1 -1 -1 -1 -1 -1 -1 -1 -1 -1 -1 -1 -1 -1 -1 -1 -1
 MicOpt= -1 -1 -1 -1 -1 -1 -1 -1 -1 -1 -1 -1 -1 -1 -1 -1 -1 -1 -1 -1
 MicOpt= -1 -1 -1 -1 -1 -1 -1 -1 -1 -1 -1 -1 -1 -1 -1 -1 -1 -1 -1 -1
 MicOpt= -1 -1 -1 -1 -1 -1 -1 -1 -1 -1 -1 -1 -1 -1 -1 -1 -1 -1 -1 -1
 MicOpt= -1 -1 -1 -1 -1 -1 -1 -1 -1 -1 -1 -1 -1 -1 -1 -1 -1 -1 -1 -1
 MicOpt= -1 -1 -1 -1 -1 -1 -1 -1 -1 -1 -1 -1 -1 -1 -1 -1 -1 -1 -1 -1
 MicOpt= -1 -1 -1 -1 -1 -1 -1 -1 -1 -1 -1 -1 -1 -1 -1 -1 -1 -1 -1 -1
 NAtoms=    140 NQM=      140 NQMF=       0 NMMI=      0 NMMIF=      0
                NMic=       0 NMicF=      0.
                    Isotopes and Nuclear Properties:
 (Nuclear quadrupole moments (NQMom) in fm**2, nuclear magnetic moments (NMagM)
  in nuclear magnetons)

  Atom         1           2           3           4           5           6           7           8           9          10
 IAtWgt=          24          12          12          12          12          14          12          12          12          12
 AtmWgt=  23.9850450  12.0000000  12.0000000  12.0000000  12.0000000  14.0030740  12.0000000  12.0000000  12.0000000  12.0000000
 NucSpn=           0           0           0           0           0           2           0           0           0           0
 AtZEff=  -0.0000000  -0.0000000  -0.0000000  -0.0000000  -0.0000000  -0.0000000  -0.0000000  -0.0000000  -0.0000000  -0.0000000
 NQMom=    0.0000000   0.0000000   0.0000000   0.0000000   0.0000000   2.0440000   0.0000000   0.0000000   0.0000000   0.0000000
 NMagM=    0.0000000   0.0000000   0.0000000   0.0000000   0.0000000   0.4037610   0.0000000   0.0000000   0.0000000   0.0000000
 AtZNuc=  12.0000000   6.0000000   6.0000000   6.0000000   6.0000000   7.0000000   6.0000000   6.0000000   6.0000000   6.0000000

  Atom        11          12          13          14          15          16          17          18          19          20
 IAtWgt=          12          12          12          12          16          16          14          12          12          12
 AtmWgt=  12.0000000  12.0000000  12.0000000  12.0000000  15.9949146  15.9949146  14.0030740  12.0000000  12.0000000  12.0000000
 NucSpn=           0           0           0           0           0           0           2           0           0           0
 AtZEff=  -0.0000000  -0.0000000  -0.0000000  -0.0000000  -0.0000000  -0.0000000  -0.0000000  -0.0000000  -0.0000000  -0.0000000
 NQMom=    0.0000000   0.0000000   0.0000000   0.0000000   0.0000000   0.0000000   2.0440000   0.0000000   0.0000000   0.0000000
 NMagM=    0.0000000   0.0000000   0.0000000   0.0000000   0.0000000   0.0000000   0.4037610   0.0000000   0.0000000   0.0000000
 AtZNuc=   6.0000000   6.0000000   6.0000000   6.0000000   8.0000000   8.0000000   7.0000000   6.0000000   6.0000000   6.0000000

  Atom        21          22          23          24          25          26          27          28          29          30
 IAtWgt=          12          12          12          16          12          14          12          12          12          12
 AtmWgt=  12.0000000  12.0000000  12.0000000  15.9949146  12.0000000  14.0030740  12.0000000  12.0000000  12.0000000  12.0000000
 NucSpn=           0           0           0           0           0           2           0           0           0           0
 AtZEff=  -0.0000000  -0.0000000  -0.0000000  -0.0000000  -0.0000000  -0.0000000  -0.0000000  -0.0000000  -0.0000000  -0.0000000
 NQMom=    0.0000000   0.0000000   0.0000000   0.0000000   0.0000000   2.0440000   0.0000000   0.0000000   0.0000000   0.0000000
 NMagM=    0.0000000   0.0000000   0.0000000   0.0000000   0.0000000   0.4037610   0.0000000   0.0000000   0.0000000   0.0000000
 AtZNuc=   6.0000000   6.0000000   6.0000000   8.0000000   6.0000000   7.0000000   6.0000000   6.0000000   6.0000000   6.0000000

  Atom        31          32          33          34          35          36          37          38          39          40
 IAtWgt=          12          12          12          14          12          12          12          12          12          12
 AtmWgt=  12.0000000  12.0000000  12.0000000  14.0030740  12.0000000  12.0000000  12.0000000  12.0000000  12.0000000  12.0000000
 NucSpn=           0           0           0           2           0           0           0           0           0           0
 AtZEff=  -0.0000000  -0.0000000  -0.0000000  -0.0000000  -0.0000000  -0.0000000  -0.0000000  -0.0000000  -0.0000000  -0.0000000
 NQMom=    0.0000000   0.0000000   0.0000000   2.0440000   0.0000000   0.0000000   0.0000000   0.0000000   0.0000000   0.0000000
 NMagM=    0.0000000   0.0000000   0.0000000   0.4037610   0.0000000   0.0000000   0.0000000   0.0000000   0.0000000   0.0000000
 AtZNuc=   6.0000000   6.0000000   6.0000000   7.0000000   6.0000000   6.0000000   6.0000000   6.0000000   6.0000000   6.0000000

  Atom        41          42          43          44          45          46          47          48          49          50
 IAtWgt=          16          12          12          16          16          12          12          12          12          12
 AtmWgt=  15.9949146  12.0000000  12.0000000  15.9949146  15.9949146  12.0000000  12.0000000  12.0000000  12.0000000  12.0000000
 NucSpn=           0           0           0           0           0           0           0           0           0           0
 AtZEff=  -0.0000000  -0.0000000  -0.0000000  -0.0000000  -0.0000000  -0.0000000  -0.0000000  -0.0000000  -0.0000000  -0.0000000
 NQMom=    0.0000000   0.0000000   0.0000000   0.0000000   0.0000000   0.0000000   0.0000000   0.0000000   0.0000000   0.0000000
 NMagM=    0.0000000   0.0000000   0.0000000   0.0000000   0.0000000   0.0000000   0.0000000   0.0000000   0.0000000   0.0000000
 AtZNuc=   8.0000000   6.0000000   6.0000000   8.0000000   8.0000000   6.0000000   6.0000000   6.0000000   6.0000000   6.0000000

  Atom        51          52          53          54          55          56          57          58          59          60
 IAtWgt=          12          12          12          12          12          12          12          12          12          12
 AtmWgt=  12.0000000  12.0000000  12.0000000  12.0000000  12.0000000  12.0000000  12.0000000  12.0000000  12.0000000  12.0000000
 NucSpn=           0           0           0           0           0           0           0           0           0           0
 AtZEff=  -0.0000000  -0.0000000  -0.0000000  -0.0000000  -0.0000000  -0.0000000  -0.0000000  -0.0000000  -0.0000000  -0.0000000
 NQMom=    0.0000000   0.0000000   0.0000000   0.0000000   0.0000000   0.0000000   0.0000000   0.0000000   0.0000000   0.0000000
 NMagM=    0.0000000   0.0000000   0.0000000   0.0000000   0.0000000   0.0000000   0.0000000   0.0000000   0.0000000   0.0000000
 AtZNuc=   6.0000000   6.0000000   6.0000000   6.0000000   6.0000000   6.0000000   6.0000000   6.0000000   6.0000000   6.0000000

  Atom        61          62          63          64          65          66          67          68          69          70
 IAtWgt=          12          12          12          12          12          12           1           1           1           1
 AtmWgt=  12.0000000  12.0000000  12.0000000  12.0000000  12.0000000  12.0000000   1.0078250   1.0078250   1.0078250   1.0078250
 NucSpn=           0           0           0           0           0           0           1           1           1           1
 AtZEff=  -0.0000000  -0.0000000  -0.0000000  -0.0000000  -0.0000000  -0.0000000  -0.0000000  -0.0000000  -0.0000000  -0.0000000
 NQMom=    0.0000000   0.0000000   0.0000000   0.0000000   0.0000000   0.0000000   0.0000000   0.0000000   0.0000000   0.0000000
 NMagM=    0.0000000   0.0000000   0.0000000   0.0000000   0.0000000   0.0000000   2.7928460   2.7928460   2.7928460   2.7928460
 AtZNuc=   6.0000000   6.0000000   6.0000000   6.0000000   6.0000000   6.0000000   1.0000000   1.0000000   1.0000000   1.0000000

  Atom        71          72          73          74          75          76          77          78          79          80
 IAtWgt=           1           1           1           1           1           1           1           1           1           1
 AtmWgt=   1.0078250   1.0078250   1.0078250   1.0078250   1.0078250   1.0078250   1.0078250   1.0078250   1.0078250   1.0078250
 NucSpn=           1           1           1           1           1           1           1           1           1           1
 AtZEff=  -0.0000000  -0.0000000  -0.0000000  -0.0000000  -0.0000000  -0.0000000  -0.0000000  -0.0000000  -0.0000000  -0.0000000
 NQMom=    0.0000000   0.0000000   0.0000000   0.0000000   0.0000000   0.0000000   0.0000000   0.0000000   0.0000000   0.0000000
 NMagM=    2.7928460   2.7928460   2.7928460   2.7928460   2.7928460   2.7928460   2.7928460   2.7928460   2.7928460   2.7928460
 AtZNuc=   1.0000000   1.0000000   1.0000000   1.0000000   1.0000000   1.0000000   1.0000000   1.0000000   1.0000000   1.0000000

  Atom        81          82          83          84          85          86          87          88          89          90
 IAtWgt=           1           1           1           1           1           1           1           1           1           1
 AtmWgt=   1.0078250   1.0078250   1.0078250   1.0078250   1.0078250   1.0078250   1.0078250   1.0078250   1.0078250   1.0078250
 NucSpn=           1           1           1           1           1           1           1           1           1           1
 AtZEff=  -0.0000000  -0.0000000  -0.0000000  -0.0000000  -0.0000000  -0.0000000  -0.0000000  -0.0000000  -0.0000000  -0.0000000
 NQMom=    0.0000000   0.0000000   0.0000000   0.0000000   0.0000000   0.0000000   0.0000000   0.0000000   0.0000000   0.0000000
 NMagM=    2.7928460   2.7928460   2.7928460   2.7928460   2.7928460   2.7928460   2.7928460   2.7928460   2.7928460   2.7928460
 AtZNuc=   1.0000000   1.0000000   1.0000000   1.0000000   1.0000000   1.0000000   1.0000000   1.0000000   1.0000000   1.0000000

  Atom        91          92          93          94          95          96          97          98          99         100
 IAtWgt=           1           1           1           1           1           1           1           1           1           1
 AtmWgt=   1.0078250   1.0078250   1.0078250   1.0078250   1.0078250   1.0078250   1.0078250   1.0078250   1.0078250   1.0078250
 NucSpn=           1           1           1           1           1           1           1           1           1           1
 AtZEff=  -0.0000000  -0.0000000  -0.0000000  -0.0000000  -0.0000000  -0.0000000  -0.0000000  -0.0000000  -0.0000000  -0.0000000
 NQMom=    0.0000000   0.0000000   0.0000000   0.0000000   0.0000000   0.0000000   0.0000000   0.0000000   0.0000000   0.0000000
 NMagM=    2.7928460   2.7928460   2.7928460   2.7928460   2.7928460   2.7928460   2.7928460   2.7928460   2.7928460   2.7928460
 AtZNuc=   1.0000000   1.0000000   1.0000000   1.0000000   1.0000000   1.0000000   1.0000000   1.0000000   1.0000000   1.0000000

  Atom       101         102         103         104         105         106         107         108         109         110
 IAtWgt=           1           1           1           1           1           1           1           1           1           1
 AtmWgt=   1.0078250   1.0078250   1.0078250   1.0078250   1.0078250   1.0078250   1.0078250   1.0078250   1.0078250   1.0078250
 NucSpn=           1           1           1           1           1           1           1           1           1           1
 AtZEff=  -0.0000000  -0.0000000  -0.0000000  -0.0000000  -0.0000000  -0.0000000  -0.0000000  -0.0000000  -0.0000000  -0.0000000
 NQMom=    0.0000000   0.0000000   0.0000000   0.0000000   0.0000000   0.0000000   0.0000000   0.0000000   0.0000000   0.0000000
 NMagM=    2.7928460   2.7928460   2.7928460   2.7928460   2.7928460   2.7928460   2.7928460   2.7928460   2.7928460   2.7928460
 AtZNuc=   1.0000000   1.0000000   1.0000000   1.0000000   1.0000000   1.0000000   1.0000000   1.0000000   1.0000000   1.0000000

  Atom       111         112         113         114         115         116         117         118         119         120
 IAtWgt=           1           1           1           1           1           1           1           1           1           1
 AtmWgt=   1.0078250   1.0078250   1.0078250   1.0078250   1.0078250   1.0078250   1.0078250   1.0078250   1.0078250   1.0078250
 NucSpn=           1           1           1           1           1           1           1           1           1           1
 AtZEff=  -0.0000000  -0.0000000  -0.0000000  -0.0000000  -0.0000000  -0.0000000  -0.0000000  -0.0000000  -0.0000000  -0.0000000
 NQMom=    0.0000000   0.0000000   0.0000000   0.0000000   0.0000000   0.0000000   0.0000000   0.0000000   0.0000000   0.0000000
 NMagM=    2.7928460   2.7928460   2.7928460   2.7928460   2.7928460   2.7928460   2.7928460   2.7928460   2.7928460   2.7928460
 AtZNuc=   1.0000000   1.0000000   1.0000000   1.0000000   1.0000000   1.0000000   1.0000000   1.0000000   1.0000000   1.0000000

  Atom       121         122         123         124         125         126         127         128         129         130
 IAtWgt=           1           1           1           1           1           1           1           1           1           1
 AtmWgt=   1.0078250   1.0078250   1.0078250   1.0078250   1.0078250   1.0078250   1.0078250   1.0078250   1.0078250   1.0078250
 NucSpn=           1           1           1           1           1           1           1           1           1           1
 AtZEff=  -0.0000000  -0.0000000  -0.0000000  -0.0000000  -0.0000000  -0.0000000  -0.0000000  -0.0000000  -0.0000000  -0.0000000
 NQMom=    0.0000000   0.0000000   0.0000000   0.0000000   0.0000000   0.0000000   0.0000000   0.0000000   0.0000000   0.0000000
 NMagM=    2.7928460   2.7928460   2.7928460   2.7928460   2.7928460   2.7928460   2.7928460   2.7928460   2.7928460   2.7928460
 AtZNuc=   1.0000000   1.0000000   1.0000000   1.0000000   1.0000000   1.0000000   1.0000000   1.0000000   1.0000000   1.0000000

  Atom       131         132         133         134         135         136         137         138         139         140
 IAtWgt=           1           1           1           1           1           1           1           1           1           1
 AtmWgt=   1.0078250   1.0078250   1.0078250   1.0078250   1.0078250   1.0078250   1.0078250   1.0078250   1.0078250   1.0078250
 NucSpn=           1           1           1           1           1           1           1           1           1           1
 AtZEff=  -0.0000000  -0.0000000  -0.0000000  -0.0000000  -0.0000000  -0.0000000  -0.0000000  -0.0000000  -0.0000000  -0.0000000
 NQMom=    0.0000000   0.0000000   0.0000000   0.0000000   0.0000000   0.0000000   0.0000000   0.0000000   0.0000000   0.0000000
 NMagM=    2.7928460   2.7928460   2.7928460   2.7928460   2.7928460   2.7928460   2.7928460   2.7928460   2.7928460   2.7928460
 AtZNuc=   1.0000000   1.0000000   1.0000000   1.0000000   1.0000000   1.0000000   1.0000000   1.0000000   1.0000000   1.0000000
 Leave Link  101 at Fri Apr 29 14:28:22 2022, MaxMem=  6710886400 cpu:               2.9 elap:               0.1
 (Enter /sw/apps/gaussian-16.0/g16/l202.exe)
 Stoichiometry    C55H74MgN4O6
 Framework group  C1[X(C55H74MgN4O6)]
 Deg. of freedom   414
 Full point group                 C1      NOp   1
 Largest Abelian subgroup         C1      NOp   1
 Largest concise Abelian subgroup C1      NOp   1
                         Standard orientation:                         
 ---------------------------------------------------------------------
 Center     Atomic      Atomic             Coordinates (Angstroms)
 Number     Number       Type             X           Y           Z
 ---------------------------------------------------------------------
      1         12           0        5.180715    0.513169   -0.541072
      2          6           0        3.890524   -2.749550   -0.213246
      3          6           0        2.674234    1.136695   -2.796237
      4          6           0        5.730124    3.833671    0.004908
      5          6           0        7.402327   -0.248041    2.032161
      6          7           0        3.447758   -0.648541   -1.246588
      7          6           0        3.120515   -1.944618   -1.019621
      8          6           0        1.878847   -2.407763   -1.687058
      9          6           0        1.710278   -1.264505   -2.735275
     10          6           0        2.674897   -0.149329   -2.203382
     11          6           0        2.031290   -1.709509   -4.146957
     12          6           0        0.619929   -2.587762   -0.814820
     13          6           0       -0.528811   -3.415553   -1.319622
     14          6           0       -1.828590   -2.685098   -1.557939
     15          8           0       -2.333707   -2.448775   -2.612138
     16          8           0       -2.451419   -2.479348   -0.363822
     17          7           0        4.319769    2.232527   -1.351438
     18          6           0        3.465994    2.257240   -2.394668
     19          6           0        3.367962    3.636076   -2.813814
     20          6           0        4.098719    4.406075   -1.921549
     21          6           0        4.807164    3.516887   -1.075453
     22          6           0        2.444627    4.098244   -3.935989
     23          6           0        4.221399    5.917797   -2.030088
     24          8           0        3.819020    6.594130   -2.939453
     25          6           0        4.961000    6.691035   -0.945642
     26          7           0        6.257724    1.615721    0.971899
     27          6           0        6.401592    2.937211    0.842238
     28          6           0        7.522584    3.504745    1.780203
     29          6           0        8.068414    2.185312    2.420325
     30          6           0        7.231115    1.070021    1.758587
     31          6           0        8.585209    4.519597    1.118177
     32          6           0        8.033802    2.080292    4.033551
     33          6           0        9.246142    1.498882    4.782594
     34          7           0        5.713073   -1.232803    0.657176
     35          6           0        6.634237   -1.352843    1.614194
     36          6           0        6.707948   -2.752668    2.015649
     37          6           0        5.613923   -3.317917    1.335785
     38          6           0        5.064192   -2.356848    0.509715
     39          6           0        7.684971   -3.324507    3.085147
     40          6           0        4.813209   -4.540720    1.203897
     41          8           0        4.861817   -5.591647    1.781753
     42          6           0        3.722017   -4.195821    0.177628
     43          6           0        3.732840   -5.124370   -0.951435
     44          8           0        2.739671   -5.836843   -1.219508
     45          8           0        4.910847   -5.086169   -1.607579
     46          6           0        4.919057   -5.715378   -2.946017
     47          6           0       -3.724453   -1.796733   -0.356504
     48          6           0       -3.688945   -0.607186    0.553483
     49          6           0       -4.316285   -0.255116    1.735938
     50          6           0       -5.109112   -1.146479    2.596111
     51          6           0       -4.098363    1.197481    2.228123
     52          6           0       -4.899402    2.354960    1.550529
     53          6           0       -6.442112    2.356364    1.819856
     54          6           0       -7.392794    2.622826    0.598683
     55          6           0       -7.747752    4.137694    0.435009
     56          6           0       -8.730560    1.843774    0.544801
     57          6           0       -8.525221    0.327997    0.286909
     58          6           0       -9.268014   -0.521080    1.263501
     59          6           0      -10.646979   -0.819771    0.711521
     60          6           0      -10.462659   -2.100861   -0.082651
     61          6           0      -11.676713   -0.952906    1.819435
     62          6           0      -12.711624    0.222032    1.622280
     63          6           0      -13.861262   -0.222144    0.728834
     64          6           0      -14.578550    0.960482   -0.018325
     65          6           0      -16.117786    0.627962   -0.339798
     66          6           0      -13.801331    1.077983   -1.338347
     67          1           0        1.918522    1.285185   -3.570908
     68          1           0        6.037169    4.851083    0.256591
     69          1           0        8.183477   -0.551589    2.731638
     70          1           0        2.094802   -3.425795   -2.012498
     71          1           0        0.657009   -0.999410   -2.824267
     72          1           0        2.924754   -1.152925   -4.429336
     73          1           0        1.161145   -1.442446   -4.747390
     74          1           0        2.201021   -2.781445   -4.044640
     75          1           0        0.292726   -1.598893   -0.493183
     76          1           0        1.024504   -2.974576    0.120155
     77          1           0       -0.638222   -4.280316   -0.665747
     78          1           0       -0.366234   -3.826705   -2.315405
     79          1           0        1.484954    4.443555   -3.551976
     80          1           0        2.244722    3.233091   -4.568392
     81          1           0        2.643851    4.896708   -4.651695
     82          1           0        6.032608    6.541354   -1.076553
     83          1           0        4.534567    6.345848   -0.003077
     84          1           0        4.727933    7.750691   -1.050551
     85          1           0        6.993999    4.049751    2.561320
     86          1           0        9.091738    2.027937    2.079752
     87          1           0        8.245113    5.475405    1.514906
     88          1           0        8.544057    4.554758    0.029159
     89          1           0        9.591766    4.305190    1.478446
     90          1           0        7.134653    1.637030    4.461529
     91          1           0        7.910177    3.123701    4.322521
     92          1           0        9.374604    1.990771    5.746785
     93          1           0       10.170714    1.485464    4.206497
     94          1           0        8.943645    0.494368    5.079015
     95          1           0        7.115618   -3.301244    4.014644
     96          1           0        8.638325   -2.817154    3.240480
     97          1           0        7.985069   -4.354998    2.899270
     98          1           0        2.759372   -4.195486    0.690051
     99          1           0        4.914271   -4.933147   -3.705109
    100          1           0        4.064801   -6.376615   -3.093851
    101          1           0        5.793585   -6.342508   -3.118302
    102          1           0       -4.500952   -2.504215   -0.062909
    103          1           0       -3.978138   -1.362374   -1.323796
    104          1           0       -3.237827    0.222701    0.009509
    105          1           0       -5.931503   -0.444494    2.733119
    106          1           0       -4.451340   -1.267989    3.457532
    107          1           0       -5.351575   -2.101329    2.129250
    108          1           0       -3.050079    1.426785    2.041252
    109          1           0       -4.238149    1.349527    3.298569
    110          1           0       -4.569893    2.510857    0.523243
    111          1           0       -4.562554    3.264109    2.049138
    112          1           0       -6.506788    3.152181    2.562996
    113          1           0       -6.803076    1.483896    2.364171
    114          1           0       -6.814865    2.338953   -0.280494
    115          1           0       -7.436439    4.636554    1.352656
    116          1           0       -8.795585    4.376410    0.251758
    117          1           0       -7.257073    4.551741   -0.446100
    118          1           0       -9.308095    2.135310   -0.331259
    119          1           0       -9.324954    2.012313    1.442978
    120          1           0       -7.465961    0.095126    0.398961
    121          1           0       -8.715943    0.197047   -0.777742
    122          1           0       -9.293742   -0.010385    2.226863
    123          1           0       -8.695486   -1.444487    1.352432
    124          1           0      -10.862863   -0.062262   -0.042259
    125          1           0       -9.526841   -2.146396   -0.639383
    126          1           0      -11.236541   -2.190492   -0.846092
    127          1           0      -10.653410   -2.995925    0.509852
    128          1           0      -11.173164   -0.933783    2.786514
    129          1           0      -12.247617   -1.881698    1.794832
    130          1           0      -12.182928    1.123436    1.310298
    131          1           0      -13.337531    0.317440    2.509282
    132          1           0      -14.674958   -0.634120    1.327579
    133          1           0      -13.555463   -1.008014    0.038931
    134          1           0      -14.471176    1.846845    0.606011
    135          1           0      -16.352653    0.407366   -1.381716
    136          1           0      -16.757297    1.477560   -0.100420
    137          1           0      -16.572191   -0.104040    0.328049
    138          1           0      -13.674711    2.114803   -1.650343
    139          1           0      -14.302276    0.619052   -2.190313
    140          1           0      -12.808432    0.632667   -1.273334
 ---------------------------------------------------------------------
 Rotational constants (GHZ):           0.0421726           0.0109359           0.0098122
 Leave Link  202 at Fri Apr 29 14:28:22 2022, MaxMem=  6710886400 cpu:               0.2 elap:               0.0
 (Enter /sw/apps/gaussian-16.0/g16/l301.exe)
 Standard basis: VSTO-6G (5D, 7F)
 Ernie: Thresh=  0.10000D-02 Tol=  0.10000D-05 Strict=F.
 There are   338 symmetry adapted cartesian basis functions of A   symmetry.
 There are   338 symmetry adapted basis functions of A   symmetry.
   338 basis functions,  2028 primitive gaussians,   338 cartesian basis functions
   176 alpha electrons      176 beta electrons
       nuclear repulsion energy      4868.2541105354 Hartrees.
 IExCor=    0 DFT=F Ex=HF Corr=None ExCW=0 ScaHFX=  1.000000
 ScaDFX=  1.000000  1.000000  1.000000  1.000000 ScalE2=  1.000000  1.000000
 IRadAn=      5 IRanWt=     -1 IRanGd=            0 ICorTp=0 IEmpDi=  4
 Integral buffers will be    131072 words long.
 Regular integral format.
 Two-electron integral symmetry is turned off.
 Leave Link  301 at Fri Apr 29 14:28:22 2022, MaxMem=  6710886400 cpu:               1.2 elap:               0.1
 (Enter /sw/apps/gaussian-16.0/g16/l302.exe)
 Do NDO integrals.
 NPDir=0 NMtPBC=     1 NCelOv=     1 NCel=       1 NClECP=     1 NCelD=      1
         NCelK=      1 NCelE2=     1 NClLst=     1 CellRange=     0.0.
 One-electron integrals computed using PRISM.
 Generate ZINDO/S integrals.
 NDO Nuclear repulsion=  4378.576858766155 Hartrees.
 NBasis=   338 RedAO= F EigKep=  0.00D+00  NBF=   338
 NBsUse=   338 1.00D-04 EigRej=  0.00D+00 NBFU=   338
 Leave Link  302 at Fri Apr 29 14:28:22 2022, MaxMem=  6710886400 cpu:               8.7 elap:               0.4
 (Enter /sw/apps/gaussian-16.0/g16/l303.exe)
 DipDrv:  MaxL=1.
 DipDrv:  will hold  3 matrices at once.
 Leave Link  303 at Fri Apr 29 14:28:22 2022, MaxMem=  6710886400 cpu:               1.0 elap:               0.1
 (Enter /sw/apps/gaussian-16.0/g16/l308.exe)
 Leave Link  308 at Fri Apr 29 14:28:23 2022, MaxMem=  6710886400 cpu:               5.7 elap:               0.3
 (Enter /sw/apps/gaussian-16.0/g16/l401.exe)
 Simple Huckel Guess.
 JPrj=0 DoOrth=F DoCkMO=F.
 Leave Link  401 at Fri Apr 29 14:28:23 2022, MaxMem=  6710886400 cpu:               3.0 elap:               0.1
 (Enter /sw/apps/gaussian-16.0/g16/l502.exe)
 Two-electron integral symmetry not used.
 Closed shell SCF:
 Using DIIS extrapolation, IDIIS=  1040.
 Overlap will be assumed to be unity.
 NGot=  6710886400 LenX=  6710643598 LenY=  6710528913
 Requested convergence on RMS density matrix=1.00D-08 within 128 cycles.
 Requested convergence on MAX density matrix=1.00D-06.
 Requested convergence on             energy=1.00D-06.
 No special actions if energy rises.
 Fock matrices will be formed incrementally for  20 cycles.

 Cycle   1  Pass 1  IDiag  1:
 E= -472.727977887564    
 DIIS: error= 5.32D-02 at cycle   1 NSaved=   1.
 NSaved= 1 IEnMin= 1 EnMin= -472.727977887564     IErMin= 1 ErrMin= 5.32D-02
 ErrMax= 5.32D-02  0.00D+00 EMaxC= 1.00D-01 BMatC= 8.38D-01 BMatP= 8.38D-01
 IDIUse=3 WtCom= 4.68D-01 WtEn= 5.32D-01
 Coeff-Com:  0.100D+01
 Coeff-En:   0.100D+01
 Coeff:      0.100D+01
 GapD=    2.000 DampG=2.000 DampE=0.500 DampFc=1.0000 IDamp=-1.
 RMSDP=3.98D-03 MaxDP=1.45D-01              OVMax= 0.00D+00

 Cycle   2  Pass 1  IDiag  1:
 RMSU=  3.98D-03    CP:  9.95D-01
 E= -474.561699726398     Delta-E=       -1.833721838834 Rises=F Damp=F
 DIIS: error= 1.84D-02 at cycle   2 NSaved=   2.
 NSaved= 2 IEnMin= 2 EnMin= -474.561699726398     IErMin= 2 ErrMin= 1.84D-02
 ErrMax= 1.84D-02  0.00D+00 EMaxC= 1.00D-01 BMatC= 5.17D-02 BMatP= 8.38D-01
 IDIUse=3 WtCom= 8.16D-01 WtEn= 1.84D-01
 Coeff-Com: -0.767D-01 0.108D+01
 Coeff-En:   0.000D+00 0.100D+01
 Coeff:     -0.626D-01 0.106D+01
 RMSDP=1.10D-03 MaxDP=4.90D-02 DE=-1.83D+00 OVMax= 0.00D+00

 Cycle   3  Pass 1  IDiag  1:
 RMSU=  1.02D-03    CP:  9.93D-01  1.10D+00
 E= -474.663169800738     Delta-E=       -0.101470074340 Rises=F Damp=F
 DIIS: error= 7.36D-03 at cycle   3 NSaved=   3.
 NSaved= 3 IEnMin= 3 EnMin= -474.663169800738     IErMin= 3 ErrMin= 7.36D-03
 ErrMax= 7.36D-03  0.00D+00 EMaxC= 1.00D-01 BMatC= 7.07D-03 BMatP= 5.17D-02
 IDIUse=3 WtCom= 9.26D-01 WtEn= 7.36D-02
 Coeff-Com: -0.672D-01 0.243D+00 0.824D+00
 Coeff-En:   0.000D+00 0.000D+00 0.100D+01
 Coeff:     -0.623D-01 0.225D+00 0.837D+00
 RMSDP=3.69D-04 MaxDP=1.60D-02 DE=-1.01D-01 OVMax= 0.00D+00

 Cycle   4  Pass 1  IDiag  1:
 RMSU=  2.40D-04    CP:  9.93D-01  1.17D+00  9.19D-01
 E= -474.675788017828     Delta-E=       -0.012618217091 Rises=F Damp=F
 DIIS: error= 1.09D-03 at cycle   4 NSaved=   4.
 NSaved= 4 IEnMin= 4 EnMin= -474.675788017828     IErMin= 4 ErrMin= 1.09D-03
 ErrMax= 1.09D-03  0.00D+00 EMaxC= 1.00D-01 BMatC= 3.04D-04 BMatP= 7.07D-03
 IDIUse=3 WtCom= 9.89D-01 WtEn= 1.09D-02
 Coeff-Com: -0.167D-03-0.341D-01 0.313D-01 0.100D+01
 Coeff-En:   0.000D+00 0.000D+00 0.000D+00 0.100D+01
 Coeff:     -0.165D-03-0.337D-01 0.310D-01 0.100D+01
 RMSDP=1.26D-04 MaxDP=4.58D-03 DE=-1.26D-02 OVMax= 0.00D+00

 Cycle   5  Pass 1  IDiag  1:
 RMSU=  8.29D-05    CP:  9.93D-01  1.17D+00  1.01D+00  1.10D+00
 E= -474.676815895775     Delta-E=       -0.001027877946 Rises=F Damp=F
 DIIS: error= 6.15D-04 at cycle   5 NSaved=   5.
 NSaved= 5 IEnMin= 5 EnMin= -474.676815895775     IErMin= 5 ErrMin= 6.15D-04
 ErrMax= 6.15D-04  0.00D+00 EMaxC= 1.00D-01 BMatC= 5.25D-05 BMatP= 3.04D-04
 IDIUse=3 WtCom= 9.94D-01 WtEn= 6.15D-03
 Coeff-Com:  0.584D-02-0.239D-01-0.907D-01 0.159D+00 0.950D+00
 Coeff-En:   0.000D+00 0.000D+00 0.000D+00 0.000D+00 0.100D+01
 Coeff:      0.581D-02-0.238D-01-0.901D-01 0.158D+00 0.950D+00
 RMSDP=6.60D-05 MaxDP=2.51D-03 DE=-1.03D-03 OVMax= 0.00D+00

 Cycle   6  Pass 1  IDiag  1:
 RMSU=  3.66D-05    CP:  9.92D-01  1.17D+00  1.02D+00  1.30D+00  1.26D+00
 E= -474.677039648474     Delta-E=       -0.000223752699 Rises=F Damp=F
 DIIS: error= 1.76D-04 at cycle   6 NSaved=   6.
 NSaved= 6 IEnMin= 6 EnMin= -474.677039648474     IErMin= 6 ErrMin= 1.76D-04
 ErrMax= 1.76D-04  0.00D+00 EMaxC= 1.00D-01 BMatC= 8.91D-06 BMatP= 5.25D-05
 IDIUse=3 WtCom= 9.98D-01 WtEn= 1.76D-03
 Coeff-Com: -0.437D-03 0.693D-02-0.975D-02-0.118D+00 0.118D-01 0.111D+01
 Coeff-En:   0.000D+00 0.000D+00 0.000D+00 0.000D+00 0.000D+00 0.100D+01
 Coeff:     -0.436D-03 0.692D-02-0.974D-02-0.118D+00 0.118D-01 0.111D+01
 RMSDP=4.68D-05 MaxDP=1.44D-03 DE=-2.24D-04 OVMax= 0.00D+00

 Cycle   7  Pass 1  IDiag  1:
 RMSU=  1.76D-05    CP:  9.92D-01  1.17D+00  1.03D+00  1.36D+00  1.62D+00
                    CP:  1.71D+00
 E= -474.677117518027     Delta-E=       -0.000077869553 Rises=F Damp=F
 DIIS: error= 8.66D-05 at cycle   7 NSaved=   7.
 NSaved= 7 IEnMin= 7 EnMin= -474.677117518027     IErMin= 7 ErrMin= 8.66D-05
 ErrMax= 8.66D-05  0.00D+00 EMaxC= 1.00D-01 BMatC= 2.71D-06 BMatP= 8.91D-06
 IDIUse=1 WtCom= 1.00D+00 WtEn= 0.00D+00
 Coeff-Com: -0.715D-03 0.203D-02 0.128D-01 0.612D-02-0.133D+00-0.241D+00
 Coeff-Com:  0.135D+01
 Coeff:     -0.715D-03 0.203D-02 0.128D-01 0.612D-02-0.133D+00-0.241D+00
 Coeff:      0.135D+01
 RMSDP=4.48D-05 MaxDP=1.17D-03 DE=-7.79D-05 OVMax= 0.00D+00

 Cycle   8  Pass 1  IDiag  1:
 RMSU=  7.14D-06    CP:  9.92D-01  1.17D+00  1.04D+00  1.41D+00  1.89D+00
                    CP:  2.52D+00  2.15D+00
 E= -474.677167451727     Delta-E=       -0.000049933700 Rises=F Damp=F
 DIIS: error= 5.86D-05 at cycle   8 NSaved=   8.
 NSaved= 8 IEnMin= 8 EnMin= -474.677167451727     IErMin= 8 ErrMin= 5.86D-05
 ErrMax= 5.86D-05  0.00D+00 EMaxC= 1.00D-01 BMatC= 1.61D-06 BMatP= 2.71D-06
 IDIUse=1 WtCom= 1.00D+00 WtEn= 0.00D+00
 Coeff-Com:  0.484D-03-0.424D-02 0.834D-03 0.582D-01 0.242D-01-0.454D+00
 Coeff-Com: -0.400D+00 0.178D+01
 Coeff:      0.484D-03-0.424D-02 0.834D-03 0.582D-01 0.242D-01-0.454D+00
 Coeff:     -0.400D+00 0.178D+01
 RMSDP=5.93D-05 MaxDP=1.43D-03 DE=-4.99D-05 OVMax= 0.00D+00

 Cycle   9  Pass 1  IDiag  1:
 RMSU=  2.71D-05    CP:  9.92D-01  1.17D+00  1.04D+00  1.46D+00  2.22D+00
                    CP:  3.00D+00  3.00D+00  2.44D+00
 E= -474.677212542385     Delta-E=       -0.000045090658 Rises=F Damp=F
 DIIS: error= 3.85D-05 at cycle   9 NSaved=   9.
 NSaved= 9 IEnMin= 9 EnMin= -474.677212542385     IErMin= 9 ErrMin= 3.85D-05
 ErrMax= 3.85D-05  0.00D+00 EMaxC= 1.00D-01 BMatC= 5.50D-07 BMatP= 1.61D-06
 IDIUse=1 WtCom= 1.00D+00 WtEn= 0.00D+00
 Coeff-Com:  0.367D-03-0.101D-02-0.676D-02-0.492D-02 0.709D-01 0.163D+00
 Coeff-Com: -0.803D+00 0.547D-01 0.153D+01
 Coeff:      0.367D-03-0.101D-02-0.676D-02-0.492D-02 0.709D-01 0.163D+00
 Coeff:     -0.803D+00 0.547D-01 0.153D+01
 RMSDP=5.21D-05 MaxDP=1.22D-03 DE=-4.51D-05 OVMax= 0.00D+00

 Cycle  10  Pass 1  IDiag  1:
 RMSU=  9.82D-06    CP:  9.92D-01  1.17D+00  1.04D+00  1.50D+00  2.50D+00
                    CP:  3.00D+00  3.00D+00  3.00D+00  2.61D+00
 E= -474.677233132898     Delta-E=       -0.000020590513 Rises=F Damp=F
 DIIS: error= 2.53D-05 at cycle  10 NSaved=  10.
 NSaved=10 IEnMin=10 EnMin= -474.677233132898     IErMin=10 ErrMin= 2.53D-05
 ErrMax= 2.53D-05  0.00D+00 EMaxC= 1.00D-01 BMatC= 1.28D-07 BMatP= 5.50D-07
 IDIUse=1 WtCom= 1.00D+00 WtEn= 0.00D+00
 Coeff-Com: -0.184D-03 0.136D-02 0.454D-03-0.179D-01-0.106D-01 0.126D+00
 Coeff-Com:  0.140D+00-0.474D+00-0.278D+00 0.151D+01
 Coeff:     -0.184D-03 0.136D-02 0.454D-03-0.179D-01-0.106D-01 0.126D+00
 Coeff:      0.140D+00-0.474D+00-0.278D+00 0.151D+01
 RMSDP=2.86D-05 MaxDP=6.90D-04 DE=-2.06D-05 OVMax= 0.00D+00

 Cycle  11  Pass 1  IDiag  1:
 RMSU=  1.42D-05    CP:  9.92D-01  1.17D+00  1.05D+00  1.52D+00  2.64D+00
                    CP:  3.00D+00  3.00D+00  3.00D+00  3.00D+00  1.76D+00
 E= -474.677237162744     Delta-E=       -0.000004029846 Rises=F Damp=F
 DIIS: error= 9.62D-06 at cycle  11 NSaved=  11.
 NSaved=11 IEnMin=11 EnMin= -474.677237162744     IErMin=11 ErrMin= 9.62D-06
 ErrMax= 9.62D-06  0.00D+00 EMaxC= 1.00D-01 BMatC= 1.80D-08 BMatP= 1.28D-07
 IDIUse=1 WtCom= 1.00D+00 WtEn= 0.00D+00
 Coeff-Com: -0.734D-04 0.287D-03 0.125D-02-0.170D-02-0.118D-01-0.127D-01
 Coeff-Com:  0.138D+00-0.426D-03-0.338D+00 0.182D+00 0.104D+01
 Coeff:     -0.734D-04 0.287D-03 0.125D-02-0.170D-02-0.118D-01-0.127D-01
 Coeff:      0.138D+00-0.426D-03-0.338D+00 0.182D+00 0.104D+01
 RMSDP=3.73D-06 MaxDP=9.56D-05 DE=-4.03D-06 OVMax= 0.00D+00

 Cycle  12  Pass 1  IDiag  1:
 RMSU=  1.24D-06    CP:  9.92D-01  1.17D+00  1.05D+00  1.53D+00  2.65D+00
                    CP:  3.00D+00  3.00D+00  3.00D+00  3.00D+00  1.91D+00
                    CP:  1.21D+00
 E= -474.677237346957     Delta-E=       -0.000000184213 Rises=F Damp=F
 DIIS: error= 5.00D-06 at cycle  12 NSaved=  12.
 NSaved=12 IEnMin=12 EnMin= -474.677237346957     IErMin=12 ErrMin= 5.00D-06
 ErrMax= 5.00D-06  0.00D+00 EMaxC= 1.00D-01 BMatC= 3.68D-09 BMatP= 1.80D-08
 IDIUse=1 WtCom= 1.00D+00 WtEn= 0.00D+00
 Coeff-Com:  0.373D-04-0.281D-03 0.142D-04 0.345D-02 0.252D-02-0.280D-01
 Coeff-Com: -0.328D-01 0.112D+00 0.159D-01-0.295D+00 0.832D-01 0.114D+01
 Coeff:      0.373D-04-0.281D-03 0.142D-04 0.345D-02 0.252D-02-0.280D-01
 Coeff:     -0.328D-01 0.112D+00 0.159D-01-0.295D+00 0.832D-01 0.114D+01
 RMSDP=2.69D-06 MaxDP=7.95D-05 DE=-1.84D-07 OVMax= 0.00D+00

 Cycle  13  Pass 1  IDiag  1:
 RMSU=  4.84D-07    CP:  9.92D-01  1.17D+00  1.05D+00  1.53D+00  2.66D+00
                    CP:  3.00D+00  3.00D+00  3.00D+00  3.00D+00  1.99D+00
                    CP:  1.37D+00  1.39D+00
 E= -474.677237391678     Delta-E=       -0.000000044722 Rises=F Damp=F
 DIIS: error= 1.57D-06 at cycle  13 NSaved=  13.
 NSaved=13 IEnMin=13 EnMin= -474.677237391678     IErMin=13 ErrMin= 1.57D-06
 ErrMax= 1.57D-06  0.00D+00 EMaxC= 1.00D-01 BMatC= 6.51D-10 BMatP= 3.68D-09
 IDIUse=1 WtCom= 1.00D+00 WtEn= 0.00D+00
 Coeff-Com:  0.109D-04-0.555D-04-0.145D-03 0.527D-03 0.174D-02-0.156D-02
 Coeff-Com: -0.172D-01 0.174D-01 0.376D-01-0.550D-01-0.938D-01 0.733D-01
 Coeff-Com:  0.104D+01
 Coeff:      0.109D-04-0.555D-04-0.145D-03 0.527D-03 0.174D-02-0.156D-02
 Coeff:     -0.172D-01 0.174D-01 0.376D-01-0.550D-01-0.938D-01 0.733D-01
 Coeff:      0.104D+01
 RMSDP=6.27D-07 MaxDP=2.01D-05 DE=-4.47D-08 OVMax= 0.00D+00

 Cycle  14  Pass 1  IDiag  1:
 RMSU=  2.02D-07    CP:  9.92D-01  1.17D+00  1.05D+00  1.53D+00  2.66D+00
                    CP:  3.00D+00  3.00D+00  3.00D+00  3.00D+00  1.98D+00
                    CP:  1.35D+00  1.69D+00  1.50D+00
 E= -474.677237398522     Delta-E=       -0.000000006844 Rises=F Damp=F
 DIIS: error= 1.36D-06 at cycle  14 NSaved=  14.
 NSaved=14 IEnMin=14 EnMin= -474.677237398522     IErMin=14 ErrMin= 1.36D-06
 ErrMax= 1.36D-06  0.00D+00 EMaxC= 1.00D-01 BMatC= 3.02D-10 BMatP= 6.51D-10
 IDIUse=1 WtCom= 1.00D+00 WtEn= 0.00D+00
 Coeff-Com: -0.137D-04 0.982D-04 0.101D-05-0.114D-02-0.111D-02 0.913D-02
 Coeff-Com:  0.112D-01-0.406D-01-0.738D-02 0.979D-01 0.106D-01-0.418D+00
 Coeff-Com: -0.101D+00 0.144D+01
 Coeff:     -0.137D-04 0.982D-04 0.101D-05-0.114D-02-0.111D-02 0.913D-02
 Coeff:      0.112D-01-0.406D-01-0.738D-02 0.979D-01 0.106D-01-0.418D+00
 Coeff:     -0.101D+00 0.144D+01
 RMSDP=6.06D-07 MaxDP=1.87D-05 DE=-6.84D-09 OVMax= 0.00D+00

 Cycle  15  Pass 1  IDiag  1:
 RMSU=  1.80D-07    CP:  9.92D-01  1.17D+00  1.05D+00  1.53D+00  2.66D+00
                    CP:  3.00D+00  3.00D+00  3.00D+00  3.00D+00  2.00D+00
                    CP:  1.37D+00  1.87D+00  2.19D+00  1.76D+00
 E= -474.677237403505     Delta-E=       -0.000000004983 Rises=F Damp=F
 DIIS: error= 6.12D-07 at cycle  15 NSaved=  15.
 NSaved=15 IEnMin=15 EnMin= -474.677237403505     IErMin=15 ErrMin= 6.12D-07
 ErrMax= 6.12D-07  0.00D+00 EMaxC= 1.00D-01 BMatC= 9.71D-11 BMatP= 3.02D-10
 IDIUse=1 WtCom= 1.00D+00 WtEn= 0.00D+00
 Coeff-Com: -0.426D-05 0.219D-04 0.654D-04-0.162D-03-0.104D-02 0.117D-02
 Coeff-Com:  0.836D-02-0.678D-02-0.124D-01 0.139D-01 0.531D-01-0.500D-01
 Coeff-Com: -0.376D+00-0.572D-01 0.143D+01
 Coeff:     -0.426D-05 0.219D-04 0.654D-04-0.162D-03-0.104D-02 0.117D-02
 Coeff:      0.836D-02-0.678D-02-0.124D-01 0.139D-01 0.531D-01-0.500D-01
 Coeff:     -0.376D+00-0.572D-01 0.143D+01
 RMSDP=4.05D-07 MaxDP=1.07D-05 DE=-4.98D-09 OVMax= 0.00D+00

 Cycle  16  Pass 1  IDiag  1:
 RMSU=  4.80D-08    CP:  9.92D-01  1.17D+00  1.05D+00  1.53D+00  2.66D+00
                    CP:  3.00D+00  3.00D+00  3.00D+00  3.00D+00  2.00D+00
                    CP:  1.36D+00  2.04D+00  2.68D+00  2.65D+00  1.65D+00
 E= -474.677237405404     Delta-E=       -0.000000001899 Rises=F Damp=F
 DIIS: error= 3.45D-07 at cycle  16 NSaved=  16.
 NSaved=16 IEnMin=16 EnMin= -474.677237405404     IErMin=16 ErrMin= 3.45D-07
 ErrMax= 3.45D-07  0.00D+00 EMaxC= 1.00D-01 BMatC= 2.40D-11 BMatP= 9.71D-11
 IDIUse=1 WtCom= 1.00D+00 WtEn= 0.00D+00
 Coeff-Com:  0.475D-05-0.332D-04-0.212D-06 0.408D-03 0.180D-03-0.257D-02
 Coeff-Com: -0.418D-02 0.121D-01 0.454D-02-0.350D-01 0.484D-02 0.117D+00
 Coeff-Com:  0.583D-01-0.497D+00 0.726D-02 0.133D+01
 Coeff:      0.475D-05-0.332D-04-0.212D-06 0.408D-03 0.180D-03-0.257D-02
 Coeff:     -0.418D-02 0.121D-01 0.454D-02-0.350D-01 0.484D-02 0.117D+00
 Coeff:      0.583D-01-0.497D+00 0.726D-02 0.133D+01
 RMSDP=2.27D-07 MaxDP=7.45D-06 DE=-1.90D-09 OVMax= 0.00D+00

 Cycle  17  Pass 1  IDiag  1:
 RMSU=  2.62D-08    CP:  9.92D-01  1.17D+00  1.05D+00  1.53D+00  2.66D+00
                    CP:  3.00D+00  3.00D+00  3.00D+00  3.00D+00  2.00D+00
                    CP:  1.37D+00  2.12D+00  2.94D+00  3.00D+00  2.17D+00
                    CP:  1.76D+00
 E= -474.677237405830     Delta-E=       -0.000000000426 Rises=F Damp=F
 DIIS: error= 1.75D-07 at cycle  17 NSaved=  17.
 NSaved=17 IEnMin=17 EnMin= -474.677237405830     IErMin=17 ErrMin= 1.75D-07
 ErrMax= 1.75D-07  0.00D+00 EMaxC= 1.00D-01 BMatC= 2.80D-12 BMatP= 2.40D-11
 IDIUse=1 WtCom= 1.00D+00 WtEn= 0.00D+00
 Coeff-Com:  0.619D-06-0.325D-05-0.119D-04 0.366D-04 0.105D-03-0.706D-04
 Coeff-Com: -0.138D-02 0.134D-02 0.210D-02-0.298D-02-0.451D-02 0.243D-02
 Coeff-Com:  0.621D-01 0.468D-03-0.202D+00 0.544D-02 0.114D+01
 Coeff:      0.619D-06-0.325D-05-0.119D-04 0.366D-04 0.105D-03-0.706D-04
 Coeff:     -0.138D-02 0.134D-02 0.210D-02-0.298D-02-0.451D-02 0.243D-02
 Coeff:      0.621D-01 0.468D-03-0.202D+00 0.544D-02 0.114D+01
 RMSDP=4.63D-08 MaxDP=1.21D-06 DE=-4.26D-10 OVMax= 0.00D+00

 Cycle  18  Pass 1  IDiag  1:
 RMSU=  1.34D-08    CP:  9.92D-01  1.17D+00  1.05D+00  1.53D+00  2.66D+00
                    CP:  3.00D+00  3.00D+00  3.00D+00  3.00D+00  2.00D+00
                    CP:  1.37D+00  2.13D+00  2.99D+00  3.00D+00  2.27D+00
                    CP:  2.13D+00  1.73D+00
 E= -474.677237405857     Delta-E=       -0.000000000027 Rises=F Damp=F
 DIIS: error= 8.65D-08 at cycle  18 NSaved=  18.
 NSaved=18 IEnMin=18 EnMin= -474.677237405857     IErMin=18 ErrMin= 8.65D-08
 ErrMax= 8.65D-08  0.00D+00 EMaxC= 1.00D-01 BMatC= 5.02D-13 BMatP= 2.80D-12
 IDIUse=1 WtCom= 1.00D+00 WtEn= 0.00D+00
 Coeff-Com: -0.110D-05 0.761D-05 0.259D-06-0.870D-04-0.647D-04 0.600D-03
 Coeff-Com:  0.951D-03-0.257D-02-0.134D-02 0.738D-02 0.372D-03-0.266D-01
 Coeff-Com: -0.191D-01 0.102D+00 0.269D-01-0.266D+00-0.221D+00 0.140D+01
 Coeff:     -0.110D-05 0.761D-05 0.259D-06-0.870D-04-0.647D-04 0.600D-03
 Coeff:      0.951D-03-0.257D-02-0.134D-02 0.738D-02 0.372D-03-0.266D-01
 Coeff:     -0.191D-01 0.102D+00 0.269D-01-0.266D+00-0.221D+00 0.140D+01
 RMSDP=2.10D-08 MaxDP=7.18D-07 DE=-2.73D-11 OVMax= 0.00D+00

 Cycle  19  Pass 1  IDiag  1:
 RMSU=  5.62D-09    CP:  9.92D-01  1.17D+00  1.05D+00  1.53D+00  2.66D+00
                    CP:  3.00D+00  3.00D+00  3.00D+00  3.00D+00  2.00D+00
                    CP:  1.37D+00  2.14D+00  3.00D+00  3.00D+00  2.32D+00
                    CP:  2.32D+00  2.13D+00  1.29D+00
 E= -474.677237405837     Delta-E=        0.000000000020 Rises=F Damp=F
 DIIS: error= 4.18D-08 at cycle  19 NSaved=  19.
 NSaved=19 IEnMin=18 EnMin= -474.677237405857     IErMin=19 ErrMin= 4.18D-08
 ErrMax= 4.18D-08  0.00D+00 EMaxC= 1.00D-01 BMatC= 6.40D-14 BMatP= 5.02D-13
 IDIUse=1 WtCom= 1.00D+00 WtEn= 0.00D+00
 Coeff-Com:  0.172D-07-0.200D-06 0.187D-05 0.238D-05-0.889D-05-0.433D-04
 Coeff-Com:  0.591D-04 0.109D-03-0.202D-03-0.191D-03 0.552D-03 0.252D-02
 Coeff-Com: -0.630D-02-0.116D-01 0.229D-01 0.322D-01-0.148D+00-0.140D+00
 Coeff-Com:  0.125D+01
 Coeff:      0.172D-07-0.200D-06 0.187D-05 0.238D-05-0.889D-05-0.433D-04
 Coeff:      0.591D-04 0.109D-03-0.202D-03-0.191D-03 0.552D-03 0.252D-02
 Coeff:     -0.630D-02-0.116D-01 0.229D-01 0.322D-01-0.148D+00-0.140D+00
 Coeff:      0.125D+01
 RMSDP=6.02D-09 MaxDP=3.59D-07 DE= 2.00D-11 OVMax= 0.00D+00

 SCF Done:  E(RZINDO/S) =  -474.677237406     A.U. after   19 cycles
            NFock= 19  Conv=0.60D-08     -V/T= 0.9497
 KE=-9.431281257628D+03 PE=-5.085330485599D-07 EE= 4.578027161965D+03
 Leave Link  502 at Fri Apr 29 14:28:24 2022, MaxMem=  6710886400 cpu:              18.2 elap:               0.8
 (Enter /sw/apps/gaussian-16.0/g16/l801.exe)
 Range of M.O.s used for correlation:     1   338
 NBasis=   338 NAE=   176 NBE=   176 NFC=     0 NFV=     0
 NROrb=    338 NOA=   176 NOB=   176 NVA=   162 NVB=   162
 Leave Link  801 at Fri Apr 29 14:28:24 2022, MaxMem=  6710886400 cpu:               0.5 elap:               0.0
 (Enter /sw/apps/gaussian-16.0/g16/l914.exe)
 RHF ground state
 Two-electron integral symmetry not used.
 MDV=  6710886400 DFT=F DoStab=F Mixed=F DoRPA=F DoScal=F NonHer=F
 Making orbital integer symmetry assigments:
 Orbital symmetries:
       Occupied  (A) (A) (A) (A) (A) (A) (A) (A) (A) (A) (A) (A)
                 (A) (A) (A) (A) (A) (A) (A) (A) (A) (A) (A) (A)
                 (A) (A) (A) (A) (A) (A) (A) (A) (A) (A) (A) (A)
                 (A) (A) (A) (A) (A) (A) (A) (A) (A) (A) (A) (A)
                 (A) (A) (A) (A) (A) (A) (A) (A) (A) (A) (A) (A)
                 (A) (A) (A) (A) (A) (A) (A) (A) (A) (A) (A) (A)
                 (A) (A) (A) (A) (A) (A) (A) (A) (A) (A) (A) (A)
                 (A) (A) (A) (A) (A) (A) (A) (A) (A) (A) (A) (A)
                 (A) (A) (A) (A) (A) (A) (A) (A) (A) (A) (A) (A)
                 (A) (A) (A) (A) (A) (A) (A) (A) (A) (A) (A) (A)
                 (A) (A) (A) (A) (A) (A) (A) (A) (A) (A) (A) (A)
                 (A) (A) (A) (A) (A) (A) (A) (A) (A) (A) (A) (A)
                 (A) (A) (A) (A) (A) (A) (A) (A) (A) (A) (A) (A)
                 (A) (A) (A) (A) (A) (A) (A) (A) (A) (A) (A) (A)
                 (A) (A) (A) (A) (A) (A) (A) (A)
       Virtual   (A) (A) (A) (A) (A) (A) (A) (A) (A) (A) (A) (A)
                 (A) (A) (A) (A) (A) (A) (A) (A) (A) (A) (A) (A)
                 (A) (A) (A) (A) (A) (A) (A) (A) (A) (A) (A) (A)
                 (A) (A) (A) (A) (A) (A) (A) (A) (A) (A) (A) (A)
                 (A) (A) (A) (A) (A) (A) (A) (A) (A) (A) (A) (A)
                 (A) (A) (A) (A) (A) (A) (A) (A) (A) (A) (A) (A)
                 (A) (A) (A) (A) (A) (A) (A) (A) (A) (A) (A) (A)
                 (A) (A) (A) (A) (A) (A) (A) (A) (A) (A) (A) (A)
                 (A) (A) (A) (A) (A) (A) (A) (A) (A) (A) (A) (A)
                 (A) (A) (A) (A) (A) (A) (A) (A) (A) (A) (A) (A)
                 (A) (A) (A) (A) (A) (A) (A) (A) (A) (A) (A) (A)
                 (A) (A) (A) (A) (A) (A) (A) (A) (A) (A) (A) (A)
                 (A) (A) (A) (A) (A) (A) (A) (A) (A) (A) (A) (A)
                 (A) (A) (A) (A) (A) (A)
    20 initial guesses have been made.
 Convergence on wavefunction:    0.001000000000000
 Davidson Disk Diagonalization:  ConvIn= 1.00D-03 SkipCon=T Conv= 1.00D-03.
 Max sub-space:  2000 roots to seek:    20 dimension of matrix:        57024
 Iteration     1 Dimension    20 NMult     0 NNew     20
 CISAX will form    20 AO SS matrices at one time.
 NMat=    20 NSing=    20 JSym2X= 0.
 New state      3 was old state      6
 New state      4 was old state      7
 New state      5 was old state      3
 Excitation Energies [eV] at current iteration:
 Root      1 :     1.660516241393024
 Root      2 :     2.181877475055105
 Root      3 :     2.969354488738165
 Root      4 :     3.440832016838087
 Root      5 :     3.489769497176259
 Root      6 :     3.546735217766272
 Root      7 :     3.703375389605954
 Root      8 :     3.963140377642016
 Root      9 :     3.995189984865319
 Root     10 :     4.021696282518892
 Root     11 :     4.230057988636530
 Root     12 :     4.261186034560430
 Root     13 :     4.348537980224042
 Root     14 :     4.456138158474279
 Root     15 :     4.520309873787425
 Root     16 :     4.550447914503001
 Root     17 :     4.672667214069870
 Root     18 :     4.777088491737252
 Root     19 :     5.009395008187661
 Root     20 :     5.829106295230838
 Iteration     2 Dimension    40 NMult    20 NNew     20
 CISAX will form    20 AO SS matrices at one time.
 NMat=    20 NSing=    20 JSym2X= 0.
 Root      1 not converged, maximum delta is    0.034321188881405
 Root      2 not converged, maximum delta is    0.027816897294457
 Root      3 not converged, maximum delta is    0.017069295846490
 New state      4 was old state      5
 Root      4 not converged, maximum delta is    0.251958164075341
 New state      5 was old state      4
 Root      5 not converged, maximum delta is    0.330669711368094
 Excitation Energies [eV] at current iteration:
 Root      1 :     1.319603846439441   Change is   -0.340912394953583
 Root      2 :     1.974878603467588   Change is   -0.206998871587517
 Root      3 :     2.950363658492276   Change is   -0.018990830245889
 Root      4 :     3.120203492453817   Change is   -0.369566004722442
 Root      5 :     3.258392153202075   Change is   -0.182439863636012
 Root      6 :     3.318223416073455   Change is   -0.228511801692818
 Root      7 :     3.494709558060748   Change is   -0.208665831545206
 Root      8 :     3.636323701130783   Change is   -0.358866283734536
 Root      9 :     3.721534392796991   Change is   -0.241605984845024
 Root     10 :     3.795401837986589   Change is   -0.553136142237454
 Root     11 :     3.810849878139737   Change is   -0.210846404379155
 Root     12 :     3.872112582244805   Change is   -0.357945406391726
 Root     13 :     3.898169967622959   Change is   -0.652277946880043
 Root     14 :     4.109076457372203   Change is   -0.152109577188226
 Root     15 :     4.197029317532878   Change is   -0.259108840941402
 Root     16 :     4.366578878411369   Change is   -0.306088335658502
 Root     17 :     4.514833255650855   Change is   -0.005476618136569
 Root     18 :     4.553325436897069   Change is   -0.223763054840183
 Root     19 :     4.952957762224143   Change is   -0.056437245963518
 Root     20 :     5.635232098894505
 Iteration     3 Dimension    45 NMult    40 NNew      5
 CISAX will form     5 AO SS matrices at one time.
 NMat=     5 NSing=     5 JSym2X= 0.
 Root      1 not converged, maximum delta is    0.008851324351656
 Root      2 not converged, maximum delta is    0.016590922276970
 Root      3 not converged, maximum delta is    0.004550851665796
 Root      4 not converged, maximum delta is    0.013363793368137
 Root      5 not converged, maximum delta is    0.019902178429523
 Excitation Energies [eV] at current iteration:
 Root      1 :     1.304560111335222   Change is   -0.015043735104219
 Root      2 :     1.949298490556131   Change is   -0.025580112911457
 Root      3 :     2.948334380323725   Change is   -0.002029278168550
 Root      4 :     3.100992927097016   Change is   -0.019210565356801
 Root      5 :     3.226810116227779   Change is   -0.031582036974296
 Iteration     4 Dimension    50 NMult    45 NNew      5
 CISAX will form     5 AO SS matrices at one time.
 NMat=     5 NSing=     5 JSym2X= 0.
 Root      1 not converged, maximum delta is    0.001659370211927
 Root      2 not converged, maximum delta is    0.002880802944820
 Root      3 not converged, maximum delta is    0.003584847897327
 Root      4 not converged, maximum delta is    0.009351430652656
 Root      5 not converged, maximum delta is    0.025499976337586
 Excitation Energies [eV] at current iteration:
 Root      1 :     1.303822930888282   Change is   -0.000737180446941
 Root      2 :     1.948642816855358   Change is   -0.000655673700773
 Root      3 :     2.948069051351208   Change is   -0.000265328972518
 Root      4 :     3.097712356398721   Change is   -0.003280570698295
 Root      5 :     3.219260345529118   Change is   -0.007549770698660
 Iteration     5 Dimension    55 NMult    50 NNew      5
 CISAX will form     5 AO SS matrices at one time.
 NMat=     5 NSing=     5 JSym2X= 0.
 Root      1 has converged.
 Root      2 has converged.
 Root      3 not converged, maximum delta is    0.002233546030171
 Root      4 not converged, maximum delta is    0.038992273378181
 Root      5 not converged, maximum delta is    0.232965843164041
 Excitation Energies [eV] at current iteration:
 Root      1 :     1.303779145811153   Change is   -0.000043785077129
 Root      2 :     1.948603337197948   Change is   -0.000039479657409
 Root      3 :     2.948017963792061   Change is   -0.000051087559146
 Root      4 :     3.095894266925776   Change is   -0.001818089472945
 Root      5 :     3.141731386624349   Change is   -0.077528958904770
 Iteration     6 Dimension    58 NMult    55 NNew      3
 CISAX will form     3 AO SS matrices at one time.
 NMat=     3 NSing=     3 JSym2X= 0.
 Root      1 has converged.
 Root      2 has converged.
 Root      3 not converged, maximum delta is    0.011932115906775
 New state      4 was old state      5
 Root      4 not converged, maximum delta is    0.200469322792295
 New state      5 was old state      4
 Root      5 not converged, maximum delta is    0.062899015511843
 Excitation Energies [eV] at current iteration:
 Root      1 :     1.303779045769209   Change is   -0.000000100041944
 Root      2 :     1.948603039510018   Change is   -0.000000297687930
 Root      3 :     2.947930897993586   Change is   -0.000087065798475
 Root      4 :     2.985395631333869   Change is   -0.156335755290480
 Root      5 :     3.097487035616576   Change is    0.001592768690800
 Iteration     7 Dimension    61 NMult    58 NNew      3
 CISAX will form     3 AO SS matrices at one time.
 NMat=     3 NSing=     3 JSym2X= 0.
 Root      1 has converged.
 Root      2 has converged.
 Root      3 not converged, maximum delta is    0.035877159877320
 Root      4 not converged, maximum delta is    0.080322229026480
 Root      5 not converged, maximum delta is    0.010311133559893
 Excitation Energies [eV] at current iteration:
 Root      1 :     1.303778973411408   Change is   -0.000000072357801
 Root      2 :     1.948602965285400   Change is   -0.000000074224618
 Root      3 :     2.947693103847223   Change is   -0.000237794146362
 Root      4 :     2.959072879477415   Change is   -0.026322751856454
 Root      5 :     3.096929302542474   Change is   -0.000557733074102
 Iteration     8 Dimension    64 NMult    61 NNew      3
 CISAX will form     3 AO SS matrices at one time.
 NMat=     3 NSing=     3 JSym2X= 0.
 Root      1 has converged.
 Root      2 has converged.
 Root      3 not converged, maximum delta is    0.054215524910770
 Root      4 not converged, maximum delta is    0.119184412419171
 Root      5 not converged, maximum delta is    0.023335852276099
 Excitation Energies [eV] at current iteration:
 Root      1 :     1.303778960029309   Change is   -0.000000013382098
 Root      2 :     1.948602728161537   Change is   -0.000000237123863
 Root      3 :     2.947309863818755   Change is   -0.000383240028468
 Root      4 :     2.953334640391972   Change is   -0.005738239085443
 Root      5 :     3.095988998165753   Change is   -0.000940304376721
 Iteration     9 Dimension    67 NMult    64 NNew      3
 CISAX will form     3 AO SS matrices at one time.
 NMat=     3 NSing=     3 JSym2X= 0.
 Root      1 has converged.
 Root      2 has converged.
 Root      3 not converged, maximum delta is    0.062181496549382
 Root      4 not converged, maximum delta is    0.124118305462023
 Root      5 not converged, maximum delta is    0.046611187701222
 Excitation Energies [eV] at current iteration:
 Root      1 :     1.303778870643117   Change is   -0.000000089386193
 Root      2 :     1.948602343429112   Change is   -0.000000384732425
 Root      3 :     2.946811651522244   Change is   -0.000498212296512
 Root      4 :     2.951208855154655   Change is   -0.002125785237317
 Root      5 :     3.094185992600660   Change is   -0.001803005565093
 Iteration    10 Dimension    70 NMult    67 NNew      3
 CISAX will form     3 AO SS matrices at one time.
 NMat=     3 NSing=     3 JSym2X= 0.
 Root      1 has converged.
 Root      2 has converged.
 Root      3 not converged, maximum delta is    0.056866568744242
 Root      4 not converged, maximum delta is    0.077171576712907
 Root      5 not converged, maximum delta is    0.092611293746461
 Excitation Energies [eV] at current iteration:
 Root      1 :     1.303778763369944   Change is   -0.000000107273173
 Root      2 :     1.948601625618268   Change is   -0.000000717810844
 Root      3 :     2.946389364180707   Change is   -0.000422287341537
 Root      4 :     2.950403008289932   Change is   -0.000805846864724
 Root      5 :     3.090072513575893   Change is   -0.004113479024767
 Iteration    11 Dimension    73 NMult    70 NNew      3
 CISAX will form     3 AO SS matrices at one time.
 NMat=     3 NSing=     3 JSym2X= 0.
 Root      1 has converged.
 Root      2 has converged.
 Root      3 not converged, maximum delta is    0.044797956580804
 Root      4 not converged, maximum delta is    0.047862775251891
 Root      5 not converged, maximum delta is    0.177119676786578
 Excitation Energies [eV] at current iteration:
 Root      1 :     1.303778658609487   Change is   -0.000000104760457
 Root      2 :     1.948601088348265   Change is   -0.000000537270003
 Root      3 :     2.946041019053250   Change is   -0.000348345127457
 Root      4 :     2.949989566860686   Change is   -0.000413441429246
 Root      5 :     3.081217559707102   Change is   -0.008854953868791
 Iteration    12 Dimension    76 NMult    73 NNew      3
 CISAX will form     3 AO SS matrices at one time.
 NMat=     3 NSing=     3 JSym2X= 0.
 Root      1 has converged.
 Root      2 has converged.
 Root      3 not converged, maximum delta is    0.015078721018227
 Root      4 not converged, maximum delta is    0.014209225248976
 Root      5 not converged, maximum delta is    0.052465997721673
 Excitation Energies [eV] at current iteration:
 Root      1 :     1.303778657269394   Change is   -0.000000001340093
 Root      2 :     1.948601060106349   Change is   -0.000000028241917
 Root      3 :     2.945917094736397   Change is   -0.000123924316854
 Root      4 :     2.949873971679408   Change is   -0.000115595181278
 Root      5 :     3.076991074336898   Change is   -0.004226485370204
 Iteration    13 Dimension    79 NMult    76 NNew      3
 CISAX will form     3 AO SS matrices at one time.
 NMat=     3 NSing=     3 JSym2X= 0.
 Root      1 has converged.
 Root      2 has converged.
 Root      3 not converged, maximum delta is    0.002190346146467
 Root      4 not converged, maximum delta is    0.001993147530060
 Root      5 not converged, maximum delta is    0.007301817883782
 Excitation Energies [eV] at current iteration:
 Root      1 :     1.303778656825375   Change is   -0.000000000444019
 Root      2 :     1.948601021518358   Change is   -0.000000038587990
 Root      3 :     2.945898664391157   Change is   -0.000018430345240
 Root      4 :     2.949857868624143   Change is   -0.000016103055265
 Root      5 :     3.076290508698182   Change is   -0.000700565638716
 Iteration    14 Dimension    82 NMult    79 NNew      3
 CISAX will form     3 AO SS matrices at one time.
 NMat=     3 NSing=     3 JSym2X= 0.
 Root      1 has converged.
 Root      2 has converged.
 Root      3 has converged.
 Root      4 has converged.
 Root      5 not converged, maximum delta is    0.001123134212764
 Excitation Energies [eV] at current iteration:
 Root      1 :     1.303778655853007   Change is   -0.000000000972368
 Root      2 :     1.948601017313004   Change is   -0.000000004205354
 Root      3 :     2.945896452144596   Change is   -0.000002212246561
 Root      4 :     2.949855964297384   Change is   -0.000001904326759
 Root      5 :     3.076200619133657   Change is   -0.000089889564525
 Iteration    15 Dimension    83 NMult    82 NNew      1
 CISAX will form     1 AO SS matrices at one time.
 NMat=     1 NSing=     1 JSym2X= 0.
 Root      1 has converged.
 Root      2 has converged.
 Root      3 has converged.
 Root      4 has converged.
 Root      5 has converged.
 Excitation Energies [eV] at current iteration:
 Root      1 :     1.303778655311015   Change is   -0.000000000541992
 Root      2 :     1.948601017305675   Change is   -0.000000000007329
 Root      3 :     2.945896214170833   Change is   -0.000000237973763
 Root      4 :     2.949855762320372   Change is   -0.000000201977012
 Root      5 :     3.076189527131522   Change is   -0.000011092002135
 Convergence achieved on expansion vectors.
 ***********************************************************************
 Excited states from <AA,BB:AA,BB> singles matrix:
 ***********************************************************************
 
 1PDM for each excited state written to RWF  633
 Ground to excited state transition densities written to RWF  633
 Ground to excited state transition electric dipole moments (Au):
       state          X           Y           Z        Dip. S.      Osc.
         1         1.4337     -3.3623      2.2686     18.5068      0.5911
         2         0.8053      0.8396      0.5992      1.7125      0.0818
         3        -0.0943      0.0042     -0.0847      0.0161      0.0012
         4         0.0874      0.1222      0.0166      0.0228      0.0017
         5        -0.7724     -0.8268     -0.4936      1.5238      0.1148
 Ground to excited state transition velocity dipole moments (Au):
       state          X           Y           Z        Dip. S.      Osc.
         1         0.0345     -0.0265      0.0388      0.0034      0.0473
         2        -0.0131     -0.0169     -0.0029      0.0005      0.0043
         3         0.0022      0.0004      0.0080      0.0001      0.0004
         4        -0.0001     -0.0014     -0.0029      0.0000      0.0001
         5         0.0275      0.0342      0.0171      0.0022      0.0131
 Ground to excited state transition magnetic dipole moments (Au):
       state          X           Y           Z
         1        -0.0950     -0.2396     -0.0557
         2        -0.6752      0.2559      0.5284
         3        -0.3079      0.3351     -0.1951
         4        -0.0247     -0.2979      0.4552
         5         0.0039     -0.9159      0.5467
 Ground to excited state transition velocity quadrupole moments (Au):
       state          XX          YY          ZZ          XY          XZ          YZ
         1         0.6158      0.0096     -0.0206     -0.2755      0.2879     -0.0984
         2        -0.2163      0.0058      0.0179     -0.1629     -0.0687      0.0407
         3         0.0301     -0.0106      0.0073     -0.0166      0.0923      0.0530
         4         0.0098      0.0357      0.0058      0.0060     -0.0279     -0.0761
         5         0.4299     -0.0539      0.0251      0.3665      0.1991     -0.0594
 <0|del|b> * <b|rxdel|0> + <0|del|b> * <b|delr+rdel|0>
 Rotatory Strengths (R) in cgs (10**-40 erg-esu-cm/Gauss)
       state          XX          YY          ZZ    R(velocity)    E-M Angle
         1         8.3593     13.6243     -8.5775      4.4687       86.61
         2       -32.2934     31.2859     30.6503      9.8809       81.06
         3        -5.1866     -6.4764     -1.9310     -4.5313      120.37
         4        -3.1014     -4.1845      1.4683     -1.9392      120.73
         5       -70.3772      4.8680    -71.2006    -45.5700      115.78
 1/2[<0|r|b>*<b|rxdel|0> + (<0|rxdel|b>*<b|r|0>)*]
 Rotatory Strengths (R) in cgs (10**-40 erg-esu-cm/Gauss)
       state          XX          YY          ZZ     R(length)
         1        96.2996   -569.6159     89.2977   -128.0062
         2       384.5142   -151.9477   -223.8890      2.8925
         3       -20.5295     -0.9992    -11.6925    -11.0737
         4         1.5253     25.7315     -5.3392      7.3059
         5         2.1552   -535.5076    190.8405   -114.1706
  1/2[<0|del|b>*<b|r|0> + (<0|r|b>*<b|del|0>)*] (Au)
       state          X           Y           Z        Dip. S.   Osc.(frdel)
         1         0.0495      0.0891      0.0880     -0.2265     -0.1510
         2        -0.0105     -0.0142     -0.0017      0.0265      0.0177
         3        -0.0002      0.0000     -0.0007      0.0009      0.0006
         4        -0.0000     -0.0002     -0.0000      0.0002      0.0002
         5        -0.0213     -0.0283     -0.0084      0.0580      0.0386

 Excitation energies and oscillator strengths:
 
 Excited State   1:      Singlet-A      1.3038 eV  950.96 nm  f=0.5911  <S**2>=0.000
     175 ->178         0.17312
     176 ->177         0.66921
 This state for optimization and/or second-order correction.
 Total Energy, E(CIS/TDA) =  -474.629324422    
 Copying the excited state density for this state as the 1-particle RhoCI density.
 
 Excited State   2:      Singlet-A      1.9486 eV  636.27 nm  f=0.0818  <S**2>=0.000
     175 ->177         0.57534
     176 ->178        -0.37819
 
 Excited State   3:      Singlet-A      2.9459 eV  420.87 nm  f=0.0012  <S**2>=0.000
     168 ->177         0.15975
     168 ->178         0.10253
     168 ->179        -0.22472
     168 ->181        -0.19210
     168 ->185        -0.13862
     169 ->177         0.11766
     169 ->179        -0.15930
     169 ->181        -0.13309
     176 ->179         0.10729
     176 ->180         0.46240
 
 Excited State   4:      Singlet-A      2.9499 eV  420.31 nm  f=0.0017  <S**2>=0.000
     168 ->177        -0.14666
     168 ->179         0.21167
     168 ->181         0.17846
     168 ->185         0.12687
     169 ->177        -0.11500
     169 ->179         0.13956
     169 ->181         0.11945
     176 ->180         0.51055
 
 Excited State   5:      Singlet-A      3.0762 eV  403.04 nm  f=0.1148  <S**2>=0.000
     170 ->177         0.25858
     170 ->179         0.26177
     170 ->181        -0.22859
     170 ->182         0.13119
     170 ->185         0.15251
     170 ->187        -0.12556
     171 ->177         0.14419
     171 ->179         0.17991
     171 ->181        -0.15151
     171 ->185         0.10194
     175 ->177        -0.11630
     176 ->178        -0.19023
 SavETr:  write IOETrn=   770 NScale= 10 NData=  16 NLR=1 NState=    5 LETran=     100.
 Leave Link  914 at Fri Apr 29 14:28:29 2022, MaxMem=  6710886400 cpu:             138.1 elap:               5.8
 (Enter /sw/apps/gaussian-16.0/g16/l601.exe)
 Copying SCF densities to generalized density rwf, IOpCl= 0 IROHF=0.

 **********************************************************************

            Population analysis using the SCF density.

 **********************************************************************

 Orbital symmetries:
       Occupied  (A) (A) (A) (A) (A) (A) (A) (A) (A) (A) (A) (A)
                 (A) (A) (A) (A) (A) (A) (A) (A) (A) (A) (A) (A)
                 (A) (A) (A) (A) (A) (A) (A) (A) (A) (A) (A) (A)
                 (A) (A) (A) (A) (A) (A) (A) (A) (A) (A) (A) (A)
                 (A) (A) (A) (A) (A) (A) (A) (A) (A) (A) (A) (A)
                 (A) (A) (A) (A) (A) (A) (A) (A) (A) (A) (A) (A)
                 (A) (A) (A) (A) (A) (A) (A) (A) (A) (A) (A) (A)
                 (A) (A) (A) (A) (A) (A) (A) (A) (A) (A) (A) (A)
                 (A) (A) (A) (A) (A) (A) (A) (A) (A) (A) (A) (A)
                 (A) (A) (A) (A) (A) (A) (A) (A) (A) (A) (A) (A)
                 (A) (A) (A) (A) (A) (A) (A) (A) (A) (A) (A) (A)
                 (A) (A) (A) (A) (A) (A) (A) (A) (A) (A) (A) (A)
                 (A) (A) (A) (A) (A) (A) (A) (A) (A) (A) (A) (A)
                 (A) (A) (A) (A) (A) (A) (A) (A) (A) (A) (A) (A)
                 (A) (A) (A) (A) (A) (A) (A) (A)
       Virtual   (A) (A) (A) (A) (A) (A) (A) (A) (A) (A) (A) (A)
                 (A) (A) (A) (A) (A) (A) (A) (A) (A) (A) (A) (A)
                 (A) (A) (A) (A) (A) (A) (A) (A) (A) (A) (A) (A)
                 (A) (A) (A) (A) (A) (A) (A) (A) (A) (A) (A) (A)
                 (A) (A) (A) (A) (A) (A) (A) (A) (A) (A) (A) (A)
                 (A) (A) (A) (A) (A) (A) (A) (A) (A) (A) (A) (A)
                 (A) (A) (A) (A) (A) (A) (A) (A) (A) (A) (A) (A)
                 (A) (A) (A) (A) (A) (A) (A) (A) (A) (A) (A) (A)
                 (A) (A) (A) (A) (A) (A) (A) (A) (A) (A) (A) (A)
                 (A) (A) (A) (A) (A) (A) (A) (A) (A) (A) (A) (A)
                 (A) (A) (A) (A) (A) (A) (A) (A) (A) (A) (A) (A)
                 (A) (A) (A) (A) (A) (A) (A) (A) (A) (A) (A) (A)
                 (A) (A) (A) (A) (A) (A) (A) (A) (A) (A) (A) (A)
                 (A) (A) (A) (A) (A) (A)
 The electronic state is 1-A.
 Alpha  occ. eigenvalues --   -1.87437  -1.83370  -1.81308  -1.74856  -1.73600
 Alpha  occ. eigenvalues --   -1.72666  -1.68829  -1.61503  -1.60251  -1.59334
 Alpha  occ. eigenvalues --   -1.55451  -1.51589  -1.49270  -1.48068  -1.46758
 Alpha  occ. eigenvalues --   -1.45471  -1.44868  -1.41046  -1.39171  -1.38772
 Alpha  occ. eigenvalues --   -1.36213  -1.33803  -1.32887  -1.31315  -1.28440
 Alpha  occ. eigenvalues --   -1.28070  -1.27228  -1.24037  -1.22403  -1.19110
 Alpha  occ. eigenvalues --   -1.17585  -1.15360  -1.15218  -1.14416  -1.13353
 Alpha  occ. eigenvalues --   -1.12690  -1.10873  -1.10247  -1.05947  -1.04618
 Alpha  occ. eigenvalues --   -1.02739  -1.01416  -0.98680  -0.97632  -0.96719
 Alpha  occ. eigenvalues --   -0.96395  -0.95003  -0.93852  -0.92830  -0.92582
 Alpha  occ. eigenvalues --   -0.91363  -0.90285  -0.89753  -0.89353  -0.87808
 Alpha  occ. eigenvalues --   -0.86322  -0.84867  -0.84203  -0.83114  -0.81398
 Alpha  occ. eigenvalues --   -0.79988  -0.78790  -0.77695  -0.77281  -0.77108
 Alpha  occ. eigenvalues --   -0.76629  -0.75641  -0.74569  -0.74014  -0.73280
 Alpha  occ. eigenvalues --   -0.73124  -0.72593  -0.72076  -0.71314  -0.71124
 Alpha  occ. eigenvalues --   -0.70268  -0.70220  -0.68748  -0.67992  -0.67951
 Alpha  occ. eigenvalues --   -0.67415  -0.67361  -0.66735  -0.66349  -0.65580
 Alpha  occ. eigenvalues --   -0.65365  -0.64796  -0.64225  -0.63766  -0.63608
 Alpha  occ. eigenvalues --   -0.63116  -0.63005  -0.62656  -0.62431  -0.62211
 Alpha  occ. eigenvalues --   -0.61822  -0.61382  -0.61033  -0.60445  -0.59841
 Alpha  occ. eigenvalues --   -0.59821  -0.58895  -0.58476  -0.58169  -0.57739
 Alpha  occ. eigenvalues --   -0.57645  -0.57285  -0.57013  -0.56849  -0.56349
 Alpha  occ. eigenvalues --   -0.56078  -0.55949  -0.55887  -0.55280  -0.54892
 Alpha  occ. eigenvalues --   -0.54811  -0.54044  -0.53720  -0.53577  -0.53317
 Alpha  occ. eigenvalues --   -0.53061  -0.52614  -0.51927  -0.51761  -0.51452
 Alpha  occ. eigenvalues --   -0.51209  -0.50915  -0.50505  -0.50483  -0.50068
 Alpha  occ. eigenvalues --   -0.49881  -0.49451  -0.49132  -0.49069  -0.48911
 Alpha  occ. eigenvalues --   -0.48868  -0.48228  -0.48193  -0.48050  -0.47714
 Alpha  occ. eigenvalues --   -0.47544  -0.47358  -0.46934  -0.46826  -0.46734
 Alpha  occ. eigenvalues --   -0.46393  -0.46072  -0.45990  -0.45950  -0.45852
 Alpha  occ. eigenvalues --   -0.45495  -0.45176  -0.45057  -0.44604  -0.44433
 Alpha  occ. eigenvalues --   -0.43870  -0.42869  -0.42488  -0.42064  -0.41876
 Alpha  occ. eigenvalues --   -0.41476  -0.41361  -0.41262  -0.39304  -0.38735
 Alpha  occ. eigenvalues --   -0.38196  -0.36823  -0.35803  -0.35393  -0.34308
 Alpha  occ. eigenvalues --   -0.34229  -0.33145  -0.32124  -0.31410  -0.27176
 Alpha  occ. eigenvalues --   -0.22438
 Alpha virt. eigenvalues --   -0.08992  -0.02063  -0.00238  -0.00011   0.01382
 Alpha virt. eigenvalues --    0.02560   0.02608   0.02897   0.04532   0.04630
 Alpha virt. eigenvalues --    0.06296   0.06675   0.06998   0.07631   0.08023
 Alpha virt. eigenvalues --    0.08455   0.08586   0.08774   0.09368   0.09603
 Alpha virt. eigenvalues --    0.09907   0.10240   0.10340   0.10634   0.10824
 Alpha virt. eigenvalues --    0.10959   0.11237   0.11386   0.11662   0.11733
 Alpha virt. eigenvalues --    0.12148   0.12773   0.12890   0.13447   0.13568
 Alpha virt. eigenvalues --    0.13850   0.13937   0.14159   0.14321   0.14609
 Alpha virt. eigenvalues --    0.14711   0.14742   0.15354   0.15465   0.15679
 Alpha virt. eigenvalues --    0.15831   0.15975   0.16249   0.16791   0.16894
 Alpha virt. eigenvalues --    0.17184   0.17259   0.17555   0.17825   0.18476
 Alpha virt. eigenvalues --    0.18578   0.18799   0.19278   0.19315   0.19420
 Alpha virt. eigenvalues --    0.19748   0.19981   0.20085   0.20696   0.20776
 Alpha virt. eigenvalues --    0.21728   0.22064   0.22437   0.23541   0.23779
 Alpha virt. eigenvalues --    0.23871   0.24025   0.24083   0.24198   0.24330
 Alpha virt. eigenvalues --    0.24452   0.24456   0.24571   0.24593   0.24658
 Alpha virt. eigenvalues --    0.24669   0.24768   0.24818   0.24847   0.25019
 Alpha virt. eigenvalues --    0.25053   0.25205   0.25258   0.25282   0.25420
 Alpha virt. eigenvalues --    0.25426   0.25427   0.25462   0.25527   0.25622
 Alpha virt. eigenvalues --    0.25712   0.25752   0.25905   0.25909   0.26004
 Alpha virt. eigenvalues --    0.26222   0.26224   0.26303   0.26309   0.26395
 Alpha virt. eigenvalues --    0.26482   0.26734   0.26787   0.27136   0.27190
 Alpha virt. eigenvalues --    0.27273   0.27300   0.27479   0.27498   0.27927
 Alpha virt. eigenvalues --    0.28180   0.28503   0.28682   0.28875   0.29212
 Alpha virt. eigenvalues --    0.29979   0.30159   0.30505   0.31044   0.31649
 Alpha virt. eigenvalues --    0.31883   0.32197   0.32559   0.32904   0.33823
 Alpha virt. eigenvalues --    0.35058   0.35827   0.35893   0.35924   0.36340
 Alpha virt. eigenvalues --    0.36703   0.37108   0.37350   0.37597   0.38235
 Alpha virt. eigenvalues --    0.38880   0.39311   0.39669   0.40174   0.40356
 Alpha virt. eigenvalues --    0.40675   0.41090   0.41671   0.42570   0.42655
 Alpha virt. eigenvalues --    0.43851   0.44230   0.45772   0.46128   0.47239
 Alpha virt. eigenvalues --    0.48267   0.48583   0.48965   0.50995   0.53077
 Alpha virt. eigenvalues --    0.54345   0.57705
          Condensed to atoms (all electrons):
 Mulliken charges:
               1
     1  Mg   0.431323
     2  C   -0.042016
     3  C   -0.084806
     4  C   -0.105924
     5  C   -0.055287
     6  N   -0.266418
     7  C    0.102734
     8  C   -0.001964
     9  C   -0.004534
    10  C    0.166183
    11  C   -0.055762
    12  C   -0.013607
    13  C    0.011337
    14  C    0.476169
    15  O   -0.510431
    16  O   -0.271588
    17  N   -0.334346
    18  C    0.136927
    19  C    0.056177
    20  C   -0.030545
    21  C    0.134807
    22  C   -0.044581
    23  C    0.323422
    24  O   -0.506910
    25  C   -0.032297
    26  N   -0.267213
    27  C    0.156707
    28  C   -0.010068
    29  C   -0.000863
    30  C    0.097989
    31  C   -0.052976
    32  C   -0.033267
    33  C   -0.054956
    34  N   -0.305852
    35  C    0.076135
    36  C   -0.002261
    37  C   -0.059188
    38  C    0.091458
    39  C   -0.041198
    40  C    0.333456
    41  O   -0.510643
    42  C    0.059349
    43  C    0.499957
    44  O   -0.550150
    45  O   -0.252409
    46  C    0.073461
    47  C    0.111778
    48  C   -0.112724
    49  C    0.005438
    50  C   -0.046717
    51  C   -0.021065
    52  C   -0.030231
    53  C   -0.032846
    54  C   -0.010099
    55  C   -0.064180
    56  C   -0.035273
    57  C   -0.040913
    58  C   -0.025441
    59  C   -0.004369
    60  C   -0.056843
    61  C   -0.034540
    62  C   -0.044234
    63  C   -0.032323
    64  C   -0.014068
    65  C   -0.066414
    66  C   -0.055478
    67  H    0.036098
    68  H    0.037616
    69  H    0.021167
    70  H    0.040640
    71  H    0.033983
    72  H    0.024709
    73  H    0.029496
    74  H    0.031003
    75  H    0.019259
    76  H    0.017644
    77  H    0.048349
    78  H    0.033838
    79  H    0.033577
    80  H    0.011783
    81  H    0.046992
    82  H    0.045243
    83  H    0.031377
    84  H    0.035050
    85  H    0.031880
    86  H    0.027869
    87  H    0.019064
    88  H    0.030818
    89  H    0.028276
    90  H    0.028783
    91  H    0.005625
    92  H    0.020206
    93  H    0.028119
    94  H    0.017558
    95  H    0.030685
    96  H    0.023342
    97  H    0.028924
    98  H    0.054819
    99  H    0.033658
   100  H    0.052617
   101  H    0.038763
   102  H    0.035430
   103  H    0.052389
   104  H    0.013646
   105  H    0.043006
   106  H    0.038545
   107  H    0.031826
   108  H    0.016659
   109  H    0.018206
   110  H    0.028668
   111  H    0.008182
   112  H    0.014597
   113  H    0.020458
   114  H    0.019351
   115  H    0.019084
   116  H    0.018450
   117  H    0.015823
   118  H    0.016191
   119  H    0.023012
   120  H    0.004014
   121  H    0.021942
   122  H    0.016476
   123  H    0.013311
   124  H    0.027912
   125  H    0.020181
   126  H    0.000081
   127  H    0.019596
   128  H    0.017991
   129  H    0.019430
   130  H    0.033135
   131  H    0.017048
   132  H    0.009062
   133  H    0.020957
   134  H    0.031390
   135  H    0.027495
   136  H    0.008091
   137  H    0.019891
   138  H    0.007508
   139  H    0.019522
   140  H    0.017629
 Sum of Mulliken charges =  -0.00000
 Mulliken charges with hydrogens summed into heavy atoms:
               1
     1  Mg   0.431323
     2  C   -0.042016
     3  C   -0.048708
     4  C   -0.068307
     5  C   -0.034119
     6  N   -0.266418
     7  C    0.102734
     8  C    0.038675
     9  C    0.029450
    10  C    0.166183
    11  C    0.029445
    12  C    0.023296
    13  C    0.093524
    14  C    0.476169
    15  O   -0.510431
    16  O   -0.271588
    17  N   -0.334346
    18  C    0.136927
    19  C    0.056177
    20  C   -0.030545
    21  C    0.134807
    22  C    0.047771
    23  C    0.323422
    24  O   -0.506910
    25  C    0.079372
    26  N   -0.267213
    27  C    0.156707
    28  C    0.021812
    29  C    0.027006
    30  C    0.097989
    31  C    0.025182
    32  C    0.001141
    33  C    0.010926
    34  N   -0.305852
    35  C    0.076135
    36  C   -0.002261
    37  C   -0.059188
    38  C    0.091458
    39  C    0.041753
    40  C    0.333456
    41  O   -0.510643
    42  C    0.114169
    43  C    0.499957
    44  O   -0.550150
    45  O   -0.252409
    46  C    0.198499
    47  C    0.199596
    48  C   -0.099078
    49  C    0.005438
    50  C    0.066659
    51  C    0.013799
    52  C    0.006620
    53  C    0.002209
    54  C    0.009252
    55  C   -0.010824
    56  C    0.003929
    57  C   -0.014957
    58  C    0.004347
    59  C    0.023544
    60  C   -0.016986
    61  C    0.002882
    62  C    0.005949
    63  C   -0.002303
    64  C    0.017322
    65  C   -0.010936
    66  C   -0.010819
 Charge=             -0.0000 electrons
 Dipole moment (field-independent basis, Debye):
    X=              2.8520    Y=              7.1732    Z=              0.6569  Tot=              7.7473
 N-N= 4.378576858766D+03 E-N= 0.000000000000D+00  KE=-9.431281257628D+03
 Leave Link  601 at Fri Apr 29 14:28:30 2022, MaxMem=  6710886400 cpu:               0.9 elap:               0.1
 (Enter /sw/apps/gaussian-16.0/g16/l9999.exe)
 1\1\GINC-BP1-COMPUTE082\SP\RZINDO CIS\STO-3G\C55H74Mg1N4O6\OF15641\29-
 Apr-2022\0\\#p ZINDO=(nstates=5)\\step_301_chromophore_5 ZINDO\\0,1\Mg
 ,0,24.896,-6.357,45.682\C,0,27.447,-4.313,44.366\C,0,22.71,-4.757,43.5
 8\C,0,22.785,-8.998,46.123\C,0,27.361,-8.069,47.451\N,0,25.142,-4.852,
 44.093\C,0,26.237,-4.136,43.737\C,0,26.029,-3.177,42.624\C,0,24.47,-3.
 116,42.627\C,0,24.067,-4.363,43.487\C,0,23.934,-1.811,43.178\C,0,26.59
 4,-3.552,41.239\C,0,26.777,-2.489,40.192\C,0,25.933,-2.621,38.947\O,0,
 25.023,-1.922,38.622\O,0,26.479,-3.569,38.135\N,0,22.98,-6.761,44.961\
 C,0,22.201,-5.888,44.291\C,0,20.875,-6.46,44.259\C,0,20.941,-7.722,44.
 83\C,0,22.234,-7.866,45.392\C,0,19.706,-5.804,43.532\C,0,19.737,-8.641
 ,44.964\O,0,18.597,-8.35,44.715\C,0,19.925,-10.05,45.512\N,0,25.145,-8
 .344,46.491\C,0,24.074,-9.126,46.65\C,0,24.364,-10.34,47.599\C,0,25.83
 4,-10.029,48.036\C,0,26.167,-8.701,47.323\C,0,23.28,-10.641,48.753\C,0
 ,26.947,-11.163,47.736\C,0,27.997,-11.499,48.81\N,0,27.047,-6.184,46.0
 15\C,0,27.85,-6.939,46.766\C,0,29.178,-6.337,46.777\C,0,29.055,-5.321,
 45.812\C,0,27.737,-5.259,45.403\C,0,30.402,-6.889,47.566\C,0,29.814,-4
 .324,45.048\O,0,30.988,-4.078,45.004\C,0,28.778,-3.642,44.14\C,0,28.75
 8,-2.194,44.34\O,0,29.022,-1.403,43.407\O,0,28.431,-1.878,45.61\C,0,28
 .049,-0.468,45.841\C,0,25.832,-3.857,36.876\C,0,25.518,-5.317,36.757\C
 ,0,25.945,-6.351,35.942\C,0,27.091,-6.313,35.021\C,0,25.182,-7.693,36.
 071\C,0,23.784,-7.838,35.389\C,0,23.794,-7.844,33.823\C,0,22.707,-6.98
 3,33.086\C,0,21.415,-7.802,32.758\C,0,23.123,-6.265,31.778\C,0,24.129,
 -5.111,32.028\C,0,25.323,-5.194,31.137\C,0,25.05,-4.411,29.869\C,0,25.
 531,-3.006,30.186\C,0,25.755,-5.022,28.671\C,0,24.628,-5.508,27.679\C,
 0,24.27,-4.404,26.694\C,0,22.817,-4.524,26.106\C,0,22.701,-3.871,24.64
 2\C,0,21.961,-3.712,27.09\H,0,22.02,-4.178,42.962\H,0,22.207,-9.888,46
 .381\H,0,28.123,-8.494,48.107\H,0,26.615,-2.298,42.894\H,0,24.101,-3.0
 88,41.602\H,0,23.424,-2.076,44.104\H,0,23.254,-1.425,42.418\H,0,24.831
 ,-1.211,43.332\H,0,26.016,-4.395,40.86\H,0,27.531,-4.051,41.485\H,0,27
 .842,-2.401,39.979\H,0,26.466,-1.497,40.518\H,0,19.59,-6.194,42.521\H,
 0,19.935,-4.742,43.442\H,0,18.661,-5.814,43.844\H,0,20.067,-9.991,46.5
 91\H,0,20.748,-10.476,44.937\H,0,19.029,-10.632,45.296\H,0,24.397,-11.
 212,46.947\H,0,25.842,-9.802,49.102\H,0,22.774,-11.517,48.349\H,0,22.5
 49,-9.844,48.892\H,0,23.78,-10.899,49.687\H,0,27.464,-11.08,46.78\H,0,
 26.328,-12.043,47.563\H,0,28.257,-12.557,48.776\H,0,27.734,-11.177,49.
 817\H,0,28.918,-11.028,48.466\H,0,30.922,-7.527,46.851\H,0,30.217,-7.4
 57,48.479\H,0,31.096,-6.117,47.896\H,0,29.006,-3.903,43.106\H,0,26.967
 ,-0.409,45.959\H,0,28.366,0.182,45.025\H,0,28.506,-0.042,46.734\H,0,26
 .476,-3.517,36.064\H,0,24.854,-3.384,36.784\H,0,24.586,-5.508,37.289\H
 ,0,26.56,-6.768,34.185\H,0,27.806,-6.962,35.528\H,0,27.49,-5.311,34.86
 2\H,0,24.998,-7.836,37.135\H,0,25.74,-8.575,35.756\H,0,23.04,-7.213,35
 .883\H,0,23.45,-8.846,35.636\H,0,23.661,-8.91,33.634\H,0,24.768,-7.637
 ,33.38\H,0,22.418,-6.214,33.802\H,0,21.659,-8.853,32.912\H,0,21.006,-7
 .687,31.754\H,0,20.586,-7.475,33.386\H,0,22.278,-5.726,31.352\H,0,23.5
 1,-6.971,31.043\H,0,24.489,-5.178,33.055\H,0,23.524,-4.205,32.016\H,0,
 25.552,-6.244,30.951\H,0,26.141,-4.732,31.69\H,0,23.968,-4.313,29.778\
 H,0,25.306,-2.679,31.201\H,0,25.027,-2.278,29.549\H,0,26.571,-2.842,29
 .903\H,0,26.415,-5.822,29.008\H,0,26.384,-4.326,28.115\H,0,23.799,-5.9
 29,28.249\H,0,25.06,-6.154,26.915\H,0,24.882,-4.48,25.794\H,0,24.455,-
 3.415,27.112\H,0,22.557,-5.582,26.106\H,0,22.174,-2.918,24.583\H,0,22.
 143,-4.522,23.969\H,0,23.638,-3.836,24.086\H,0,20.987,-4.17,27.263\H,0
 ,21.709,-2.712,26.738\H,0,22.445,-3.597,28.06\\Version=ES64L-G16RevA.0
 3\State=1-A\HF=-474.6772374\RMSD=6.018e-09\PG=C01 [X(C55H74Mg1N4O6)]\\
 @


 CLIMB THE MOUNTAINS AND GET THEIR GOOD TIDINGS.
 NATURE'S PEACE WILL FLOW INTO YOU AS SUNSHINE FLOWS INTO TREES.
 THE WINDS WILL BLOW THEIR OWN FRESHNESS INTO YOU, 
 AND CARES WILL DROP OFF LIKE AUTUMN LEAVES.

                                         -- JOHN MUIR
 Job cpu time:       0 days  0 hours  3 minutes  2.6 seconds.
 Elapsed time:       0 days  0 hours  0 minutes  7.9 seconds.
 File lengths (MBytes):  RWF=   1275 Int=      0 D2E=      0 Chk=     38 Scr=      1
 Normal termination of Gaussian 16 at Fri Apr 29 14:28:30 2022.
