 Entering Gaussian System, Link 0=g16
 Initial command:
 /sw/apps/gaussian-16.0/g16/l1.exe "/tmp/Gau-2319.inp" -scrdir="/tmp/"
 Entering Link 1 = /sw/apps/gaussian-16.0/g16/l1.exe PID=      2320.
  
 Copyright (c) 1988,1990,1992,1993,1995,1998,2003,2009,2016,
            Gaussian, Inc.  All Rights Reserved.
  
 This is part of the Gaussian(R) 16 program.  It is based on
 the Gaussian(R) 09 system (copyright 2009, Gaussian, Inc.),
 the Gaussian(R) 03 system (copyright 2003, Gaussian, Inc.),
 the Gaussian(R) 98 system (copyright 1998, Gaussian, Inc.),
 the Gaussian(R) 94 system (copyright 1995, Gaussian, Inc.),
 the Gaussian 92(TM) system (copyright 1992, Gaussian, Inc.),
 the Gaussian 90(TM) system (copyright 1990, Gaussian, Inc.),
 the Gaussian 88(TM) system (copyright 1988, Gaussian, Inc.),
 the Gaussian 86(TM) system (copyright 1986, Carnegie Mellon
 University), and the Gaussian 82(TM) system (copyright 1983,
 Carnegie Mellon University). Gaussian is a federally registered
 trademark of Gaussian, Inc.
  
 This software contains proprietary and confidential information,
 including trade secrets, belonging to Gaussian, Inc.
  
 This software is provided under written license and may be
 used, copied, transmitted, or stored only in accord with that
 written license.
  
 The following legend is applicable only to US Government
 contracts under FAR:
  
                    RESTRICTED RIGHTS LEGEND
  
 Use, reproduction and disclosure by the US Government is
 subject to restrictions as set forth in subparagraphs (a)
 and (c) of the Commercial Computer Software - Restricted
 Rights clause in FAR 52.227-19.
  
 Gaussian, Inc.
 340 Quinnipiac St., Bldg. 40, Wallingford CT 06492
  
  
 ---------------------------------------------------------------
 Warning -- This program may not be used in any manner that
 competes with the business of Gaussian, Inc. or will provide
 assistance to any competitor of Gaussian, Inc.  The licensee
 of this program is prohibited from giving any competitor of
 Gaussian, Inc. access to this program.  By using this program,
 the user acknowledges that Gaussian, Inc. is engaged in the
 business of creating and licensing software in the field of
 computational chemistry and represents and warrants to the
 licensee that it is not a competitor of Gaussian, Inc. and that
 it will not use this program in any manner prohibited above.
 ---------------------------------------------------------------
  

 Cite this work as:
 Gaussian 16, Revision A.03,
 M. J. Frisch, G. W. Trucks, H. B. Schlegel, G. E. Scuseria, 
 M. A. Robb, J. R. Cheeseman, G. Scalmani, V. Barone, 
 G. A. Petersson, H. Nakatsuji, X. Li, M. Caricato, A. V. Marenich, 
 J. Bloino, B. G. Janesko, R. Gomperts, B. Mennucci, H. P. Hratchian, 
 J. V. Ortiz, A. F. Izmaylov, J. L. Sonnenberg, D. Williams-Young, 
 F. Ding, F. Lipparini, F. Egidi, J. Goings, B. Peng, A. Petrone, 
 T. Henderson, D. Ranasinghe, V. G. Zakrzewski, J. Gao, N. Rega, 
 G. Zheng, W. Liang, M. Hada, M. Ehara, K. Toyota, R. Fukuda, 
 J. Hasegawa, M. Ishida, T. Nakajima, Y. Honda, O. Kitao, H. Nakai, 
 T. Vreven, K. Throssell, J. A. Montgomery, Jr., J. E. Peralta, 
 F. Ogliaro, M. J. Bearpark, J. J. Heyd, E. N. Brothers, K. N. Kudin, 
 V. N. Staroverov, T. A. Keith, R. Kobayashi, J. Normand, 
 K. Raghavachari, A. P. Rendell, J. C. Burant, S. S. Iyengar, 
 J. Tomasi, M. Cossi, J. M. Millam, M. Klene, C. Adamo, R. Cammi, 
 J. W. Ochterski, R. L. Martin, K. Morokuma, O. Farkas, 
 J. B. Foresman, and D. J. Fox, Gaussian, Inc., Wallingford CT, 2016.
 
 ******************************************
 Gaussian 16:  ES64L-G16RevA.03 25-Dec-2016
                 4-May-2022 
 ******************************************
 %nproc=24
 Will use up to   24 processors via shared memory.
 %mem=75GB
 ------------------------------
 #p blyp/Def2SVP td=(nstates=5)
 ------------------------------
 1/38=1,172=1/1;
 2/12=2,17=6,18=5,40=1/2;
 3/5=43,7=101,11=9,25=1,30=1,74=402/1,2,3,8;
 4//1;
 5/5=2,38=5/2;
 8/6=1,10=1,108=5/1;
 9/41=5,42=1,70=2/14;
 6/7=2,8=2,9=2,10=2/1;
 99/5=1,9=1/99;
 Leave Link    1 at Wed May  4 12:17:45 2022, MaxMem= 10066329600 cpu:               0.8 elap:               0.0
 (Enter /sw/apps/gaussian-16.0/g16/l101.exe)
 ---------------------------------------------------
 step_1701_chromophore_11 TDDFT with blyp functional
 ---------------------------------------------------
 Symbolic Z-matrix:
 Charge =  0 Multiplicity = 1
 Mg                    53.35     23.995    45.507 
 C                     50.567    26.219    44.656 
 C                     51.249    21.302    44.781 
 C                     55.992    22.052    45.651 
 C                     55.281    26.864    45.925 
 N                     51.29     23.855    44.599 
 C                     50.285    24.86     44.519 
 C                     48.859    24.214    44.432 
 C                     49.119    22.769    44.876 
 C                     50.658    22.599    44.721 
 C                     48.737    22.552    46.417 
 C                     48.164    24.408    43.074 
 C                     49.027    24.289    41.799 
 C                     48.335    23.629    40.49 
 O                     47.894    22.48     40.375 
 O                     48.286    24.48     39.408 
 N                     53.551    21.905    45.287 
 C                     52.625    21.002    44.904 
 C                     53.294    19.695    44.857 
 C                     54.69     19.891    44.863 
 C                     54.814    21.334    45.292 
 C                     52.536    18.427    44.528 
 C                     55.743    18.812    44.619 
 O                     55.498    17.808    43.945 
 C                     57.196    18.982    44.986 
 N                     55.373    24.449    45.551 
 C                     56.267    23.402    45.768 
 C                     57.742    24.043    45.916 
 C                     57.488    25.61     45.965 
 C                     55.995    25.708    45.798 
 C                     58.708    23.404    46.915 
 C                     58.315    26.436    44.949 
 C                     57.513    26.929    43.745 
 N                     53.06     26.068    45.374 
 C                     53.912    27.108    45.604 
 C                     53.319    28.436    45.409 
 C                     51.921    28.07     45.118 
 C                     51.864    26.658    44.958 
 C                     53.997    29.771    45.628 
 C                     50.628    28.628    44.946 
 O                     50.268    29.805    44.863 
 C                     49.766    27.506    44.622 
 C                     49.259    27.858    43.286 
 O                     49.946    27.834    42.237 
 O                     47.933    28.179    43.331 
 C                     47.372    28.81     42.173 
 C                     47.699    23.958    38.172 
 C                     48.812    23.498    37.258 
 C                     49.025    22.194    36.844 
 C                     48.165    20.984    37.078 
 C                     50.143    21.914    35.858 
 C                     51.108    20.714    36.041 
 C                     51.369    19.963    34.724 
 C                     52.886    19.424    34.727 
 C                     53.706    19.984    33.557 
 C                     52.963    17.917    34.969 
 C                     52.147    17.181    33.911 
 C                     52.799    15.835    33.476 
 C                     51.925    14.943    32.549 
 C                     51.169    13.871    33.331 
 C                     52.792    14.254    31.481 
 C                     52.787    14.947    30.065 
 C                     54.261    15.224    29.555 
 C                     54.528    16.785    29.234 
 C                     55.397    16.779    27.891 
 C                     55.23     17.465    30.376 
 H                     50.66     20.383    44.746 
 H                     56.899    21.446    45.72 
 H                     55.903    27.703    46.244 
 H                     48.153    24.733    45.08 
 H                     48.569    22.106    44.208 
 H                     48.203    23.395    46.855 
 H                     49.609    22.469    47.065 
 H                     48.206    21.601    46.451 
 H                     47.676    25.378    42.975 
 H                     47.318    23.727    42.989 
 H                     49.894    23.672    42.038 
 H                     49.417    25.275    41.547 
 H                     53.07     17.517    44.8 
 H                     52.27     18.189    43.499 
 H                     51.654    18.311    45.158 
 H                     57.896    18.169    44.79 
 H                     57.113    19.328    46.016 
 H                     57.556    19.798    44.36 
 H                     58.202    23.821    44.953 
 H                     57.746    25.897    46.984 
 H                     59.132    24.166    47.569 
 H                     59.507    22.971    46.314 
 H                     58.272    22.567    47.46 
 H                     59.201    25.935    44.556 
 H                     58.554    27.356    45.482 
 H                     58.233    26.967    42.927 
 H                     57.078    27.928    43.773 
 H                     56.758    26.199    43.454 
 H                     54.226    29.967    46.675 
 H                     53.437    30.653    45.316 
 H                     54.894    29.698    45.012 
 H                     49.001    27.353    45.384 
 H                     46.439    29.281    42.484 
 H                     47.147    28.107    41.372 
 H                     48.001    29.633    41.834 
 H                     47.393    24.893    37.702 
 H                     46.906    23.212    38.127 
 H                     49.38     24.252    36.712 
 H                     48.53     20.19     37.729 
 H                     47.904    20.577    36.101 
 H                     47.234    21.277    37.563 
 H                     50.538    22.866    35.504 
 H                     49.592    21.638    34.959 
 H                     50.802    20.06     36.857 
 H                     51.922    21.353    36.384 
 H                     51.194    20.597    33.855 
 H                     50.673    19.125    34.725 
 H                     53.407    19.842    35.589 
 H                     54.293    20.737    34.082 
 H                     53.017    20.448    32.852 
 H                     54.423    19.235    33.22 
 H                     52.555    17.785    35.971 
 H                     54.01     17.615    34.98 
 H                     51.921    17.802    33.044 
 H                     51.192    16.899    34.353 
 H                     53.222    15.424    34.393 
 H                     53.697    16.108    32.922 
 H                     51.151    15.559    32.091 
 H                     50.992    14.118    34.377 
 H                     51.562    12.858    33.42 
 H                     50.186    13.816    32.863 
 H                     52.261    13.332    31.243 
 H                     53.805    14.065    31.836 
 H                     52.24     15.89     30.079 
 H                     52.373    14.31     29.285 
 H                     54.512    14.555    28.732 
 H                     54.842    14.918    30.424 
 H                     53.587    17.332    29.187 
 H                     55.004    17.601    27.291 
 H                     55.173    15.892    27.299 
 H                     56.407    16.851    28.294 
 H                     54.457    17.755    31.088 
 H                     55.693    18.368    29.979 
 H                     55.97     16.791    30.808 
 
 ITRead=  0  0  0  0  0  0  0  0  0  0  0  0  0  0  0  0  0  0  0  0
 ITRead=  0  0  0  0  0  0  0  0  0  0  0  0  0  0  0  0  0  0  0  0
 ITRead=  0  0  0  0  0  0  0  0  0  0  0  0  0  0  0  0  0  0  0  0
 ITRead=  0  0  0  0  0  0  0  0  0  0  0  0  0  0  0  0  0  0  0  0
 ITRead=  0  0  0  0  0  0  0  0  0  0  0  0  0  0  0  0  0  0  0  0
 ITRead=  0  0  0  0  0  0  0  0  0  0  0  0  0  0  0  0  0  0  0  0
 ITRead=  0  0  0  0  0  0  0  0  0  0  0  0  0  0  0  0  0  0  0  0
 MicOpt= -1 -1 -1 -1 -1 -1 -1 -1 -1 -1 -1 -1 -1 -1 -1 -1 -1 -1 -1 -1
 MicOpt= -1 -1 -1 -1 -1 -1 -1 -1 -1 -1 -1 -1 -1 -1 -1 -1 -1 -1 -1 -1
 MicOpt= -1 -1 -1 -1 -1 -1 -1 -1 -1 -1 -1 -1 -1 -1 -1 -1 -1 -1 -1 -1
 MicOpt= -1 -1 -1 -1 -1 -1 -1 -1 -1 -1 -1 -1 -1 -1 -1 -1 -1 -1 -1 -1
 MicOpt= -1 -1 -1 -1 -1 -1 -1 -1 -1 -1 -1 -1 -1 -1 -1 -1 -1 -1 -1 -1
 MicOpt= -1 -1 -1 -1 -1 -1 -1 -1 -1 -1 -1 -1 -1 -1 -1 -1 -1 -1 -1 -1
 MicOpt= -1 -1 -1 -1 -1 -1 -1 -1 -1 -1 -1 -1 -1 -1 -1 -1 -1 -1 -1 -1
 NAtoms=    140 NQM=      140 NQMF=       0 NMMI=      0 NMMIF=      0
                NMic=       0 NMicF=      0.
                    Isotopes and Nuclear Properties:
 (Nuclear quadrupole moments (NQMom) in fm**2, nuclear magnetic moments (NMagM)
  in nuclear magnetons)

  Atom         1           2           3           4           5           6           7           8           9          10
 IAtWgt=          24          12          12          12          12          14          12          12          12          12
 AtmWgt=  23.9850450  12.0000000  12.0000000  12.0000000  12.0000000  14.0030740  12.0000000  12.0000000  12.0000000  12.0000000
 NucSpn=           0           0           0           0           0           2           0           0           0           0
 AtZEff=  -0.0000000  -0.0000000  -0.0000000  -0.0000000  -0.0000000  -0.0000000  -0.0000000  -0.0000000  -0.0000000  -0.0000000
 NQMom=    0.0000000   0.0000000   0.0000000   0.0000000   0.0000000   2.0440000   0.0000000   0.0000000   0.0000000   0.0000000
 NMagM=    0.0000000   0.0000000   0.0000000   0.0000000   0.0000000   0.4037610   0.0000000   0.0000000   0.0000000   0.0000000
 AtZNuc=  12.0000000   6.0000000   6.0000000   6.0000000   6.0000000   7.0000000   6.0000000   6.0000000   6.0000000   6.0000000

  Atom        11          12          13          14          15          16          17          18          19          20
 IAtWgt=          12          12          12          12          16          16          14          12          12          12
 AtmWgt=  12.0000000  12.0000000  12.0000000  12.0000000  15.9949146  15.9949146  14.0030740  12.0000000  12.0000000  12.0000000
 NucSpn=           0           0           0           0           0           0           2           0           0           0
 AtZEff=  -0.0000000  -0.0000000  -0.0000000  -0.0000000  -0.0000000  -0.0000000  -0.0000000  -0.0000000  -0.0000000  -0.0000000
 NQMom=    0.0000000   0.0000000   0.0000000   0.0000000   0.0000000   0.0000000   2.0440000   0.0000000   0.0000000   0.0000000
 NMagM=    0.0000000   0.0000000   0.0000000   0.0000000   0.0000000   0.0000000   0.4037610   0.0000000   0.0000000   0.0000000
 AtZNuc=   6.0000000   6.0000000   6.0000000   6.0000000   8.0000000   8.0000000   7.0000000   6.0000000   6.0000000   6.0000000

  Atom        21          22          23          24          25          26          27          28          29          30
 IAtWgt=          12          12          12          16          12          14          12          12          12          12
 AtmWgt=  12.0000000  12.0000000  12.0000000  15.9949146  12.0000000  14.0030740  12.0000000  12.0000000  12.0000000  12.0000000
 NucSpn=           0           0           0           0           0           2           0           0           0           0
 AtZEff=  -0.0000000  -0.0000000  -0.0000000  -0.0000000  -0.0000000  -0.0000000  -0.0000000  -0.0000000  -0.0000000  -0.0000000
 NQMom=    0.0000000   0.0000000   0.0000000   0.0000000   0.0000000   2.0440000   0.0000000   0.0000000   0.0000000   0.0000000
 NMagM=    0.0000000   0.0000000   0.0000000   0.0000000   0.0000000   0.4037610   0.0000000   0.0000000   0.0000000   0.0000000
 AtZNuc=   6.0000000   6.0000000   6.0000000   8.0000000   6.0000000   7.0000000   6.0000000   6.0000000   6.0000000   6.0000000

  Atom        31          32          33          34          35          36          37          38          39          40
 IAtWgt=          12          12          12          14          12          12          12          12          12          12
 AtmWgt=  12.0000000  12.0000000  12.0000000  14.0030740  12.0000000  12.0000000  12.0000000  12.0000000  12.0000000  12.0000000
 NucSpn=           0           0           0           2           0           0           0           0           0           0
 AtZEff=  -0.0000000  -0.0000000  -0.0000000  -0.0000000  -0.0000000  -0.0000000  -0.0000000  -0.0000000  -0.0000000  -0.0000000
 NQMom=    0.0000000   0.0000000   0.0000000   2.0440000   0.0000000   0.0000000   0.0000000   0.0000000   0.0000000   0.0000000
 NMagM=    0.0000000   0.0000000   0.0000000   0.4037610   0.0000000   0.0000000   0.0000000   0.0000000   0.0000000   0.0000000
 AtZNuc=   6.0000000   6.0000000   6.0000000   7.0000000   6.0000000   6.0000000   6.0000000   6.0000000   6.0000000   6.0000000

  Atom        41          42          43          44          45          46          47          48          49          50
 IAtWgt=          16          12          12          16          16          12          12          12          12          12
 AtmWgt=  15.9949146  12.0000000  12.0000000  15.9949146  15.9949146  12.0000000  12.0000000  12.0000000  12.0000000  12.0000000
 NucSpn=           0           0           0           0           0           0           0           0           0           0
 AtZEff=  -0.0000000  -0.0000000  -0.0000000  -0.0000000  -0.0000000  -0.0000000  -0.0000000  -0.0000000  -0.0000000  -0.0000000
 NQMom=    0.0000000   0.0000000   0.0000000   0.0000000   0.0000000   0.0000000   0.0000000   0.0000000   0.0000000   0.0000000
 NMagM=    0.0000000   0.0000000   0.0000000   0.0000000   0.0000000   0.0000000   0.0000000   0.0000000   0.0000000   0.0000000
 AtZNuc=   8.0000000   6.0000000   6.0000000   8.0000000   8.0000000   6.0000000   6.0000000   6.0000000   6.0000000   6.0000000

  Atom        51          52          53          54          55          56          57          58          59          60
 IAtWgt=          12          12          12          12          12          12          12          12          12          12
 AtmWgt=  12.0000000  12.0000000  12.0000000  12.0000000  12.0000000  12.0000000  12.0000000  12.0000000  12.0000000  12.0000000
 NucSpn=           0           0           0           0           0           0           0           0           0           0
 AtZEff=  -0.0000000  -0.0000000  -0.0000000  -0.0000000  -0.0000000  -0.0000000  -0.0000000  -0.0000000  -0.0000000  -0.0000000
 NQMom=    0.0000000   0.0000000   0.0000000   0.0000000   0.0000000   0.0000000   0.0000000   0.0000000   0.0000000   0.0000000
 NMagM=    0.0000000   0.0000000   0.0000000   0.0000000   0.0000000   0.0000000   0.0000000   0.0000000   0.0000000   0.0000000
 AtZNuc=   6.0000000   6.0000000   6.0000000   6.0000000   6.0000000   6.0000000   6.0000000   6.0000000   6.0000000   6.0000000

  Atom        61          62          63          64          65          66          67          68          69          70
 IAtWgt=          12          12          12          12          12          12           1           1           1           1
 AtmWgt=  12.0000000  12.0000000  12.0000000  12.0000000  12.0000000  12.0000000   1.0078250   1.0078250   1.0078250   1.0078250
 NucSpn=           0           0           0           0           0           0           1           1           1           1
 AtZEff=  -0.0000000  -0.0000000  -0.0000000  -0.0000000  -0.0000000  -0.0000000  -0.0000000  -0.0000000  -0.0000000  -0.0000000
 NQMom=    0.0000000   0.0000000   0.0000000   0.0000000   0.0000000   0.0000000   0.0000000   0.0000000   0.0000000   0.0000000
 NMagM=    0.0000000   0.0000000   0.0000000   0.0000000   0.0000000   0.0000000   2.7928460   2.7928460   2.7928460   2.7928460
 AtZNuc=   6.0000000   6.0000000   6.0000000   6.0000000   6.0000000   6.0000000   1.0000000   1.0000000   1.0000000   1.0000000

  Atom        71          72          73          74          75          76          77          78          79          80
 IAtWgt=           1           1           1           1           1           1           1           1           1           1
 AtmWgt=   1.0078250   1.0078250   1.0078250   1.0078250   1.0078250   1.0078250   1.0078250   1.0078250   1.0078250   1.0078250
 NucSpn=           1           1           1           1           1           1           1           1           1           1
 AtZEff=  -0.0000000  -0.0000000  -0.0000000  -0.0000000  -0.0000000  -0.0000000  -0.0000000  -0.0000000  -0.0000000  -0.0000000
 NQMom=    0.0000000   0.0000000   0.0000000   0.0000000   0.0000000   0.0000000   0.0000000   0.0000000   0.0000000   0.0000000
 NMagM=    2.7928460   2.7928460   2.7928460   2.7928460   2.7928460   2.7928460   2.7928460   2.7928460   2.7928460   2.7928460
 AtZNuc=   1.0000000   1.0000000   1.0000000   1.0000000   1.0000000   1.0000000   1.0000000   1.0000000   1.0000000   1.0000000

  Atom        81          82          83          84          85          86          87          88          89          90
 IAtWgt=           1           1           1           1           1           1           1           1           1           1
 AtmWgt=   1.0078250   1.0078250   1.0078250   1.0078250   1.0078250   1.0078250   1.0078250   1.0078250   1.0078250   1.0078250
 NucSpn=           1           1           1           1           1           1           1           1           1           1
 AtZEff=  -0.0000000  -0.0000000  -0.0000000  -0.0000000  -0.0000000  -0.0000000  -0.0000000  -0.0000000  -0.0000000  -0.0000000
 NQMom=    0.0000000   0.0000000   0.0000000   0.0000000   0.0000000   0.0000000   0.0000000   0.0000000   0.0000000   0.0000000
 NMagM=    2.7928460   2.7928460   2.7928460   2.7928460   2.7928460   2.7928460   2.7928460   2.7928460   2.7928460   2.7928460
 AtZNuc=   1.0000000   1.0000000   1.0000000   1.0000000   1.0000000   1.0000000   1.0000000   1.0000000   1.0000000   1.0000000

  Atom        91          92          93          94          95          96          97          98          99         100
 IAtWgt=           1           1           1           1           1           1           1           1           1           1
 AtmWgt=   1.0078250   1.0078250   1.0078250   1.0078250   1.0078250   1.0078250   1.0078250   1.0078250   1.0078250   1.0078250
 NucSpn=           1           1           1           1           1           1           1           1           1           1
 AtZEff=  -0.0000000  -0.0000000  -0.0000000  -0.0000000  -0.0000000  -0.0000000  -0.0000000  -0.0000000  -0.0000000  -0.0000000
 NQMom=    0.0000000   0.0000000   0.0000000   0.0000000   0.0000000   0.0000000   0.0000000   0.0000000   0.0000000   0.0000000
 NMagM=    2.7928460   2.7928460   2.7928460   2.7928460   2.7928460   2.7928460   2.7928460   2.7928460   2.7928460   2.7928460
 AtZNuc=   1.0000000   1.0000000   1.0000000   1.0000000   1.0000000   1.0000000   1.0000000   1.0000000   1.0000000   1.0000000

  Atom       101         102         103         104         105         106         107         108         109         110
 IAtWgt=           1           1           1           1           1           1           1           1           1           1
 AtmWgt=   1.0078250   1.0078250   1.0078250   1.0078250   1.0078250   1.0078250   1.0078250   1.0078250   1.0078250   1.0078250
 NucSpn=           1           1           1           1           1           1           1           1           1           1
 AtZEff=  -0.0000000  -0.0000000  -0.0000000  -0.0000000  -0.0000000  -0.0000000  -0.0000000  -0.0000000  -0.0000000  -0.0000000
 NQMom=    0.0000000   0.0000000   0.0000000   0.0000000   0.0000000   0.0000000   0.0000000   0.0000000   0.0000000   0.0000000
 NMagM=    2.7928460   2.7928460   2.7928460   2.7928460   2.7928460   2.7928460   2.7928460   2.7928460   2.7928460   2.7928460
 AtZNuc=   1.0000000   1.0000000   1.0000000   1.0000000   1.0000000   1.0000000   1.0000000   1.0000000   1.0000000   1.0000000

  Atom       111         112         113         114         115         116         117         118         119         120
 IAtWgt=           1           1           1           1           1           1           1           1           1           1
 AtmWgt=   1.0078250   1.0078250   1.0078250   1.0078250   1.0078250   1.0078250   1.0078250   1.0078250   1.0078250   1.0078250
 NucSpn=           1           1           1           1           1           1           1           1           1           1
 AtZEff=  -0.0000000  -0.0000000  -0.0000000  -0.0000000  -0.0000000  -0.0000000  -0.0000000  -0.0000000  -0.0000000  -0.0000000
 NQMom=    0.0000000   0.0000000   0.0000000   0.0000000   0.0000000   0.0000000   0.0000000   0.0000000   0.0000000   0.0000000
 NMagM=    2.7928460   2.7928460   2.7928460   2.7928460   2.7928460   2.7928460   2.7928460   2.7928460   2.7928460   2.7928460
 AtZNuc=   1.0000000   1.0000000   1.0000000   1.0000000   1.0000000   1.0000000   1.0000000   1.0000000   1.0000000   1.0000000

  Atom       121         122         123         124         125         126         127         128         129         130
 IAtWgt=           1           1           1           1           1           1           1           1           1           1
 AtmWgt=   1.0078250   1.0078250   1.0078250   1.0078250   1.0078250   1.0078250   1.0078250   1.0078250   1.0078250   1.0078250
 NucSpn=           1           1           1           1           1           1           1           1           1           1
 AtZEff=  -0.0000000  -0.0000000  -0.0000000  -0.0000000  -0.0000000  -0.0000000  -0.0000000  -0.0000000  -0.0000000  -0.0000000
 NQMom=    0.0000000   0.0000000   0.0000000   0.0000000   0.0000000   0.0000000   0.0000000   0.0000000   0.0000000   0.0000000
 NMagM=    2.7928460   2.7928460   2.7928460   2.7928460   2.7928460   2.7928460   2.7928460   2.7928460   2.7928460   2.7928460
 AtZNuc=   1.0000000   1.0000000   1.0000000   1.0000000   1.0000000   1.0000000   1.0000000   1.0000000   1.0000000   1.0000000

  Atom       131         132         133         134         135         136         137         138         139         140
 IAtWgt=           1           1           1           1           1           1           1           1           1           1
 AtmWgt=   1.0078250   1.0078250   1.0078250   1.0078250   1.0078250   1.0078250   1.0078250   1.0078250   1.0078250   1.0078250
 NucSpn=           1           1           1           1           1           1           1           1           1           1
 AtZEff=  -0.0000000  -0.0000000  -0.0000000  -0.0000000  -0.0000000  -0.0000000  -0.0000000  -0.0000000  -0.0000000  -0.0000000
 NQMom=    0.0000000   0.0000000   0.0000000   0.0000000   0.0000000   0.0000000   0.0000000   0.0000000   0.0000000   0.0000000
 NMagM=    2.7928460   2.7928460   2.7928460   2.7928460   2.7928460   2.7928460   2.7928460   2.7928460   2.7928460   2.7928460
 AtZNuc=   1.0000000   1.0000000   1.0000000   1.0000000   1.0000000   1.0000000   1.0000000   1.0000000   1.0000000   1.0000000
 Leave Link  101 at Wed May  4 12:17:45 2022, MaxMem= 10066329600 cpu:               2.8 elap:               0.1
 (Enter /sw/apps/gaussian-16.0/g16/l202.exe)
 Stoichiometry    C55H74MgN4O6
 Framework group  C1[X(C55H74MgN4O6)]
 Deg. of freedom   414
 Full point group                 C1      NOp   1
 Largest Abelian subgroup         C1      NOp   1
 Largest concise Abelian subgroup C1      NOp   1
                         Standard orientation:                         
 ---------------------------------------------------------------------
 Center     Atomic      Atomic             Coordinates (Angstroms)
 Number     Number       Type             X           Y           Z
 ---------------------------------------------------------------------
      1         12           0       -4.665996    1.506545    0.599512
      2          6           0       -5.207497   -2.087627    0.147666
      3          6           0       -2.537080    0.719836    3.253251
      4          6           0       -3.699073    4.643611    0.594453
      5          6           0       -6.639369    1.978707   -2.232008
      6          7           0       -3.828676   -0.440168    1.372085
      7          6           0       -4.325816   -1.759787    1.177390
      8          6           0       -3.883077   -2.699198    2.352061
      9          6           0       -3.434672   -1.701337    3.427220
     10          6           0       -3.217398   -0.375266    2.642507
     11          6           0       -4.582274   -1.462432    4.519752
     12          6           0       -2.868867   -3.780277    1.942826
     13          6           0       -1.753139   -3.383784    0.951616
     14          6           0       -0.297147   -4.066324    1.156971
     15          8           0        0.448482   -3.959594    2.137050
     16          8           0        0.115498   -4.813271    0.075713
     17          7           0       -3.305119    2.542746    1.836931
     18          6           0       -2.475128    2.050284    2.779358
     19          6           0       -1.701192    3.183364    3.303925
     20          6           0       -1.822847    4.274008    2.419073
     21          6           0       -2.992266    3.863435    1.555619
     22          6           0       -0.710384    3.011675    4.435053
     23          6           0       -1.016731    5.569571    2.484496
     24          8           0        0.107516    5.608439    2.991325
     25          6           0       -1.421883    6.828533    1.759470
     26          7           0       -4.967406    3.021790   -0.783878
     27          6           0       -4.559136    4.307870   -0.434810
     28          6           0       -5.049607    5.309167   -1.603250
     29          6           0       -5.973801    4.410314   -2.530792
     30          6           0       -5.884870    3.058210   -1.874706
     31          6           0       -5.517421    6.709192   -1.202556
     32          6           0       -5.605291    4.432559   -4.034842
     33          6           0       -4.886555    3.174193   -4.520437
     34          7           0       -5.725558    0.296667   -0.746832
     35          6           0       -6.506320    0.619550   -1.817608
     36          6           0       -7.092720   -0.531719   -2.513290
     37          6           0       -6.639850   -1.633953   -1.645517
     38          6           0       -5.710230   -1.099779   -0.711141
     39          6           0       -8.030233   -0.490468   -3.700403
     40          6           0       -6.807408   -3.024394   -1.418813
     41          8           0       -7.401981   -3.878195   -2.081629
     42          6           0       -5.902721   -3.347394   -0.330642
     43          6           0       -4.996699   -4.333969   -0.940267
     44          8           0       -4.120373   -4.060156   -1.794683
     45          8           0       -5.209375   -5.581083   -0.427611
     46          6           0       -4.607568   -6.684131   -1.116785
     47          6           0        1.432864   -5.446965    0.163617
     48          6           0        2.442136   -4.578893   -0.553034
     49          6           0        3.519231   -3.941887    0.039646
     50          6           0        4.013084   -4.055928    1.454410
     51          6           0        4.486260   -3.171637   -0.839041
     52          6           0        5.008679   -1.767659   -0.438242
     53          6           0        6.518546   -1.608935   -0.686679
     54          6           0        6.813883   -0.089101   -1.127923
     55          6           0        7.459724   -0.000363   -2.517137
     56          6           0        7.464799    0.721423   -0.007699
     57          6           0        8.757092    0.043887    0.437095
     58          6           0        9.873340    1.063246    0.812518
     59          6           0       11.145859    0.445919    1.459413
     60          6           0       11.109073    0.522881    2.984197
     61          6           0       12.412600    1.162571    0.960603
     62          6           0       13.189923    0.422687   -0.194242
     63          6           0       13.448047    1.387554   -1.423839
     64          6           0       12.830353    0.819012   -2.804515
     65          6           0       13.938367    1.149642   -3.909881
     66          6           0       11.500849    1.450774   -3.108922
     67          1           0       -1.986712    0.623256    4.191587
     68          1           0       -3.417739    5.699210    0.559699
     69          1           0       -7.379090    2.224308   -2.996900
     70          1           0       -4.707892   -3.330731    2.681528
     71          1           0       -2.506616   -2.069907    3.864439
     72          1           0       -5.417475   -2.156896    4.431377
     73          1           0       -5.073965   -0.495505    4.417427
     74          1           0       -4.071033   -1.475080    5.482036
     75          1           0       -3.332794   -4.654341    1.484974
     76          1           0       -2.410519   -4.214723    2.830450
     77          1           0       -1.605722   -2.305801    1.027253
     78          1           0       -2.103620   -3.571205   -0.063193
     79          1           0       -0.423313    3.949796    4.909141
     80          1           0        0.274391    2.584001    4.251876
     81          1           0       -1.161012    2.509906    5.291466
     82          1           0       -0.804063    7.722338    1.853255
     83          1           0       -2.466962    6.914208    2.056074
     84          1           0       -1.367577    6.579135    0.700138
     85          1           0       -4.131470    5.505983   -2.156912
     86          1           0       -6.977958    4.806361   -2.382098
     87          1           0       -6.489283    6.923176   -1.647339
     88          1           0       -4.780360    7.394847   -1.619340
     89          1           0       -5.492692    6.879540   -0.126424
     90          1           0       -5.001869    5.284500   -4.351897
     91          1           0       -6.565712    4.383688   -4.547496
     92          1           0       -4.236025    3.517677   -5.325296
     93          1           0       -5.471899    2.370076   -4.966282
     94          1           0       -4.230918    2.776287   -3.746216
     95          1           0       -9.005987   -0.069803   -3.459550
     96          1           0       -8.268368   -1.450040   -4.160165
     97          1           0       -7.484499    0.112532   -4.427011
     98          1           0       -6.441901   -3.694315    0.551519
     99          1           0       -5.126173   -7.586970   -0.792775
    100          1           0       -3.548563   -6.801022   -0.890336
    101          1           0       -4.795237   -6.623580   -2.188702
    102          1           0        1.294101   -6.263731   -0.545184
    103          1           0        1.894676   -5.795690    1.086932
    104          1           0        2.464530   -4.601257   -1.643105
    105          1           0        3.922593   -3.197903    2.120043
    106          1           0        5.050353   -4.388286    1.410694
    107          1           0        3.451382   -4.825232    1.984029
    108          1           0        4.239138   -3.370372   -1.881672
    109          1           0        5.386435   -3.783365   -0.780276
    110          1           0        4.705855   -1.487881    0.570336
    111          1           0        4.361258   -1.263756   -1.156221
    112          1           0        6.878480   -2.301055   -1.447704
    113          1           0        6.993925   -1.821003    0.270245
    114          1           0        5.864190    0.422815   -1.286779
    115          1           0        6.598705    0.316155   -3.105070
    116          1           0        7.782524   -1.000339   -2.805047
    117          1           0        8.157699    0.836746   -2.544294
    118          1           0        6.714147    0.738205    0.782322
    119          1           0        7.621734    1.741814   -0.356564
    120          1           0        9.122937   -0.684802   -0.286490
    121          1           0        8.555671   -0.501883    1.358223
    122          1           0        9.346797    1.879238    1.308148
    123          1           0       10.172522    1.531286   -0.125180
    124          1           0       11.179345   -0.619181    1.229767
    125          1           0       10.107098    0.578361    3.407780
    126          1           0       11.605944    1.333079    3.518273
    127          1           0       11.530614   -0.421782    3.328076
    128          1           0       13.131947    1.055091    1.772808
    129          1           0       12.221970    2.207427    0.715955
    130          1           0       12.648238   -0.455021   -0.547599
    131          1           0       14.195144    0.123392    0.098192
    132          1           0       14.503955    1.649962   -1.487801
    133          1           0       12.901146    2.275358   -1.109100
    134          1           0       12.564325   -0.232274   -2.699988
    135          1           0       13.971078    0.270876   -4.555507
    136          1           0       14.928781    1.178658   -3.456398
    137          1           0       13.560755    2.089899   -4.311152
    138          1           0       10.752816    0.884286   -2.553845
    139          1           0       11.316590    1.318269   -4.174698
    140          1           0       11.521718    2.505290   -2.833131
 ---------------------------------------------------------------------
 Rotational constants (GHZ):           0.0350967           0.0121722           0.0106303
 Leave Link  202 at Wed May  4 12:17:45 2022, MaxMem= 10066329600 cpu:               0.2 elap:               0.0
 (Enter /sw/apps/gaussian-16.0/g16/l301.exe)
 Standard basis: def2SVP (5D, 7F)
 Ernie: Thresh=  0.10000D-02 Tol=  0.10000D-05 Strict=F.
 There are  1364 symmetry adapted cartesian basis functions of A   symmetry.
 There are  1298 symmetry adapted basis functions of A   symmetry.
  1298 basis functions,  2180 primitive gaussians,  1364 cartesian basis functions
   246 alpha electrons      246 beta electrons
       nuclear repulsion energy      9696.9880510747 Hartrees.
 IExCor=  402 DFT=T Ex=B Corr=LYP ExCW=0 ScaHFX=  0.000000
 ScaDFX=  1.000000  1.000000  1.000000  1.000000 ScalE2=  1.000000  1.000000
 IRadAn=      5 IRanWt=     -1 IRanGd=            0 ICorTp=0 IEmpDi=  4
 NAtoms=  140 NActive=  140 NUniq=  140 SFac= 1.00D+00 NAtFMM=   60 NAOKFM=T Big=T
 Integral buffers will be    131072 words long.
 Regular integral format.
 Two-electron integral symmetry is turned on.
 Leave Link  301 at Wed May  4 12:17:45 2022, MaxMem= 10066329600 cpu:               1.3 elap:               0.1
 (Enter /sw/apps/gaussian-16.0/g16/l302.exe)
 NPDir=0 NMtPBC=     1 NCelOv=     1 NCel=       1 NClECP=     1 NCelD=      1
         NCelK=      1 NCelE2=     1 NClLst=     1 CellRange=     0.0.
 One-electron integrals computed using PRISM.
 One-electron integral symmetry used in STVInt
   1 Symmetry operations used in ECPInt.
 ECPInt:  NShTT=  192510 NPrTT=  683786 LenC2=   97980 LenP2D=  212564.
 LDataN:  DoStor=T MaxTD1= 4 Len=   56
 NBasis=  1298 RedAO= T EigKep=  2.81D-04  NBF=  1298
 NBsUse=  1298 1.00D-06 EigRej= -1.00D+00 NBFU=  1298
 Precomputing XC quadrature grid using
 IXCGrd= 4 IRadAn=           5 IRanWt=          -1 IRanGd=           0 AccXCQ= 0.00D+00.
 Generated NRdTot=       0 NPtTot=           0 NUsed=           0 NTot=          32
 NSgBfM=  1033  1033  1033  1033  1033 MxSgAt=   140 MxSgA2=   140.
 Leave Link  302 at Wed May  4 12:17:49 2022, MaxMem= 10066329600 cpu:              77.8 elap:               3.3
 (Enter /sw/apps/gaussian-16.0/g16/l303.exe)
 DipDrv:  MaxL=1.
 Leave Link  303 at Wed May  4 12:17:49 2022, MaxMem= 10066329600 cpu:               6.0 elap:               0.3
 (Enter /sw/apps/gaussian-16.0/g16/l308.exe)
 Leave Link  308 at Wed May  4 12:17:49 2022, MaxMem= 10066329600 cpu:               9.9 elap:               0.5
 (Enter /sw/apps/gaussian-16.0/g16/l401.exe)
 ExpMin= 3.36D-02 ExpMax= 4.95D+03 ExpMxC= 7.45D+02 IAcc=3 IRadAn=         5 AccDes= 0.00D+00
 Harris functional with IExCor=  402 and IRadAn=       5 diagonalized for initial guess.
 HarFok:  IExCor=  402 AccDes= 0.00D+00 IRadAn=         5 IDoV= 1 UseB2=F ITyADJ=14
 ICtDFT=  3500011 ScaDFX=  1.000000  1.000000  1.000000  1.000000
 FoFCou: FMM=F IPFlag=           0 FMFlag=      100000 FMFlg1=        2001
         NFxFlg=           0 DoJE=T BraDBF=F KetDBF=T FulRan=T
         wScrn=  0.000000 ICntrl=       500 IOpCl=  0 I1Cent=   200000004 NGrid=           0
         NMat0=    1 NMatS0=      1 NMatT0=    0 NMatD0=    1 NMtDS0=    0 NMtDT0=    0
 Petite list used in FoFCou.
 Harris En= -3008.72151387915    
 JPrj=0 DoOrth=F DoCkMO=F.
 Leave Link  401 at Wed May  4 12:17:55 2022, MaxMem= 10066329600 cpu:             135.7 elap:               5.7
 (Enter /sw/apps/gaussian-16.0/g16/l502.exe)
 Integral symmetry usage will be decided dynamically.
 Closed shell SCF:
 Using DIIS extrapolation, IDIIS=  1040.
 NGot= 10066329600 LenX= 10062561258 LenY= 10060699398
 Requested convergence on RMS density matrix=1.00D-08 within 128 cycles.
 Requested convergence on MAX density matrix=1.00D-06.
 Requested convergence on             energy=1.00D-06.
 No special actions if energy rises.
 Fock matrices will be formed incrementally for  20 cycles.

 Cycle   1  Pass 1  IDiag  1:
 FoFJK:  IHMeth= 1 ICntrl=     500 DoSepK=F KAlg= 0 I1Cent=           0 FoldK=F
 IRaf= 530000000 NMat=       1 IRICut=       1 DoRegI=T DoRafI=F ISym2E= 0 IDoP0=0 IntGTp=1.
 FoFCou: FMM=T IPFlag=           0 FMFlag=      100000 FMFlg1=        2001
         NFxFlg=           0 DoJE=T BraDBF=F KetDBF=F FulRan=T
         wScrn=  0.000000 ICntrl=       500 IOpCl=  0 I1Cent=           0 NGrid=           0
         NMat0=    1 NMatS0=      1 NMatT0=    0 NMatD0=    1 NMtDS0=    0 NMtDT0=    0
 Symmetry not used in FoFCou.
 FMM levels:  10  Number of levels for PrismC:   9
 E= -3005.62066474919    
 DIIS: error= 2.19D-02 at cycle   1 NSaved=   1.
 NSaved= 1 IEnMin= 1 EnMin= -3005.62066474919     IErMin= 1 ErrMin= 2.19D-02
 ErrMax= 2.19D-02  0.00D+00 EMaxC= 1.00D-01 BMatC= 1.56D+00 BMatP= 1.56D+00
 IDIUse=3 WtCom= 7.81D-01 WtEn= 2.19D-01
 Coeff-Com:  0.100D+01
 Coeff-En:   0.100D+01
 Coeff:      0.100D+01
 Gap=     0.031 Goal=   None    Shift=    0.000
 GapD=    0.031 DampG=0.250 DampE=0.500 DampFc=0.2500 IDamp=-1.
 Damping current iteration by 2.50D-01
 RMSDP=3.81D-03 MaxDP=4.45D-01              OVMax= 7.59D-01

 Cycle   2  Pass 1  IDiag  1:
 RMSU=  9.47D-04    CP:  9.88D-01
 E= -3006.04674156027     Delta-E=       -0.426076811082 Rises=F Damp=T
 DIIS: error= 8.03D-03 at cycle   2 NSaved=   2.
 NSaved= 2 IEnMin= 2 EnMin= -3006.04674156027     IErMin= 2 ErrMin= 8.03D-03
 ErrMax= 8.03D-03  0.00D+00 EMaxC= 1.00D-01 BMatC= 2.71D-01 BMatP= 1.56D+00
 IDIUse=3 WtCom= 9.20D-01 WtEn= 8.03D-02
 Coeff-Com: -0.205D+00 0.121D+01
 Coeff-En:   0.207D+00 0.793D+00
 Coeff:     -0.172D+00 0.117D+01
 Gap=    -0.019 Goal=   None    Shift=    0.000
 RMSDP=1.94D-03 MaxDP=1.85D-01 DE=-4.26D-01 OVMax= 6.35D-01

 Cycle   3  Pass 1  IDiag  1:
 RMSU=  1.92D-03    CP:  9.63D-01  1.14D+00
 E= -3003.99535489684     Delta-E=        2.051386663437 Rises=F Damp=F
 DIIS: error= 5.43D-02 at cycle   3 NSaved=   3.
 NSaved= 3 IEnMin= 2 EnMin= -3006.04674156027     IErMin= 2 ErrMin= 8.03D-03
 ErrMax= 5.43D-02  0.00D+00 EMaxC= 1.00D-01 BMatC= 2.44D+00 BMatP= 2.71D-01
 IDIUse=2 WtCom= 0.00D+00 WtEn= 1.00D+00
 EnCoef did     2 forward-backward iterations
 Coeff-En:   0.222D-01 0.736D+00 0.241D+00
 Coeff:      0.222D-01 0.736D+00 0.241D+00
 Gap=    -0.127 Goal=   None    Shift=    0.000
 RMSDP=2.34D-03 MaxDP=4.31D-01 DE= 2.05D+00 OVMax= 8.58D-01

 Cycle   4  Pass 1  IDiag  1:
 RMSU=  1.38D-03    CP:  9.69D-01  1.60D+00  4.21D-02
 E= -3005.24511657889     Delta-E=       -1.249761682056 Rises=F Damp=F
 DIIS: error= 4.29D-02 at cycle   4 NSaved=   4.
 NSaved= 4 IEnMin= 2 EnMin= -3006.04674156027     IErMin= 2 ErrMin= 8.03D-03
 ErrMax= 4.29D-02  0.00D+00 EMaxC= 1.00D-01 BMatC= 1.27D+00 BMatP= 2.71D-01
 IDIUse=2 WtCom= 0.00D+00 WtEn= 1.00D+00
 EnCoef did   100 forward-backward iterations
 Coeff-En:   0.231D+00 0.207D-01 0.296D+00 0.453D+00
 Coeff:      0.231D+00 0.207D-01 0.296D+00 0.453D+00
 Gap=    -0.395 Goal=   None    Shift=    0.000
 RMSDP=2.04D-03 MaxDP=4.28D-01 DE=-1.25D+00 OVMax= 6.22D-01

 Cycle   5  Pass 1  IDiag  1:
 RMSU=  1.55D-03    CP:  9.67D-01  1.49D+00  2.19D-01  7.90D-02
 E= -3000.92765665356     Delta-E=        4.317459925331 Rises=F Damp=F
 DIIS: error= 9.42D-02 at cycle   5 NSaved=   5.
 NSaved= 5 IEnMin= 2 EnMin= -3006.04674156027     IErMin= 2 ErrMin= 8.03D-03
 ErrMax= 9.42D-02  0.00D+00 EMaxC= 1.00D-01 BMatC= 3.08D+00 BMatP= 2.71D-01
 IDIUse=2 WtCom= 0.00D+00 WtEn= 1.00D+00
 EnCoef did     3 forward-backward iterations
 Coeff-En:   0.159D+00 0.000D+00 0.290D+00 0.431D+00 0.119D+00
 Coeff:      0.159D+00 0.000D+00 0.290D+00 0.431D+00 0.119D+00
 Gap=     0.195 Goal=   None    Shift=    0.000
 RMSDP=1.80D-03 MaxDP=3.07D-01 DE= 4.32D+00 OVMax= 7.88D-01

 Cycle   6  Pass 1  IDiag  1:
 RMSU=  7.39D-04    CP:  9.80D-01  9.62D-01  1.82D-01  3.51D-01  2.41D-02
 E= -3007.16202796633     Delta-E=       -6.234371312763 Rises=F Damp=F
 DIIS: error= 1.70D-02 at cycle   6 NSaved=   6.
 NSaved= 6 IEnMin= 6 EnMin= -3007.16202796633     IErMin= 2 ErrMin= 8.03D-03
 ErrMax= 1.70D-02  0.00D+00 EMaxC= 1.00D-01 BMatC= 1.87D-01 BMatP= 2.71D-01
 IDIUse=3 WtCom= 8.30D-01 WtEn= 1.70D-01
 Coeff-Com: -0.984D-01 0.482D+00 0.131D+00 0.138D+00-0.561D-02 0.353D+00
 Coeff-En:   0.000D+00 0.000D+00 0.000D+00 0.126D+00 0.000D+00 0.874D+00
 Coeff:     -0.816D-01 0.400D+00 0.108D+00 0.136D+00-0.465D-02 0.442D+00
 Gap=     0.032 Goal=   None    Shift=    0.000
 RMSDP=7.38D-04 MaxDP=9.23D-02 DE=-6.23D+00 OVMax= 3.52D-01

 Cycle   7  Pass 1  IDiag  1:
 RMSU=  6.84D-04    CP:  9.76D-01  1.02D+00  2.31D-01  3.40D-01  2.43D-02
                    CP:  6.60D-01
 E= -3007.09039654143     Delta-E=        0.071631424900 Rises=F Damp=F
 DIIS: error= 1.35D-02 at cycle   7 NSaved=   7.
 NSaved= 7 IEnMin= 6 EnMin= -3007.16202796633     IErMin= 2 ErrMin= 8.03D-03
 ErrMax= 1.35D-02  0.00D+00 EMaxC= 1.00D-01 BMatC= 2.10D-01 BMatP= 1.87D-01
 IDIUse=2 WtCom= 0.00D+00 WtEn= 1.00D+00
 EnCoef did     4 forward-backward iterations
 Coeff-En:   0.000D+00 0.000D+00 0.000D+00 0.765D-01 0.000D+00 0.560D+00
 Coeff-En:   0.363D+00
 Coeff:      0.000D+00 0.000D+00 0.000D+00 0.765D-01 0.000D+00 0.560D+00
 Coeff:      0.363D+00
 Gap=     0.029 Goal=   None    Shift=    0.000
 RMSDP=1.31D-03 MaxDP=3.53D-01 DE= 7.16D-02 OVMax= 7.97D-01

 Cycle   8  Pass 1  IDiag  1:
 RMSU=  7.52D-04    CP:  9.75D-01  1.25D+00  1.59D-01  7.64D-01 -6.39D-02
                    CP:  2.13D-01 -1.43D-01
 E= -3005.54985394267     Delta-E=        1.540542598752 Rises=F Damp=F
 DIIS: error= 4.91D-02 at cycle   8 NSaved=   8.
 NSaved= 8 IEnMin= 6 EnMin= -3007.16202796633     IErMin= 2 ErrMin= 8.03D-03
 ErrMax= 4.91D-02  0.00D+00 EMaxC= 1.00D-01 BMatC= 1.01D+00 BMatP= 1.87D-01
 IDIUse=2 WtCom= 0.00D+00 WtEn= 1.00D+00
 EnCoef did   100 forward-backward iterations
 Coeff-En:   0.000D+00 0.000D+00 0.000D+00 0.510D-02 0.000D+00 0.543D+00
 Coeff-En:   0.349D+00 0.103D+00
 Coeff:      0.000D+00 0.000D+00 0.000D+00 0.510D-02 0.000D+00 0.543D+00
 Coeff:      0.349D+00 0.103D+00
 Gap=    -0.035 Goal=   None    Shift=    0.000
 RMSDP=1.17D-03 MaxDP=3.31D-01 DE= 1.54D+00 OVMax= 9.97D-01

 Cycle   9  Pass 1  IDiag  1:
 RMSU=  5.21D-04    CP:  9.79D-01  1.18D+00  1.07D-01  4.16D-01 -7.20D-02
                    CP:  8.83D-01  3.61D-01  7.53D-02
 E= -3007.24794147592     Delta-E=       -1.698087533245 Rises=F Damp=F
 DIIS: error= 8.56D-03 at cycle   9 NSaved=   9.
 NSaved= 9 IEnMin= 9 EnMin= -3007.24794147592     IErMin= 2 ErrMin= 8.03D-03
 ErrMax= 8.56D-03  0.00D+00 EMaxC= 1.00D-01 BMatC= 8.49D-02 BMatP= 1.87D-01
 IDIUse=3 WtCom= 9.14D-01 WtEn= 8.56D-02
 EnCoef did     2 forward-backward iterations
 Coeff-Com: -0.275D-01 0.704D-01 0.157D-02 0.448D-02-0.146D-01 0.339D+00
 Coeff-Com:  0.282D+00 0.308D-01 0.314D+00
 Coeff-En:   0.000D+00 0.000D+00 0.000D+00 0.000D+00 0.000D+00 0.247D+00
 Coeff-En:   0.237D+00 0.000D+00 0.516D+00
 Coeff:     -0.251D-01 0.644D-01 0.144D-02 0.410D-02-0.134D-01 0.331D+00
 Coeff:      0.278D+00 0.282D-01 0.332D+00
 Gap=     0.065 Goal=   None    Shift=    0.000
 RMSDP=3.94D-04 MaxDP=5.61D-02 DE=-1.70D+00 OVMax= 2.15D-01

 Cycle  10  Pass 1  IDiag  1:
 RMSU=  1.68D-04    CP:  9.79D-01  1.06D+00  1.58D-01  3.50D-01 -3.56D-02
                    CP:  8.94D-01  4.73D-01  3.29D-02  4.32D-01
 E= -3007.33129144754     Delta-E=       -0.083349971619 Rises=F Damp=F
 DIIS: error= 1.83D-03 at cycle  10 NSaved=  10.
 NSaved=10 IEnMin=10 EnMin= -3007.33129144754     IErMin=10 ErrMin= 1.83D-03
 ErrMax= 1.83D-03  0.00D+00 EMaxC= 1.00D-01 BMatC= 7.68D-03 BMatP= 8.49D-02
 IDIUse=3 WtCom= 9.82D-01 WtEn= 1.83D-02
 Coeff-Com:  0.215D-01-0.274D-01-0.331D-02 0.779D-02-0.213D-02 0.122D+00
 Coeff-Com:  0.121D+00-0.189D-02 0.283D+00 0.478D+00
 Coeff-En:   0.000D+00 0.000D+00 0.000D+00 0.000D+00 0.000D+00 0.000D+00
 Coeff-En:   0.000D+00 0.000D+00 0.120D+00 0.880D+00
 Coeff:      0.211D-01-0.269D-01-0.325D-02 0.765D-02-0.210D-02 0.120D+00
 Coeff:      0.119D+00-0.185D-02 0.280D+00 0.486D+00
 Gap=     0.039 Goal=   None    Shift=    0.000
 RMSDP=1.37D-04 MaxDP=1.73D-02 DE=-8.33D-02 OVMax= 6.76D-02

 Cycle  11  Pass 1  IDiag  1:
 RMSU=  6.91D-05    CP:  9.79D-01  1.07D+00  1.43D-01  3.68D-01 -4.41D-02
                    CP:  8.87D-01  4.43D-01  3.52D-02  5.81D-01  5.42D-01
 E= -3007.33763434019     Delta-E=       -0.006342892657 Rises=F Damp=F
 DIIS: error= 1.30D-03 at cycle  11 NSaved=  11.
 NSaved=11 IEnMin=11 EnMin= -3007.33763434019     IErMin=11 ErrMin= 1.30D-03
 ErrMax= 1.30D-03  0.00D+00 EMaxC= 1.00D-01 BMatC= 1.97D-03 BMatP= 7.68D-03
 IDIUse=3 WtCom= 9.87D-01 WtEn= 1.30D-02
 Coeff-Com:  0.167D-01-0.229D-01-0.133D-02 0.595D-02 0.102D-02 0.401D-01
 Coeff-Com:  0.477D-01-0.594D-02 0.140D+00 0.374D+00 0.405D+00
 Coeff-En:   0.000D+00 0.000D+00 0.000D+00 0.000D+00 0.000D+00 0.000D+00
 Coeff-En:   0.000D+00 0.000D+00 0.000D+00 0.276D+00 0.724D+00
 Coeff:      0.165D-01-0.227D-01-0.131D-02 0.587D-02 0.101D-02 0.396D-01
 Coeff:      0.471D-01-0.587D-02 0.138D+00 0.373D+00 0.409D+00
 Gap=     0.039 Goal=   None    Shift=    0.000
 RMSDP=6.00D-05 MaxDP=7.48D-03 DE=-6.34D-03 OVMax= 3.71D-02

 Cycle  12  Pass 1  IDiag  1:
 RMSU=  3.14D-05    CP:  9.79D-01  1.07D+00  1.44D-01  3.63D-01 -3.99D-02
                    CP:  8.80D-01  4.62D-01  2.90D-02  5.44D-01  6.61D-01
                    CP:  4.32D-01
 E= -3007.33951784284     Delta-E=       -0.001883502644 Rises=F Damp=F
 DIIS: error= 3.61D-04 at cycle  12 NSaved=  12.
 NSaved=12 IEnMin=12 EnMin= -3007.33951784284     IErMin=12 ErrMin= 3.61D-04
 ErrMax= 3.61D-04  0.00D+00 EMaxC= 1.00D-01 BMatC= 3.97D-04 BMatP= 1.97D-03
 IDIUse=3 WtCom= 9.96D-01 WtEn= 3.61D-03
 Coeff-Com:  0.831D-02-0.124D-01-0.512D-03 0.153D-02 0.925D-03 0.220D-01
 Coeff-Com:  0.241D-01-0.229D-02 0.644D-01 0.214D+00 0.314D+00 0.366D+00
 Coeff-En:   0.000D+00 0.000D+00 0.000D+00 0.000D+00 0.000D+00 0.000D+00
 Coeff-En:   0.000D+00 0.000D+00 0.000D+00 0.000D+00 0.172D+00 0.828D+00
 Coeff:      0.828D-02-0.124D-01-0.510D-03 0.152D-02 0.922D-03 0.219D-01
 Coeff:      0.240D-01-0.228D-02 0.642D-01 0.213D+00 0.313D+00 0.368D+00
 Gap=     0.039 Goal=   None    Shift=    0.000
 RMSDP=3.33D-05 MaxDP=2.84D-03 DE=-1.88D-03 OVMax= 2.31D-02

 Cycle  13  Pass 1  IDiag  1:
 RMSU=  1.74D-05    CP:  9.79D-01  1.07D+00  1.46D-01  3.64D-01 -3.98D-02
                    CP:  8.84D-01  4.57D-01  3.04D-02  5.39D-01  6.32D-01
                    CP:  5.57D-01  1.82D-01
 E= -3007.33981618893     Delta-E=       -0.000298346093 Rises=F Damp=F
 DIIS: error= 3.36D-04 at cycle  13 NSaved=  13.
 NSaved=13 IEnMin=13 EnMin= -3007.33981618893     IErMin=13 ErrMin= 3.36D-04
 ErrMax= 3.36D-04  0.00D+00 EMaxC= 1.00D-01 BMatC= 1.29D-04 BMatP= 3.97D-04
 IDIUse=3 WtCom= 9.97D-01 WtEn= 3.36D-03
 Coeff-Com:  0.247D-02-0.441D-02-0.821D-04-0.885D-03 0.396D-03 0.117D-01
 Coeff-Com:  0.108D-01 0.157D-03 0.190D-01 0.933D-01 0.175D+00 0.331D+00
 Coeff-Com:  0.362D+00
 Coeff-En:   0.000D+00 0.000D+00 0.000D+00 0.000D+00 0.000D+00 0.000D+00
 Coeff-En:   0.000D+00 0.000D+00 0.000D+00 0.000D+00 0.000D+00 0.312D+00
 Coeff-En:   0.688D+00
 Coeff:      0.246D-02-0.440D-02-0.818D-04-0.882D-03 0.395D-03 0.117D-01
 Coeff:      0.108D-01 0.156D-03 0.189D-01 0.929D-01 0.174D+00 0.331D+00
 Coeff:      0.363D+00
 Gap=     0.039 Goal=   None    Shift=    0.000
 RMSDP=2.15D-05 MaxDP=1.74D-03 DE=-2.98D-04 OVMax= 1.45D-02

 Cycle  14  Pass 1  IDiag  1:
 RMSU=  1.11D-05    CP:  9.79D-01  1.06D+00  1.47D-01  3.63D-01 -4.00D-02
                    CP:  8.84D-01  4.54D-01  3.26D-02  5.37D-01  6.40D-01
                    CP:  5.00D-01  4.87D-01  1.58D-01
 E= -3007.33992961787     Delta-E=       -0.000113428940 Rises=F Damp=F
 DIIS: error= 1.97D-04 at cycle  14 NSaved=  14.
 NSaved=14 IEnMin=14 EnMin= -3007.33992961787     IErMin=14 ErrMin= 1.97D-04
 ErrMax= 1.97D-04  0.00D+00 EMaxC= 1.00D-01 BMatC= 4.91D-05 BMatP= 1.29D-04
 IDIUse=3 WtCom= 9.98D-01 WtEn= 1.97D-03
 Coeff-Com: -0.274D-03 0.332D-03 0.142D-03-0.857D-03 0.706D-04 0.557D-02
 Coeff-Com:  0.458D-02 0.369D-03-0.180D-03 0.359D-01 0.877D-01 0.216D+00
 Coeff-Com:  0.340D+00 0.310D+00
 Coeff-En:   0.000D+00 0.000D+00 0.000D+00 0.000D+00 0.000D+00 0.000D+00
 Coeff-En:   0.000D+00 0.000D+00 0.000D+00 0.000D+00 0.000D+00 0.000D+00
 Coeff-En:   0.329D+00 0.671D+00
 Coeff:     -0.274D-03 0.331D-03 0.141D-03-0.855D-03 0.705D-04 0.556D-02
 Coeff:      0.457D-02 0.368D-03-0.180D-03 0.358D-01 0.876D-01 0.215D+00
 Coeff:      0.340D+00 0.311D+00
 Gap=     0.039 Goal=   None    Shift=    0.000
 RMSDP=1.26D-05 MaxDP=1.10D-03 DE=-1.13D-04 OVMax= 9.96D-03

 Cycle  15  Pass 1  IDiag  1:
 RMSU=  4.42D-06    CP:  9.79D-01  1.07D+00  1.47D-01  3.62D-01 -3.89D-02
                    CP:  8.84D-01  4.58D-01  3.11D-02  5.28D-01  6.35D-01
                    CP:  5.20D-01  4.20D-01  4.91D-01  2.86D-01
 E= -3007.33999471624     Delta-E=       -0.000065098369 Rises=F Damp=F
 DIIS: error= 5.94D-05 at cycle  15 NSaved=  15.
 NSaved=15 IEnMin=15 EnMin= -3007.33999471624     IErMin=15 ErrMin= 5.94D-05
 ErrMax= 5.94D-05  0.00D+00 EMaxC= 1.00D-01 BMatC= 6.94D-06 BMatP= 4.91D-05
 IDIUse=1 WtCom= 1.00D+00 WtEn= 0.00D+00
 Coeff-Com: -0.247D-03 0.149D-03 0.320D-04-0.593D-03-0.838D-05 0.316D-02
 Coeff-Com:  0.228D-02 0.364D-03-0.162D-02 0.151D-01 0.424D-01 0.119D+00
 Coeff-Com:  0.218D+00 0.266D+00 0.336D+00
 Coeff:     -0.247D-03 0.149D-03 0.320D-04-0.593D-03-0.838D-05 0.316D-02
 Coeff:      0.228D-02 0.364D-03-0.162D-02 0.151D-01 0.424D-01 0.119D+00
 Coeff:      0.218D+00 0.266D+00 0.336D+00
 Gap=     0.039 Goal=   None    Shift=    0.000
 RMSDP=4.22D-06 MaxDP=4.88D-04 DE=-6.51D-05 OVMax= 3.04D-03

 Cycle  16  Pass 1  IDiag  1:
 RMSU=  1.70D-06    CP:  9.79D-01  1.07D+00  1.47D-01  3.62D-01 -3.92D-02
                    CP:  8.85D-01  4.56D-01  3.15D-02  5.31D-01  6.36D-01
                    CP:  5.21D-01  4.22D-01  4.16D-01  4.12D-01  3.96D-01
 E= -3007.34000373566     Delta-E=       -0.000009019417 Rises=F Damp=F
 DIIS: error= 1.86D-05 at cycle  16 NSaved=  16.
 NSaved=16 IEnMin=16 EnMin= -3007.34000373566     IErMin=16 ErrMin= 1.86D-05
 ErrMax= 1.86D-05  0.00D+00 EMaxC= 1.00D-01 BMatC= 8.00D-07 BMatP= 6.94D-06
 IDIUse=1 WtCom= 1.00D+00 WtEn= 0.00D+00
 Coeff-Com: -0.329D-04-0.754D-04 0.274D-04-0.119D-03-0.103D-04 0.115D-02
 Coeff-Com:  0.693D-03 0.648D-04-0.122D-02 0.542D-02 0.164D-01 0.496D-01
 Coeff-Com:  0.995D-01 0.146D+00 0.257D+00 0.426D+00
 Coeff:     -0.329D-04-0.754D-04 0.274D-04-0.119D-03-0.103D-04 0.115D-02
 Coeff:      0.693D-03 0.648D-04-0.122D-02 0.542D-02 0.164D-01 0.496D-01
 Coeff:      0.995D-01 0.146D+00 0.257D+00 0.426D+00
 Gap=     0.039 Goal=   None    Shift=    0.000
 RMSDP=1.17D-06 MaxDP=1.41D-04 DE=-9.02D-06 OVMax= 5.81D-04

 Cycle  17  Pass 1  IDiag  1:
 RMSU=  6.33D-07    CP:  9.79D-01  1.07D+00  1.47D-01  3.62D-01 -3.92D-02
                    CP:  8.84D-01  4.57D-01  3.12D-02  5.30D-01  6.36D-01
                    CP:  5.22D-01  4.29D-01  4.27D-01  3.89D-01  4.69D-01
                    CP:  5.38D-01
 E= -3007.34000447064     Delta-E=       -0.000000734981 Rises=F Damp=F
 DIIS: error= 6.34D-06 at cycle  17 NSaved=  17.
 NSaved=17 IEnMin=17 EnMin= -3007.34000447064     IErMin=17 ErrMin= 6.34D-06
 ErrMax= 6.34D-06  0.00D+00 EMaxC= 1.00D-01 BMatC= 1.25D-07 BMatP= 8.00D-07
 IDIUse=1 WtCom= 1.00D+00 WtEn= 0.00D+00
 Coeff-Com:  0.808D-04-0.209D-03 0.169D-04 0.810D-05-0.356D-05 0.351D-03
 Coeff-Com:  0.132D-03-0.649D-05-0.521D-03 0.225D-02 0.602D-02 0.187D-01
 Coeff-Com:  0.398D-01 0.669D-01 0.138D+00 0.311D+00 0.417D+00
 Coeff:      0.808D-04-0.209D-03 0.169D-04 0.810D-05-0.356D-05 0.351D-03
 Coeff:      0.132D-03-0.649D-05-0.521D-03 0.225D-02 0.602D-02 0.187D-01
 Coeff:      0.398D-01 0.669D-01 0.138D+00 0.311D+00 0.417D+00
 Gap=     0.039 Goal=   None    Shift=    0.000
 RMSDP=4.63D-07 MaxDP=4.15D-05 DE=-7.35D-07 OVMax= 2.33D-04

 Cycle  18  Pass 1  IDiag  1:
 RMSU=  2.38D-07    CP:  9.79D-01  1.07D+00  1.47D-01  3.62D-01 -3.92D-02
                    CP:  8.84D-01  4.57D-01  3.13D-02  5.31D-01  6.36D-01
                    CP:  5.22D-01  4.28D-01  4.25D-01  4.00D-01  4.48D-01
                    CP:  5.92D-01  5.01D-01
 E= -3007.34000459134     Delta-E=       -0.000000120699 Rises=F Damp=F
 DIIS: error= 2.90D-06 at cycle  18 NSaved=  18.
 NSaved=18 IEnMin=18 EnMin= -3007.34000459134     IErMin=18 ErrMin= 2.90D-06
 ErrMax= 2.90D-06  0.00D+00 EMaxC= 1.00D-01 BMatC= 1.88D-08 BMatP= 1.25D-07
 IDIUse=1 WtCom= 1.00D+00 WtEn= 0.00D+00
 Coeff-Com:  0.723D-04-0.163D-03 0.112D-04 0.105D-04-0.278D-05 0.115D-03
 Coeff-Com:  0.225D-04-0.527D-05-0.230D-03 0.104D-02 0.225D-02 0.726D-02
 Coeff-Com:  0.160D-01 0.295D-01 0.692D-01 0.162D+00 0.295D+00 0.418D+00
 Coeff:      0.723D-04-0.163D-03 0.112D-04 0.105D-04-0.278D-05 0.115D-03
 Coeff:      0.225D-04-0.527D-05-0.230D-03 0.104D-02 0.225D-02 0.726D-02
 Coeff:      0.160D-01 0.295D-01 0.692D-01 0.162D+00 0.295D+00 0.418D+00
 Gap=     0.039 Goal=   None    Shift=    0.000
 RMSDP=1.61D-07 MaxDP=1.25D-05 DE=-1.21D-07 OVMax= 3.93D-05

 Cycle  19  Pass 1  IDiag  1:
 RMSU=  8.91D-08    CP:  9.79D-01  1.07D+00  1.47D-01  3.62D-01 -3.92D-02
                    CP:  8.84D-01  4.57D-01  3.13D-02  5.31D-01  6.36D-01
                    CP:  5.21D-01  4.27D-01  4.26D-01  4.01D-01  4.54D-01
                    CP:  5.70D-01  5.30D-01  5.29D-01
 E= -3007.34000460809     Delta-E=       -0.000000016753 Rises=F Damp=F
 DIIS: error= 2.09D-06 at cycle  19 NSaved=  19.
 NSaved=19 IEnMin=19 EnMin= -3007.34000460809     IErMin=19 ErrMin= 2.09D-06
 ErrMax= 2.09D-06  0.00D+00 EMaxC= 1.00D-01 BMatC= 4.73D-09 BMatP= 1.88D-08
 IDIUse=1 WtCom= 1.00D+00 WtEn= 0.00D+00
 Coeff-Com:  0.468D-04-0.981D-04 0.804D-05 0.375D-05-0.148D-05 0.134D-04
 Coeff-Com: -0.821D-05-0.148D-05-0.897D-04 0.356D-03 0.401D-03 0.160D-02
 Coeff-Com:  0.375D-02 0.839D-02 0.270D-01 0.551D-01 0.134D+00 0.294D+00
 Coeff-Com:  0.476D+00
 Coeff:      0.468D-04-0.981D-04 0.804D-05 0.375D-05-0.148D-05 0.134D-04
 Coeff:     -0.821D-05-0.148D-05-0.897D-04 0.356D-03 0.401D-03 0.160D-02
 Coeff:      0.375D-02 0.839D-02 0.270D-01 0.551D-01 0.134D+00 0.294D+00
 Coeff:      0.476D+00
 Gap=     0.039 Goal=   None    Shift=    0.000
 RMSDP=7.23D-08 MaxDP=1.31D-05 DE=-1.68D-08 OVMax= 1.93D-05

 Cycle  20  Pass 1  IDiag  1:
 RMSU=  4.86D-08    CP:  9.79D-01  1.07D+00  1.47D-01  3.62D-01 -3.92D-02
                    CP:  8.84D-01  4.57D-01  3.13D-02  5.31D-01  6.36D-01
                    CP:  5.21D-01  4.27D-01  4.26D-01  4.01D-01  4.58D-01
                    CP:  5.74D-01  5.23D-01  5.61D-01  7.41D-01
 E= -3007.34000461195     Delta-E=       -0.000000003858 Rises=F Damp=F
 DIIS: error= 9.98D-07 at cycle  20 NSaved=  20.
 NSaved=20 IEnMin=20 EnMin= -3007.34000461195     IErMin=20 ErrMin= 9.98D-07
 ErrMax= 9.98D-07  0.00D+00 EMaxC= 1.00D-01 BMatC= 1.27D-09 BMatP= 4.73D-09
 IDIUse=1 WtCom= 1.00D+00 WtEn= 0.00D+00
 Coeff-Com:  0.184D-04-0.376D-04 0.405D-05-0.123D-05-0.583D-06-0.138D-04
 Coeff-Com: -0.632D-05 0.175D-05-0.169D-04-0.848D-04-0.505D-03-0.105D-02
 Coeff-Com: -0.194D-02-0.208D-02 0.319D-02-0.451D-02 0.178D-01 0.959D-01
 Coeff-Com:  0.316D+00 0.577D+00
 Coeff:      0.184D-04-0.376D-04 0.405D-05-0.123D-05-0.583D-06-0.138D-04
 Coeff:     -0.632D-05 0.175D-05-0.169D-04-0.848D-04-0.505D-03-0.105D-02
 Coeff:     -0.194D-02-0.208D-02 0.319D-02-0.451D-02 0.178D-01 0.959D-01
 Coeff:      0.316D+00 0.577D+00
 Gap=     0.039 Goal=   None    Shift=    0.000
 RMSDP=4.23D-08 MaxDP=4.94D-06 DE=-3.86D-09 OVMax= 1.41D-05

 Cycle  21  Pass 1  IDiag  1:
 Restarting incremental Fock formation.
 E= -3007.34000461302     Delta-E=       -0.000000001075 Rises=F Damp=F
 DIIS: error= 5.78D-07 at cycle  21 NSaved=  20.
 NSaved=20 IEnMin=20 EnMin= -3007.34000461302     IErMin=20 ErrMin= 5.78D-07
 ErrMax= 5.78D-07  0.00D+00 EMaxC= 1.00D-01 BMatC= 3.53D-10 BMatP= 1.27D-09
 IDIUse=1 WtCom= 1.00D+00 WtEn= 0.00D+00
 Coeff-Com:  0.536D-05-0.104D-04 0.194D-05-0.751D-06-0.148D-04-0.413D-05
 Coeff-Com:  0.798D-06 0.317D-05-0.172D-03-0.572D-03-0.136D-02-0.268D-02
 Coeff-Com: -0.387D-02-0.333D-02-0.167D-01-0.167D-01 0.919D-02 0.129D+00
 Coeff-Com:  0.481D+00 0.426D+00
 Coeff:      0.536D-05-0.104D-04 0.194D-05-0.751D-06-0.148D-04-0.413D-05
 Coeff:      0.798D-06 0.317D-05-0.172D-03-0.572D-03-0.136D-02-0.268D-02
 Coeff:     -0.387D-02-0.333D-02-0.167D-01-0.167D-01 0.919D-02 0.129D+00
 Coeff:      0.481D+00 0.426D+00
 Gap=     0.039 Goal=   None    Shift=    0.000
 RMSDP=2.27D-08 MaxDP=4.44D-06 DE=-1.08D-09 OVMax= 7.68D-06

 Cycle  22  Pass 1  IDiag  1:
 RMSU=  2.26D-08    CP:  1.00D+00
 E= -3007.34000461332     Delta-E=       -0.000000000298 Rises=F Damp=F
 DIIS: error= 1.41D-07 at cycle  22 NSaved=  20.
 NSaved=20 IEnMin=20 EnMin= -3007.34000461332     IErMin=20 ErrMin= 1.41D-07
 ErrMax= 1.41D-07  0.00D+00 EMaxC= 1.00D-01 BMatC= 2.99D-11 BMatP= 3.53D-10
 IDIUse=1 WtCom= 1.00D+00 WtEn= 0.00D+00
 Coeff-Com:  0.372D-06-0.167D-05-0.107D-05-0.450D-05-0.250D-06 0.860D-06
 Coeff-Com:  0.473D-05-0.989D-04-0.302D-03-0.718D-03-0.141D-02-0.209D-02
 Coeff-Com: -0.227D-02-0.924D-02-0.128D-01-0.971D-02 0.208D-01 0.212D+00
 Coeff-Com:  0.272D+00 0.535D+00
 Coeff:      0.372D-06-0.167D-05-0.107D-05-0.450D-05-0.250D-06 0.860D-06
 Coeff:      0.473D-05-0.989D-04-0.302D-03-0.718D-03-0.141D-02-0.209D-02
 Coeff:     -0.227D-02-0.924D-02-0.128D-01-0.971D-02 0.208D-01 0.212D+00
 Coeff:      0.272D+00 0.535D+00
 Gap=     0.039 Goal=   None    Shift=    0.000
 RMSDP=8.28D-09 MaxDP=9.78D-07 DE=-2.98D-10 OVMax= 3.23D-06

 SCF Done:  E(RB-LYP) =  -3007.34000461     A.U. after   22 cycles
            NFock= 22  Conv=0.83D-08     -V/T= 2.0102
 KE= 2.977057116034D+03 PE=-2.638964588514D+04 EE= 1.070826071342D+04
 Leave Link  502 at Wed May  4 12:22:11 2022, MaxMem= 10066329600 cpu:            6095.7 elap:             255.6
 (Enter /sw/apps/gaussian-16.0/g16/l801.exe)
 DoSCS=F DFT=T ScalE2(SS,OS)=  1.000000  1.000000
 ExpMin= 3.36D-02 ExpMax= 4.95D+03 ExpMxC= 7.45D+02 IAcc=3 IRadAn=         5 AccDes= 0.00D+00
 HarFok:  IExCor=  205 AccDes= 0.00D+00 IRadAn=         5 IDoV=-2 UseB2=F ITyADJ=14
 ICtDFT= 12500011 ScaDFX=  1.000000  1.000000  1.000000  1.000000
 GSVD:  LWork=       -5460 too small for GESVD, short by       25550 words or       25550 for optimal perf.
 Largest valence mixing into a core orbital is  1.33D-04
 Largest core mixing into a valence orbital is  4.50D-05
 Range of M.O.s used for correlation:    71  1298
 NBasis=  1298 NAE=   246 NBE=   246 NFC=    70 NFV=     0
 NROrb=   1228 NOA=   176 NOB=   176 NVA=  1052 NVB=  1052

 **** Warning!!: The smallest alpha delta epsilon is  0.39028912D-01

 Leave Link  801 at Wed May  4 12:22:11 2022, MaxMem= 10066329600 cpu:               6.8 elap:               0.3
 (Enter /sw/apps/gaussian-16.0/g16/l914.exe)
 RHF ground state
 Two-electron integrals replicated using symmetry.
 MDV= 10066329600 DFT=T DoStab=F Mixed=F DoRPA=T DoScal=T NonHer=F
 Making orbital integer symmetry assigments:
 Orbital symmetries:
       Occupied  (A) (A) (A) (A) (A) (A) (A) (A) (A) (A) (A) (A)
                 (A) (A) (A) (A) (A) (A) (A) (A) (A) (A) (A) (A)
                 (A) (A) (A) (A) (A) (A) (A) (A) (A) (A) (A) (A)
                 (A) (A) (A) (A) (A) (A) (A) (A) (A) (A) (A) (A)
                 (A) (A) (A) (A) (A) (A) (A) (A) (A) (A) (A) (A)
                 (A) (A) (A) (A) (A) (A) (A) (A) (A) (A) (A) (A)
                 (A) (A) (A) (A) (A) (A) (A) (A) (A) (A) (A) (A)
                 (A) (A) (A) (A) (A) (A) (A) (A) (A) (A) (A) (A)
                 (A) (A) (A) (A) (A) (A) (A) (A) (A) (A) (A) (A)
                 (A) (A) (A) (A) (A) (A) (A) (A) (A) (A) (A) (A)
                 (A) (A) (A) (A) (A) (A) (A) (A) (A) (A) (A) (A)
                 (A) (A) (A) (A) (A) (A) (A) (A) (A) (A) (A) (A)
                 (A) (A) (A) (A) (A) (A) (A) (A) (A) (A) (A) (A)
                 (A) (A) (A) (A) (A) (A) (A) (A) (A) (A) (A) (A)
                 (A) (A) (A) (A) (A) (A) (A) (A) (A) (A) (A) (A)
                 (A) (A) (A) (A) (A) (A) (A) (A) (A) (A) (A) (A)
                 (A) (A) (A) (A) (A) (A) (A) (A) (A) (A) (A) (A)
                 (A) (A) (A) (A) (A) (A) (A) (A) (A) (A) (A) (A)
                 (A) (A) (A) (A) (A) (A) (A) (A) (A) (A) (A) (A)
                 (A) (A) (A) (A) (A) (A) (A) (A) (A) (A) (A) (A)
                 (A) (A) (A) (A) (A) (A)
       Virtual   (A) (A) (A) (A) (A) (A) (A) (A) (A) (A) (A) (A)
                 (A) (A) (A) (A) (A) (A) (A) (A) (A) (A) (A) (A)
                 (A) (A) (A) (A) (A) (A) (A) (A) (A) (A) (A) (A)
                 (A) (A) (A) (A) (A) (A) (A) (A) (A) (A) (A) (A)
                 (A) (A) (A) (A) (A) (A) (A) (A) (A) (A) (A) (A)
                 (A) (A) (A) (A) (A) (A) (A) (A) (A) (A) (A) (A)
                 (A) (A) (A) (A) (A) (A) (A) (A) (A) (A) (A) (A)
                 (A) (A) (A) (A) (A) (A) (A) (A) (A) (A) (A) (A)
                 (A) (A) (A) (A) (A) (A) (A) (A) (A) (A) (A) (A)
                 (A) (A) (A) (A) (A) (A) (A) (A) (A) (A) (A) (A)
                 (A) (A) (A) (A) (A) (A) (A) (A) (A) (A) (A) (A)
                 (A) (A) (A) (A) (A) (A) (A) (A) (A) (A) (A) (A)
                 (A) (A) (A) (A) (A) (A) (A) (A) (A) (A) (A) (A)
                 (A) (A) (A) (A) (A) (A) (A) (A) (A) (A) (A) (A)
                 (A) (A) (A) (A) (A) (A) (A) (A) (A) (A) (A) (A)
                 (A) (A) (A) (A) (A) (A) (A) (A) (A) (A) (A) (A)
                 (A) (A) (A) (A) (A) (A) (A) (A) (A) (A) (A) (A)
                 (A) (A) (A) (A) (A) (A) (A) (A) (A) (A) (A) (A)
                 (A) (A) (A) (A) (A) (A) (A) (A) (A) (A) (A) (A)
                 (A) (A) (A) (A) (A) (A) (A) (A) (A) (A) (A) (A)
                 (A) (A) (A) (A) (A) (A) (A) (A) (A) (A) (A) (A)
                 (A) (A) (A) (A) (A) (A) (A) (A) (A) (A) (A) (A)
                 (A) (A) (A) (A) (A) (A) (A) (A) (A) (A) (A) (A)
                 (A) (A) (A) (A) (A) (A) (A) (A) (A) (A) (A) (A)
                 (A) (A) (A) (A) (A) (A) (A) (A) (A) (A) (A) (A)
                 (A) (A) (A) (A) (A) (A) (A) (A) (A) (A) (A) (A)
                 (A) (A) (A) (A) (A) (A) (A) (A) (A) (A) (A) (A)
                 (A) (A) (A) (A) (A) (A) (A) (A) (A) (A) (A) (A)
                 (A) (A) (A) (A) (A) (A) (A) (A) (A) (A) (A) (A)
                 (A) (A) (A) (A) (A) (A) (A) (A) (A) (A) (A) (A)
                 (A) (A) (A) (A) (A) (A) (A) (A) (A) (A) (A) (A)
                 (A) (A) (A) (A) (A) (A) (A) (A) (A) (A) (A) (A)
                 (A) (A) (A) (A) (A) (A) (A) (A) (A) (A) (A) (A)
                 (A) (A) (A) (A) (A) (A) (A) (A) (A) (A) (A) (A)
                 (A) (A) (A) (A) (A) (A) (A) (A) (A) (A) (A) (A)
                 (A) (A) (A) (A) (A) (A) (A) (A) (A) (A) (A) (A)
                 (A) (A) (A) (A) (A) (A) (A) (A) (A) (A) (A) (A)
                 (A) (A) (A) (A) (A) (A) (A) (A) (A) (A) (A) (A)
                 (A) (A) (A) (A) (A) (A) (A) (A) (A) (A) (A) (A)
                 (A) (A) (A) (A) (A) (A) (A) (A) (A) (A) (A) (A)
                 (A) (A) (A) (A) (A) (A) (A) (A) (A) (A) (A) (A)
                 (A) (A) (A) (A) (A) (A) (A) (A) (A) (A) (A) (A)
                 (A) (A) (A) (A) (A) (A) (A) (A) (A) (A) (A) (A)
                 (A) (A) (A) (A) (A) (A) (A) (A) (A) (A) (A) (A)
                 (A) (A) (A) (A) (A) (A) (A) (A) (A) (A) (A) (A)
                 (A) (A) (A) (A) (A) (A) (A) (A) (A) (A) (A) (A)
                 (A) (A) (A) (A) (A) (A) (A) (A) (A) (A) (A) (A)
                 (A) (A) (A) (A) (A) (A) (A) (A) (A) (A) (A) (A)
                 (A) (A) (A) (A) (A) (A) (A) (A) (A) (A) (A) (A)
                 (A) (A) (A) (A) (A) (A) (A) (A) (A) (A) (A) (A)
                 (A) (A) (A) (A) (A) (A) (A) (A) (A) (A) (A) (A)
                 (A) (A) (A) (A) (A) (A) (A) (A) (A) (A) (A) (A)
                 (A) (A) (A) (A) (A) (A) (A) (A) (A) (A) (A) (A)
                 (A) (A) (A) (A) (A) (A) (A) (A) (A) (A) (A) (A)
                 (A) (A) (A) (A) (A) (A) (A) (A) (A) (A) (A) (A)
                 (A) (A) (A) (A) (A) (A) (A) (A) (A) (A) (A) (A)
                 (A) (A) (A) (A) (A) (A) (A) (A) (A) (A) (A) (A)
                 (A) (A) (A) (A) (A) (A) (A) (A) (A) (A) (A) (A)
                 (A) (A) (A) (A) (A) (A) (A) (A) (A) (A) (A) (A)
                 (A) (A) (A) (A) (A) (A) (A) (A) (A) (A) (A) (A)
                 (A) (A) (A) (A) (A) (A) (A) (A) (A) (A) (A) (A)
                 (A) (A) (A) (A) (A) (A) (A) (A) (A) (A) (A) (A)
                 (A) (A) (A) (A) (A) (A) (A) (A) (A) (A) (A) (A)
                 (A) (A) (A) (A) (A) (A) (A) (A) (A) (A) (A) (A)
                 (A) (A) (A) (A) (A) (A) (A) (A) (A) (A) (A) (A)
                 (A) (A) (A) (A) (A) (A) (A) (A) (A) (A) (A) (A)
                 (A) (A) (A) (A) (A) (A) (A) (A) (A) (A) (A) (A)
                 (A) (A) (A) (A) (A) (A) (A) (A) (A) (A) (A) (A)
                 (A) (A) (A) (A) (A) (A) (A) (A) (A) (A) (A) (A)
                 (A) (A) (A) (A) (A) (A) (A) (A) (A) (A) (A) (A)
                 (A) (A) (A) (A) (A) (A) (A) (A) (A) (A) (A) (A)
                 (A) (A) (A) (A) (A) (A) (A) (A) (A) (A) (A) (A)
                 (A) (A) (A) (A) (A) (A) (A) (A) (A) (A) (A) (A)
                 (A) (A) (A) (A) (A) (A) (A) (A) (A) (A) (A) (A)
                 (A) (A) (A) (A) (A) (A) (A) (A) (A) (A) (A) (A)
                 (A) (A) (A) (A) (A) (A) (A) (A) (A) (A) (A) (A)
                 (A) (A) (A) (A) (A) (A) (A) (A) (A) (A) (A) (A)
                 (A) (A) (A) (A) (A) (A) (A) (A) (A) (A) (A) (A)
                 (A) (A) (A) (A) (A) (A) (A) (A) (A) (A) (A) (A)
                 (A) (A) (A) (A) (A) (A) (A) (A) (A) (A) (A) (A)
                 (A) (A) (A) (A) (A) (A) (A) (A) (A) (A) (A) (A)
                 (A) (A) (A) (A) (A) (A) (A) (A) (A) (A) (A) (A)
                 (A) (A) (A) (A) (A) (A) (A) (A) (A) (A) (A) (A)
                 (A) (A) (A) (A) (A) (A) (A) (A) (A) (A) (A) (A)
                 (A) (A) (A) (A) (A) (A) (A) (A) (A) (A) (A) (A)
                 (A) (A) (A) (A) (A) (A) (A) (A) (A) (A) (A) (A)
                 (A) (A) (A) (A) (A) (A) (A) (A) (A) (A) (A) (A)
                 (A) (A) (A) (A) (A) (A) (A) (A)
    20 initial guesses have been made.
 Convergence on wavefunction:    0.001000000000000
 Davidson Disk Diagonalization:  ConvIn= 1.00D-03 SkipCon=T Conv= 1.00D-03.
 Max sub-space:  2000 roots to seek:    20 dimension of matrix:       370304
 Iteration     1 Dimension    20 NMult     0 NNew     20
 CISAX will form    20 AO SS matrices at one time.
 NMat=    20 NSing=    20 JSym2X= 0.
 FoFJK:  IHMeth= 1 ICntrl=     500 DoSepK=F KAlg= 0 I1Cent=           0 FoldK=F
 IRaf= 530000000 NMat=      20 IRICut=       1 DoRegI=T DoRafI=F ISym2E= 0 IDoP0=0 IntGTp=1.
 FoFCou: FMM=T IPFlag=           0 FMFlag=      100000 FMFlg1=        2001
         NFxFlg=           0 DoJE=F BraDBF=F KetDBF=F FulRan=T
         wScrn=  0.000000 ICntrl=       500 IOpCl=  0 I1Cent=           0 NGrid=           0
         NMat0=   20 NMatS0=     20 NMatT0=    0 NMatD0=   20 NMtDS0=    0 NMtDT0=    0
 Symmetry not used in FoFCou.
 FMM levels:  10  Number of levels for PrismC:   9
 New state      1 was old state      3
 New state      2 was old state      4
 New state      3 was old state      5
 New state      4 was old state      1
 New state      5 was old state      2
 Excitation Energies [eV] at current iteration:
 Root      1 :     1.722134350342484
 Root      2 :     1.785101878325174
 Root      3 :     1.882396824030401
 Root      4 :     2.073380426754447
 Root      5 :     2.281216683312344
 Root      6 :     2.369029684510279
 Root      7 :     2.592809440872139
 Root      8 :     2.669938736771466
 Root      9 :     2.802296422959490
 Root     10 :     2.942703043539036
 Root     11 :     2.957208085613302
 Root     12 :     3.019647790159149
 Root     13 :     3.095293349384195
 Root     14 :     3.142685365648146
 Root     15 :     3.175434162898257
 Root     16 :     3.405413073219345
 Root     17 :     3.777991084653992
 Root     18 :     3.860333952450074
 Root     19 :     4.017300782430431
 Root     20 :     4.315135929355297
 Iteration     2 Dimension    40 NMult    20 NNew     20
 CISAX will form    20 AO SS matrices at one time.
 NMat=    20 NSing=    20 JSym2X= 0.
 Root      1 not converged, maximum delta is    0.060149971051536
 Root      2 not converged, maximum delta is    0.040476466883149
 New state      3 was old state      4
 Root      3 not converged, maximum delta is    0.061764999430774
 New state      4 was old state      3
 Root      4 not converged, maximum delta is    0.030559922135801
 Root      5 not converged, maximum delta is    0.060768673498019
 Excitation Energies [eV] at current iteration:
 Root      1 :     1.715868785508016   Change is   -0.006265564834468
 Root      2 :     1.770863998883686   Change is   -0.014237879441488
 Root      3 :     1.812403996509517   Change is   -0.260976430244930
 Root      4 :     1.882411839218924   Change is    0.000015015188523
 Root      5 :     2.044200559231035   Change is   -0.237016124081309
 Root      6 :     2.367720007433825   Change is   -0.001309677076453
 Root      7 :     2.377812577381039   Change is   -0.292126159390426
 Root      8 :     2.575716411787219   Change is   -0.017093029084920
 Root      9 :     2.649303319874689   Change is   -0.293399723664347
 Root     10 :     2.800918932566128   Change is   -0.218728857593022
 Root     11 :     2.802296296230967   Change is   -0.000000126728523
 Root     12 :     2.956618223520656   Change is   -0.000589862092647
 Root     13 :     3.010024709876049   Change is   -0.085268639508146
 Root     14 :     3.082794518590176   Change is   -0.059890847057970
 Root     15 :     3.114193427957471   Change is   -0.061240734940786
 Root     16 :     3.199647571018726   Change is   -0.205765502200619
 Root     17 :     3.309870836247546   Change is   -0.550463116202528
 Root     18 :     3.349123903723108   Change is   -0.428867180930884
 Root     19 :     3.423946315024753   Change is   -0.593354467405678
 Root     20 :     3.460694004864580
 Iteration     3 Dimension    45 NMult    40 NNew      5
 CISAX will form     5 AO SS matrices at one time.
 NMat=     5 NSing=     5 JSym2X= 0.
 Root      1 not converged, maximum delta is    0.082837594258613
 New state      2 was old state      3
 Root      2 not converged, maximum delta is    0.360504247806039
 New state      3 was old state      2
 Root      3 not converged, maximum delta is    0.340735004643906
 Root      4 not converged, maximum delta is    0.010004541860530
 Root      5 not converged, maximum delta is    0.023623257163298
 Excitation Energies [eV] at current iteration:
 Root      1 :     1.713643470718369   Change is   -0.002225314789647
 Root      2 :     1.759933108462611   Change is   -0.052470888046906
 Root      3 :     1.770569636801831   Change is   -0.000294362081855
 Root      4 :     1.882363211277445   Change is   -0.000048627941478
 Root      5 :     2.007722185765014   Change is   -0.036478373466021
 Iteration     4 Dimension    50 NMult    45 NNew      5
 CISAX will form     5 AO SS matrices at one time.
 NMat=     5 NSing=     5 JSym2X= 0.
 Root      1 not converged, maximum delta is    0.084822816708228
 Root      2 not converged, maximum delta is    0.177999646066130
 Root      3 not converged, maximum delta is    0.168884743853670
 Root      4 not converged, maximum delta is    0.001515343141163
 Root      5 not converged, maximum delta is    0.016027817504057
 Excitation Energies [eV] at current iteration:
 Root      1 :     1.711653201379013   Change is   -0.001990269339356
 Root      2 :     1.743973624691390   Change is   -0.015959483771222
 Root      3 :     1.768245111255679   Change is   -0.002324525546152
 Root      4 :     1.882354231879375   Change is   -0.000008979398070
 Root      5 :     1.993754451928601   Change is   -0.013967733836413
 Iteration     5 Dimension    55 NMult    50 NNew      5
 CISAX will form     5 AO SS matrices at one time.
 NMat=     5 NSing=     5 JSym2X= 0.
 Root      1 not converged, maximum delta is    0.040611575179127
 Root      2 not converged, maximum delta is    0.042962586804525
 Root      3 not converged, maximum delta is    0.020465236212419
 Root      4 has converged.
 Root      5 not converged, maximum delta is    0.004350851828184
 Excitation Energies [eV] at current iteration:
 Root      1 :     1.710634747130267   Change is   -0.001018454248746
 Root      2 :     1.739201999316450   Change is   -0.004771625374940
 Root      3 :     1.767652700172942   Change is   -0.000592411082737
 Root      4 :     1.882350312910829   Change is   -0.000003918968546
 Root      5 :     1.989295284922084   Change is   -0.004459167006518
 Iteration     6 Dimension    59 NMult    55 NNew      4
 CISAX will form     4 AO SS matrices at one time.
 NMat=     4 NSing=     4 JSym2X= 0.
 Root      1 not converged, maximum delta is    0.020759522272357
 Root      2 not converged, maximum delta is    0.021880290378615
 Root      3 not converged, maximum delta is    0.006301422795073
 Root      4 has converged.
 Root      5 not converged, maximum delta is    0.001731946079001
 Excitation Energies [eV] at current iteration:
 Root      1 :     1.710079359688552   Change is   -0.000555387441714
 Root      2 :     1.737127673500495   Change is   -0.002074325815955
 Root      3 :     1.767345256483913   Change is   -0.000307443689029
 Root      4 :     1.882349523347161   Change is   -0.000000789563667
 Root      5 :     1.987497466438141   Change is   -0.001797818483943
 Iteration     7 Dimension    63 NMult    59 NNew      4
 CISAX will form     4 AO SS matrices at one time.
 NMat=     4 NSing=     4 JSym2X= 0.
 Root      1 not converged, maximum delta is    0.009756646087803
 Root      2 not converged, maximum delta is    0.010293349237483
 Root      3 not converged, maximum delta is    0.002317283513342
 Root      4 has converged.
 Root      5 not converged, maximum delta is    0.001362309938820
 Excitation Energies [eV] at current iteration:
 Root      1 :     1.709799397389088   Change is   -0.000279962299465
 Root      2 :     1.736223226001006   Change is   -0.000904447499490
 Root      3 :     1.767201501543339   Change is   -0.000143754940574
 Root      4 :     1.882349413160104   Change is   -0.000000110187057
 Root      5 :     1.986786720252068   Change is   -0.000710746186073
 Iteration     8 Dimension    67 NMult    63 NNew      4
[...]
 Alpha virt. eigenvalues --    1.12695   1.12977   1.13523   1.13881   1.14378
 Alpha virt. eigenvalues --    1.15226   1.15670   1.15803   1.16744   1.17632
 Alpha virt. eigenvalues --    1.17718   1.18031   1.18118   1.18426   1.18867
 Alpha virt. eigenvalues --    1.19368   1.19689   1.20843   1.21096   1.21403
 Alpha virt. eigenvalues --    1.21564   1.22259   1.22587   1.22738   1.23663
 Alpha virt. eigenvalues --    1.24280   1.24515   1.25182   1.25654   1.25665
 Alpha virt. eigenvalues --    1.25970   1.26148   1.26948   1.27279   1.28298
 Alpha virt. eigenvalues --    1.28726   1.28806   1.29111   1.29206   1.30084
 Alpha virt. eigenvalues --    1.30994   1.31196   1.31673   1.31709   1.32179
 Alpha virt. eigenvalues --    1.32745   1.33053   1.33404   1.33781   1.33868
 Alpha virt. eigenvalues --    1.34532   1.34928   1.35313   1.35568   1.35616
 Alpha virt. eigenvalues --    1.36308   1.36801   1.36994   1.37377   1.37792
 Alpha virt. eigenvalues --    1.37960   1.38244   1.38291   1.38696   1.39095
 Alpha virt. eigenvalues --    1.39782   1.40088   1.40451   1.40986   1.41716
 Alpha virt. eigenvalues --    1.42100   1.42232   1.43187   1.43992   1.44266
 Alpha virt. eigenvalues --    1.44664   1.44811   1.45165   1.46174   1.46301
 Alpha virt. eigenvalues --    1.46667   1.46917   1.47072   1.47152   1.47488
 Alpha virt. eigenvalues --    1.47713   1.47818   1.48078   1.48408   1.48809
 Alpha virt. eigenvalues --    1.49338   1.49508   1.49738   1.49911   1.50103
 Alpha virt. eigenvalues --    1.50431   1.50693   1.51083   1.51307   1.52103
 Alpha virt. eigenvalues --    1.52306   1.52481   1.53240   1.53515   1.53599
 Alpha virt. eigenvalues --    1.53735   1.53785   1.54450   1.55216   1.55577
 Alpha virt. eigenvalues --    1.56202   1.56561   1.56623   1.57166   1.57571
 Alpha virt. eigenvalues --    1.57999   1.58150   1.58733   1.59016   1.59482
 Alpha virt. eigenvalues --    1.59641   1.59843   1.60108   1.60712   1.60980
 Alpha virt. eigenvalues --    1.61770   1.62083   1.62497   1.62577   1.63198
 Alpha virt. eigenvalues --    1.63525   1.63706   1.64181   1.64295   1.64694
 Alpha virt. eigenvalues --    1.65090   1.65254   1.65657   1.65801   1.66292
 Alpha virt. eigenvalues --    1.66349   1.66569   1.66765   1.67001   1.67108
 Alpha virt. eigenvalues --    1.67258   1.67467   1.67774   1.67888   1.68133
 Alpha virt. eigenvalues --    1.68257   1.68461   1.68781   1.69049   1.69244
 Alpha virt. eigenvalues --    1.69346   1.69602   1.69658   1.69865   1.69957
 Alpha virt. eigenvalues --    1.70550   1.70637   1.71184   1.71259   1.71407
 Alpha virt. eigenvalues --    1.71762   1.72288   1.72334   1.72400   1.72652
 Alpha virt. eigenvalues --    1.72732   1.72781   1.72891   1.73203   1.73219
 Alpha virt. eigenvalues --    1.73706   1.73728   1.73870   1.74009   1.74403
 Alpha virt. eigenvalues --    1.74813   1.75047   1.75219   1.75553   1.75655
 Alpha virt. eigenvalues --    1.75788   1.75983   1.76157   1.76559   1.76658
 Alpha virt. eigenvalues --    1.76770   1.76971   1.77350   1.77569   1.77680
 Alpha virt. eigenvalues --    1.77754   1.77948   1.78491   1.78601   1.78712
 Alpha virt. eigenvalues --    1.78822   1.79001   1.79202   1.79344   1.79446
 Alpha virt. eigenvalues --    1.79661   1.79697   1.79935   1.80271   1.80288
 Alpha virt. eigenvalues --    1.80302   1.80647   1.81245   1.81302   1.81677
 Alpha virt. eigenvalues --    1.82088   1.82223   1.82606   1.82658   1.83262
 Alpha virt. eigenvalues --    1.83313   1.83494   1.83970   1.84114   1.84281
 Alpha virt. eigenvalues --    1.84547   1.85110   1.85317   1.85436   1.85502
 Alpha virt. eigenvalues --    1.85923   1.86202   1.86335   1.86585   1.86636
 Alpha virt. eigenvalues --    1.86756   1.86921   1.87445   1.87581   1.88031
 Alpha virt. eigenvalues --    1.88102   1.88270   1.88563   1.88948   1.89493
 Alpha virt. eigenvalues --    1.89674   1.89794   1.90067   1.90300   1.90978
 Alpha virt. eigenvalues --    1.91298   1.91504   1.91608   1.91901   1.92219
 Alpha virt. eigenvalues --    1.92278   1.92715   1.93299   1.93532   1.93864
 Alpha virt. eigenvalues --    1.94277   1.94352   1.94654   1.94949   1.94975
 Alpha virt. eigenvalues --    1.95595   1.95755   1.95918   1.96307   1.97129
 Alpha virt. eigenvalues --    1.97519   1.97573   1.98017   1.98528   1.98619
 Alpha virt. eigenvalues --    1.98893   1.99057   1.99405   1.99678   2.00344
 Alpha virt. eigenvalues --    2.00381   2.00408   2.00627   2.01007   2.01219
 Alpha virt. eigenvalues --    2.01842   2.01932   2.02312   2.02593   2.03256
 Alpha virt. eigenvalues --    2.03459   2.03723   2.03773   2.04072   2.04319
 Alpha virt. eigenvalues --    2.04552   2.05076   2.05405   2.05595   2.06022
 Alpha virt. eigenvalues --    2.06184   2.06587   2.06736   2.06834   2.06893
 Alpha virt. eigenvalues --    2.07116   2.07419   2.07779   2.08968   2.09287
 Alpha virt. eigenvalues --    2.09408   2.09454   2.10505   2.10813   2.11397
 Alpha virt. eigenvalues --    2.11429   2.11789   2.11972   2.13370   2.14155
 Alpha virt. eigenvalues --    2.14360   2.14592   2.14867   2.14908   2.15417
 Alpha virt. eigenvalues --    2.16099   2.16517   2.16833   2.16939   2.17233
 Alpha virt. eigenvalues --    2.17745   2.18393   2.18884   2.19043   2.19792
 Alpha virt. eigenvalues --    2.20152   2.20388   2.20440   2.20979   2.21438
 Alpha virt. eigenvalues --    2.21663   2.21967   2.22203   2.23025   2.23079
 Alpha virt. eigenvalues --    2.23616   2.24425   2.24643   2.24757   2.24785
 Alpha virt. eigenvalues --    2.25338   2.25695   2.26121   2.26307   2.26566
 Alpha virt. eigenvalues --    2.26819   2.27342   2.27581   2.27714   2.28584
 Alpha virt. eigenvalues --    2.28767   2.28965   2.29203   2.29483   2.30077
 Alpha virt. eigenvalues --    2.30122   2.30389   2.30784   2.31402   2.31676
 Alpha virt. eigenvalues --    2.31810   2.32207   2.32551   2.32866   2.33410
 Alpha virt. eigenvalues --    2.34047   2.34145   2.34453   2.34729   2.35357
 Alpha virt. eigenvalues --    2.35531   2.35584   2.36353   2.36896   2.37308
 Alpha virt. eigenvalues --    2.37663   2.38002   2.38416   2.38605   2.38931
 Alpha virt. eigenvalues --    2.39642   2.39858   2.39878   2.40586   2.41137
 Alpha virt. eigenvalues --    2.41869   2.42234   2.42597   2.42746   2.43416
 Alpha virt. eigenvalues --    2.43586   2.43878   2.44480   2.44811   2.45163
 Alpha virt. eigenvalues --    2.45291   2.46468   2.46542   2.46818   2.46888
 Alpha virt. eigenvalues --    2.47262   2.47566   2.47798   2.48052   2.48668
 Alpha virt. eigenvalues --    2.49118   2.49448   2.49612   2.50058   2.50162
 Alpha virt. eigenvalues --    2.50321   2.51082   2.51764   2.52054   2.52764
 Alpha virt. eigenvalues --    2.53052   2.53216   2.54028   2.54525   2.54651
 Alpha virt. eigenvalues --    2.55008   2.55254   2.55479   2.56123   2.56294
 Alpha virt. eigenvalues --    2.56920   2.57280   2.57603   2.58016   2.58839
 Alpha virt. eigenvalues --    2.58984   2.59788   2.59850   2.60237   2.60448
 Alpha virt. eigenvalues --    2.60978   2.61177   2.61483   2.61687   2.62019
 Alpha virt. eigenvalues --    2.62460   2.62725   2.63397   2.63721   2.63791
 Alpha virt. eigenvalues --    2.64287   2.64723   2.64964   2.65567   2.66440
 Alpha virt. eigenvalues --    2.66778   2.66941   2.67875   2.68000   2.68236
 Alpha virt. eigenvalues --    2.69068   2.69546   2.69849   2.70312   2.70869
 Alpha virt. eigenvalues --    2.71314   2.71875   2.72234   2.73771   2.74664
 Alpha virt. eigenvalues --    2.75332   2.75767   2.76190   2.76263   2.77006
 Alpha virt. eigenvalues --    2.77075   2.78154   2.78545   2.79137   2.79212
 Alpha virt. eigenvalues --    2.79938   2.80054   2.80436   2.80682   2.81019
 Alpha virt. eigenvalues --    2.81470   2.81748   2.82359   2.82424   2.83165
 Alpha virt. eigenvalues --    2.83601   2.83710   2.83815   2.84035   2.84161
 Alpha virt. eigenvalues --    2.84620   2.84720   2.84819   2.85354   2.85880
 Alpha virt. eigenvalues --    2.86212   2.86386   2.86652   2.87569   2.88088
 Alpha virt. eigenvalues --    2.88155   2.88437   2.88483   2.89196   2.89291
 Alpha virt. eigenvalues --    2.89549   2.89653   2.89871   2.89980   2.90167
 Alpha virt. eigenvalues --    2.90436   2.90840   2.91502   2.91669   2.91935
 Alpha virt. eigenvalues --    2.92109   2.92123   2.92573   2.92976   2.93272
 Alpha virt. eigenvalues --    2.93475   2.93994   2.94846   2.95429   2.95512
 Alpha virt. eigenvalues --    2.96222   2.96512   2.96953   2.97231   2.97289
 Alpha virt. eigenvalues --    2.97428   2.97772   2.98024   2.98329   2.98596
 Alpha virt. eigenvalues --    2.98989   2.99408   2.99923   3.00350   3.01425
 Alpha virt. eigenvalues --    3.01735   3.02153   3.02785   3.02959   3.04816
 Alpha virt. eigenvalues --    3.05034   3.06589   3.07125   3.07276   3.07698
 Alpha virt. eigenvalues --    3.08557   3.10551   3.10910   3.11092   3.12942
 Alpha virt. eigenvalues --    3.13787   3.15327   3.26867   3.29595   3.30463
 Alpha virt. eigenvalues --    3.31100   3.33289   3.34807   3.36716   3.37985
 Alpha virt. eigenvalues --    3.42998   3.46505   3.50768   3.52374   3.52913
 Alpha virt. eigenvalues --    3.53568   3.58632
          Condensed to atoms (all electrons):
 Mulliken charges:
               1
     1  Mg   0.687252
     2  C   -0.034380
     3  C   -0.036217
     4  C   -0.050482
     5  C   -0.050918
     6  N   -0.237569
     7  C   -0.077260
     8  C    0.041251
     9  C    0.012751
    10  C    0.067193
    11  C    0.117877
    12  C    0.068157
    13  C    0.096076
    14  C    0.091292
    15  O   -0.216710
    16  O   -0.258063
    17  N   -0.282215
    18  C    0.091017
    19  C   -0.114564
    20  C    0.035978
    21  C    0.128967
    22  C    0.153359
    23  C   -0.073950
    24  O   -0.179476
    25  C    0.144667
    26  N   -0.301346
    27  C    0.045510
    28  C   -0.020067
    29  C    0.078061
    30  C   -0.004707
    31  C    0.139920
    32  C    0.096231
    33  C    0.061182
    34  N   -0.253180
    35  C    0.108540
    36  C   -0.149590
    37  C    0.059247
    38  C    0.100598
    39  C    0.164394
    40  C   -0.105782
    41  O   -0.152478
    42  C    0.218944
    43  C    0.117351
    44  O   -0.212089
    45  O   -0.247359
    46  C    0.223635
    47  C    0.379540
    48  C   -0.150689
    49  C   -0.118667
    50  C    0.152303
    51  C    0.092128
    52  C    0.082693
    53  C    0.095074
    54  C   -0.120928
    55  C    0.139476
    56  C    0.128107
    57  C    0.033532
    58  C    0.091159
    59  C   -0.028206
    60  C    0.098633
    61  C    0.111737
    62  C    0.054933
    63  C    0.067368
    64  C   -0.129783
    65  C    0.106619
    66  C    0.102931
    67  H   -0.048635
    68  H   -0.086974
    69  H   -0.069958
    70  H   -0.034338
    71  H   -0.014950
    72  H   -0.003784
    73  H   -0.006719
    74  H    0.006603
    75  H   -0.015635
    76  H   -0.017614
    77  H    0.011174
    78  H    0.006828
    79  H   -0.015661
    80  H    0.016795
    81  H   -0.020004
    82  H   -0.000925
    83  H    0.011285
    84  H    0.016581
    85  H   -0.016252
    86  H   -0.029200
    87  H   -0.005949
    88  H   -0.016680
    89  H   -0.000622
    90  H   -0.011110
    91  H   -0.023962
    92  H   -0.023422
    93  H   -0.000264
    94  H    0.008477
    95  H    0.007589
    96  H    0.005268
    97  H    0.002110
    98  H   -0.013035
    99  H    0.004538
   100  H    0.017086
   101  H    0.020100
   102  H   -0.036802
   103  H    0.000309
   104  H   -0.036518
   105  H    0.010194
   106  H   -0.009465
   107  H   -0.026324
   108  H   -0.044407
   109  H   -0.037865
   110  H   -0.018521
   111  H   -0.015816
   112  H   -0.024803
   113  H   -0.020580
   114  H   -0.043502
   115  H   -0.023360
   116  H   -0.012725
   117  H   -0.009712
   118  H   -0.038514
   119  H   -0.035157
   120  H   -0.021293
   121  H   -0.028547
   122  H   -0.034161
   123  H   -0.046297
   124  H   -0.040680
   125  H   -0.031073
   126  H   -0.015703
   127  H   -0.023813
   128  H   -0.041907
   129  H   -0.016558
   130  H   -0.028618
   131  H   -0.028929
   132  H   -0.028235
   133  H   -0.041228
   134  H   -0.029679
   135  H   -0.014986
   136  H   -0.014077
   137  H   -0.003287
   138  H    0.004285
   139  H   -0.019245
   140  H   -0.010154
 Sum of Mulliken charges =  -0.00000
 Mulliken charges with hydrogens summed into heavy atoms:
               1
     1  Mg   0.687252
     2  C   -0.034380
     3  C   -0.084852
     4  C   -0.137456
     5  C   -0.120876
     6  N   -0.237569
     7  C   -0.077260
     8  C    0.006912
     9  C   -0.002199
    10  C    0.067193
    11  C    0.113977
    12  C    0.034908
    13  C    0.114078
    14  C    0.091292
    15  O   -0.216710
    16  O   -0.258063
    17  N   -0.282215
    18  C    0.091017
    19  C   -0.114564
    20  C    0.035978
    21  C    0.128967
    22  C    0.134489
    23  C   -0.073950
    24  O   -0.179476
    25  C    0.171608
    26  N   -0.301346
    27  C    0.045510
    28  C   -0.036320
    29  C    0.048861
    30  C   -0.004707
    31  C    0.116669
    32  C    0.061159
    33  C    0.045973
    34  N   -0.253180
    35  C    0.108540
    36  C   -0.149590
    37  C    0.059247
    38  C    0.100598
    39  C    0.179360
    40  C   -0.105782
    41  O   -0.152478
    42  C    0.205909
    43  C    0.117351
    44  O   -0.212089
    45  O   -0.247359
    46  C    0.265360
    47  C    0.343047
    48  C   -0.187206
    49  C   -0.118667
    50  C    0.126708
    51  C    0.009856
    52  C    0.048356
    53  C    0.049691
    54  C   -0.164430
    55  C    0.093680
    56  C    0.054436
    57  C   -0.016308
    58  C    0.010701
    59  C   -0.068886
    60  C    0.028044
    61  C    0.053272
    62  C   -0.002614
    63  C   -0.002095
    64  C   -0.159462
    65  C    0.074270
    66  C    0.077817
 Electronic spatial extent (au):  <R**2>=         103847.4529
 Charge=             -0.0000 electrons
 Dipole moment (field-independent basis, Debye):
    X=             -2.2562    Y=              2.5831    Z=              0.7132  Tot=              3.5030
 Quadrupole moment (field-independent basis, Debye-Ang):
   XX=           -393.9399   YY=           -386.4221   ZZ=           -402.8664
   XY=            -41.2374   XZ=            -12.3605   YZ=            -23.8004
 Traceless Quadrupole moment (field-independent basis, Debye-Ang):
   XX=              0.4696   YY=              7.9873   ZZ=             -8.4570
   XY=            -41.2374   XZ=            -12.3605   YZ=            -23.8004
 Octapole moment (field-independent basis, Debye-Ang**2):
  XXX=            -88.5645  YYY=           -125.3609  ZZZ=             14.7270  XYY=           -116.8315
  XXY=            143.0317  XXZ=             87.9477  XZZ=           -126.9820  YZZ=             -4.7154
  YYZ=            -80.6395  XYZ=            114.7798
 Hexadecapole moment (field-independent basis, Debye-Ang**3):
 XXXX=        -105812.6689 YYYY=         -25365.6268 ZZZZ=         -12032.5335 XXXY=          -2075.3259
 XXXZ=            586.3751 YYYX=           -200.8990 YYYZ=           -279.5685 ZZZX=            336.3400
 ZZZY=            -56.2471 XXYY=         -21984.5471 XXZZ=         -19673.4876 YYZZ=          -6780.8268
 XXYZ=           -606.3519 YYXZ=            -83.0502 ZZXY=           -252.7004
 N-N= 9.696988051075D+03 E-N=-2.638964580183D+04  KE= 2.977057116034D+03
 Leave Link  601 at Wed May  4 12:31:52 2022, MaxMem= 10066329600 cpu:              13.5 elap:               0.7
 (Enter /sw/apps/gaussian-16.0/g16/l9999.exe)
 1\1\GINC-BP1-COMPUTE123\SP\RBLYP TD-FC\def2SVP\C55H74Mg1N4O6\OF15641\0
 4-May-2022\0\\#p blyp/Def2SVP td=(nstates=5)\\step_1701_chromophore_11
  TDDFT with blyp functional\\0,1\Mg,0,53.35,23.995,45.507\C,0,50.567,2
 6.219,44.656\C,0,51.249,21.302,44.781\C,0,55.992,22.052,45.651\C,0,55.
 281,26.864,45.925\N,0,51.29,23.855,44.599\C,0,50.285,24.86,44.519\C,0,
 48.859,24.214,44.432\C,0,49.119,22.769,44.876\C,0,50.658,22.599,44.721
 \C,0,48.737,22.552,46.417\C,0,48.164,24.408,43.074\C,0,49.027,24.289,4
 1.799\C,0,48.335,23.629,40.49\O,0,47.894,22.48,40.375\O,0,48.286,24.48
 ,39.408\N,0,53.551,21.905,45.287\C,0,52.625,21.002,44.904\C,0,53.294,1
 9.695,44.857\C,0,54.69,19.891,44.863\C,0,54.814,21.334,45.292\C,0,52.5
 36,18.427,44.528\C,0,55.743,18.812,44.619\O,0,55.498,17.808,43.945\C,0
 ,57.196,18.982,44.986\N,0,55.373,24.449,45.551\C,0,56.267,23.402,45.76
 8\C,0,57.742,24.043,45.916\C,0,57.488,25.61,45.965\C,0,55.995,25.708,4
 5.798\C,0,58.708,23.404,46.915\C,0,58.315,26.436,44.949\C,0,57.513,26.
 929,43.745\N,0,53.06,26.068,45.374\C,0,53.912,27.108,45.604\C,0,53.319
 ,28.436,45.409\C,0,51.921,28.07,45.118\C,0,51.864,26.658,44.958\C,0,53
 .997,29.771,45.628\C,0,50.628,28.628,44.946\O,0,50.268,29.805,44.863\C
 ,0,49.766,27.506,44.622\C,0,49.259,27.858,43.286\O,0,49.946,27.834,42.
 237\O,0,47.933,28.179,43.331\C,0,47.372,28.81,42.173\C,0,47.699,23.958
 ,38.172\C,0,48.812,23.498,37.258\C,0,49.025,22.194,36.844\C,0,48.165,2
 0.984,37.078\C,0,50.143,21.914,35.858\C,0,51.108,20.714,36.041\C,0,51.
 369,19.963,34.724\C,0,52.886,19.424,34.727\C,0,53.706,19.984,33.557\C,
 0,52.963,17.917,34.969\C,0,52.147,17.181,33.911\C,0,52.799,15.835,33.4
 76\C,0,51.925,14.943,32.549\C,0,51.169,13.871,33.331\C,0,52.792,14.254
 ,31.481\C,0,52.787,14.947,30.065\C,0,54.261,15.224,29.555\C,0,54.528,1
 6.785,29.234\C,0,55.397,16.779,27.891\C,0,55.23,17.465,30.376\H,0,50.6
 6,20.383,44.746\H,0,56.899,21.446,45.72\H,0,55.903,27.703,46.244\H,0,4
 8.153,24.733,45.08\H,0,48.569,22.106,44.208\H,0,48.203,23.395,46.855\H
 ,0,49.609,22.469,47.065\H,0,48.206,21.601,46.451\H,0,47.676,25.378,42.
 975\H,0,47.318,23.727,42.989\H,0,49.894,23.672,42.038\H,0,49.417,25.27
 5,41.547\H,0,53.07,17.517,44.8\H,0,52.27,18.189,43.499\H,0,51.654,18.3
 11,45.158\H,0,57.896,18.169,44.79\H,0,57.113,19.328,46.016\H,0,57.556,
 19.798,44.36\H,0,58.202,23.821,44.953\H,0,57.746,25.897,46.984\H,0,59.
 132,24.166,47.569\H,0,59.507,22.971,46.314\H,0,58.272,22.567,47.46\H,0
 ,59.201,25.935,44.556\H,0,58.554,27.356,45.482\H,0,58.233,26.967,42.92
 7\H,0,57.078,27.928,43.773\H,0,56.758,26.199,43.454\H,0,54.226,29.967,
 46.675\H,0,53.437,30.653,45.316\H,0,54.894,29.698,45.012\H,0,49.001,27
 .353,45.384\H,0,46.439,29.281,42.484\H,0,47.147,28.107,41.372\H,0,48.0
 01,29.633,41.834\H,0,47.393,24.893,37.702\H,0,46.906,23.212,38.127\H,0
 ,49.38,24.252,36.712\H,0,48.53,20.19,37.729\H,0,47.904,20.577,36.101\H
 ,0,47.234,21.277,37.563\H,0,50.538,22.866,35.504\H,0,49.592,21.638,34.
 959\H,0,50.802,20.06,36.857\H,0,51.922,21.353,36.384\H,0,51.194,20.597
 ,33.855\H,0,50.673,19.125,34.725\H,0,53.407,19.842,35.589\H,0,54.293,2
 0.737,34.082\H,0,53.017,20.448,32.852\H,0,54.423,19.235,33.22\H,0,52.5
 55,17.785,35.971\H,0,54.01,17.615,34.98\H,0,51.921,17.802,33.044\H,0,5
 1.192,16.899,34.353\H,0,53.222,15.424,34.393\H,0,53.697,16.108,32.922\
 H,0,51.151,15.559,32.091\H,0,50.992,14.118,34.377\H,0,51.562,12.858,33
 .42\H,0,50.186,13.816,32.863\H,0,52.261,13.332,31.243\H,0,53.805,14.06
 5,31.836\H,0,52.24,15.89,30.079\H,0,52.373,14.31,29.285\H,0,54.512,14.
 555,28.732\H,0,54.842,14.918,30.424\H,0,53.587,17.332,29.187\H,0,55.00
 4,17.601,27.291\H,0,55.173,15.892,27.299\H,0,56.407,16.851,28.294\H,0,
 54.457,17.755,31.088\H,0,55.693,18.368,29.979\H,0,55.97,16.791,30.808\
 \Version=ES64L-G16RevA.03\State=1-A\HF=-3007.3400046\RMSD=8.282e-09\PG
 =C01 [X(C55H74Mg1N4O6)]\\@


 "ANNA, YOU MUSN'T SPEAK OF OXIDIZED MURIATIC ACID
 ANYMORE, FROM NOW ON YOU MUST SAY CHLORINE."
   -- JENS JACOB BERZELIUS, IN 1820, TO HIS COOK, WHO HAD
 COMPLAINED OF THE SMELL OF THE FLASK SHE WAS CLEANING.
 Job cpu time:       0 days  5 hours 36 minutes 49.6 seconds.
 Elapsed time:       0 days  0 hours 14 minutes  7.3 seconds.
 File lengths (MBytes):  RWF=   8022 Int=      0 D2E=      0 Chk=    390 Scr=      1
 Normal termination of Gaussian 16 at Wed May  4 12:31:53 2022.
