 Entering Gaussian System, Link 0=g16
 Initial command:
 /sw/apps/gaussian-16.0/g16/l1.exe "/tmp/Gau-152083.inp" -scrdir="/tmp/"
 Entering Link 1 = /sw/apps/gaussian-16.0/g16/l1.exe PID=    152084.
  
 Copyright (c) 1988,1990,1992,1993,1995,1998,2003,2009,2016,
            Gaussian, Inc.  All Rights Reserved.
  
 This is part of the Gaussian(R) 16 program.  It is based on
 the Gaussian(R) 09 system (copyright 2009, Gaussian, Inc.),
 the Gaussian(R) 03 system (copyright 2003, Gaussian, Inc.),
 the Gaussian(R) 98 system (copyright 1998, Gaussian, Inc.),
 the Gaussian(R) 94 system (copyright 1995, Gaussian, Inc.),
 the Gaussian 92(TM) system (copyright 1992, Gaussian, Inc.),
 the Gaussian 90(TM) system (copyright 1990, Gaussian, Inc.),
 the Gaussian 88(TM) system (copyright 1988, Gaussian, Inc.),
 the Gaussian 86(TM) system (copyright 1986, Carnegie Mellon
 University), and the Gaussian 82(TM) system (copyright 1983,
 Carnegie Mellon University). Gaussian is a federally registered
 trademark of Gaussian, Inc.
  
 This software contains proprietary and confidential information,
 including trade secrets, belonging to Gaussian, Inc.
  
 This software is provided under written license and may be
 used, copied, transmitted, or stored only in accord with that
 written license.
  
 The following legend is applicable only to US Government
 contracts under FAR:
  
                    RESTRICTED RIGHTS LEGEND
  
 Use, reproduction and disclosure by the US Government is
 subject to restrictions as set forth in subparagraphs (a)
 and (c) of the Commercial Computer Software - Restricted
 Rights clause in FAR 52.227-19.
  
 Gaussian, Inc.
 340 Quinnipiac St., Bldg. 40, Wallingford CT 06492
  
  
 ---------------------------------------------------------------
 Warning -- This program may not be used in any manner that
 competes with the business of Gaussian, Inc. or will provide
 assistance to any competitor of Gaussian, Inc.  The licensee
 of this program is prohibited from giving any competitor of
 Gaussian, Inc. access to this program.  By using this program,
 the user acknowledges that Gaussian, Inc. is engaged in the
 business of creating and licensing software in the field of
 computational chemistry and represents and warrants to the
 licensee that it is not a competitor of Gaussian, Inc. and that
 it will not use this program in any manner prohibited above.
 ---------------------------------------------------------------
  

 Cite this work as:
 Gaussian 16, Revision A.03,
 M. J. Frisch, G. W. Trucks, H. B. Schlegel, G. E. Scuseria, 
 M. A. Robb, J. R. Cheeseman, G. Scalmani, V. Barone, 
 G. A. Petersson, H. Nakatsuji, X. Li, M. Caricato, A. V. Marenich, 
 J. Bloino, B. G. Janesko, R. Gomperts, B. Mennucci, H. P. Hratchian, 
 J. V. Ortiz, A. F. Izmaylov, J. L. Sonnenberg, D. Williams-Young, 
 F. Ding, F. Lipparini, F. Egidi, J. Goings, B. Peng, A. Petrone, 
 T. Henderson, D. Ranasinghe, V. G. Zakrzewski, J. Gao, N. Rega, 
 G. Zheng, W. Liang, M. Hada, M. Ehara, K. Toyota, R. Fukuda, 
 J. Hasegawa, M. Ishida, T. Nakajima, Y. Honda, O. Kitao, H. Nakai, 
 T. Vreven, K. Throssell, J. A. Montgomery, Jr., J. E. Peralta, 
 F. Ogliaro, M. J. Bearpark, J. J. Heyd, E. N. Brothers, K. N. Kudin, 
 V. N. Staroverov, T. A. Keith, R. Kobayashi, J. Normand, 
 K. Raghavachari, A. P. Rendell, J. C. Burant, S. S. Iyengar, 
 J. Tomasi, M. Cossi, J. M. Millam, M. Klene, C. Adamo, R. Cammi, 
 J. W. Ochterski, R. L. Martin, K. Morokuma, O. Farkas, 
 J. B. Foresman, and D. J. Fox, Gaussian, Inc., Wallingford CT, 2016.
 
 ******************************************
 Gaussian 16:  ES64L-G16RevA.03 25-Dec-2016
                29-Apr-2022 
 ******************************************
 %nproc=24
 Will use up to   24 processors via shared memory.
 %mem=75GB
 ---------------------------------
 #p PBE1PBE/Def2SVP td=(nstates=5)
 ---------------------------------
 1/38=1,172=1/1;
 2/12=2,17=6,18=5,40=1/2;
 3/5=43,7=101,11=9,25=1,30=1,74=-13/1,2,3,8;
 4//1;
 5/5=2,38=5/2;
 8/6=1,10=1,108=5/1;
 9/41=5,42=1,70=2/14;
 6/7=2,8=2,9=2,10=2/1;
 99/5=1,9=1/99;
 Leave Link    1 at Fri Apr 29 16:05:47 2022, MaxMem= 10066329600 cpu:               0.6 elap:               0.0
 (Enter /sw/apps/gaussian-16.0/g16/l101.exe)
 -----------------------------------------------------
 step_401_chromophore_11 TDDFT with PBE1PBE functional
 -----------------------------------------------------
 Symbolic Z-matrix:
 Charge =  0 Multiplicity = 1
 Mg                    52.748    23.903    44.762 
 C                     49.778    25.858    44.012 
 C                     51.119    21.105    43.86 
 C                     55.674    22.368    44.766 
 C                     54.239    26.93     45.569 
 N                     50.643    23.625    43.839 
 C                     49.584    24.476    43.735 
 C                     48.238    23.672    43.472 
 C                     48.67     22.195    43.642 
 C                     50.224    22.258    43.865 
 C                     47.999    21.407    44.798 
 C                     47.665    24.       42.107 
 C                     48.696    23.815    40.879 
 C                     48.037    23.257    39.542 
 O                     47.371    22.252    39.494 
 O                     48.362    24.       38.437 
 N                     53.368    22.01     44.279 
 C                     52.573    20.984    43.895 
 C                     53.322    19.768    43.72 
 C                     54.743    20.138    43.889 
 C                     54.702    21.538    44.342 
 C                     52.629    18.522    43.286 
 C                     55.95     19.187    43.709 
 O                     55.734    18.       43.508 
 C                     57.377    19.589    43.794 
 N                     54.739    24.588    45.151 
 C                     55.801    23.752    45.045 
 C                     57.096    24.526    45.131 
 C                     56.684    26.009    45.507 
 C                     55.13     25.889    45.373 
 C                     58.179    23.859    46.087 
 C                     57.225    27.173    44.58 
 C                     58.255    28.204    45.131 
 N                     52.16     25.937    44.965 
 C                     52.85     27.028    45.386 
 C                     52.048    28.262    45.487 
 C                     50.803    27.792    44.939 
 C                     50.949    26.373    44.595 
 C                     52.423    29.595    45.913 
 C                     49.517    28.232    44.579 
 O                     48.954    29.346    44.622 
 C                     48.754    26.968    43.997 
 C                     48.352    27.331    42.583 
 O                     49.131    27.31     41.595 
 O                     47.014    27.688    42.508 
 C                     46.522    27.884    41.189 
 C                     47.701    23.618    37.257 
 C                     48.788    22.692    36.643 
 C                     48.629    21.365    36.41 
 C                     47.189    20.684    36.502 
 C                     49.844    20.596    35.929 
 C                     50.108    20.077    34.487 
 C                     51.625    19.982    34.235 
 C                     52.323    18.668    34.725 
 C                     53.511    18.934    35.722 
 C                     52.822    17.846    33.553 
 C                     51.834    16.653    33.176 
 C                     52.46     15.28     33.161 
 C                     52.02     14.52     31.867 
 C                     51.25     13.222    32.264 
 C                     53.23     14.172    30.978 
 C                     53.128    14.736    29.621 
 C                     52.506    13.846    28.616 
 C                     53.455    13.134    27.641 
 C                     53.235    13.504    26.124 
 C                     53.509    11.58     27.815 
 H                     50.592    20.149    43.893 
 H                     56.68     21.959    44.651 
 H                     54.713    27.89     45.787 
 H                     47.527    23.888    44.27 
 H                     48.398    21.642    42.743 
 H                     48.661    20.623    45.165 
 H                     47.121    20.928    44.365 
 H                     47.759    22.099    45.605 
 H                     47.009    24.869    42.066 
 H                     46.87     23.261    42.013 
 H                     49.431    23.045    41.11 
 H                     49.217    24.758    40.709 
 H                     51.555    18.609    43.123 
 H                     52.8      17.709    43.992 
 H                     53.078    18.126    42.376 
 H                     57.594    20.284    42.983 
 H                     57.942    18.673    43.621 
 H                     57.67     20.002    44.759 
 H                     57.569    24.642    44.156 
 H                     56.918    26.091    46.568 
 H                     57.858    22.884    46.453 
 H                     58.464    24.471    46.943 
 H                     59.014    23.779    45.391 
 H                     56.392    27.78     44.222 
 H                     57.658    26.757    43.67 
 H                     58.877    27.72     45.885 
 H                     57.749    29.112    45.459 
 H                     58.711    28.538    44.199 
 H                     52.793    30.319    45.187 
 H                     53.069    29.417    46.772 
 H                     51.496    29.991    46.328 
 H                     47.891    26.726    44.617 
 H                     46.799    27.176    40.408 
 H                     46.917    28.831    40.822 
 H                     45.437    27.955    41.262 
 H                     47.547    24.49     36.622 
 H                     46.726    23.161    37.43 
 H                     49.72     23.237    36.493 
 H                     46.501    21.052    37.264 
 H                     47.218    19.598    36.585 
 H                     46.721    20.767    35.522 
 H                     49.86     19.71     36.564 
 H                     50.73     21.072    36.349 
 H                     49.743    20.745    33.707 
 H                     49.714    19.073    34.33 
 H                     52.076    20.857    34.704 
 H                     51.824    20.039    33.165 
 H                     51.591    18.244    35.412 
 H                     53.117    19.207    36.701 
 H                     54.028    19.836    35.392 
 H                     54.211    18.115    35.886 
 H                     53.847    17.476    33.53 
 H                     53.022    18.408    32.641 
 H                     51.629    16.828    32.12 
 H                     50.978    16.682    33.85 
 H                     51.952    14.779    33.985 
 H                     53.522    15.342    33.4 
 H                     51.292    15.102    31.302 
 H                     51.342    12.433    31.517 
 H                     50.18     13.418    32.333 
 H                     51.582    12.881    33.245 
 H                     53.342    13.09     30.917 
 H                     54.098    14.673    31.408 
 H                     54.126    15.066    29.333 
 H                     52.623    15.701    29.649 
 H                     51.621    14.261    28.134 
 H                     51.959    13.04     29.105 
 H                     54.469    13.453    27.881 
 H                     54.183    13.556    25.586 
 H                     52.887    14.536    26.078 
 H                     52.561    12.796    25.643 
 H                     54.545    11.251    27.883 
 H                     53.091    11.041    26.964 
 H                     52.942    11.322    28.709 
 
 ITRead=  0  0  0  0  0  0  0  0  0  0  0  0  0  0  0  0  0  0  0  0
 ITRead=  0  0  0  0  0  0  0  0  0  0  0  0  0  0  0  0  0  0  0  0
 ITRead=  0  0  0  0  0  0  0  0  0  0  0  0  0  0  0  0  0  0  0  0
 ITRead=  0  0  0  0  0  0  0  0  0  0  0  0  0  0  0  0  0  0  0  0
 ITRead=  0  0  0  0  0  0  0  0  0  0  0  0  0  0  0  0  0  0  0  0
 ITRead=  0  0  0  0  0  0  0  0  0  0  0  0  0  0  0  0  0  0  0  0
 ITRead=  0  0  0  0  0  0  0  0  0  0  0  0  0  0  0  0  0  0  0  0
 MicOpt= -1 -1 -1 -1 -1 -1 -1 -1 -1 -1 -1 -1 -1 -1 -1 -1 -1 -1 -1 -1
 MicOpt= -1 -1 -1 -1 -1 -1 -1 -1 -1 -1 -1 -1 -1 -1 -1 -1 -1 -1 -1 -1
 MicOpt= -1 -1 -1 -1 -1 -1 -1 -1 -1 -1 -1 -1 -1 -1 -1 -1 -1 -1 -1 -1
 MicOpt= -1 -1 -1 -1 -1 -1 -1 -1 -1 -1 -1 -1 -1 -1 -1 -1 -1 -1 -1 -1
 MicOpt= -1 -1 -1 -1 -1 -1 -1 -1 -1 -1 -1 -1 -1 -1 -1 -1 -1 -1 -1 -1
 MicOpt= -1 -1 -1 -1 -1 -1 -1 -1 -1 -1 -1 -1 -1 -1 -1 -1 -1 -1 -1 -1
 MicOpt= -1 -1 -1 -1 -1 -1 -1 -1 -1 -1 -1 -1 -1 -1 -1 -1 -1 -1 -1 -1
 NAtoms=    140 NQM=      140 NQMF=       0 NMMI=      0 NMMIF=      0
                NMic=       0 NMicF=      0.
                    Isotopes and Nuclear Properties:
 (Nuclear quadrupole moments (NQMom) in fm**2, nuclear magnetic moments (NMagM)
  in nuclear magnetons)

  Atom         1           2           3           4           5           6           7           8           9          10
 IAtWgt=          24          12          12          12          12          14          12          12          12          12
 AtmWgt=  23.9850450  12.0000000  12.0000000  12.0000000  12.0000000  14.0030740  12.0000000  12.0000000  12.0000000  12.0000000
 NucSpn=           0           0           0           0           0           2           0           0           0           0
 AtZEff=  -0.0000000  -0.0000000  -0.0000000  -0.0000000  -0.0000000  -0.0000000  -0.0000000  -0.0000000  -0.0000000  -0.0000000
 NQMom=    0.0000000   0.0000000   0.0000000   0.0000000   0.0000000   2.0440000   0.0000000   0.0000000   0.0000000   0.0000000
 NMagM=    0.0000000   0.0000000   0.0000000   0.0000000   0.0000000   0.4037610   0.0000000   0.0000000   0.0000000   0.0000000
 AtZNuc=  12.0000000   6.0000000   6.0000000   6.0000000   6.0000000   7.0000000   6.0000000   6.0000000   6.0000000   6.0000000

  Atom        11          12          13          14          15          16          17          18          19          20
 IAtWgt=          12          12          12          12          16          16          14          12          12          12
 AtmWgt=  12.0000000  12.0000000  12.0000000  12.0000000  15.9949146  15.9949146  14.0030740  12.0000000  12.0000000  12.0000000
 NucSpn=           0           0           0           0           0           0           2           0           0           0
 AtZEff=  -0.0000000  -0.0000000  -0.0000000  -0.0000000  -0.0000000  -0.0000000  -0.0000000  -0.0000000  -0.0000000  -0.0000000
 NQMom=    0.0000000   0.0000000   0.0000000   0.0000000   0.0000000   0.0000000   2.0440000   0.0000000   0.0000000   0.0000000
 NMagM=    0.0000000   0.0000000   0.0000000   0.0000000   0.0000000   0.0000000   0.4037610   0.0000000   0.0000000   0.0000000
 AtZNuc=   6.0000000   6.0000000   6.0000000   6.0000000   8.0000000   8.0000000   7.0000000   6.0000000   6.0000000   6.0000000

  Atom        21          22          23          24          25          26          27          28          29          30
 IAtWgt=          12          12          12          16          12          14          12          12          12          12
 AtmWgt=  12.0000000  12.0000000  12.0000000  15.9949146  12.0000000  14.0030740  12.0000000  12.0000000  12.0000000  12.0000000
 NucSpn=           0           0           0           0           0           2           0           0           0           0
 AtZEff=  -0.0000000  -0.0000000  -0.0000000  -0.0000000  -0.0000000  -0.0000000  -0.0000000  -0.0000000  -0.0000000  -0.0000000
 NQMom=    0.0000000   0.0000000   0.0000000   0.0000000   0.0000000   2.0440000   0.0000000   0.0000000   0.0000000   0.0000000
 NMagM=    0.0000000   0.0000000   0.0000000   0.0000000   0.0000000   0.4037610   0.0000000   0.0000000   0.0000000   0.0000000
 AtZNuc=   6.0000000   6.0000000   6.0000000   8.0000000   6.0000000   7.0000000   6.0000000   6.0000000   6.0000000   6.0000000

  Atom        31          32          33          34          35          36          37          38          39          40
 IAtWgt=          12          12          12          14          12          12          12          12          12          12
 AtmWgt=  12.0000000  12.0000000  12.0000000  14.0030740  12.0000000  12.0000000  12.0000000  12.0000000  12.0000000  12.0000000
 NucSpn=           0           0           0           2           0           0           0           0           0           0
 AtZEff=  -0.0000000  -0.0000000  -0.0000000  -0.0000000  -0.0000000  -0.0000000  -0.0000000  -0.0000000  -0.0000000  -0.0000000
 NQMom=    0.0000000   0.0000000   0.0000000   2.0440000   0.0000000   0.0000000   0.0000000   0.0000000   0.0000000   0.0000000
 NMagM=    0.0000000   0.0000000   0.0000000   0.4037610   0.0000000   0.0000000   0.0000000   0.0000000   0.0000000   0.0000000
 AtZNuc=   6.0000000   6.0000000   6.0000000   7.0000000   6.0000000   6.0000000   6.0000000   6.0000000   6.0000000   6.0000000

  Atom        41          42          43          44          45          46          47          48          49          50
 IAtWgt=          16          12          12          16          16          12          12          12          12          12
 AtmWgt=  15.9949146  12.0000000  12.0000000  15.9949146  15.9949146  12.0000000  12.0000000  12.0000000  12.0000000  12.0000000
 NucSpn=           0           0           0           0           0           0           0           0           0           0
 AtZEff=  -0.0000000  -0.0000000  -0.0000000  -0.0000000  -0.0000000  -0.0000000  -0.0000000  -0.0000000  -0.0000000  -0.0000000
 NQMom=    0.0000000   0.0000000   0.0000000   0.0000000   0.0000000   0.0000000   0.0000000   0.0000000   0.0000000   0.0000000
 NMagM=    0.0000000   0.0000000   0.0000000   0.0000000   0.0000000   0.0000000   0.0000000   0.0000000   0.0000000   0.0000000
 AtZNuc=   8.0000000   6.0000000   6.0000000   8.0000000   8.0000000   6.0000000   6.0000000   6.0000000   6.0000000   6.0000000

  Atom        51          52          53          54          55          56          57          58          59          60
 IAtWgt=          12          12          12          12          12          12          12          12          12          12
 AtmWgt=  12.0000000  12.0000000  12.0000000  12.0000000  12.0000000  12.0000000  12.0000000  12.0000000  12.0000000  12.0000000
 NucSpn=           0           0           0           0           0           0           0           0           0           0
 AtZEff=  -0.0000000  -0.0000000  -0.0000000  -0.0000000  -0.0000000  -0.0000000  -0.0000000  -0.0000000  -0.0000000  -0.0000000
 NQMom=    0.0000000   0.0000000   0.0000000   0.0000000   0.0000000   0.0000000   0.0000000   0.0000000   0.0000000   0.0000000
 NMagM=    0.0000000   0.0000000   0.0000000   0.0000000   0.0000000   0.0000000   0.0000000   0.0000000   0.0000000   0.0000000
 AtZNuc=   6.0000000   6.0000000   6.0000000   6.0000000   6.0000000   6.0000000   6.0000000   6.0000000   6.0000000   6.0000000

  Atom        61          62          63          64          65          66          67          68          69          70
 IAtWgt=          12          12          12          12          12          12           1           1           1           1
 AtmWgt=  12.0000000  12.0000000  12.0000000  12.0000000  12.0000000  12.0000000   1.0078250   1.0078250   1.0078250   1.0078250
 NucSpn=           0           0           0           0           0           0           1           1           1           1
 AtZEff=  -0.0000000  -0.0000000  -0.0000000  -0.0000000  -0.0000000  -0.0000000  -0.0000000  -0.0000000  -0.0000000  -0.0000000
 NQMom=    0.0000000   0.0000000   0.0000000   0.0000000   0.0000000   0.0000000   0.0000000   0.0000000   0.0000000   0.0000000
 NMagM=    0.0000000   0.0000000   0.0000000   0.0000000   0.0000000   0.0000000   2.7928460   2.7928460   2.7928460   2.7928460
 AtZNuc=   6.0000000   6.0000000   6.0000000   6.0000000   6.0000000   6.0000000   1.0000000   1.0000000   1.0000000   1.0000000

  Atom        71          72          73          74          75          76          77          78          79          80
 IAtWgt=           1           1           1           1           1           1           1           1           1           1
 AtmWgt=   1.0078250   1.0078250   1.0078250   1.0078250   1.0078250   1.0078250   1.0078250   1.0078250   1.0078250   1.0078250
 NucSpn=           1           1           1           1           1           1           1           1           1           1
 AtZEff=  -0.0000000  -0.0000000  -0.0000000  -0.0000000  -0.0000000  -0.0000000  -0.0000000  -0.0000000  -0.0000000  -0.0000000
 NQMom=    0.0000000   0.0000000   0.0000000   0.0000000   0.0000000   0.0000000   0.0000000   0.0000000   0.0000000   0.0000000
 NMagM=    2.7928460   2.7928460   2.7928460   2.7928460   2.7928460   2.7928460   2.7928460   2.7928460   2.7928460   2.7928460
 AtZNuc=   1.0000000   1.0000000   1.0000000   1.0000000   1.0000000   1.0000000   1.0000000   1.0000000   1.0000000   1.0000000

  Atom        81          82          83          84          85          86          87          88          89          90
 IAtWgt=           1           1           1           1           1           1           1           1           1           1
 AtmWgt=   1.0078250   1.0078250   1.0078250   1.0078250   1.0078250   1.0078250   1.0078250   1.0078250   1.0078250   1.0078250
 NucSpn=           1           1           1           1           1           1           1           1           1           1
 AtZEff=  -0.0000000  -0.0000000  -0.0000000  -0.0000000  -0.0000000  -0.0000000  -0.0000000  -0.0000000  -0.0000000  -0.0000000
 NQMom=    0.0000000   0.0000000   0.0000000   0.0000000   0.0000000   0.0000000   0.0000000   0.0000000   0.0000000   0.0000000
 NMagM=    2.7928460   2.7928460   2.7928460   2.7928460   2.7928460   2.7928460   2.7928460   2.7928460   2.7928460   2.7928460
 AtZNuc=   1.0000000   1.0000000   1.0000000   1.0000000   1.0000000   1.0000000   1.0000000   1.0000000   1.0000000   1.0000000

  Atom        91          92          93          94          95          96          97          98          99         100
 IAtWgt=           1           1           1           1           1           1           1           1           1           1
 AtmWgt=   1.0078250   1.0078250   1.0078250   1.0078250   1.0078250   1.0078250   1.0078250   1.0078250   1.0078250   1.0078250
 NucSpn=           1           1           1           1           1           1           1           1           1           1
 AtZEff=  -0.0000000  -0.0000000  -0.0000000  -0.0000000  -0.0000000  -0.0000000  -0.0000000  -0.0000000  -0.0000000  -0.0000000
 NQMom=    0.0000000   0.0000000   0.0000000   0.0000000   0.0000000   0.0000000   0.0000000   0.0000000   0.0000000   0.0000000
 NMagM=    2.7928460   2.7928460   2.7928460   2.7928460   2.7928460   2.7928460   2.7928460   2.7928460   2.7928460   2.7928460
 AtZNuc=   1.0000000   1.0000000   1.0000000   1.0000000   1.0000000   1.0000000   1.0000000   1.0000000   1.0000000   1.0000000

  Atom       101         102         103         104         105         106         107         108         109         110
 IAtWgt=           1           1           1           1           1           1           1           1           1           1
 AtmWgt=   1.0078250   1.0078250   1.0078250   1.0078250   1.0078250   1.0078250   1.0078250   1.0078250   1.0078250   1.0078250
 NucSpn=           1           1           1           1           1           1           1           1           1           1
 AtZEff=  -0.0000000  -0.0000000  -0.0000000  -0.0000000  -0.0000000  -0.0000000  -0.0000000  -0.0000000  -0.0000000  -0.0000000
 NQMom=    0.0000000   0.0000000   0.0000000   0.0000000   0.0000000   0.0000000   0.0000000   0.0000000   0.0000000   0.0000000
 NMagM=    2.7928460   2.7928460   2.7928460   2.7928460   2.7928460   2.7928460   2.7928460   2.7928460   2.7928460   2.7928460
 AtZNuc=   1.0000000   1.0000000   1.0000000   1.0000000   1.0000000   1.0000000   1.0000000   1.0000000   1.0000000   1.0000000

  Atom       111         112         113         114         115         116         117         118         119         120
 IAtWgt=           1           1           1           1           1           1           1           1           1           1
 AtmWgt=   1.0078250   1.0078250   1.0078250   1.0078250   1.0078250   1.0078250   1.0078250   1.0078250   1.0078250   1.0078250
 NucSpn=           1           1           1           1           1           1           1           1           1           1
 AtZEff=  -0.0000000  -0.0000000  -0.0000000  -0.0000000  -0.0000000  -0.0000000  -0.0000000  -0.0000000  -0.0000000  -0.0000000
 NQMom=    0.0000000   0.0000000   0.0000000   0.0000000   0.0000000   0.0000000   0.0000000   0.0000000   0.0000000   0.0000000
 NMagM=    2.7928460   2.7928460   2.7928460   2.7928460   2.7928460   2.7928460   2.7928460   2.7928460   2.7928460   2.7928460
 AtZNuc=   1.0000000   1.0000000   1.0000000   1.0000000   1.0000000   1.0000000   1.0000000   1.0000000   1.0000000   1.0000000

  Atom       121         122         123         124         125         126         127         128         129         130
 IAtWgt=           1           1           1           1           1           1           1           1           1           1
 AtmWgt=   1.0078250   1.0078250   1.0078250   1.0078250   1.0078250   1.0078250   1.0078250   1.0078250   1.0078250   1.0078250
 NucSpn=           1           1           1           1           1           1           1           1           1           1
 AtZEff=  -0.0000000  -0.0000000  -0.0000000  -0.0000000  -0.0000000  -0.0000000  -0.0000000  -0.0000000  -0.0000000  -0.0000000
 NQMom=    0.0000000   0.0000000   0.0000000   0.0000000   0.0000000   0.0000000   0.0000000   0.0000000   0.0000000   0.0000000
 NMagM=    2.7928460   2.7928460   2.7928460   2.7928460   2.7928460   2.7928460   2.7928460   2.7928460   2.7928460   2.7928460
 AtZNuc=   1.0000000   1.0000000   1.0000000   1.0000000   1.0000000   1.0000000   1.0000000   1.0000000   1.0000000   1.0000000

  Atom       131         132         133         134         135         136         137         138         139         140
 IAtWgt=           1           1           1           1           1           1           1           1           1           1
 AtmWgt=   1.0078250   1.0078250   1.0078250   1.0078250   1.0078250   1.0078250   1.0078250   1.0078250   1.0078250   1.0078250
 NucSpn=           1           1           1           1           1           1           1           1           1           1
 AtZEff=  -0.0000000  -0.0000000  -0.0000000  -0.0000000  -0.0000000  -0.0000000  -0.0000000  -0.0000000  -0.0000000  -0.0000000
 NQMom=    0.0000000   0.0000000   0.0000000   0.0000000   0.0000000   0.0000000   0.0000000   0.0000000   0.0000000   0.0000000
 NMagM=    2.7928460   2.7928460   2.7928460   2.7928460   2.7928460   2.7928460   2.7928460   2.7928460   2.7928460   2.7928460
 AtZNuc=   1.0000000   1.0000000   1.0000000   1.0000000   1.0000000   1.0000000   1.0000000   1.0000000   1.0000000   1.0000000
 Leave Link  101 at Fri Apr 29 16:05:47 2022, MaxMem= 10066329600 cpu:               3.5 elap:               0.2
 (Enter /sw/apps/gaussian-16.0/g16/l202.exe)
 Stoichiometry    C55H74MgN4O6
 Framework group  C1[X(C55H74MgN4O6)]
 Deg. of freedom   414
 Full point group                 C1      NOp   1
 Largest Abelian subgroup         C1      NOp   1
 Largest concise Abelian subgroup C1      NOp   1
                         Standard orientation:                         
 ---------------------------------------------------------------------
 Center     Atomic      Atomic             Coordinates (Angstroms)
 Number     Number       Type             X           Y           Z
 ---------------------------------------------------------------------
      1         12           0       -4.750354    1.369221    0.759249
      2          6           0       -5.345427   -2.191121    0.340589
      3          6           0       -2.305298    0.688948    2.962652
      4          6           0       -3.826327    4.530498    0.494252
      5          6           0       -7.260830    1.817080   -1.593194
      6          7           0       -3.838652   -0.657316    1.409005
      7          6           0       -4.274384   -1.937470    1.242153
      8          6           0       -3.563171   -2.914538    2.275020
      9          6           0       -2.789623   -1.945666    3.202363
     10          6           0       -3.014030   -0.525063    2.569796
     11          6           0       -3.210098   -1.934542    4.695881
     12          6           0       -2.686652   -3.922264    1.557147
     13          6           0       -1.612175   -3.279151    0.538778
     14          6           0       -0.211160   -4.033078    0.494453
     15          8           0        0.450241   -4.272730    1.474760
     16          8           0        0.199101   -4.321289   -0.781211
     17          7           0       -3.207398    2.475398    1.531777
     18          6           0       -2.267620    2.035431    2.400917
     19          6           0       -1.385249    3.095378    2.811057
     20          6           0       -1.755465    4.271002    1.995245
     21          6           0       -2.974698    3.850720    1.285510
     22          6           0       -0.271174    2.812295    3.759647
     23          6           0       -1.035398    5.640307    2.007932
     24          8           0       -0.144235    5.824517    2.825195
     25          6           0       -1.359220    6.786301    1.120805
     26          7           0       -5.491599    2.998036   -0.416398
     27          6           0       -4.899748    4.217106   -0.376943
     28          6           0       -5.452755    5.110619   -1.462906
     29          6           0       -6.660118    4.308903   -2.103168
     30          6           0       -6.470675    2.933751   -1.381822
     31          6           0       -5.801538    6.581636   -0.966748
     32          6           0       -6.650862    4.108907   -3.673779
     33          6           0       -7.726746    4.802344   -4.562083
     34          7           0       -6.159898    0.162452   -0.280463
     35          6           0       -7.168198    0.495677   -1.126581
     36          6           0       -8.003044   -0.638484   -1.565751
     37          6           0       -7.273860   -1.726434   -0.969191
     38          6           0       -6.129432   -1.175627   -0.234271
     39          6           0       -9.162393   -0.672016   -2.433954
     40          6           0       -7.253253   -3.129874   -0.885963
     41          8           0       -7.970006   -4.023967   -1.382630
     42          6           0       -6.011083   -3.509724    0.025803
     43          6           0       -5.118640   -4.391757   -0.821742
     44          8           0       -4.332618   -3.965766   -1.707252
     45          8           0       -5.270996   -5.732109   -0.499931
     46          6           0       -4.349878   -6.607005   -1.137380
     47          6           0        1.368027   -5.097475   -0.861153
     48          6           0        2.415243   -3.964430   -1.049801
     49          6           0        3.417517   -3.687467   -0.178458
     50          6           0        3.773963   -4.694338    1.006861
     51          6           0        4.262420   -2.460847   -0.462160
     52          6           0        5.716173   -2.437492   -1.013956
     53          6           0        5.963445   -1.124126   -1.780600
     54          6           0        6.382830    0.110739   -0.912772
     55          6           0        5.426126    1.346896   -1.093717
     56          6           0        7.809167    0.528260   -1.211952
     57          6           0        8.847583   -0.020571   -0.133992
     58          6           0        9.701490    1.031576    0.530131
     59          6           0       11.191718    0.557818    0.550305
     60          6           0       11.683897    0.455871    2.027694
     61          6           0       12.098524    1.513505   -0.249627
     62          6           0       12.820288    0.840859   -1.343497
     63          6           0       14.164201    0.332825   -0.990214
     64          6           0       15.364722    1.165079   -1.463788
     65          6           0       16.332799    0.413720   -2.456198
     66          6           0       16.184995    1.827015   -0.307457
     67          1           0       -1.738775    0.577528    3.889685
     68          1           0       -3.490168    5.541861    0.256171
     69          1           0       -8.027148    1.949595   -2.360655
     70          1           0       -4.320167   -3.403787    2.888675
     71          1           0       -1.739108   -2.235759    3.218415
     72          1           0       -3.020227   -0.958737    5.142359
     73          1           0       -2.568286   -2.661001    5.194026
     74          1           0       -4.270536   -2.175790    4.766475
     75          1           0       -3.185676   -4.833182    1.227934
     76          1           0       -2.152119   -4.386195    2.385413
     77          1           0       -1.324296   -2.281289    0.867235
     78          1           0       -2.062758   -3.206361   -0.451811
     79          1           0       -0.189534    1.780509    4.100771
     80          1           0       -0.327255    3.456216    4.637637
     81          1           0        0.686630    3.103032    3.329995
     82          1           0       -1.150220    6.501149    0.089863
     83          1           0       -0.662119    7.574018    1.406745
     84          1           0       -2.375573    7.164342    1.229232
     85          1           0       -4.759435    5.218293   -2.296886
     86          1           0       -7.547717    4.781613   -1.683745
     87          1           0       -5.486873    6.752716    0.062494
     88          1           0       -6.854632    6.849876   -1.053616
     89          1           0       -5.209475    7.159943   -1.676017
     90          1           0       -6.737648    3.047991   -3.913422
     91          1           0       -5.680631    4.392698   -4.082140
     92          1           0       -8.026265    5.740814   -4.093877
     93          1           0       -8.541362    4.113019   -4.784154
     94          1           0       -7.201522    4.827492   -5.516873
     95          1           0       -9.039185   -0.808100   -3.508409
     96          1           0       -9.733329    0.205560   -2.132668
     97          1           0       -9.727306   -1.525137   -2.057884
     98          1           0       -6.344683   -4.016819    0.930953
     99          1           0       -3.300293   -6.319820   -1.199427
    100          1           0       -4.646975   -6.702379   -2.181487
    101          1           0       -4.444163   -7.577239   -0.650192
    102          1           0        1.331726   -5.728048   -1.749064
    103          1           0        1.519663   -5.749970   -0.000537
    104          1           0        2.191541   -3.375812   -1.939540
    105          1           0        2.951501   -5.228456    1.484025
    106          1           0        4.377657   -4.250232    1.797715
    107          1           0        4.497592   -5.412667    0.623875
    108          1           0        4.308233   -1.947871    0.498691
    109          1           0        3.632644   -1.729791   -0.969024
    110          1           0        5.921131   -3.221658   -1.742602
    111          1           0        6.461053   -2.465934   -0.218818
    112          1           0        5.051987   -0.911448   -2.340063
    113          1           0        6.769696   -1.264955   -2.500236
    114          1           0        6.107782   -0.195045    0.096394
    115          1           0        4.489429    1.168981   -0.565370
    116          1           0        5.126840    1.386640   -2.141878
    117          1           0        5.797190    2.312877   -0.751884
    118          1           0        8.048719    1.567858   -1.435345
    119          1           0        8.179777    0.248367   -2.197799
    120          1           0        9.572682   -0.559654   -0.743424
    121          1           0        8.304408   -0.605093    0.608402
    122          1           0        9.364565    0.991002    1.565929
    123          1           0        9.468253    2.019557    0.132255
    124          1           0       11.282683   -0.458103    0.166166
    125          1           0       12.757809    0.617496    2.125599
    126          1           0       11.515635   -0.547635    2.418515
    127          1           0       11.119345    1.147469    2.653665
    128          1           0       12.812625    1.989978    0.421211
    129          1           0       11.445582    2.222234   -0.760210
    130          1           0       12.837334    1.528106   -2.189220
    131          1           0       12.206797    0.048403   -1.770903
    132          1           0       14.293721   -0.738858   -1.140192
    133          1           0       14.279304    0.275602    0.092118
    134          1           0       14.972631    2.017118   -2.018632
    135          1           0       16.718364    1.088306   -3.222439
    136          1           0       15.735289   -0.284077   -3.042973
    137          1           0       17.152225   -0.061338   -1.917902
    138          1           0       16.327545    2.886729   -0.514449
    139          1           0       17.190018    1.415344   -0.207947
    140          1           0       15.643574    1.664968    0.624151
 ---------------------------------------------------------------------
 Rotational constants (GHZ):           0.0382147           0.0109823           0.0094728
 Leave Link  202 at Fri Apr 29 16:05:47 2022, MaxMem= 10066329600 cpu:               0.3 elap:               0.0
 (Enter /sw/apps/gaussian-16.0/g16/l301.exe)
 Standard basis: def2SVP (5D, 7F)
 Ernie: Thresh=  0.10000D-02 Tol=  0.10000D-05 Strict=F.
 There are  1364 symmetry adapted cartesian basis functions of A   symmetry.
 There are  1298 symmetry adapted basis functions of A   symmetry.
  1298 basis functions,  2180 primitive gaussians,  1364 cartesian basis functions
   246 alpha electrons      246 beta electrons
       nuclear repulsion energy      9602.8031842624 Hartrees.
 IExCor= 1009 DFT=T Ex+Corr=PBE1PBE ExCW=0 ScaHFX=  0.250000
 ScaDFX=  0.750000  0.750000  1.000000  1.000000 ScalE2=  1.000000  1.000000
 IRadAn=      5 IRanWt=     -1 IRanGd=            0 ICorTp=0 IEmpDi=  4
 NAtoms=  140 NActive=  140 NUniq=  140 SFac= 1.00D+00 NAtFMM=   60 NAOKFM=T Big=T
 Integral buffers will be    131072 words long.
 Regular integral format.
 Two-electron integral symmetry is turned on.
 Leave Link  301 at Fri Apr 29 16:05:47 2022, MaxMem= 10066329600 cpu:               1.4 elap:               0.1
 (Enter /sw/apps/gaussian-16.0/g16/l302.exe)
 NPDir=0 NMtPBC=     1 NCelOv=     1 NCel=       1 NClECP=     1 NCelD=      1
         NCelK=      1 NCelE2=     1 NClLst=     1 CellRange=     0.0.
 One-electron integrals computed using PRISM.
 One-electron integral symmetry used in STVInt
   1 Symmetry operations used in ECPInt.
 ECPInt:  NShTT=  192510 NPrTT=  683786 LenC2=   96815 LenP2D=  209997.
 LDataN:  DoStor=T MaxTD1= 4 Len=   56
 NBasis=  1298 RedAO= T EigKep=  3.00D-04  NBF=  1298
 NBsUse=  1298 1.00D-06 EigRej= -1.00D+00 NBFU=  1298
 Precomputing XC quadrature grid using
 IXCGrd= 4 IRadAn=           5 IRanWt=          -1 IRanGd=           0 AccXCQ= 0.00D+00.
 Generated NRdTot=       0 NPtTot=           0 NUsed=           0 NTot=          32
 NSgBfM=  1049  1024  1040  1048  1049 MxSgAt=   140 MxSgA2=   140.
 Leave Link  302 at Fri Apr 29 16:05:51 2022, MaxMem= 10066329600 cpu:              83.0 elap:               3.5
 (Enter /sw/apps/gaussian-16.0/g16/l303.exe)
 DipDrv:  MaxL=1.
 Leave Link  303 at Fri Apr 29 16:05:51 2022, MaxMem= 10066329600 cpu:               6.1 elap:               0.3
 (Enter /sw/apps/gaussian-16.0/g16/l308.exe)
 Leave Link  308 at Fri Apr 29 16:05:52 2022, MaxMem= 10066329600 cpu:               8.8 elap:               0.4
 (Enter /sw/apps/gaussian-16.0/g16/l401.exe)
 ExpMin= 3.36D-02 ExpMax= 4.95D+03 ExpMxC= 7.45D+02 IAcc=3 IRadAn=         5 AccDes= 0.00D+00
 Harris functional with IExCor= 1009 and IRadAn=       5 diagonalized for initial guess.
 HarFok:  IExCor= 1009 AccDes= 0.00D+00 IRadAn=         5 IDoV= 1 UseB2=F ITyADJ=14
 ICtDFT=  3500011 ScaDFX=  1.000000  1.000000  1.000000  1.000000
 FoFCou: FMM=F IPFlag=           0 FMFlag=      100000 FMFlg1=        2001
         NFxFlg=           0 DoJE=T BraDBF=F KetDBF=T FulRan=T
         wScrn=  0.000000 ICntrl=       500 IOpCl=  0 I1Cent=   200000004 NGrid=           0
         NMat0=    1 NMatS0=      1 NMatT0=    0 NMatD0=    1 NMtDS0=    0 NMtDT0=    0
 Petite list used in FoFCou.
 Harris En= -3006.12709475155    
 JPrj=0 DoOrth=F DoCkMO=F.
 Leave Link  401 at Fri Apr 29 16:05:57 2022, MaxMem= 10066329600 cpu:             125.4 elap:               5.3
 (Enter /sw/apps/gaussian-16.0/g16/l502.exe)
 Integral symmetry usage will be decided dynamically.
 Closed shell SCF:
 Using DIIS extrapolation, IDIIS=  1040.
 NGot= 10066329600 LenX= 10062561258 LenY= 10060699398
 Requested convergence on RMS density matrix=1.00D-08 within 128 cycles.
 Requested convergence on MAX density matrix=1.00D-06.
 Requested convergence on             energy=1.00D-06.
 No special actions if energy rises.
 Fock matrices will be formed incrementally for  20 cycles.

 Cycle   1  Pass 1  IDiag  1:
 FoFJK:  IHMeth= 1 ICntrl=       0 DoSepK=F KAlg= 0 I1Cent=           0 FoldK=F
 IRaf= 520000000 NMat=       1 IRICut=       1 DoRegI=T DoRafI=F ISym2E= 0 IDoP0=0 IntGTp=1.
 FoFCou: FMM=T IPFlag=           0 FMFlag=      100000 FMFlg1=        2001
         NFxFlg=           0 DoJE=F BraDBF=F KetDBF=F FulRan=T
         wScrn=  0.000000 ICntrl=         0 IOpCl=  0 I1Cent=           0 NGrid=           0
         NMat0=    1 NMatS0=      1 NMatT0=    0 NMatD0=    1 NMtDS0=    0 NMtDT0=    0
 Symmetry not used in FoFCou.
 FMM levels:  10  Number of levels for PrismC:   9
 E= -3003.79533420247    
 DIIS: error= 2.37D-02 at cycle   1 NSaved=   1.
 NSaved= 1 IEnMin= 1 EnMin= -3003.79533420247     IErMin= 1 ErrMin= 2.37D-02
 ErrMax= 2.37D-02  0.00D+00 EMaxC= 1.00D-01 BMatC= 1.46D+00 BMatP= 1.46D+00
 IDIUse=3 WtCom= 7.63D-01 WtEn= 2.37D-01
 Coeff-Com:  0.100D+01
 Coeff-En:   0.100D+01
 Coeff:      0.100D+01
 Gap=     0.088 Goal=   None    Shift=    0.000
 GapD=    0.088 DampG=0.500 DampE=0.500 DampFc=0.2500 IDamp=-1.
 Damping current iteration by 2.50D-01
 RMSDP=2.82D-03 MaxDP=7.47D-01              OVMax= 3.12D-01

 Cycle   2  Pass 1  IDiag  1:
 RMSU=  6.99D-04    CP:  9.90D-01
 E= -3004.34465508897     Delta-E=       -0.549320886499 Rises=F Damp=T
 DIIS: error= 1.11D-02 at cycle   2 NSaved=   2.
 NSaved= 2 IEnMin= 2 EnMin= -3004.34465508897     IErMin= 2 ErrMin= 1.11D-02
 ErrMax= 1.11D-02  0.00D+00 EMaxC= 1.00D-01 BMatC= 3.61D-01 BMatP= 1.46D+00
 IDIUse=3 WtCom= 8.89D-01 WtEn= 1.11D-01
 Coeff-Com: -0.763D+00 0.176D+01
 Coeff-En:   0.000D+00 0.100D+01
 Coeff:     -0.679D+00 0.168D+01
 Gap=     0.183 Goal=   None    Shift=    0.000
 RMSDP=9.74D-04 MaxDP=6.61D-02 DE=-5.49D-01 OVMax= 2.32D-01

 Cycle   3  Pass 1  IDiag  1:
 RMSU=  8.38D-04    CP:  9.65D-01  1.62D+00
 E= -3005.18463688103     Delta-E=       -0.839981792062 Rises=F Damp=F
 DIIS: error= 1.27D-02 at cycle   3 NSaved=   3.
 NSaved= 3 IEnMin= 3 EnMin= -3005.18463688103     IErMin= 2 ErrMin= 1.11D-02
 ErrMax= 1.27D-02  0.00D+00 EMaxC= 1.00D-01 BMatC= 1.60D-01 BMatP= 3.61D-01
 IDIUse=3 WtCom= 8.73D-01 WtEn= 1.27D-01
 Coeff-Com: -0.479D+00 0.103D+01 0.449D+00
 Coeff-En:   0.000D+00 0.000D+00 0.100D+01
 Coeff:     -0.418D+00 0.899D+00 0.519D+00
 Gap=     0.077 Goal=   None    Shift=    0.000
 RMSDP=5.73D-04 MaxDP=1.32D-01 DE=-8.40D-01 OVMax= 1.33D-01

 Cycle   4  Pass 1  IDiag  1:
 RMSU=  3.76D-04    CP:  9.71D-01  1.90D+00  5.45D-01
 E= -3005.29516117138     Delta-E=       -0.110524290345 Rises=F Damp=F
 DIIS: error= 6.52D-03 at cycle   4 NSaved=   4.
 NSaved= 4 IEnMin= 4 EnMin= -3005.29516117138     IErMin= 4 ErrMin= 6.52D-03
 ErrMax= 6.52D-03  0.00D+00 EMaxC= 1.00D-01 BMatC= 3.93D-02 BMatP= 1.60D-01
 IDIUse=3 WtCom= 9.35D-01 WtEn= 6.52D-02
 Coeff-Com: -0.836D-01 0.189D+00 0.330D+00 0.564D+00
 Coeff-En:   0.000D+00 0.000D+00 0.237D+00 0.763D+00
 Coeff:     -0.781D-01 0.177D+00 0.324D+00 0.577D+00
 Gap=     0.076 Goal=   None    Shift=    0.000
 RMSDP=2.57D-04 MaxDP=6.22D-02 DE=-1.11D-01 OVMax= 9.46D-02

 Cycle   5  Pass 1  IDiag  1:
 RMSU=  1.14D-04    CP:  9.70D-01  1.77D+00  7.04D-01  5.72D-01
 E= -3005.32615266136     Delta-E=       -0.030991489981 Rises=F Damp=F
 DIIS: error= 2.67D-03 at cycle   5 NSaved=   5.
 NSaved= 5 IEnMin= 5 EnMin= -3005.32615266136     IErMin= 5 ErrMin= 2.67D-03
 ErrMax= 2.67D-03  0.00D+00 EMaxC= 1.00D-01 BMatC= 4.11D-03 BMatP= 3.93D-02
 IDIUse=3 WtCom= 9.73D-01 WtEn= 2.67D-02
 Coeff-Com: -0.178D-01 0.448D-01 0.180D+00 0.382D+00 0.411D+00
 Coeff-En:   0.000D+00 0.000D+00 0.000D+00 0.960D-01 0.904D+00
 Coeff:     -0.173D-01 0.436D-01 0.175D+00 0.374D+00 0.424D+00
 Gap=     0.075 Goal=   None    Shift=    0.000
 RMSDP=1.01D-04 MaxDP=7.47D-03 DE=-3.10D-02 OVMax= 5.87D-02

 Cycle   6  Pass 1  IDiag  1:
 RMSU=  5.00D-05    CP:  9.70D-01  1.78D+00  6.87D-01  6.65D-01  3.06D-01
 E= -3005.33036119456     Delta-E=       -0.004208533197 Rises=F Damp=F
 DIIS: error= 1.26D-03 at cycle   6 NSaved=   6.
 NSaved= 6 IEnMin= 6 EnMin= -3005.33036119456     IErMin= 6 ErrMin= 1.26D-03
 ErrMax= 1.26D-03  0.00D+00 EMaxC= 1.00D-01 BMatC= 6.78D-04 BMatP= 4.11D-03
 IDIUse=3 WtCom= 9.87D-01 WtEn= 1.26D-02
 Coeff-Com:  0.187D-02-0.950D-03 0.654D-01 0.159D+00 0.305D+00 0.469D+00
 Coeff-En:   0.000D+00 0.000D+00 0.000D+00 0.000D+00 0.194D+00 0.806D+00
 Coeff:      0.184D-02-0.938D-03 0.646D-01 0.157D+00 0.304D+00 0.474D+00
 Gap=     0.076 Goal=   None    Shift=    0.000
 RMSDP=3.79D-05 MaxDP=2.02D-03 DE=-4.21D-03 OVMax= 2.29D-02

 Cycle   7  Pass 1  IDiag  1:
 RMSU=  1.64D-05    CP:  9.69D-01  1.78D+00  6.93D-01  6.45D-01  4.95D-01
                    CP:  5.06D-01
 E= -3005.33119200952     Delta-E=       -0.000830814965 Rises=F Damp=F
 DIIS: error= 2.84D-04 at cycle   7 NSaved=   7.
 NSaved= 7 IEnMin= 7 EnMin= -3005.33119200952     IErMin= 7 ErrMin= 2.84D-04
 ErrMax= 2.84D-04  0.00D+00 EMaxC= 1.00D-01 BMatC= 6.48D-05 BMatP= 6.78D-04
 IDIUse=3 WtCom= 9.97D-01 WtEn= 2.84D-03
 Coeff-Com:  0.316D-02-0.568D-02 0.204D-01 0.548D-01 0.146D+00 0.307D+00
 Coeff-Com:  0.475D+00
 Coeff-En:   0.000D+00 0.000D+00 0.000D+00 0.000D+00 0.000D+00 0.599D-01
 Coeff-En:   0.940D+00
 Coeff:      0.316D-02-0.567D-02 0.204D-01 0.547D-01 0.146D+00 0.306D+00
 Coeff:      0.476D+00
 Gap=     0.076 Goal=   None    Shift=    0.000
 RMSDP=1.12D-05 MaxDP=9.10D-04 DE=-8.31D-04 OVMax= 5.98D-03

 Cycle   8  Pass 1  IDiag  1:
 RMSU=  6.51D-06    CP:  9.69D-01  1.78D+00  6.94D-01  6.49D-01  4.72D-01
                    CP:  5.88D-01  5.41D-01
 E= -3005.33125673461     Delta-E=       -0.000064725091 Rises=F Damp=F
 DIIS: error= 8.06D-05 at cycle   8 NSaved=   8.
 NSaved= 8 IEnMin= 8 EnMin= -3005.33125673461     IErMin= 8 ErrMin= 8.06D-05
 ErrMax= 8.06D-05  0.00D+00 EMaxC= 1.00D-01 BMatC= 8.77D-06 BMatP= 6.48D-05
 IDIUse=1 WtCom= 1.00D+00 WtEn= 0.00D+00
 Coeff-Com:  0.176D-02-0.338D-02 0.577D-02 0.166D-01 0.599D-01 0.146D+00
 Coeff-Com:  0.317D+00 0.456D+00
 Coeff:      0.176D-02-0.338D-02 0.577D-02 0.166D-01 0.599D-01 0.146D+00
 Coeff:      0.317D+00 0.456D+00
 Gap=     0.076 Goal=   None    Shift=    0.000
 RMSDP=4.42D-06 MaxDP=3.30D-04 DE=-6.47D-05 OVMax= 2.25D-03

 Cycle   9  Pass 1  IDiag  1:
 RMSU=  2.35D-06    CP:  9.69D-01  1.78D+00  6.94D-01  6.50D-01  4.78D-01
                    CP:  5.82D-01  6.26D-01  4.83D-01
 E= -3005.33126637096     Delta-E=       -0.000009636344 Rises=F Damp=F
 DIIS: error= 2.71D-05 at cycle   9 NSaved=   9.
 NSaved= 9 IEnMin= 9 EnMin= -3005.33126637096     IErMin= 9 ErrMin= 2.71D-05
 ErrMax= 2.71D-05  0.00D+00 EMaxC= 1.00D-01 BMatC= 1.12D-06 BMatP= 8.77D-06
 IDIUse=1 WtCom= 1.00D+00 WtEn= 0.00D+00
 Coeff-Com:  0.680D-03-0.133D-02 0.104D-02 0.296D-02 0.189D-01 0.526D-01
 Coeff-Com:  0.141D+00 0.296D+00 0.488D+00
 Coeff:      0.680D-03-0.133D-02 0.104D-02 0.296D-02 0.189D-01 0.526D-01
 Coeff:      0.141D+00 0.296D+00 0.488D+00
 Gap=     0.076 Goal=   None    Shift=    0.000
 RMSDP=1.80D-06 MaxDP=2.22D-04 DE=-9.64D-06 OVMax= 1.28D-03

 Cycle  10  Pass 1  IDiag  1:
 RMSU=  1.21D-06    CP:  9.69D-01  1.78D+00  6.94D-01  6.50D-01  4.79D-01
                    CP:  5.90D-01  6.15D-01  6.10D-01  6.07D-01
 E= -3005.33126734366     Delta-E=       -0.000000972703 Rises=F Damp=F
 DIIS: error= 1.84D-05 at cycle  10 NSaved=  10.
 NSaved=10 IEnMin=10 EnMin= -3005.33126734366     IErMin=10 ErrMin= 1.84D-05
 ErrMax= 1.84D-05  0.00D+00 EMaxC= 1.00D-01 BMatC= 2.91D-07 BMatP= 1.12D-06
 IDIUse=1 WtCom= 1.00D+00 WtEn= 0.00D+00
 Coeff-Com:  0.175D-03-0.338D-03-0.297D-03-0.109D-02 0.251D-02 0.100D-01
 Coeff-Com:  0.436D-01 0.127D+00 0.360D+00 0.459D+00
 Coeff:      0.175D-03-0.338D-03-0.297D-03-0.109D-02 0.251D-02 0.100D-01
 Coeff:      0.436D-01 0.127D+00 0.360D+00 0.459D+00
 Gap=     0.076 Goal=   None    Shift=    0.000
 RMSDP=9.29D-07 MaxDP=5.39D-05 DE=-9.73D-07 OVMax= 6.77D-04

 Cycle  11  Pass 1  IDiag  1:
 RMSU=  4.83D-07    CP:  9.69D-01  1.78D+00  6.94D-01  6.50D-01  4.79D-01
                    CP:  5.90D-01  6.20D-01  5.96D-01  7.79D-01  4.53D-01
 E= -3005.33126766986     Delta-E=       -0.000000326198 Rises=F Damp=F
 DIIS: error= 8.43D-06 at cycle  11 NSaved=  11.
 NSaved=11 IEnMin=11 EnMin= -3005.33126766986     IErMin=11 ErrMin= 8.43D-06
 ErrMax= 8.43D-06  0.00D+00 EMaxC= 1.00D-01 BMatC= 6.60D-08 BMatP= 2.91D-07
 IDIUse=1 WtCom= 1.00D+00 WtEn= 0.00D+00
 Coeff-Com:  0.468D-05-0.202D-05-0.431D-03-0.149D-02-0.177D-02-0.313D-02
 Coeff-Com:  0.592D-02 0.369D-01 0.178D+00 0.350D+00 0.436D+00
 Coeff:      0.468D-05-0.202D-05-0.431D-03-0.149D-02-0.177D-02-0.313D-02
 Coeff:      0.592D-02 0.369D-01 0.178D+00 0.350D+00 0.436D+00
 Gap=     0.076 Goal=   None    Shift=    0.000
 RMSDP=3.90D-07 MaxDP=4.44D-05 DE=-3.26D-07 OVMax= 2.82D-04

 Cycle  12  Pass 1  IDiag  1:
 RMSU=  1.81D-07    CP:  9.69D-01  1.78D+00  6.94D-01  6.49D-01  4.79D-01
                    CP:  5.91D-01  6.25D-01  6.07D-01  7.64D-01  6.61D-01
                    CP:  5.94D-01
 E= -3005.33126775869     Delta-E=       -0.000000088830 Rises=F Damp=F
 DIIS: error= 1.36D-06 at cycle  12 NSaved=  12.
 NSaved=12 IEnMin=12 EnMin= -3005.33126775869     IErMin=12 ErrMin= 1.36D-06
 ErrMax= 1.36D-06  0.00D+00 EMaxC= 1.00D-01 BMatC= 5.14D-09 BMatP= 6.60D-08
 IDIUse=1 WtCom= 1.00D+00 WtEn= 0.00D+00
 Coeff-Com: -0.117D-04 0.310D-04-0.187D-03-0.679D-03-0.122D-02-0.331D-02
 Coeff-Com: -0.198D-02 0.207D-02 0.505D-01 0.130D+00 0.255D+00 0.570D+00
 Coeff:     -0.117D-04 0.310D-04-0.187D-03-0.679D-03-0.122D-02-0.331D-02
 Coeff:     -0.198D-02 0.207D-02 0.505D-01 0.130D+00 0.255D+00 0.570D+00
 Gap=     0.076 Goal=   None    Shift=    0.000
 RMSDP=1.03D-07 MaxDP=8.16D-06 DE=-8.88D-08 OVMax= 3.81D-05

 Cycle  13  Pass 1  IDiag  1:
 RMSU=  7.15D-08    CP:  9.69D-01  1.78D+00  6.94D-01  6.49D-01  4.79D-01
                    CP:  5.91D-01  6.26D-01  6.10D-01  7.79D-01  6.64D-01
                    CP:  6.90D-01  8.29D-01
 E= -3005.33126776484     Delta-E=       -0.000000006150 Rises=F Damp=F
 DIIS: error= 7.84D-07 at cycle  13 NSaved=  13.
 NSaved=13 IEnMin=13 EnMin= -3005.33126776484     IErMin=13 ErrMin= 7.84D-07
 ErrMax= 7.84D-07  0.00D+00 EMaxC= 1.00D-01 BMatC= 9.60D-10 BMatP= 5.14D-09
 IDIUse=1 WtCom= 1.00D+00 WtEn= 0.00D+00
 Coeff-Com: -0.532D-05 0.150D-04-0.221D-04-0.106D-03-0.349D-03-0.153D-02
 Coeff-Com: -0.234D-02-0.771D-02-0.797D-02-0.102D-02 0.644D-01 0.327D+00
 Coeff-Com:  0.629D+00
 Coeff:     -0.532D-05 0.150D-04-0.221D-04-0.106D-03-0.349D-03-0.153D-02
 Coeff:     -0.234D-02-0.771D-02-0.797D-02-0.102D-02 0.644D-01 0.327D+00
 Coeff:      0.629D+00
 Gap=     0.076 Goal=   None    Shift=    0.000
 RMSDP=5.25D-08 MaxDP=1.14D-05 DE=-6.15D-09 OVMax= 2.42D-05

 Cycle  14  Pass 1  IDiag  1:
 RMSU=  3.10D-08    CP:  9.69D-01  1.78D+00  6.94D-01  6.49D-01  4.79D-01
                    CP:  5.91D-01  6.26D-01  6.11D-01  7.87D-01  6.77D-01
                    CP:  7.19D-01  9.77D-01  9.26D-01
 E= -3005.33126776599     Delta-E=       -0.000000001155 Rises=F Damp=F
 DIIS: error= 3.75D-07 at cycle  14 NSaved=  14.
 NSaved=14 IEnMin=14 EnMin= -3005.33126776599     IErMin=14 ErrMin= 3.75D-07
 ErrMax= 3.75D-07  0.00D+00 EMaxC= 1.00D-01 BMatC= 1.78D-10 BMatP= 9.60D-10
 IDIUse=1 WtCom= 1.00D+00 WtEn= 0.00D+00
 Coeff-Com:  0.271D-06 0.121D-05 0.205D-04 0.555D-04 0.275D-04-0.348D-03
 Coeff-Com: -0.874D-03-0.504D-02-0.130D-01-0.244D-01-0.614D-02 0.726D-01
 Coeff-Com:  0.357D+00 0.621D+00
 Coeff:      0.271D-06 0.121D-05 0.205D-04 0.555D-04 0.275D-04-0.348D-03
 Coeff:     -0.874D-03-0.504D-02-0.130D-01-0.244D-01-0.614D-02 0.726D-01
 Coeff:      0.357D+00 0.621D+00
 Gap=     0.076 Goal=   None    Shift=    0.000
 RMSDP=2.26D-08 MaxDP=1.60D-06 DE=-1.16D-09 OVMax= 1.03D-05

 Cycle  15  Pass 1  IDiag  1:
 RMSU=  1.33D-08    CP:  9.69D-01  1.78D+00  6.94D-01  6.49D-01  4.79D-01
                    CP:  5.91D-01  6.26D-01  6.11D-01  7.89D-01  6.82D-01
                    CP:  7.38D-01  1.01D+00  1.04D+00  8.67D-01
 E= -3005.33126776625     Delta-E=       -0.000000000253 Rises=F Damp=F
 DIIS: error= 1.35D-07 at cycle  15 NSaved=  15.
 NSaved=15 IEnMin=15 EnMin= -3005.33126776625     IErMin=15 ErrMin= 1.35D-07
 ErrMax= 1.35D-07  0.00D+00 EMaxC= 1.00D-01 BMatC= 3.21D-11 BMatP= 1.78D-10
 IDIUse=1 WtCom= 1.00D+00 WtEn= 0.00D+00
 Coeff-Com:  0.149D-05-0.245D-05 0.162D-04 0.488D-04 0.888D-04 0.573D-04
 Coeff-Com:  0.216D-04-0.148D-02-0.528D-02-0.132D-01-0.120D-01-0.188D-01
 Coeff-Com:  0.962D-01 0.360D+00 0.594D+00
 Coeff:      0.149D-05-0.245D-05 0.162D-04 0.488D-04 0.888D-04 0.573D-04
 Coeff:      0.216D-04-0.148D-02-0.528D-02-0.132D-01-0.120D-01-0.188D-01
 Coeff:      0.962D-01 0.360D+00 0.594D+00
 Gap=     0.076 Goal=   None    Shift=    0.000
 RMSDP=8.69D-09 MaxDP=1.13D-06 DE=-2.53D-10 OVMax= 4.12D-06

 Cycle  16  Pass 1  IDiag  1:
 RMSU=  4.81D-09    CP:  9.69D-01  1.78D+00  6.94D-01  6.49D-01  4.79D-01
                    CP:  5.91D-01  6.27D-01  6.12D-01  7.90D-01  6.83D-01
                    CP:  7.44D-01  1.03D+00  1.09D+00  9.88D-01  8.98D-01
 E= -3005.33126776640     Delta-E=       -0.000000000155 Rises=F Damp=F
 DIIS: error= 5.72D-08 at cycle  16 NSaved=  16.
 NSaved=16 IEnMin=16 EnMin= -3005.33126776640     IErMin=16 ErrMin= 5.72D-08
 ErrMax= 5.72D-08  0.00D+00 EMaxC= 1.00D-01 BMatC= 5.57D-12 BMatP= 3.21D-11
 IDIUse=1 WtCom= 1.00D+00 WtEn= 0.00D+00
 Coeff-Com:  0.810D-06-0.162D-05 0.629D-05 0.199D-04 0.511D-04 0.818D-04
 Coeff-Com:  0.165D-03-0.120D-03-0.982D-03-0.431D-02-0.607D-02-0.264D-01
 Coeff-Com: -0.101D-02 0.119D+00 0.339D+00 0.581D+00
 Coeff:      0.810D-06-0.162D-05 0.629D-05 0.199D-04 0.511D-04 0.818D-04
 Coeff:      0.165D-03-0.120D-03-0.982D-03-0.431D-02-0.607D-02-0.264D-01
 Coeff:     -0.101D-02 0.119D+00 0.339D+00 0.581D+00
 Gap=     0.076 Goal=   None    Shift=    0.000
 RMSDP=3.83D-09 MaxDP=3.10D-07 DE=-1.55D-10 OVMax= 1.81D-06

 SCF Done:  E(RPBE1PBE) =  -3005.33126777     A.U. after   16 cycles
            NFock= 16  Conv=0.38D-08     -V/T= 2.0104
 KE= 2.974254901268D+03 PE=-2.619621909489D+04 EE= 1.061382974159D+04
 Leave Link  502 at Fri Apr 29 16:10:15 2022, MaxMem= 10066329600 cpu:            6148.5 elap:             257.9
 (Enter /sw/apps/gaussian-16.0/g16/l801.exe)
 DoSCS=F DFT=T ScalE2(SS,OS)=  1.000000  1.000000
 ExpMin= 3.36D-02 ExpMax= 4.95D+03 ExpMxC= 7.45D+02 IAcc=3 IRadAn=         5 AccDes= 0.00D+00
 HarFok:  IExCor=  205 AccDes= 0.00D+00 IRadAn=         5 IDoV=-2 UseB2=F ITyADJ=14
 ICtDFT= 12500011 ScaDFX=  1.000000  1.000000  1.000000  1.000000
 GSVD:  LWork=       -5460 too small for GESVD, short by       25550 words or       25550 for optimal perf.
 Largest valence mixing into a core orbital is  1.41D-04
 Largest core mixing into a valence orbital is  5.66D-05
 Range of M.O.s used for correlation:    71  1298
 NBasis=  1298 NAE=   246 NBE=   246 NFC=    70 NFV=     0
 NROrb=   1228 NOA=   176 NOB=   176 NVA=  1052 NVB=  1052

 **** Warning!!: The smallest alpha delta epsilon is  0.75642628D-01

 Leave Link  801 at Fri Apr 29 16:10:15 2022, MaxMem= 10066329600 cpu:               6.3 elap:               0.3
 (Enter /sw/apps/gaussian-16.0/g16/l914.exe)
 RHF ground state
 Two-electron integrals replicated using symmetry.
 MDV= 10066329600 DFT=T DoStab=F Mixed=T DoRPA=T DoScal=F NonHer=T
 Making orbital integer symmetry assigments:
 Orbital symmetries:
       Occupied  (A) (A) (A) (A) (A) (A) (A) (A) (A) (A) (A) (A)
                 (A) (A) (A) (A) (A) (A) (A) (A) (A) (A) (A) (A)
                 (A) (A) (A) (A) (A) (A) (A) (A) (A) (A) (A) (A)
                 (A) (A) (A) (A) (A) (A) (A) (A) (A) (A) (A) (A)
                 (A) (A) (A) (A) (A) (A) (A) (A) (A) (A) (A) (A)
                 (A) (A) (A) (A) (A) (A) (A) (A) (A) (A) (A) (A)
                 (A) (A) (A) (A) (A) (A) (A) (A) (A) (A) (A) (A)
                 (A) (A) (A) (A) (A) (A) (A) (A) (A) (A) (A) (A)
                 (A) (A) (A) (A) (A) (A) (A) (A) (A) (A) (A) (A)
                 (A) (A) (A) (A) (A) (A) (A) (A) (A) (A) (A) (A)
                 (A) (A) (A) (A) (A) (A) (A) (A) (A) (A) (A) (A)
                 (A) (A) (A) (A) (A) (A) (A) (A) (A) (A) (A) (A)
                 (A) (A) (A) (A) (A) (A) (A) (A) (A) (A) (A) (A)
                 (A) (A) (A) (A) (A) (A) (A) (A) (A) (A) (A) (A)
                 (A) (A) (A) (A) (A) (A) (A) (A) (A) (A) (A) (A)
                 (A) (A) (A) (A) (A) (A) (A) (A) (A) (A) (A) (A)
                 (A) (A) (A) (A) (A) (A) (A) (A) (A) (A) (A) (A)
                 (A) (A) (A) (A) (A) (A) (A) (A) (A) (A) (A) (A)
                 (A) (A) (A) (A) (A) (A) (A) (A) (A) (A) (A) (A)
                 (A) (A) (A) (A) (A) (A) (A) (A) (A) (A) (A) (A)
                 (A) (A) (A) (A) (A) (A)
       Virtual   (A) (A) (A) (A) (A) (A) (A) (A) (A) (A) (A) (A)
                 (A) (A) (A) (A) (A) (A) (A) (A) (A) (A) (A) (A)
                 (A) (A) (A) (A) (A) (A) (A) (A) (A) (A) (A) (A)
                 (A) (A) (A) (A) (A) (A) (A) (A) (A) (A) (A) (A)
                 (A) (A) (A) (A) (A) (A) (A) (A) (A) (A) (A) (A)
                 (A) (A) (A) (A) (A) (A) (A) (A) (A) (A) (A) (A)
                 (A) (A) (A) (A) (A) (A) (A) (A) (A) (A) (A) (A)
                 (A) (A) (A) (A) (A) (A) (A) (A) (A) (A) (A) (A)
                 (A) (A) (A) (A) (A) (A) (A) (A) (A) (A) (A) (A)
                 (A) (A) (A) (A) (A) (A) (A) (A) (A) (A) (A) (A)
                 (A) (A) (A) (A) (A) (A) (A) (A) (A) (A) (A) (A)
                 (A) (A) (A) (A) (A) (A) (A) (A) (A) (A) (A) (A)
                 (A) (A) (A) (A) (A) (A) (A) (A) (A) (A) (A) (A)
                 (A) (A) (A) (A) (A) (A) (A) (A) (A) (A) (A) (A)
                 (A) (A) (A) (A) (A) (A) (A) (A) (A) (A) (A) (A)
                 (A) (A) (A) (A) (A) (A) (A) (A) (A) (A) (A) (A)
                 (A) (A) (A) (A) (A) (A) (A) (A) (A) (A) (A) (A)
                 (A) (A) (A) (A) (A) (A) (A) (A) (A) (A) (A) (A)
                 (A) (A) (A) (A) (A) (A) (A) (A) (A) (A) (A) (A)
                 (A) (A) (A) (A) (A) (A) (A) (A) (A) (A) (A) (A)
                 (A) (A) (A) (A) (A) (A) (A) (A) (A) (A) (A) (A)
                 (A) (A) (A) (A) (A) (A) (A) (A) (A) (A) (A) (A)
                 (A) (A) (A) (A) (A) (A) (A) (A) (A) (A) (A) (A)
                 (A) (A) (A) (A) (A) (A) (A) (A) (A) (A) (A) (A)
                 (A) (A) (A) (A) (A) (A) (A) (A) (A) (A) (A) (A)
                 (A) (A) (A) (A) (A) (A) (A) (A) (A) (A) (A) (A)
                 (A) (A) (A) (A) (A) (A) (A) (A) (A) (A) (A) (A)
                 (A) (A) (A) (A) (A) (A) (A) (A) (A) (A) (A) (A)
                 (A) (A) (A) (A) (A) (A) (A) (A) (A) (A) (A) (A)
                 (A) (A) (A) (A) (A) (A) (A) (A) (A) (A) (A) (A)
                 (A) (A) (A) (A) (A) (A) (A) (A) (A) (A) (A) (A)
                 (A) (A) (A) (A) (A) (A) (A) (A) (A) (A) (A) (A)
                 (A) (A) (A) (A) (A) (A) (A) (A) (A) (A) (A) (A)
                 (A) (A) (A) (A) (A) (A) (A) (A) (A) (A) (A) (A)
                 (A) (A) (A) (A) (A) (A) (A) (A) (A) (A) (A) (A)
                 (A) (A) (A) (A) (A) (A) (A) (A) (A) (A) (A) (A)
                 (A) (A) (A) (A) (A) (A) (A) (A) (A) (A) (A) (A)
                 (A) (A) (A) (A) (A) (A) (A) (A) (A) (A) (A) (A)
                 (A) (A) (A) (A) (A) (A) (A) (A) (A) (A) (A) (A)
                 (A) (A) (A) (A) (A) (A) (A) (A) (A) (A) (A) (A)
                 (A) (A) (A) (A) (A) (A) (A) (A) (A) (A) (A) (A)
                 (A) (A) (A) (A) (A) (A) (A) (A) (A) (A) (A) (A)
                 (A) (A) (A) (A) (A) (A) (A) (A) (A) (A) (A) (A)
                 (A) (A) (A) (A) (A) (A) (A) (A) (A) (A) (A) (A)
                 (A) (A) (A) (A) (A) (A) (A) (A) (A) (A) (A) (A)
                 (A) (A) (A) (A) (A) (A) (A) (A) (A) (A) (A) (A)
                 (A) (A) (A) (A) (A) (A) (A) (A) (A) (A) (A) (A)
                 (A) (A) (A) (A) (A) (A) (A) (A) (A) (A) (A) (A)
                 (A) (A) (A) (A) (A) (A) (A) (A) (A) (A) (A) (A)
                 (A) (A) (A) (A) (A) (A) (A) (A) (A) (A) (A) (A)
                 (A) (A) (A) (A) (A) (A) (A) (A) (A) (A) (A) (A)
                 (A) (A) (A) (A) (A) (A) (A) (A) (A) (A) (A) (A)
                 (A) (A) (A) (A) (A) (A) (A) (A) (A) (A) (A) (A)
                 (A) (A) (A) (A) (A) (A) (A) (A) (A) (A) (A) (A)
                 (A) (A) (A) (A) (A) (A) (A) (A) (A) (A) (A) (A)
                 (A) (A) (A) (A) (A) (A) (A) (A) (A) (A) (A) (A)
                 (A) (A) (A) (A) (A) (A) (A) (A) (A) (A) (A) (A)
                 (A) (A) (A) (A) (A) (A) (A) (A) (A) (A) (A) (A)
                 (A) (A) (A) (A) (A) (A) (A) (A) (A) (A) (A) (A)
                 (A) (A) (A) (A) (A) (A) (A) (A) (A) (A) (A) (A)
                 (A) (A) (A) (A) (A) (A) (A) (A) (A) (A) (A) (A)
                 (A) (A) (A) (A) (A) (A) (A) (A) (A) (A) (A) (A)
                 (A) (A) (A) (A) (A) (A) (A) (A) (A) (A) (A) (A)
                 (A) (A) (A) (A) (A) (A) (A) (A) (A) (A) (A) (A)
                 (A) (A) (A) (A) (A) (A) (A) (A) (A) (A) (A) (A)
                 (A) (A) (A) (A) (A) (A) (A) (A) (A) (A) (A) (A)
                 (A) (A) (A) (A) (A) (A) (A) (A) (A) (A) (A) (A)
                 (A) (A) (A) (A) (A) (A) (A) (A) (A) (A) (A) (A)
                 (A) (A) (A) (A) (A) (A) (A) (A) (A) (A) (A) (A)
                 (A) (A) (A) (A) (A) (A) (A) (A) (A) (A) (A) (A)
                 (A) (A) (A) (A) (A) (A) (A) (A) (A) (A) (A) (A)
                 (A) (A) (A) (A) (A) (A) (A) (A) (A) (A) (A) (A)
                 (A) (A) (A) (A) (A) (A) (A) (A) (A) (A) (A) (A)
                 (A) (A) (A) (A) (A) (A) (A) (A) (A) (A) (A) (A)
                 (A) (A) (A) (A) (A) (A) (A) (A) (A) (A) (A) (A)
                 (A) (A) (A) (A) (A) (A) (A) (A) (A) (A) (A) (A)
                 (A) (A) (A) (A) (A) (A) (A) (A) (A) (A) (A) (A)
                 (A) (A) (A) (A) (A) (A) (A) (A) (A) (A) (A) (A)
                 (A) (A) (A) (A) (A) (A) (A) (A) (A) (A) (A) (A)
                 (A) (A) (A) (A) (A) (A) (A) (A) (A) (A) (A) (A)
                 (A) (A) (A) (A) (A) (A) (A) (A) (A) (A) (A) (A)
                 (A) (A) (A) (A) (A) (A) (A) (A) (A) (A) (A) (A)
                 (A) (A) (A) (A) (A) (A) (A) (A) (A) (A) (A) (A)
                 (A) (A) (A) (A) (A) (A) (A) (A) (A) (A) (A) (A)
                 (A) (A) (A) (A) (A) (A) (A) (A) (A) (A) (A) (A)
                 (A) (A) (A) (A) (A) (A) (A) (A) (A) (A) (A) (A)
                 (A) (A) (A) (A) (A) (A) (A) (A) (A) (A) (A) (A)
                 (A) (A) (A) (A) (A) (A) (A) (A)
    20 initial guesses have been made.
 Convergence on wavefunction:    0.001000000000000
 Davidson Disk Diagonalization:  ConvIn= 1.00D-03 SkipCon=T Conv= 1.00D-03.
 Max sub-space:  2000 roots to seek:    20 dimension of matrix:       370304
 Iteration     1 Dimension    20 NMult     0 NNew     20
 CISAX will form    20 AO SS matrices at one time.
 NMat=    20 NSing=    20 JSym2X= 0.
 FoFJK:  IHMeth= 1 ICntrl=       0 DoSepK=F KAlg= 0 I1Cent=           0 FoldK=F
 IRaf= 520000000 NMat=      40 IRICut=       1 DoRegI=T DoRafI=F ISym2E= 0 IDoP0=3 IntGTp=3.
 FoFCou: FMM=T IPFlag=           0 FMFlag=      100000 FMFlg1=        2001
         NFxFlg=           0 DoJE=F BraDBF=F KetDBF=F FulRan=T
         wScrn=  0.000000 ICntrl=         0 IOpCl=  0 I1Cent=           0 NGrid=           0
         NMat0=   40 NMatS0=     20 NMatT0=    0 NMatD0=   40 NMtDS0=    0 NMtDT0=    0
 Symmetry not used in FoFCou.
 FMM levels:  10  Number of levels for PrismC:   9
 New state      3 was old state      6
 New state      4 was old state      5
 New state      5 was old state      4
 Excitation Energies [eV] at current iteration:
 Root      1 :     2.199334455939291
 Root      2 :     2.474361543539867
 Root      3 :     3.013019840204037
 Root      4 :     3.192808995287754
 Root      5 :     3.207634410009140
 Root      6 :     3.349732689984705
 Root      7 :     3.536220086339227
 Root      8 :     3.686076156406424
 Root      9 :     3.815265783382615
 Root     10 :     3.961334379909693
 Root     11 :     4.099080222606417
 Root     12 :     4.149207450183018
 Root     13 :     4.178275664467052
 Root     14 :     4.230537603058795
 Root     15 :     4.334691286584464
 Root     16 :     4.358648901194157
 Root     17 :     4.452790915271646
 Root     18 :     4.579031855091326
 Root     19 :     4.599999969585511
 Root     20 :     4.888282166564111
 Iteration     2 Dimension    30 NMult    20 NNew     10
 CISAX will form    10 AO SS matrices at one time.
 NMat=    10 NSing=    10 JSym2X= 0.
 Root      1 not converged, maximum delta is    0.054061705422809
 Root      2 not converged, maximum delta is    0.055327093640683
 Root      3 not converged, maximum delta is    0.169507785985679
 Root      4 not converged, maximum delta is    0.219870370910431
 Root      5 not converged, maximum delta is    0.024140828863414
 Excitation Energies [eV] at current iteration:
 Root      1 :     1.871438489275169   Change is   -0.327895966664122
 Root      2 :     2.190578925445891   Change is   -0.283782618093976
 Root      3 :     2.859749783241880   Change is   -0.153270056962157
 Root      4 :     2.968336571567731   Change is   -0.224472423720023
 Root      5 :     3.206729290208856   Change is   -0.000905119800284
 Iteration     3 Dimension    40 NMult    30 NNew     10
 CISAX will form    10 AO SS matrices at one time.
 NMat=    10 NSing=    10 JSym2X= 0.
 Root      1 not converged, maximum delta is    0.024950874575836
 Root      2 not converged, maximum delta is    0.022568140022859
 Root      3 not converged, maximum delta is    0.018996185623044
 Root      4 not converged, maximum delta is    0.012304546570708
 Root      5 not converged, maximum delta is    0.099885737853994
 Excitation Energies [eV] at current iteration:
 Root      1 :     1.841704842600499   Change is   -0.029733646674670
 Root      2 :     2.171346722388166   Change is   -0.019232203057725
 Root      3 :     2.847353857154105   Change is   -0.012395926087775
 Root      4 :     2.954755470632017   Change is   -0.013581100935714
 Root      5 :     3.206591216182216   Change is   -0.000138074026640
 Iteration     4 Dimension    50 NMult    40 NNew     10
 CISAX will form    10 AO SS matrices at one time.
 NMat=    10 NSing=    10 JSym2X= 0.
 Root      1 not converged, maximum delta is    0.003776691495885
 Root      2 not converged, maximum delta is    0.008858999248537
 Root      3 not converged, maximum delta is    0.008846817924318
 Root      4 not converged, maximum delta is    0.009160235075022
 Root      5 not converged, maximum delta is    0.686941493693363
 Excitation Energies [eV] at current iteration:
 Root      1 :     1.838533506487254   Change is   -0.003171336113245
 Root      2 :     2.168143057074553   Change is   -0.003203665313614
 Root      3 :     2.845621374106084   Change is   -0.001732483048021
 Root      4 :     2.951760498561689   Change is   -0.002994972070328
 Root      5 :     3.147987884419158   Change is   -0.058603331763058
 Iteration     5 Dimension    60 NMult    50 NNew     10
 CISAX will form    10 AO SS matrices at one time.
 NMat=    10 NSing=    10 JSym2X= 0.
 Root      1 not converged, maximum delta is    0.001012188691097
 Root      2 has converged.
 Root      3 has converged.
 Root      4 not converged, maximum delta is    0.001579347390607
 Root      5 not converged, maximum delta is    0.003846683753285
 Excitation Energies [eV] at current iteration:
 Root      1 :     1.838183706176807   Change is   -0.000349800310446
 Root      2 :     2.167838210556679   Change is   -0.000304846517874
 Root      3 :     2.845461983336210   Change is   -0.000159390769874
 Root      4 :     2.951466324715964   Change is   -0.000294173845725
 Root      5 :     3.144859683753368   Change is   -0.003128200665790
 Iteration     6 Dimension    66 NMult    60 NNew      6
 CISAX will form     6 AO SS matrices at one time.
 NMat=     6 NSing=     6 JSym2X= 0.
 Root      1 has converged.
 Root      2 has converged.
 Root      3 has converged.
 Root      4 has converged.
 Root      5 not converged, maximum delta is    0.002655951505684
 Excitation Energies [eV] at current iteration:
 Root      1 :     1.838149746275298   Change is   -0.000033959901509
 Root      2 :     2.167835665925961   Change is   -0.000002544630718
 Root      3 :     2.845461583194080   Change is   -0.000000400142130
 Root      4 :     2.951436829416858   Change is   -0.000029495299106
 Root      5 :     3.144197399497162   Change is   -0.000662284256206
 Iteration     7 Dimension    68 NMult    66 NNew      2
 CISAX will form     2 AO SS matrices at one time.
 NMat=     2 NSing=     2 JSym2X= 0.
 Root      1 has converged.
 Root      2 has converged.
 Root      3 has converged.
 Root      4 has converged.
 Root      5 has converged.
 Excitation Energies [eV] at current iteration:
 Root      1 :     1.838149647101841   Change is   -0.000000099173457
 Root      2 :     2.167835436565482   Change is   -0.000000229360479
 Root      3 :     2.845461362076386   Change is   -0.000000221117695
 Root      4 :     2.951436488964847   Change is   -0.000000340452012
 Root      5 :     3.144118362509259   Change is   -0.000079036987904
 Convergence achieved on expansion vectors.
 ***********************************************************************
 Excited states from <AA,BB:AA,BB> singles matrix:
 ***********************************************************************
 
 1PDM for each excited state written to RWF  633
 Ground to excited state transition densities written to RWF  633
 Ground to excited state transition electric dipole moments (Au):
       state          X           Y           Z        Dip. S.      Osc.
         1        -1.8253     -1.8686     -1.1849      8.2271      0.3705
         2         0.4708     -1.0440      0.4980      1.5596      0.0828
         3        -0.0199      0.0028      0.0300      0.0013      0.0001
         4        -0.1207     -0.1958     -0.0303      0.0538      0.0039
         5         0.0452     -0.0823      0.0569      0.0121      0.0009
 Ground to excited state transition velocity dipole moments (Au):
       state          X           Y           Z        Dip. S.      Osc.
         1         0.1187      0.1216      0.0775      0.0349      0.3443
         2        -0.0348      0.0790     -0.0379      0.0089      0.0743
         3        -0.0016      0.0009     -0.0020      0.0000      0.0000
         4         0.0118      0.0196      0.0043      0.0005      0.0033
         5        -0.0071      0.0106     -0.0044      0.0002      0.0010
 Ground to excited state transition magnetic dipole moments (Au):
       state          X           Y           Z
         1         0.1190      0.8254     -1.6218
         2        -0.3275     -0.3207     -0.5867
         3         0.2766      0.4344      0.1872
         4        -0.5367      0.1397      0.1897
         5        -0.1234     -0.2691     -0.5912
 Ground to excited state transition velocity quadrupole moments (Au):
       state          XX          YY          ZZ          XY          XZ          YZ
         1        -2.0588      0.4635      0.1950     -0.7686     -0.5733      0.2538
         2         0.6344      0.2554     -0.0760     -0.6848      0.3851     -0.0046
         3         0.0725      0.0164      0.0033     -0.0278      0.0286      0.0156
         4        -0.2408      0.3865     -0.0609      0.0410     -0.1040      0.0340
         5         0.1203     -0.0808      0.0349     -0.1564      0.0727      0.0105
 <0|del|b> * <b|rxdel|0> + <0|del|b> * <b|delr+rdel|0>
 Rotatory Strengths (R) in cgs (10**-40 erg-esu-cm/Gauss)
       state          XX          YY          ZZ    R(velocity)    E-M Angle
         1       -79.0758   -114.4945     76.7393    -38.9437       91.88
         2       -33.3469     34.7534     72.3874     24.5980       83.20
         3         0.2327     -3.0430      0.0381     -0.9241      105.93
         4        18.8312    -17.3094    -19.7486     -6.0756      101.80
         5        -0.9408      8.3285     -3.4653      1.3075       85.87
 1/2[<0|r|b>*<b|rxdel|0> + (<0|rxdel|b>*<b|r|0>)*]
 Rotatory Strengths (R) in cgs (10**-40 erg-esu-cm/Gauss)
       state          XX          YY          ZZ     R(length)
         1       153.6112   1090.6080  -1358.8901    -38.2236
         2       109.0437   -236.7835    206.6111     26.2904
         3         3.8970     -0.8614     -3.9702     -0.3115
         4       -45.7925     19.3494      4.0600     -7.4610
         5         3.9461    -15.6597     23.7882      4.0249
  1/2[<0|del|b>*<b|r|0> + (<0|r|b>*<b|del|0>)*] (Au)
       state          X           Y           Z        Dip. S.   Osc.(frdel)
         1        -0.2166     -0.2273     -0.0918      0.5358      0.3572
         2        -0.0164     -0.0824     -0.0189      0.1177      0.0785
         3         0.0000      0.0000     -0.0001      0.0000      0.0000
         4        -0.0014     -0.0038     -0.0001      0.0054      0.0036
         5        -0.0003     -0.0009     -0.0003      0.0014      0.0010

 Excitation energies and oscillator strengths:
 
 Excited State   1:      Singlet-A      1.8381 eV  674.51 nm  f=0.3705  <S**2>=0.000
     245 -> 248        0.18488
     246 -> 247        0.68865
     246 <- 247       -0.10415
 This state for optimization and/or second-order correction.
 Total Energy, E(TD-HF/TD-DFT) =  -3005.26371701    
 Copying the excited state density for this state as the 1-particle RhoCI density.
 
 Excited State   2:      Singlet-A      2.1678 eV  571.93 nm  f=0.0828  <S**2>=0.000
     245 -> 247        0.64641
     246 -> 248       -0.27275
 
 Excited State   3:      Singlet-A      2.8455 eV  435.73 nm  f=0.0001  <S**2>=0.000
     242 -> 247        0.66165
     242 -> 249       -0.19337
 
 Excited State   4:      Singlet-A      2.9514 eV  420.08 nm  f=0.0039  <S**2>=0.000
     243 -> 247        0.68806
 
 Excited State   5:      Singlet-A      3.1441 eV  394.34 nm  f=0.0009  <S**2>=0.000
     240 -> 247        0.43063
     241 -> 247        0.50489
 SavETr:  write IOETrn=   770 NScale= 10 NData=  16 NLR=1 NState=    5 LETran=     100.
 Leave Link  914 at Fri Apr 29 16:23:03 2022, MaxMem= 10066329600 cpu:           18386.1 elap:             768.0
 (Enter /sw/apps/gaussian-16.0/g16/l601.exe)
 Copying SCF densities to generalized density rwf, IOpCl= 0 IROHF=0.
 Hyperfine terms turned off by default for NAtoms > 100.

 **********************************************************************

            Population analysis using the SCF density.

 **********************************************************************

 Orbital symmetries:
       Occupied  (A) (A) (A) (A) (A) (A) (A) (A) (A) (A) (A) (A)
                 (A) (A) (A) (A) (A) (A) (A) (A) (A) (A) (A) (A)
                 (A) (A) (A) (A) (A) (A) (A) (A) (A) (A) (A) (A)
                 (A) (A) (A) (A) (A) (A) (A) (A) (A) (A) (A) (A)
                 (A) (A) (A) (A) (A) (A) (A) (A) (A) (A) (A) (A)
                 (A) (A) (A) (A) (A) (A) (A) (A) (A) (A) (A) (A)
                 (A) (A) (A) (A) (A) (A) (A) (A) (A) (A) (A) (A)
                 (A) (A) (A) (A) (A) (A) (A) (A) (A) (A) (A) (A)
                 (A) (A) (A) (A) (A) (A) (A) (A) (A) (A) (A) (A)
                 (A) (A) (A) (A) (A) (A) (A) (A) (A) (A) (A) (A)
                 (A) (A) (A) (A) (A) (A) (A) (A) (A) (A) (A) (A)
                 (A) (A) (A) (A) (A) (A) (A) (A) (A) (A) (A) (A)
                 (A) (A) (A) (A) (A) (A) (A) (A) (A) (A) (A) (A)
                 (A) (A) (A) (A) (A) (A) (A) (A) (A) (A) (A) (A)
                 (A) (A) (A) (A) (A) (A) (A) (A) (A) (A) (A) (A)
                 (A) (A) (A) (A) (A) (A) (A) (A) (A) (A) (A) (A)
                 (A) (A) (A) (A) (A) (A) (A) (A) (A) (A) (A) (A)
                 (A) (A) (A) (A) (A) (A) (A) (A) (A) (A) (A) (A)
                 (A) (A) (A) (A) (A) (A) (A) (A) (A) (A) (A) (A)
                 (A) (A) (A) (A) (A) (A) (A) (A) (A) (A) (A) (A)
                 (A) (A) (A) (A) (A) (A)
       Virtual   (A) (A) (A) (A) (A) (A) (A) (A) (A) (A) (A) (A)
                 (A) (A) (A) (A) (A) (A) (A) (A) (A) (A) (A) (A)
                 (A) (A) (A) (A) (A) (A) (A) (A) (A) (A) (A) (A)
                 (A) (A) (A) (A) (A) (A) (A) (A) (A) (A) (A) (A)
                 (A) (A) (A) (A) (A) (A) (A) (A) (A) (A) (A) (A)
                 (A) (A) (A) (A) (A) (A) (A) (A) (A) (A) (A) (A)
                 (A) (A) (A) (A) (A) (A) (A) (A) (A) (A) (A) (A)
                 (A) (A) (A) (A) (A) (A) (A) (A) (A) (A) (A) (A)
                 (A) (A) (A) (A) (A) (A) (A) (A) (A) (A) (A) (A)
                 (A) (A) (A) (A) (A) (A) (A) (A) (A) (A) (A) (A)
                 (A) (A) (A) (A) (A) (A) (A) (A) (A) (A) (A) (A)
                 (A) (A) (A) (A) (A) (A) (A) (A) (A) (A) (A) (A)
                 (A) (A) (A) (A) (A) (A) (A) (A) (A) (A) (A) (A)
                 (A) (A) (A) (A) (A) (A) (A) (A) (A) (A) (A) (A)
                 (A) (A) (A) (A) (A) (A) (A) (A) (A) (A) (A) (A)
                 (A) (A) (A) (A) (A) (A) (A) (A) (A) (A) (A) (A)
                 (A) (A) (A) (A) (A) (A) (A) (A) (A) (A) (A) (A)
                 (A) (A) (A) (A) (A) (A) (A) (A) (A) (A) (A) (A)
                 (A) (A) (A) (A) (A) (A) (A) (A) (A) (A) (A) (A)
                 (A) (A) (A) (A) (A) (A) (A) (A) (A) (A) (A) (A)
                 (A) (A) (A) (A) (A) (A) (A) (A) (A) (A) (A) (A)
                 (A) (A) (A) (A) (A) (A) (A) (A) (A) (A) (A) (A)
                 (A) (A) (A) (A) (A) (A) (A) (A) (A) (A) (A) (A)
                 (A) (A) (A) (A) (A) (A) (A) (A) (A) (A) (A) (A)
                 (A) (A) (A) (A) (A) (A) (A) (A) (A) (A) (A) (A)
                 (A) (A) (A) (A) (A) (A) (A) (A) (A) (A) (A) (A)
                 (A) (A) (A) (A) (A) (A) (A) (A) (A) (A) (A) (A)
                 (A) (A) (A) (A) (A) (A) (A) (A) (A) (A) (A) (A)
                 (A) (A) (A) (A) (A) (A) (A) (A) (A) (A) (A) (A)
                 (A) (A) (A) (A) (A) (A) (A) (A) (A) (A) (A) (A)
                 (A) (A) (A) (A) (A) (A) (A) (A) (A) (A) (A) (A)
                 (A) (A) (A) (A) (A) (A) (A) (A) (A) (A) (A) (A)
                 (A) (A) (A) (A) (A) (A) (A) (A) (A) (A) (A) (A)
                 (A) (A) (A) (A) (A) (A) (A) (A) (A) (A) (A) (A)
                 (A) (A) (A) (A) (A) (A) (A) (A) (A) (A) (A) (A)
                 (A) (A) (A) (A) (A) (A) (A) (A) (A) (A) (A) (A)
                 (A) (A) (A) (A) (A) (A) (A) (A) (A) (A) (A) (A)
[...]
 Alpha virt. eigenvalues --    1.32106   1.32702   1.32936   1.33079   1.33141
 Alpha virt. eigenvalues --    1.33620   1.34253   1.34366   1.35032   1.35486
 Alpha virt. eigenvalues --    1.36253   1.36644   1.36804   1.37335   1.37501
 Alpha virt. eigenvalues --    1.37780   1.38445   1.38841   1.39560   1.39944
 Alpha virt. eigenvalues --    1.40144   1.40331   1.40799   1.41212   1.41486
 Alpha virt. eigenvalues --    1.41729   1.42718   1.42830   1.43142   1.43356
 Alpha virt. eigenvalues --    1.44071   1.44475   1.45802   1.46128   1.46420
 Alpha virt. eigenvalues --    1.46749   1.46808   1.47392   1.47868   1.48552
 Alpha virt. eigenvalues --    1.49301   1.50098   1.50302   1.50549   1.50715
 Alpha virt. eigenvalues --    1.51047   1.51165   1.51502   1.51689   1.51961
 Alpha virt. eigenvalues --    1.52033   1.52466   1.52814   1.53398   1.53610
 Alpha virt. eigenvalues --    1.53736   1.54096   1.54228   1.54747   1.54891
 Alpha virt. eigenvalues --    1.55159   1.55259   1.55851   1.55930   1.56462
 Alpha virt. eigenvalues --    1.56579   1.56698   1.57107   1.57301   1.57591
 Alpha virt. eigenvalues --    1.57699   1.57966   1.58148   1.58382   1.59312
 Alpha virt. eigenvalues --    1.59699   1.59801   1.60124   1.60471   1.60827
 Alpha virt. eigenvalues --    1.61400   1.61725   1.62035   1.62370   1.62680
 Alpha virt. eigenvalues --    1.63444   1.63763   1.64134   1.64245   1.65272
 Alpha virt. eigenvalues --    1.65501   1.66059   1.66572   1.66680   1.67061
 Alpha virt. eigenvalues --    1.67579   1.67970   1.68736   1.69196   1.69623
 Alpha virt. eigenvalues --    1.69838   1.70471   1.70731   1.70888   1.71215
 Alpha virt. eigenvalues --    1.71818   1.71893   1.72079   1.72338   1.72462
 Alpha virt. eigenvalues --    1.72559   1.72761   1.73478   1.73487   1.73930
 Alpha virt. eigenvalues --    1.74129   1.74507   1.74860   1.75026   1.75331
 Alpha virt. eigenvalues --    1.75613   1.75883   1.76397   1.76684   1.76746
 Alpha virt. eigenvalues --    1.76905   1.77359   1.77489   1.77526   1.77629
 Alpha virt. eigenvalues --    1.77797   1.77899   1.77971   1.78319   1.78393
 Alpha virt. eigenvalues --    1.78568   1.78678   1.78717   1.78983   1.79357
 Alpha virt. eigenvalues --    1.79448   1.79754   1.79864   1.80049   1.80123
 Alpha virt. eigenvalues --    1.80224   1.80415   1.80614   1.81021   1.81144
 Alpha virt. eigenvalues --    1.81405   1.81649   1.81757   1.81968   1.82154
 Alpha virt. eigenvalues --    1.82418   1.82666   1.82797   1.83159   1.83341
 Alpha virt. eigenvalues --    1.83575   1.83596   1.83751   1.84051   1.84351
 Alpha virt. eigenvalues --    1.84790   1.84958   1.85000   1.85073   1.85260
 Alpha virt. eigenvalues --    1.85525   1.85798   1.85832   1.85905   1.86138
 Alpha virt. eigenvalues --    1.86363   1.86635   1.86826   1.86903   1.87000
 Alpha virt. eigenvalues --    1.87227   1.87375   1.87851   1.88057   1.88355
 Alpha virt. eigenvalues --    1.88411   1.88512   1.88954   1.89239   1.89879
 Alpha virt. eigenvalues --    1.90072   1.90406   1.90558   1.90727   1.91223
 Alpha virt. eigenvalues --    1.91584   1.91725   1.91969   1.92148   1.92594
 Alpha virt. eigenvalues --    1.92736   1.93011   1.93307   1.93386   1.93575
 Alpha virt. eigenvalues --    1.93677   1.93963   1.94419   1.94932   1.95411
 Alpha virt. eigenvalues --    1.95918   1.95979   1.96399   1.96715   1.96786
 Alpha virt. eigenvalues --    1.96876   1.97135   1.97342   1.97568   1.98374
 Alpha virt. eigenvalues --    1.98476   1.98711   1.98941   1.99059   1.99318
 Alpha virt. eigenvalues --    1.99598   2.00442   2.00667   2.01150   2.01201
 Alpha virt. eigenvalues --    2.01462   2.02125   2.02338   2.02772   2.03051
 Alpha virt. eigenvalues --    2.03403   2.03671   2.03975   2.04083   2.04209
 Alpha virt. eigenvalues --    2.04345   2.04542   2.04907   2.05414   2.05918
 Alpha virt. eigenvalues --    2.06086   2.06436   2.06611   2.07084   2.07477
 Alpha virt. eigenvalues --    2.07777   2.07832   2.07852   2.08388   2.08592
 Alpha virt. eigenvalues --    2.09016   2.09273   2.09671   2.09911   2.10190
 Alpha virt. eigenvalues --    2.10388   2.10812   2.11006   2.11305   2.11606
 Alpha virt. eigenvalues --    2.11705   2.11967   2.12166   2.12745   2.12849
 Alpha virt. eigenvalues --    2.12915   2.13427   2.13807   2.14631   2.14699
 Alpha virt. eigenvalues --    2.15062   2.15339   2.15854   2.16449   2.16833
 Alpha virt. eigenvalues --    2.17021   2.17764   2.17978   2.18614   2.18872
 Alpha virt. eigenvalues --    2.19069   2.19737   2.19906   2.20738   2.21170
 Alpha virt. eigenvalues --    2.21222   2.21302   2.22283   2.22437   2.22878
 Alpha virt. eigenvalues --    2.23524   2.23716   2.24344   2.24841   2.25264
 Alpha virt. eigenvalues --    2.25497   2.25954   2.26296   2.26453   2.27003
 Alpha virt. eigenvalues --    2.27090   2.27790   2.28113   2.28445   2.28527
 Alpha virt. eigenvalues --    2.28944   2.29353   2.29484   2.30532   2.30957
 Alpha virt. eigenvalues --    2.31032   2.31120   2.31541   2.31872   2.32210
 Alpha virt. eigenvalues --    2.32422   2.32746   2.32897   2.33040   2.33193
 Alpha virt. eigenvalues --    2.33859   2.34297   2.34529   2.36058   2.36836
 Alpha virt. eigenvalues --    2.37216   2.37546   2.37560   2.38146   2.38575
 Alpha virt. eigenvalues --    2.38863   2.39053   2.39429   2.39712   2.39981
 Alpha virt. eigenvalues --    2.40137   2.40344   2.41009   2.41102   2.41537
 Alpha virt. eigenvalues --    2.41854   2.41993   2.43056   2.43421   2.43745
 Alpha virt. eigenvalues --    2.43912   2.44145   2.44764   2.44846   2.45986
 Alpha virt. eigenvalues --    2.46329   2.46649   2.46769   2.46983   2.47408
 Alpha virt. eigenvalues --    2.47784   2.48019   2.48503   2.48775   2.48876
 Alpha virt. eigenvalues --    2.49224   2.49712   2.50279   2.50494   2.50993
 Alpha virt. eigenvalues --    2.51391   2.51571   2.52100   2.52581   2.52907
 Alpha virt. eigenvalues --    2.53419   2.53856   2.54164   2.54574   2.55506
 Alpha virt. eigenvalues --    2.55559   2.56243   2.56290   2.56586   2.56997
 Alpha virt. eigenvalues --    2.57546   2.57648   2.58312   2.58838   2.59103
 Alpha virt. eigenvalues --    2.59203   2.59803   2.60643   2.61305   2.61383
 Alpha virt. eigenvalues --    2.61510   2.62337   2.63260   2.64070   2.64340
 Alpha virt. eigenvalues --    2.64521   2.64637   2.64956   2.65135   2.65897
 Alpha virt. eigenvalues --    2.66035   2.66146   2.66611   2.67249   2.67984
 Alpha virt. eigenvalues --    2.68074   2.68167   2.68293   2.69680   2.69744
 Alpha virt. eigenvalues --    2.70238   2.70611   2.70834   2.71327   2.71379
 Alpha virt. eigenvalues --    2.71517   2.72138   2.72238   2.72730   2.72897
 Alpha virt. eigenvalues --    2.73311   2.74321   2.74484   2.74750   2.75166
 Alpha virt. eigenvalues --    2.75458   2.75473   2.76132   2.76912   2.77563
 Alpha virt. eigenvalues --    2.77823   2.77939   2.78958   2.80695   2.80938
 Alpha virt. eigenvalues --    2.81496   2.81601   2.82233   2.82700   2.83078
 Alpha virt. eigenvalues --    2.83338   2.84224   2.85122   2.85728   2.86028
 Alpha virt. eigenvalues --    2.86373   2.86927   2.87225   2.88009   2.88692
 Alpha virt. eigenvalues --    2.89134   2.89197   2.89300   2.89414   2.90301
 Alpha virt. eigenvalues --    2.91064   2.91368   2.91785   2.92669   2.93131
 Alpha virt. eigenvalues --    2.93141   2.93538   2.94015   2.94369   2.94703
 Alpha virt. eigenvalues --    2.95238   2.95527   2.95698   2.95718   2.96117
 Alpha virt. eigenvalues --    2.96273   2.96608   2.96773   2.97157   2.97475
 Alpha virt. eigenvalues --    2.97530   2.97937   2.98124   2.98358   2.98528
 Alpha virt. eigenvalues --    2.98569   2.98998   2.99509   2.99717   3.00281
 Alpha virt. eigenvalues --    3.00549   3.00569   3.00931   3.01003   3.01137
 Alpha virt. eigenvalues --    3.01422   3.02067   3.02199   3.02422   3.02558
 Alpha virt. eigenvalues --    3.02883   3.03100   3.03712   3.04472   3.04837
 Alpha virt. eigenvalues --    3.05873   3.06290   3.06360   3.06470   3.07064
 Alpha virt. eigenvalues --    3.07291   3.07419   3.07665   3.08365   3.08857
 Alpha virt. eigenvalues --    3.09541   3.10023   3.10414   3.12007   3.12264
 Alpha virt. eigenvalues --    3.13655   3.13838   3.14193   3.14347   3.14884
 Alpha virt. eigenvalues --    3.15858   3.15985   3.16533   3.18138   3.18177
 Alpha virt. eigenvalues --    3.18497   3.18560   3.19891   3.21694   3.23079
 Alpha virt. eigenvalues --    3.24004   3.26284   3.38061   3.39288   3.39615
 Alpha virt. eigenvalues --    3.41807   3.44029   3.44768   3.47819   3.49313
 Alpha virt. eigenvalues --    3.53614   3.60630   3.60898   3.63526   3.63750
 Alpha virt. eigenvalues --    3.67571   3.68198
          Condensed to atoms (all electrons):
 Mulliken charges:
               1
     1  Mg   0.964417
     2  C   -0.029511
     3  C   -0.072072
     4  C   -0.078733
     5  C   -0.062656
     6  N   -0.377153
     7  C    0.041013
     8  C   -0.042875
     9  C   -0.161006
    10  C    0.065282
    11  C    0.012319
    12  C   -0.006767
    13  C   -0.026105
    14  C    0.215845
    15  O   -0.250339
    16  O   -0.329918
    17  N   -0.523566
    18  C    0.167428
    19  C   -0.157293
    20  C   -0.059240
    21  C    0.190975
    22  C    0.063190
    23  C    0.035283
    24  O   -0.239634
    25  C   -0.016746
    26  N   -0.397012
    27  C    0.063698
    28  C   -0.117754
    29  C   -0.063481
    30  C    0.046587
    31  C   -0.003524
    32  C   -0.057669
    33  C   -0.054654
    34  N   -0.426549
    35  C    0.110101
    36  C   -0.138875
    37  C   -0.029275
    38  C    0.164730
    39  C    0.062654
    40  C    0.101419
    41  O   -0.247587
    42  C   -0.116682
    43  C    0.310695
    44  O   -0.287584
    45  O   -0.346518
    46  C    0.128119
    47  C    0.212028
    48  C   -0.156004
    49  C   -0.141636
    50  C   -0.008825
    51  C   -0.000334
    52  C   -0.011244
    53  C   -0.018415
    54  C   -0.192285
    55  C   -0.035060
    56  C    0.012216
    57  C   -0.067723
    58  C    0.022681
    59  C   -0.237448
    60  C   -0.021468
    61  C    0.038390
    62  C   -0.043980
    63  C    0.017600
    64  C   -0.236489
    65  C   -0.023541
    66  C   -0.017402
    67  H    0.017665
    68  H   -0.015643
    69  H   -0.002343
    70  H    0.039655
    71  H    0.062606
    72  H    0.047037
    73  H    0.049142
    74  H    0.042950
    75  H    0.045307
    76  H    0.042118
    77  H    0.077551
    78  H    0.082623
    79  H    0.035741
    80  H    0.055032
    81  H    0.057977
    82  H    0.063407
    83  H    0.056479
    84  H    0.073835
    85  H    0.054598
    86  H    0.048899
    87  H    0.054838
    88  H    0.045874
    89  H    0.045378
    90  H    0.048043
    91  H    0.034795
    92  H    0.056010
    93  H    0.043421
    94  H    0.041361
    95  H    0.080270
    96  H    0.044782
    97  H    0.062534
    98  H    0.073560
    99  H    0.053489
   100  H    0.052255
   101  H    0.053476
   102  H    0.043311
   103  H    0.046625
   104  H    0.034564
   105  H    0.070693
   106  H    0.024151
   107  H    0.042994
   108  H    0.024663
   109  H    0.025049
   110  H    0.033232
   111  H    0.036434
   112  H    0.023603
   113  H    0.022053
   114  H    0.039296
   115  H    0.025574
   116  H    0.029522
   117  H    0.042871
   118  H    0.002564
   119  H    0.007966
   120  H    0.032010
   121  H    0.040964
   122  H    0.017497
   123  H    0.033773
   124  H    0.039665
   125  H    0.030120
   126  H    0.027172
   127  H    0.037767
   128  H    0.028387
   129  H    0.014869
   130  H    0.016932
   131  H    0.014577
   132  H    0.012190
   133  H    0.001715
   134  H    0.033815
   135  H    0.033036
   136  H    0.031472
   137  H    0.043197
   138  H    0.036744
   139  H    0.028597
   140  H    0.031572
 Sum of Mulliken charges =  -0.00000
 Mulliken charges with hydrogens summed into heavy atoms:
               1
     1  Mg   0.964417
     2  C   -0.029511
     3  C   -0.054408
     4  C   -0.094376
     5  C   -0.064999
     6  N   -0.377153
     7  C    0.041013
     8  C   -0.003221
     9  C   -0.098399
    10  C    0.065282
    11  C    0.151448
    12  C    0.080657
    13  C    0.134069
    14  C    0.215845
    15  O   -0.250339
    16  O   -0.329918
    17  N   -0.523566
    18  C    0.167428
    19  C   -0.157293
    20  C   -0.059240
    21  C    0.190975
    22  C    0.211939
    23  C    0.035283
    24  O   -0.239634
    25  C    0.176976
    26  N   -0.397012
    27  C    0.063698
    28  C   -0.063157
    29  C   -0.014582
    30  C    0.046587
    31  C    0.142566
    32  C    0.025169
    33  C    0.086138
    34  N   -0.426549
    35  C    0.110101
    36  C   -0.138875
    37  C   -0.029275
    38  C    0.164730
    39  C    0.250239
    40  C    0.101419
    41  O   -0.247587
    42  C   -0.043121
    43  C    0.310695
    44  O   -0.287584
    45  O   -0.346518
    46  C    0.287339
    47  C    0.301964
    48  C   -0.121439
    49  C   -0.141636
    50  C    0.129013
    51  C    0.049378
    52  C    0.058423
    53  C    0.027241
    54  C   -0.152989
    55  C    0.062906
    56  C    0.022747
    57  C    0.005252
    58  C    0.073951
    59  C   -0.197783
    60  C    0.073591
    61  C    0.081646
    62  C   -0.012470
    63  C    0.031505
    64  C   -0.202673
    65  C    0.084164
    66  C    0.079512
 Electronic spatial extent (au):  <R**2>=         113215.8561
 Charge=             -0.0000 electrons
 Dipole moment (field-independent basis, Debye):
    X=             -1.1968    Y=              2.5560    Z=             -0.4311  Tot=              2.8551
 Quadrupole moment (field-independent basis, Debye-Ang):
   XX=           -401.8594   YY=           -390.3712   ZZ=           -397.0183
   XY=            -45.8028   XZ=             -8.9628   YZ=            -29.0588
 Traceless Quadrupole moment (field-independent basis, Debye-Ang):
   XX=             -5.4431   YY=              6.0451   ZZ=             -0.6020
   XY=            -45.8028   XZ=             -8.9628   YZ=            -29.0588
 Octapole moment (field-independent basis, Debye-Ang**2):
  XXX=            -70.7156  YYY=           -117.0443  ZZZ=            -18.9296  XYY=            -67.1047
  XXY=            312.2894  XXZ=            -27.6150  XZZ=            -83.9671  YZZ=            -40.6018
  YYZ=           -105.4219  XYZ=             94.6930
 Hexadecapole moment (field-independent basis, Debye-Ang**3):
 XXXX=        -122250.5085 YYYY=         -25737.6523 ZZZZ=          -8433.8121 XXXY=          -2518.6846
 XXXZ=            162.1912 YYYX=           -706.0305 YYYZ=           -374.1688 ZZZX=            188.2112
 ZZZY=           -151.8215 XXYY=         -25024.6281 XXZZ=         -21201.8981 YYZZ=          -6254.5248
 XXYZ=           -984.6472 YYXZ=           -160.4851 ZZXY=            -13.6592
 N-N= 9.602803184262D+03 E-N=-2.619621905902D+04  KE= 2.974254901268D+03
 Leave Link  601 at Fri Apr 29 16:23:04 2022, MaxMem= 10066329600 cpu:               9.7 elap:               0.5
 (Enter /sw/apps/gaussian-16.0/g16/l9999.exe)
 1\1\GINC-BP1-COMPUTE161\SP\RPBE1PBE TD-FC\def2SVP\C55H74Mg1N4O6\OF1564
 1\29-Apr-2022\0\\#p PBE1PBE/Def2SVP td=(nstates=5)\\step_401_chromopho
 re_11 TDDFT with PBE1PBE functional\\0,1\Mg,0,52.748,23.903,44.762\C,0
 ,49.778,25.858,44.012\C,0,51.119,21.105,43.86\C,0,55.674,22.368,44.766
 \C,0,54.239,26.93,45.569\N,0,50.643,23.625,43.839\C,0,49.584,24.476,43
 .735\C,0,48.238,23.672,43.472\C,0,48.67,22.195,43.642\C,0,50.224,22.25
 8,43.865\C,0,47.999,21.407,44.798\C,0,47.665,24.,42.107\C,0,48.696,23.
 815,40.879\C,0,48.037,23.257,39.542\O,0,47.371,22.252,39.494\O,0,48.36
 2,24.,38.437\N,0,53.368,22.01,44.279\C,0,52.573,20.984,43.895\C,0,53.3
 22,19.768,43.72\C,0,54.743,20.138,43.889\C,0,54.702,21.538,44.342\C,0,
 52.629,18.522,43.286\C,0,55.95,19.187,43.709\O,0,55.734,18.,43.508\C,0
 ,57.377,19.589,43.794\N,0,54.739,24.588,45.151\C,0,55.801,23.752,45.04
 5\C,0,57.096,24.526,45.131\C,0,56.684,26.009,45.507\C,0,55.13,25.889,4
 5.373\C,0,58.179,23.859,46.087\C,0,57.225,27.173,44.58\C,0,58.255,28.2
 04,45.131\N,0,52.16,25.937,44.965\C,0,52.85,27.028,45.386\C,0,52.048,2
 8.262,45.487\C,0,50.803,27.792,44.939\C,0,50.949,26.373,44.595\C,0,52.
 423,29.595,45.913\C,0,49.517,28.232,44.579\O,0,48.954,29.346,44.622\C,
 0,48.754,26.968,43.997\C,0,48.352,27.331,42.583\O,0,49.131,27.31,41.59
 5\O,0,47.014,27.688,42.508\C,0,46.522,27.884,41.189\C,0,47.701,23.618,
 37.257\C,0,48.788,22.692,36.643\C,0,48.629,21.365,36.41\C,0,47.189,20.
 684,36.502\C,0,49.844,20.596,35.929\C,0,50.108,20.077,34.487\C,0,51.62
 5,19.982,34.235\C,0,52.323,18.668,34.725\C,0,53.511,18.934,35.722\C,0,
 52.822,17.846,33.553\C,0,51.834,16.653,33.176\C,0,52.46,15.28,33.161\C
 ,0,52.02,14.52,31.867\C,0,51.25,13.222,32.264\C,0,53.23,14.172,30.978\
 C,0,53.128,14.736,29.621\C,0,52.506,13.846,28.616\C,0,53.455,13.134,27
 .641\C,0,53.235,13.504,26.124\C,0,53.509,11.58,27.815\H,0,50.592,20.14
 9,43.893\H,0,56.68,21.959,44.651\H,0,54.713,27.89,45.787\H,0,47.527,23
 .888,44.27\H,0,48.398,21.642,42.743\H,0,48.661,20.623,45.165\H,0,47.12
 1,20.928,44.365\H,0,47.759,22.099,45.605\H,0,47.009,24.869,42.066\H,0,
 46.87,23.261,42.013\H,0,49.431,23.045,41.11\H,0,49.217,24.758,40.709\H
 ,0,51.555,18.609,43.123\H,0,52.8,17.709,43.992\H,0,53.078,18.126,42.37
 6\H,0,57.594,20.284,42.983\H,0,57.942,18.673,43.621\H,0,57.67,20.002,4
 4.759\H,0,57.569,24.642,44.156\H,0,56.918,26.091,46.568\H,0,57.858,22.
 884,46.453\H,0,58.464,24.471,46.943\H,0,59.014,23.779,45.391\H,0,56.39
 2,27.78,44.222\H,0,57.658,26.757,43.67\H,0,58.877,27.72,45.885\H,0,57.
 749,29.112,45.459\H,0,58.711,28.538,44.199\H,0,52.793,30.319,45.187\H,
 0,53.069,29.417,46.772\H,0,51.496,29.991,46.328\H,0,47.891,26.726,44.6
 17\H,0,46.799,27.176,40.408\H,0,46.917,28.831,40.822\H,0,45.437,27.955
 ,41.262\H,0,47.547,24.49,36.622\H,0,46.726,23.161,37.43\H,0,49.72,23.2
 37,36.493\H,0,46.501,21.052,37.264\H,0,47.218,19.598,36.585\H,0,46.721
 ,20.767,35.522\H,0,49.86,19.71,36.564\H,0,50.73,21.072,36.349\H,0,49.7
 43,20.745,33.707\H,0,49.714,19.073,34.33\H,0,52.076,20.857,34.704\H,0,
 51.824,20.039,33.165\H,0,51.591,18.244,35.412\H,0,53.117,19.207,36.701
 \H,0,54.028,19.836,35.392\H,0,54.211,18.115,35.886\H,0,53.847,17.476,3
 3.53\H,0,53.022,18.408,32.641\H,0,51.629,16.828,32.12\H,0,50.978,16.68
 2,33.85\H,0,51.952,14.779,33.985\H,0,53.522,15.342,33.4\H,0,51.292,15.
 102,31.302\H,0,51.342,12.433,31.517\H,0,50.18,13.418,32.333\H,0,51.582
 ,12.881,33.245\H,0,53.342,13.09,30.917\H,0,54.098,14.673,31.408\H,0,54
 .126,15.066,29.333\H,0,52.623,15.701,29.649\H,0,51.621,14.261,28.134\H
 ,0,51.959,13.04,29.105\H,0,54.469,13.453,27.881\H,0,54.183,13.556,25.5
 86\H,0,52.887,14.536,26.078\H,0,52.561,12.796,25.643\H,0,54.545,11.251
 ,27.883\H,0,53.091,11.041,26.964\H,0,52.942,11.322,28.709\\Version=ES6
 4L-G16RevA.03\State=1-A\HF=-3005.3312678\RMSD=3.835e-09\PG=C01 [X(C55H
 74Mg1N4O6)]\\@


 THE ENLIGHTENED ONE, BECAUSE HE SAW MANKIND DROWNING  
 IN THE GREAT SEA OF BIRTH, DEATH, AND SORROW, LONGED TO SAVE 
 THEM, FOR THIS HE WAS MOVED TO PITY.                         
 BECAUSE HE SAW MEN OF THE WORLD STRAYING IN FALSE PATHS, AND 
 NONE TO GUIDE THEM, FOR THIS HE WAS MOVED TO PITY.           
                     ..................                       
 BECAUSE HE SAW THE MEN OF THE WORLD PLOUGHING THEIR FIELDS,  
 SOWING THE SEED, TRAFFICKING, HUCKSTERING, BUYING, SELLING,  
 AND AT THE END WINNOWING NOTHING BUT BITTERNESS,             
 FOR THIS HE WAS MOVED TO PITY......                   
                   BUDAH'S PITY - UPSAKA SILA SUTRA           
 Job cpu time:       0 days  6 hours 53 minutes  8.1 seconds.
 Elapsed time:       0 days  0 hours 17 minutes 16.8 seconds.
 File lengths (MBytes):  RWF=   8929 Int=      0 D2E=      0 Chk=    390 Scr=      1
 Normal termination of Gaussian 16 at Fri Apr 29 16:23:05 2022.
