 Entering Gaussian System, Link 0=g16
 Initial command:
 /sw/apps/gaussian-16.0/g16/l1.exe "/tmp/Gau-53112.inp" -scrdir="/tmp/"
 Entering Link 1 = /sw/apps/gaussian-16.0/g16/l1.exe PID=     53113.
  
 Copyright (c) 1988,1990,1992,1993,1995,1998,2003,2009,2016,
            Gaussian, Inc.  All Rights Reserved.
  
 This is part of the Gaussian(R) 16 program.  It is based on
 the Gaussian(R) 09 system (copyright 2009, Gaussian, Inc.),
 the Gaussian(R) 03 system (copyright 2003, Gaussian, Inc.),
 the Gaussian(R) 98 system (copyright 1998, Gaussian, Inc.),
 the Gaussian(R) 94 system (copyright 1995, Gaussian, Inc.),
 the Gaussian 92(TM) system (copyright 1992, Gaussian, Inc.),
 the Gaussian 90(TM) system (copyright 1990, Gaussian, Inc.),
 the Gaussian 88(TM) system (copyright 1988, Gaussian, Inc.),
 the Gaussian 86(TM) system (copyright 1986, Carnegie Mellon
 University), and the Gaussian 82(TM) system (copyright 1983,
 Carnegie Mellon University). Gaussian is a federally registered
 trademark of Gaussian, Inc.
  
 This software contains proprietary and confidential information,
 including trade secrets, belonging to Gaussian, Inc.
  
 This software is provided under written license and may be
 used, copied, transmitted, or stored only in accord with that
 written license.
  
 The following legend is applicable only to US Government
 contracts under FAR:
  
                    RESTRICTED RIGHTS LEGEND
  
 Use, reproduction and disclosure by the US Government is
 subject to restrictions as set forth in subparagraphs (a)
 and (c) of the Commercial Computer Software - Restricted
 Rights clause in FAR 52.227-19.
  
 Gaussian, Inc.
 340 Quinnipiac St., Bldg. 40, Wallingford CT 06492
  
  
 ---------------------------------------------------------------
 Warning -- This program may not be used in any manner that
 competes with the business of Gaussian, Inc. or will provide
 assistance to any competitor of Gaussian, Inc.  The licensee
 of this program is prohibited from giving any competitor of
 Gaussian, Inc. access to this program.  By using this program,
 the user acknowledges that Gaussian, Inc. is engaged in the
 business of creating and licensing software in the field of
 computational chemistry and represents and warrants to the
 licensee that it is not a competitor of Gaussian, Inc. and that
 it will not use this program in any manner prohibited above.
 ---------------------------------------------------------------
  

 Cite this work as:
 Gaussian 16, Revision A.03,
 M. J. Frisch, G. W. Trucks, H. B. Schlegel, G. E. Scuseria, 
 M. A. Robb, J. R. Cheeseman, G. Scalmani, V. Barone, 
 G. A. Petersson, H. Nakatsuji, X. Li, M. Caricato, A. V. Marenich, 
 J. Bloino, B. G. Janesko, R. Gomperts, B. Mennucci, H. P. Hratchian, 
 J. V. Ortiz, A. F. Izmaylov, J. L. Sonnenberg, D. Williams-Young, 
 F. Ding, F. Lipparini, F. Egidi, J. Goings, B. Peng, A. Petrone, 
 T. Henderson, D. Ranasinghe, V. G. Zakrzewski, J. Gao, N. Rega, 
 G. Zheng, W. Liang, M. Hada, M. Ehara, K. Toyota, R. Fukuda, 
 J. Hasegawa, M. Ishida, T. Nakajima, Y. Honda, O. Kitao, H. Nakai, 
 T. Vreven, K. Throssell, J. A. Montgomery, Jr., J. E. Peralta, 
 F. Ogliaro, M. J. Bearpark, J. J. Heyd, E. N. Brothers, K. N. Kudin, 
 V. N. Staroverov, T. A. Keith, R. Kobayashi, J. Normand, 
 K. Raghavachari, A. P. Rendell, J. C. Burant, S. S. Iyengar, 
 J. Tomasi, M. Cossi, J. M. Millam, M. Klene, C. Adamo, R. Cammi, 
 J. W. Ochterski, R. L. Martin, K. Morokuma, O. Farkas, 
 J. B. Foresman, and D. J. Fox, Gaussian, Inc., Wallingford CT, 2016.
 
 ******************************************
 Gaussian 16:  ES64L-G16RevA.03 25-Dec-2016
                 3-May-2022 
 ******************************************
 %nproc=24
 Will use up to   24 processors via shared memory.
 %mem=75GB
 ---------------------------------
 #p PBE1PBE/Def2SVP td=(nstates=5)
 ---------------------------------
 1/38=1,172=1/1;
 2/12=2,17=6,18=5,40=1/2;
 3/5=43,7=101,11=9,25=1,30=1,74=-13/1,2,3,8;
 4//1;
 5/5=2,38=5/2;
 8/6=1,10=1,108=5/1;
 9/41=5,42=1,70=2/14;
 6/7=2,8=2,9=2,10=2/1;
 99/5=1,9=1/99;
 Leave Link    1 at Tue May  3 20:57:06 2022, MaxMem= 10066329600 cpu:               0.6 elap:               0.0
 (Enter /sw/apps/gaussian-16.0/g16/l101.exe)
 -----------------------------------------------------
 step_1051_chromophore_1 TDDFT with PBE1PBE functional
 -----------------------------------------------------
 Symbolic Z-matrix:
 Charge =  0 Multiplicity = 1
 Mg                   -2.122     17.921    26.572 
 C                    -2.533     15.93     29.433 
 C                    -3.13      20.557    28.322 
 C                    -2.26      19.595    23.679 
 C                    -1.536     14.998    24.698 
 N                    -2.824     18.208    28.654 
 C                    -2.881     17.286    29.697 
 C                    -3.181     17.997    31.014 
 C                    -3.635     19.444    30.526 
 C                    -3.085     19.434    29.118 
 C                    -5.255     19.604    30.497 
 C                    -1.894     18.14     32.037 
 C                    -2.067     17.633    33.516 
 C                    -0.728     17.556    34.317 
 O                     0.374     17.793    33.912 
 O                    -1.024     17.408    35.654 
 N                    -2.47      19.847    26.074 
 C                    -2.929     20.792    26.974 
 C                    -3.022     22.078    26.293 
 C                    -2.502     21.824    24.978 
 C                    -2.428     20.333    24.876 
 C                    -3.508     23.341    26.918 
 C                    -2.172     22.794    23.838 
 O                    -1.847     22.434    22.662 
 C                    -2.184     24.272    24.084 
 N                    -1.869     17.399    24.486 
 C                    -2.064     18.249    23.455 
 C                    -2.138     17.562    22.113 
 C                    -1.655     16.152    22.469 
 C                    -1.668     16.204    24.029 
 C                    -3.534     17.738    21.401 
 C                    -0.396     15.866    21.698 
 C                     0.895     16.116    22.49 
 N                    -2.005     15.889    26.911 
 C                    -1.72      14.764    26.059 
 C                    -1.694     13.551    26.816 
 C                    -2.017     14.       28.137 
 C                    -2.179     15.395    28.141 
 C                    -1.476     12.163    26.325 
 C                    -2.163     13.546    29.47 
 O                    -2.042     12.396    29.963 
 C                    -2.668     14.766    30.436 
 C                    -1.681     14.839    31.55 
 O                    -0.518     15.143    31.543 
 O                    -2.267     14.409    32.73 
 C                    -1.351     13.918    33.798 
 C                     0.04      17.388    36.59 
 C                    -0.297     18.279    37.827 
 C                    -0.137     18.01     39.153 
 C                     0.408     16.762    39.751 
 C                    -0.561     19.085    40.153 
 C                     0.514     19.985    40.739 
 C                     0.637     21.399    40.033 
 C                     1.225     22.567    40.907 
 C                     0.546     23.864    40.375 
 C                     2.755     22.524    40.83 
 C                     3.284     23.384    41.965 
 C                     3.757     22.476    43.074 
 C                     3.925     23.332    44.296 
 C                     5.404     23.052    44.838 
 C                     2.82      22.995    45.38 
 C                     1.458     23.678    45.108 
 C                     0.284     22.699    44.88 
 C                    -0.97      23.245    45.581 
 C                    -1.07      22.781    47.054 
 C                    -2.266     22.817    44.832 
 H                    -3.116     21.498    28.876 
 H                    -2.261     20.162    22.746 
 H                    -1.301     14.203    23.988 
 H                    -3.916     17.501    31.647 
 H                    -3.132     20.218    31.106 
 H                    -5.483     20.162    29.589 
 H                    -5.566     20.23     31.333 
 H                    -5.813     18.684    30.324 
 H                    -1.577     19.176    32.157 
 H                    -1.049     17.645    31.558 
 H                    -2.561     16.663    33.568 
 H                    -2.689     18.361    34.036 
 H                    -4.097     22.981    27.762 
 H                    -4.218     23.892    26.301 
 H                    -2.749     24.107    27.076 
 H                    -3.211     24.603    24.235 
 H                    -1.829     24.918    23.281 
 H                    -1.571     24.428    24.972 
 H                    -1.427     18.092    21.479 
 H                    -2.447     15.484    22.131 
 H                    -4.054     16.795    21.236 
 H                    -3.295     18.08     20.394 
 H                    -4.227     18.392    21.93 
 H                    -0.271     16.302    20.706 
 H                    -0.579     14.817    21.468 
 H                     0.642     16.544    23.46 
 H                     1.572     16.759    21.927 
 H                     1.422     15.177    22.659 
 H                    -2.445     11.709    26.116 
 H                    -0.874     11.685    27.098 
 H                    -0.892     12.272    25.411 
 H                    -3.689     14.575    30.766 
 H                    -1.381     14.691    34.566 
 H                    -0.337     13.659    33.492 
 H                    -1.718     13.037    34.323 
 H                     1.032     17.631    36.209 
 H                     0.007     16.352    36.928 
 H                    -0.83      19.22     37.692 
 H                    -0.452     16.344    40.275 
 H                     1.191     16.969    40.48 
 H                     0.568     16.116    38.888 
 H                    -0.917     18.452    40.966 
 H                    -1.392     19.671    39.762 
 H                     1.421     19.382    40.697 
 H                     0.361     20.091    41.813 
 H                    -0.306     21.59     39.52 
 H                     1.345     21.319    39.209 
 H                     0.841     22.418    41.916 
 H                    -0.44      23.891    40.84 
 H                     0.176     23.706    39.362 
 H                     1.295     24.656    40.358 
 H                     2.967     22.904    39.83 
 H                     3.041     21.475    40.897 
 H                     2.541     24.099    42.319 
 H                     4.141     23.924    41.562 
 H                     4.708     22.032    42.781 
 H                     2.939     21.757    43.125 
 H                     3.904     24.388    44.025 
 H                     5.589     22.078    45.291 
 H                     5.557     23.823    45.594 
 H                     6.077     23.255    44.005 
 H                     3.188     23.452    46.299 
 H                     2.726     21.931    45.596 
 H                     1.571     24.345    44.254 
 H                     1.24      24.391    45.903 
 H                     0.47      21.655    45.133 
 H                     0.186     22.68     43.795 
 H                    -0.816     24.323    45.529 
 H                    -2.073     22.858    47.474 
 H                    -0.507     23.571    47.553 
 H                    -0.679     21.786    47.263 
 H                    -3.004     22.248    45.397 
 H                    -2.034     22.154    43.999 
 H                    -2.592     23.813    44.532 
 
 ITRead=  0  0  0  0  0  0  0  0  0  0  0  0  0  0  0  0  0  0  0  0
 ITRead=  0  0  0  0  0  0  0  0  0  0  0  0  0  0  0  0  0  0  0  0
 ITRead=  0  0  0  0  0  0  0  0  0  0  0  0  0  0  0  0  0  0  0  0
 ITRead=  0  0  0  0  0  0  0  0  0  0  0  0  0  0  0  0  0  0  0  0
 ITRead=  0  0  0  0  0  0  0  0  0  0  0  0  0  0  0  0  0  0  0  0
 ITRead=  0  0  0  0  0  0  0  0  0  0  0  0  0  0  0  0  0  0  0  0
 ITRead=  0  0  0  0  0  0  0  0  0  0  0  0  0  0  0  0  0  0  0  0
 MicOpt= -1 -1 -1 -1 -1 -1 -1 -1 -1 -1 -1 -1 -1 -1 -1 -1 -1 -1 -1 -1
 MicOpt= -1 -1 -1 -1 -1 -1 -1 -1 -1 -1 -1 -1 -1 -1 -1 -1 -1 -1 -1 -1
 MicOpt= -1 -1 -1 -1 -1 -1 -1 -1 -1 -1 -1 -1 -1 -1 -1 -1 -1 -1 -1 -1
 MicOpt= -1 -1 -1 -1 -1 -1 -1 -1 -1 -1 -1 -1 -1 -1 -1 -1 -1 -1 -1 -1
 MicOpt= -1 -1 -1 -1 -1 -1 -1 -1 -1 -1 -1 -1 -1 -1 -1 -1 -1 -1 -1 -1
 MicOpt= -1 -1 -1 -1 -1 -1 -1 -1 -1 -1 -1 -1 -1 -1 -1 -1 -1 -1 -1 -1
 MicOpt= -1 -1 -1 -1 -1 -1 -1 -1 -1 -1 -1 -1 -1 -1 -1 -1 -1 -1 -1 -1
 NAtoms=    140 NQM=      140 NQMF=       0 NMMI=      0 NMMIF=      0
                NMic=       0 NMicF=      0.
                    Isotopes and Nuclear Properties:
 (Nuclear quadrupole moments (NQMom) in fm**2, nuclear magnetic moments (NMagM)
  in nuclear magnetons)

  Atom         1           2           3           4           5           6           7           8           9          10
 IAtWgt=          24          12          12          12          12          14          12          12          12          12
 AtmWgt=  23.9850450  12.0000000  12.0000000  12.0000000  12.0000000  14.0030740  12.0000000  12.0000000  12.0000000  12.0000000
 NucSpn=           0           0           0           0           0           2           0           0           0           0
 AtZEff=  -0.0000000  -0.0000000  -0.0000000  -0.0000000  -0.0000000  -0.0000000  -0.0000000  -0.0000000  -0.0000000  -0.0000000
 NQMom=    0.0000000   0.0000000   0.0000000   0.0000000   0.0000000   2.0440000   0.0000000   0.0000000   0.0000000   0.0000000
 NMagM=    0.0000000   0.0000000   0.0000000   0.0000000   0.0000000   0.4037610   0.0000000   0.0000000   0.0000000   0.0000000
 AtZNuc=  12.0000000   6.0000000   6.0000000   6.0000000   6.0000000   7.0000000   6.0000000   6.0000000   6.0000000   6.0000000

  Atom        11          12          13          14          15          16          17          18          19          20
 IAtWgt=          12          12          12          12          16          16          14          12          12          12
 AtmWgt=  12.0000000  12.0000000  12.0000000  12.0000000  15.9949146  15.9949146  14.0030740  12.0000000  12.0000000  12.0000000
 NucSpn=           0           0           0           0           0           0           2           0           0           0
 AtZEff=  -0.0000000  -0.0000000  -0.0000000  -0.0000000  -0.0000000  -0.0000000  -0.0000000  -0.0000000  -0.0000000  -0.0000000
 NQMom=    0.0000000   0.0000000   0.0000000   0.0000000   0.0000000   0.0000000   2.0440000   0.0000000   0.0000000   0.0000000
 NMagM=    0.0000000   0.0000000   0.0000000   0.0000000   0.0000000   0.0000000   0.4037610   0.0000000   0.0000000   0.0000000
 AtZNuc=   6.0000000   6.0000000   6.0000000   6.0000000   8.0000000   8.0000000   7.0000000   6.0000000   6.0000000   6.0000000

  Atom        21          22          23          24          25          26          27          28          29          30
 IAtWgt=          12          12          12          16          12          14          12          12          12          12
 AtmWgt=  12.0000000  12.0000000  12.0000000  15.9949146  12.0000000  14.0030740  12.0000000  12.0000000  12.0000000  12.0000000
 NucSpn=           0           0           0           0           0           2           0           0           0           0
 AtZEff=  -0.0000000  -0.0000000  -0.0000000  -0.0000000  -0.0000000  -0.0000000  -0.0000000  -0.0000000  -0.0000000  -0.0000000
 NQMom=    0.0000000   0.0000000   0.0000000   0.0000000   0.0000000   2.0440000   0.0000000   0.0000000   0.0000000   0.0000000
 NMagM=    0.0000000   0.0000000   0.0000000   0.0000000   0.0000000   0.4037610   0.0000000   0.0000000   0.0000000   0.0000000
 AtZNuc=   6.0000000   6.0000000   6.0000000   8.0000000   6.0000000   7.0000000   6.0000000   6.0000000   6.0000000   6.0000000

  Atom        31          32          33          34          35          36          37          38          39          40
 IAtWgt=          12          12          12          14          12          12          12          12          12          12
 AtmWgt=  12.0000000  12.0000000  12.0000000  14.0030740  12.0000000  12.0000000  12.0000000  12.0000000  12.0000000  12.0000000
 NucSpn=           0           0           0           2           0           0           0           0           0           0
 AtZEff=  -0.0000000  -0.0000000  -0.0000000  -0.0000000  -0.0000000  -0.0000000  -0.0000000  -0.0000000  -0.0000000  -0.0000000
 NQMom=    0.0000000   0.0000000   0.0000000   2.0440000   0.0000000   0.0000000   0.0000000   0.0000000   0.0000000   0.0000000
 NMagM=    0.0000000   0.0000000   0.0000000   0.4037610   0.0000000   0.0000000   0.0000000   0.0000000   0.0000000   0.0000000
 AtZNuc=   6.0000000   6.0000000   6.0000000   7.0000000   6.0000000   6.0000000   6.0000000   6.0000000   6.0000000   6.0000000

  Atom        41          42          43          44          45          46          47          48          49          50
 IAtWgt=          16          12          12          16          16          12          12          12          12          12
 AtmWgt=  15.9949146  12.0000000  12.0000000  15.9949146  15.9949146  12.0000000  12.0000000  12.0000000  12.0000000  12.0000000
 NucSpn=           0           0           0           0           0           0           0           0           0           0
 AtZEff=  -0.0000000  -0.0000000  -0.0000000  -0.0000000  -0.0000000  -0.0000000  -0.0000000  -0.0000000  -0.0000000  -0.0000000
 NQMom=    0.0000000   0.0000000   0.0000000   0.0000000   0.0000000   0.0000000   0.0000000   0.0000000   0.0000000   0.0000000
 NMagM=    0.0000000   0.0000000   0.0000000   0.0000000   0.0000000   0.0000000   0.0000000   0.0000000   0.0000000   0.0000000
 AtZNuc=   8.0000000   6.0000000   6.0000000   8.0000000   8.0000000   6.0000000   6.0000000   6.0000000   6.0000000   6.0000000

  Atom        51          52          53          54          55          56          57          58          59          60
 IAtWgt=          12          12          12          12          12          12          12          12          12          12
 AtmWgt=  12.0000000  12.0000000  12.0000000  12.0000000  12.0000000  12.0000000  12.0000000  12.0000000  12.0000000  12.0000000
 NucSpn=           0           0           0           0           0           0           0           0           0           0
 AtZEff=  -0.0000000  -0.0000000  -0.0000000  -0.0000000  -0.0000000  -0.0000000  -0.0000000  -0.0000000  -0.0000000  -0.0000000
 NQMom=    0.0000000   0.0000000   0.0000000   0.0000000   0.0000000   0.0000000   0.0000000   0.0000000   0.0000000   0.0000000
 NMagM=    0.0000000   0.0000000   0.0000000   0.0000000   0.0000000   0.0000000   0.0000000   0.0000000   0.0000000   0.0000000
 AtZNuc=   6.0000000   6.0000000   6.0000000   6.0000000   6.0000000   6.0000000   6.0000000   6.0000000   6.0000000   6.0000000

  Atom        61          62          63          64          65          66          67          68          69          70
 IAtWgt=          12          12          12          12          12          12           1           1           1           1
 AtmWgt=  12.0000000  12.0000000  12.0000000  12.0000000  12.0000000  12.0000000   1.0078250   1.0078250   1.0078250   1.0078250
 NucSpn=           0           0           0           0           0           0           1           1           1           1
 AtZEff=  -0.0000000  -0.0000000  -0.0000000  -0.0000000  -0.0000000  -0.0000000  -0.0000000  -0.0000000  -0.0000000  -0.0000000
 NQMom=    0.0000000   0.0000000   0.0000000   0.0000000   0.0000000   0.0000000   0.0000000   0.0000000   0.0000000   0.0000000
 NMagM=    0.0000000   0.0000000   0.0000000   0.0000000   0.0000000   0.0000000   2.7928460   2.7928460   2.7928460   2.7928460
 AtZNuc=   6.0000000   6.0000000   6.0000000   6.0000000   6.0000000   6.0000000   1.0000000   1.0000000   1.0000000   1.0000000

  Atom        71          72          73          74          75          76          77          78          79          80
 IAtWgt=           1           1           1           1           1           1           1           1           1           1
 AtmWgt=   1.0078250   1.0078250   1.0078250   1.0078250   1.0078250   1.0078250   1.0078250   1.0078250   1.0078250   1.0078250
 NucSpn=           1           1           1           1           1           1           1           1           1           1
 AtZEff=  -0.0000000  -0.0000000  -0.0000000  -0.0000000  -0.0000000  -0.0000000  -0.0000000  -0.0000000  -0.0000000  -0.0000000
 NQMom=    0.0000000   0.0000000   0.0000000   0.0000000   0.0000000   0.0000000   0.0000000   0.0000000   0.0000000   0.0000000
 NMagM=    2.7928460   2.7928460   2.7928460   2.7928460   2.7928460   2.7928460   2.7928460   2.7928460   2.7928460   2.7928460
 AtZNuc=   1.0000000   1.0000000   1.0000000   1.0000000   1.0000000   1.0000000   1.0000000   1.0000000   1.0000000   1.0000000

  Atom        81          82          83          84          85          86          87          88          89          90
 IAtWgt=           1           1           1           1           1           1           1           1           1           1
 AtmWgt=   1.0078250   1.0078250   1.0078250   1.0078250   1.0078250   1.0078250   1.0078250   1.0078250   1.0078250   1.0078250
 NucSpn=           1           1           1           1           1           1           1           1           1           1
 AtZEff=  -0.0000000  -0.0000000  -0.0000000  -0.0000000  -0.0000000  -0.0000000  -0.0000000  -0.0000000  -0.0000000  -0.0000000
 NQMom=    0.0000000   0.0000000   0.0000000   0.0000000   0.0000000   0.0000000   0.0000000   0.0000000   0.0000000   0.0000000
 NMagM=    2.7928460   2.7928460   2.7928460   2.7928460   2.7928460   2.7928460   2.7928460   2.7928460   2.7928460   2.7928460
 AtZNuc=   1.0000000   1.0000000   1.0000000   1.0000000   1.0000000   1.0000000   1.0000000   1.0000000   1.0000000   1.0000000

  Atom        91          92          93          94          95          96          97          98          99         100
 IAtWgt=           1           1           1           1           1           1           1           1           1           1
 AtmWgt=   1.0078250   1.0078250   1.0078250   1.0078250   1.0078250   1.0078250   1.0078250   1.0078250   1.0078250   1.0078250
 NucSpn=           1           1           1           1           1           1           1           1           1           1
 AtZEff=  -0.0000000  -0.0000000  -0.0000000  -0.0000000  -0.0000000  -0.0000000  -0.0000000  -0.0000000  -0.0000000  -0.0000000
 NQMom=    0.0000000   0.0000000   0.0000000   0.0000000   0.0000000   0.0000000   0.0000000   0.0000000   0.0000000   0.0000000
 NMagM=    2.7928460   2.7928460   2.7928460   2.7928460   2.7928460   2.7928460   2.7928460   2.7928460   2.7928460   2.7928460
 AtZNuc=   1.0000000   1.0000000   1.0000000   1.0000000   1.0000000   1.0000000   1.0000000   1.0000000   1.0000000   1.0000000

  Atom       101         102         103         104         105         106         107         108         109         110
 IAtWgt=           1           1           1           1           1           1           1           1           1           1
 AtmWgt=   1.0078250   1.0078250   1.0078250   1.0078250   1.0078250   1.0078250   1.0078250   1.0078250   1.0078250   1.0078250
 NucSpn=           1           1           1           1           1           1           1           1           1           1
 AtZEff=  -0.0000000  -0.0000000  -0.0000000  -0.0000000  -0.0000000  -0.0000000  -0.0000000  -0.0000000  -0.0000000  -0.0000000
 NQMom=    0.0000000   0.0000000   0.0000000   0.0000000   0.0000000   0.0000000   0.0000000   0.0000000   0.0000000   0.0000000
 NMagM=    2.7928460   2.7928460   2.7928460   2.7928460   2.7928460   2.7928460   2.7928460   2.7928460   2.7928460   2.7928460
 AtZNuc=   1.0000000   1.0000000   1.0000000   1.0000000   1.0000000   1.0000000   1.0000000   1.0000000   1.0000000   1.0000000

  Atom       111         112         113         114         115         116         117         118         119         120
 IAtWgt=           1           1           1           1           1           1           1           1           1           1
 AtmWgt=   1.0078250   1.0078250   1.0078250   1.0078250   1.0078250   1.0078250   1.0078250   1.0078250   1.0078250   1.0078250
 NucSpn=           1           1           1           1           1           1           1           1           1           1
 AtZEff=  -0.0000000  -0.0000000  -0.0000000  -0.0000000  -0.0000000  -0.0000000  -0.0000000  -0.0000000  -0.0000000  -0.0000000
 NQMom=    0.0000000   0.0000000   0.0000000   0.0000000   0.0000000   0.0000000   0.0000000   0.0000000   0.0000000   0.0000000
 NMagM=    2.7928460   2.7928460   2.7928460   2.7928460   2.7928460   2.7928460   2.7928460   2.7928460   2.7928460   2.7928460
 AtZNuc=   1.0000000   1.0000000   1.0000000   1.0000000   1.0000000   1.0000000   1.0000000   1.0000000   1.0000000   1.0000000

  Atom       121         122         123         124         125         126         127         128         129         130
 IAtWgt=           1           1           1           1           1           1           1           1           1           1
 AtmWgt=   1.0078250   1.0078250   1.0078250   1.0078250   1.0078250   1.0078250   1.0078250   1.0078250   1.0078250   1.0078250
 NucSpn=           1           1           1           1           1           1           1           1           1           1
 AtZEff=  -0.0000000  -0.0000000  -0.0000000  -0.0000000  -0.0000000  -0.0000000  -0.0000000  -0.0000000  -0.0000000  -0.0000000
 NQMom=    0.0000000   0.0000000   0.0000000   0.0000000   0.0000000   0.0000000   0.0000000   0.0000000   0.0000000   0.0000000
 NMagM=    2.7928460   2.7928460   2.7928460   2.7928460   2.7928460   2.7928460   2.7928460   2.7928460   2.7928460   2.7928460
 AtZNuc=   1.0000000   1.0000000   1.0000000   1.0000000   1.0000000   1.0000000   1.0000000   1.0000000   1.0000000   1.0000000

  Atom       131         132         133         134         135         136         137         138         139         140
 IAtWgt=           1           1           1           1           1           1           1           1           1           1
 AtmWgt=   1.0078250   1.0078250   1.0078250   1.0078250   1.0078250   1.0078250   1.0078250   1.0078250   1.0078250   1.0078250
 NucSpn=           1           1           1           1           1           1           1           1           1           1
 AtZEff=  -0.0000000  -0.0000000  -0.0000000  -0.0000000  -0.0000000  -0.0000000  -0.0000000  -0.0000000  -0.0000000  -0.0000000
 NQMom=    0.0000000   0.0000000   0.0000000   0.0000000   0.0000000   0.0000000   0.0000000   0.0000000   0.0000000   0.0000000
 NMagM=    2.7928460   2.7928460   2.7928460   2.7928460   2.7928460   2.7928460   2.7928460   2.7928460   2.7928460   2.7928460
 AtZNuc=   1.0000000   1.0000000   1.0000000   1.0000000   1.0000000   1.0000000   1.0000000   1.0000000   1.0000000   1.0000000
 Leave Link  101 at Tue May  3 20:57:06 2022, MaxMem= 10066329600 cpu:               2.7 elap:               0.1
 (Enter /sw/apps/gaussian-16.0/g16/l202.exe)
 Stoichiometry    C55H74MgN4O6
 Framework group  C1[X(C55H74MgN4O6)]
 Deg. of freedom   414
 Full point group                 C1      NOp   1
 Largest Abelian subgroup         C1      NOp   1
 Largest concise Abelian subgroup C1      NOp   1
                         Standard orientation:                         
 ---------------------------------------------------------------------
 Center     Atomic      Atomic             Coordinates (Angstroms)
 Number     Number       Type             X           Y           Z
 ---------------------------------------------------------------------
      1         12           0        5.964936    0.451704    0.004455
      2          6           0        3.758670   -2.139203   -0.854562
      3          6           0        3.859742    2.629133   -1.357169
      4          6           0        8.371624    2.751381    0.336281
      5          6           0        8.329308   -1.968754    0.979306
      6          7           0        4.029956    0.261972   -1.058441
      7          6           0        3.254543   -0.875028   -1.275576
      8          6           0        1.883050   -0.482575   -1.818715
      9          6           0        2.096240    1.045860   -2.214323
     10          6           0        3.349100    1.351909   -1.425819
     11          6           0        2.372370    1.236922   -3.807461
     12          6           0        0.644447   -0.602803   -0.734855
     13          6           0       -0.623498   -1.434859   -1.152485
     14          6           0       -1.608068   -1.718687    0.026717
     15          8           0       -1.469225   -1.414047    1.176723
     16          8           0       -2.801269   -2.166518   -0.495592
     17          7           0        6.058544    2.446517   -0.296449
     18          6           0        5.060133    3.165820   -0.928497
     19          6           0        5.431580    4.575865   -0.931130
     20          6           0        6.657006    4.623594   -0.182669
     21          6           0        7.085495    3.195502   -0.056536
     22          6           0        4.627741    5.668559   -1.549073
     23          6           0        7.466098    5.824873    0.319029
     24          8           0        8.617294    5.740812    0.853707
     25          6           0        6.891886    7.205928    0.228970
     26          7           0        8.037019    0.421725    0.631723
     27          6           0        8.861933    1.490380    0.600441
     28          6           0       10.317676    1.133683    0.779300
     29          6           0       10.217165   -0.328756    1.225723
     30          6           0        8.714591   -0.638612    0.938084
     31          6           0       11.204278    1.494247   -0.473963
     32          6           0       10.799243   -0.451026    2.606865
     33          6           0        9.756314   -0.413834    3.732636
     34          7           0        6.088616   -1.605364    0.108410
     35          6           0        7.113252   -2.507775    0.565062
     36          6           0        6.664036   -3.863192    0.486690
     37          6           0        5.353199   -3.726116   -0.073565
     38          6           0        5.056133   -2.367189   -0.266841
     39          6           0        7.415669   -5.103709    0.820329
     40          6           0        4.207991   -4.473341   -0.440274
     41          8           0        3.980153   -5.708123   -0.380339
     42          6           0        3.091090   -3.500977   -1.135703
     43          6           0        1.834379   -3.705017   -0.361404
     44          8           0        1.566153   -3.428301    0.777243
     45          8           0        0.907536   -4.385723   -1.134901
     46          6           0       -0.162561   -5.126498   -0.409018
     47          6           0       -3.879749   -2.421235    0.387919
     48          6           0       -5.209686   -1.834537   -0.181879
     49          6           0       -6.444754   -2.405610   -0.250584
     50          6           0       -6.825135   -3.767514    0.210568
     51          6           0       -7.575010   -1.583591   -0.868812
     52          6           0       -8.532693   -0.862659    0.065063
     53          6           0       -8.204884    0.673848    0.276364
     54          6           0       -9.414228    1.597524    0.674050
     55          6           0       -9.084711    2.994209    0.068274
     56          6           0       -9.600058    1.546376    2.194421
     57          6           0      -10.977738    2.111150    2.495577
     58          6           0      -11.912873    0.963114    2.788166
     59          6           0      -13.309314    1.510282    2.718857
     60          6           0      -14.023860    1.086385    4.086095
     61          6           0      -14.074343    0.951436    1.449182
     62          6           0      -13.731737    1.702852    0.140170
     63          6           0      -13.080993    0.824059   -0.952055
     64          6           0      -13.656935    1.215338   -2.322174
     65          6           0      -14.941912    0.425203   -2.667925
     66          6           0      -12.613218    0.995145   -3.456181
     67          1           0        3.110069    3.416155   -1.462905
     68          1           0        9.133868    3.518653    0.485470
     69          1           0        9.150743   -2.582102    1.354004
     70          1           0        1.521131   -1.098375   -2.641354
     71          1           0        1.274091    1.655753   -1.839373
     72          1           0        3.152741    1.993683   -3.885859
     73          1           0        1.482722    1.658092   -4.275045
     74          1           0        2.848394    0.391885   -4.304459
     75          1           0        0.234826    0.371598   -0.468511
     76          1           0        1.068204   -0.988547    0.192573
     77          1           0       -0.362529   -2.381687   -1.624768
     78          1           0       -1.179505   -0.835897   -1.873158
     79          1           0        4.006821    5.133681   -2.268253
     80          1           0        5.216130    6.359777   -2.152734
     81          1           0        4.166196    6.363697   -0.847960
     82          1           0        6.851892    7.511202   -0.816161
     83          1           0        7.448810    8.013681    0.703861
     84          1           0        5.898167    7.141506    0.672840
     85          1           0       10.676936    1.783214    1.577685
     86          1           0       10.834171   -0.886365    0.521373
     87          1           0       11.671259    0.624314   -0.934418
     88          1           0       12.046970    2.055505   -0.070240
     89          1           0       10.669230    2.020403   -1.264336
     90          1           0       11.625975    0.200223    2.893524
     91          1           0       11.293531   -1.415016    2.492007
     92          1           0        8.773889   -0.217276    3.303337
     93          1           0       10.027554    0.329804    4.482422
     94          1           0        9.718368   -1.375657    4.243976
     95          1           0        7.891035   -5.479837   -0.085933
     96          1           0        6.680174   -5.758069    1.288601
     97          1           0        8.162352   -4.796718    1.552828
     98          1           0        2.999146   -3.744967   -2.193926
     99          1           0       -1.070526   -4.551595   -0.591603
    100          1           0        0.011445   -5.325668    0.648794
    101          1           0       -0.397131   -6.098360   -0.841380
    102          1           0       -3.745887   -2.114357    1.425311
    103          1           0       -3.958432   -3.506559    0.320763
    104          1           0       -5.203682   -0.878524   -0.705135
    105          1           0       -7.078725   -4.280024   -0.717832
    106          1           0       -7.708398   -3.748579    0.848430
    107          1           0       -5.878445   -4.199220    0.534746
    108          1           0       -8.144327   -2.380991   -1.346750
    109          1           0       -7.189661   -0.908432   -1.632032
    110          1           0       -8.513138   -1.455592    0.979431
    111          1           0       -9.557982   -1.005142   -0.276409
    112          1           0       -7.591952    0.994964   -0.566309
    113          1           0       -7.522570    0.773985    1.119608
    114          1           0      -10.277817    1.226114    0.122682
    115          1           0       -9.362292    2.930445   -0.984357
    116          1           0       -8.013702    3.081278   -0.114462
    117          1           0       -9.383022    3.755276    0.789621
    118          1           0       -8.768074    2.143459    2.569440
    119          1           0       -9.472580    0.505406    2.489069
    120          1           0      -11.350581    2.737990    1.685237
    121          1           0      -10.867554    2.714413    3.396904
    122          1           0      -11.697543    0.582097    3.786086
    123          1           0      -11.651786    0.266419    1.991212
    124          1           0      -13.289852    2.600527    2.720639
    125          1           0      -14.265285    0.030919    4.211855
    126          1           0      -14.952107    1.658874    4.085773
    127          1           0      -13.392046    1.464510    4.889749
    128          1           0      -15.124011    1.176987    1.639335
    129          1           0      -14.019076   -0.131837    1.344052
    130          1           0      -13.088235    2.547113    0.385328
    131          1           0      -14.618594    2.216481   -0.230757
    132          1           0      -13.115054   -0.253277   -0.788571
    133          1           0      -12.021043    1.058164   -0.857758
    134          1           0      -13.882940    2.273250   -2.187087
    135          1           0      -15.184969    0.420781   -3.730583
    136          1           0      -15.700802    1.068323   -2.220096
    137          1           0      -14.981270   -0.597931   -2.296124
    138          1           0      -12.892698    0.324109   -4.268111
    139          1           0      -11.703995    0.538690   -3.065997
    140          1           0      -12.498453    2.039137   -3.748072
 ---------------------------------------------------------------------
 Rotational constants (GHZ):           0.0523989           0.0086133           0.0078787
 Leave Link  202 at Tue May  3 20:57:06 2022, MaxMem= 10066329600 cpu:               0.3 elap:               0.0
 (Enter /sw/apps/gaussian-16.0/g16/l301.exe)
 Standard basis: def2SVP (5D, 7F)
 Ernie: Thresh=  0.10000D-02 Tol=  0.10000D-05 Strict=F.
 There are  1364 symmetry adapted cartesian basis functions of A   symmetry.
 There are  1298 symmetry adapted basis functions of A   symmetry.
  1298 basis functions,  2180 primitive gaussians,  1364 cartesian basis functions
   246 alpha electrons      246 beta electrons
       nuclear repulsion energy      9472.5724970173 Hartrees.
 IExCor= 1009 DFT=T Ex+Corr=PBE1PBE ExCW=0 ScaHFX=  0.250000
 ScaDFX=  0.750000  0.750000  1.000000  1.000000 ScalE2=  1.000000  1.000000
 IRadAn=      5 IRanWt=     -1 IRanGd=            0 ICorTp=0 IEmpDi=  4
 NAtoms=  140 NActive=  140 NUniq=  140 SFac= 1.00D+00 NAtFMM=   60 NAOKFM=T Big=T
 Integral buffers will be    131072 words long.
 Regular integral format.
 Two-electron integral symmetry is turned on.
 Leave Link  301 at Tue May  3 20:57:06 2022, MaxMem= 10066329600 cpu:               1.3 elap:               0.1
 (Enter /sw/apps/gaussian-16.0/g16/l302.exe)
 NPDir=0 NMtPBC=     1 NCelOv=     1 NCel=       1 NClECP=     1 NCelD=      1
         NCelK=      1 NCelE2=     1 NClLst=     1 CellRange=     0.0.
 One-electron integrals computed using PRISM.
 One-electron integral symmetry used in STVInt
   1 Symmetry operations used in ECPInt.
 ECPInt:  NShTT=  192510 NPrTT=  683786 LenC2=   91253 LenP2D=  203056.
 LDataN:  DoStor=T MaxTD1= 4 Len=   56
 NBasis=  1298 RedAO= T EigKep=  3.22D-04  NBF=  1298
 NBsUse=  1298 1.00D-06 EigRej= -1.00D+00 NBFU=  1298
 Precomputing XC quadrature grid using
 IXCGrd= 4 IRadAn=           5 IRanWt=          -1 IRanGd=           0 AccXCQ= 0.00D+00.
 Generated NRdTot=       0 NPtTot=           0 NUsed=           0 NTot=          32
 NSgBfM=  1006   984   996  1002  1006 MxSgAt=   140 MxSgA2=   140.
 Leave Link  302 at Tue May  3 20:57:10 2022, MaxMem= 10066329600 cpu:              79.0 elap:               3.3
 (Enter /sw/apps/gaussian-16.0/g16/l303.exe)
 DipDrv:  MaxL=1.
 Leave Link  303 at Tue May  3 20:57:10 2022, MaxMem= 10066329600 cpu:               7.2 elap:               0.3
 (Enter /sw/apps/gaussian-16.0/g16/l308.exe)
 Leave Link  308 at Tue May  3 20:57:11 2022, MaxMem= 10066329600 cpu:               9.8 elap:               0.5
 (Enter /sw/apps/gaussian-16.0/g16/l401.exe)
 ExpMin= 3.36D-02 ExpMax= 4.95D+03 ExpMxC= 7.45D+02 IAcc=3 IRadAn=         5 AccDes= 0.00D+00
 Harris functional with IExCor= 1009 and IRadAn=       5 diagonalized for initial guess.
 HarFok:  IExCor= 1009 AccDes= 0.00D+00 IRadAn=         5 IDoV= 1 UseB2=F ITyADJ=14
 ICtDFT=  3500011 ScaDFX=  1.000000  1.000000  1.000000  1.000000
 FoFCou: FMM=F IPFlag=           0 FMFlag=      100000 FMFlg1=        2001
         NFxFlg=           0 DoJE=T BraDBF=F KetDBF=T FulRan=T
         wScrn=  0.000000 ICntrl=       500 IOpCl=  0 I1Cent=   200000004 NGrid=           0
         NMat0=    1 NMatS0=      1 NMatT0=    0 NMatD0=    1 NMtDS0=    0 NMtDT0=    0
 Petite list used in FoFCou.
 Harris En= -3006.14215275279    
 JPrj=0 DoOrth=F DoCkMO=F.
 Leave Link  401 at Tue May  3 20:57:16 2022, MaxMem= 10066329600 cpu:             135.9 elap:               5.7
 (Enter /sw/apps/gaussian-16.0/g16/l502.exe)
 Integral symmetry usage will be decided dynamically.
 Closed shell SCF:
 Using DIIS extrapolation, IDIIS=  1040.
 NGot= 10066329600 LenX= 10062561258 LenY= 10060699398
 Requested convergence on RMS density matrix=1.00D-08 within 128 cycles.
 Requested convergence on MAX density matrix=1.00D-06.
 Requested convergence on             energy=1.00D-06.
 No special actions if energy rises.
 Fock matrices will be formed incrementally for  20 cycles.

 Cycle   1  Pass 1  IDiag  1:
 FoFJK:  IHMeth= 1 ICntrl=       0 DoSepK=F KAlg= 0 I1Cent=           0 FoldK=F
 IRaf= 510000000 NMat=       1 IRICut=       1 DoRegI=T DoRafI=F ISym2E= 0 IDoP0=0 IntGTp=1.
 FoFCou: FMM=T IPFlag=           0 FMFlag=      100000 FMFlg1=        2001
         NFxFlg=           0 DoJE=F BraDBF=F KetDBF=F FulRan=T
         wScrn=  0.000000 ICntrl=         0 IOpCl=  0 I1Cent=           0 NGrid=           0
         NMat0=    1 NMatS0=      1 NMatT0=    0 NMatD0=    1 NMtDS0=    0 NMtDT0=    0
 Symmetry not used in FoFCou.
 FMM levels:  10  Number of levels for PrismC:   9
 E= -3003.80866198850    
 DIIS: error= 2.26D-02 at cycle   1 NSaved=   1.
 NSaved= 1 IEnMin= 1 EnMin= -3003.80866198850     IErMin= 1 ErrMin= 2.26D-02
 ErrMax= 2.26D-02  0.00D+00 EMaxC= 1.00D-01 BMatC= 1.46D+00 BMatP= 1.46D+00
 IDIUse=3 WtCom= 7.74D-01 WtEn= 2.26D-01
 Coeff-Com:  0.100D+01
 Coeff-En:   0.100D+01
 Coeff:      0.100D+01
 Gap=     0.074 Goal=   None    Shift=    0.000
 GapD=    0.074 DampG=0.500 DampE=0.500 DampFc=0.2500 IDamp=-1.
 Damping current iteration by 2.50D-01
 RMSDP=2.84D-03 MaxDP=8.25D-01              OVMax= 3.21D-01

 Cycle   2  Pass 1  IDiag  1:
 RMSU=  7.05D-04    CP:  9.90D-01
 E= -3004.35494131097     Delta-E=       -0.546279322476 Rises=F Damp=T
 DIIS: error= 8.30D-03 at cycle   2 NSaved=   2.
 NSaved= 2 IEnMin= 2 EnMin= -3004.35494131097     IErMin= 2 ErrMin= 8.30D-03
 ErrMax= 8.30D-03  0.00D+00 EMaxC= 1.00D-01 BMatC= 3.65D-01 BMatP= 1.46D+00
 IDIUse=3 WtCom= 9.17D-01 WtEn= 8.30D-02
 Coeff-Com: -0.757D+00 0.176D+01
 Coeff-En:   0.000D+00 0.100D+01
 Coeff:     -0.694D+00 0.169D+01
 Gap=     0.172 Goal=   None    Shift=    0.000
 RMSDP=1.01D-03 MaxDP=6.44D-02 DE=-5.46D-01 OVMax= 3.39D-01

 Cycle   3  Pass 1  IDiag  1:
 RMSU=  9.03D-04    CP:  9.65D-01  1.54D+00
 E= -3005.13842604392     Delta-E=       -0.783484732947 Rises=F Damp=F
 DIIS: error= 1.63D-02 at cycle   3 NSaved=   3.
 NSaved= 3 IEnMin= 3 EnMin= -3005.13842604392     IErMin= 2 ErrMin= 8.30D-03
 ErrMax= 1.63D-02  0.00D+00 EMaxC= 1.00D-01 BMatC= 2.12D-01 BMatP= 3.65D-01
 IDIUse=3 WtCom= 8.37D-01 WtEn= 1.63D-01
 Coeff-Com: -0.516D+00 0.109D+01 0.422D+00
 Coeff-En:   0.000D+00 0.000D+00 0.100D+01
 Coeff:     -0.432D+00 0.916D+00 0.516D+00
 Gap=     0.074 Goal=   None    Shift=    0.000
 RMSDP=7.60D-04 MaxDP=1.56D-01 DE=-7.83D-01 OVMax= 3.03D-01

 Cycle   4  Pass 1  IDiag  1:
 RMSU=  4.64D-04    CP:  9.72D-01  1.95D+00  4.20D-01
 E= -3005.25696070832     Delta-E=       -0.118534664398 Rises=F Damp=F
 DIIS: error= 9.56D-03 at cycle   4 NSaved=   4.
 NSaved= 4 IEnMin= 4 EnMin= -3005.25696070832     IErMin= 2 ErrMin= 8.30D-03
 ErrMax= 9.56D-03  0.00D+00 EMaxC= 1.00D-01 BMatC= 7.93D-02 BMatP= 2.12D-01
 IDIUse=3 WtCom= 9.04D-01 WtEn= 9.56D-02
 Coeff-Com: -0.134D+00 0.294D+00 0.366D+00 0.473D+00
 Coeff-En:   0.000D+00 0.000D+00 0.342D+00 0.658D+00
 Coeff:     -0.121D+00 0.266D+00 0.364D+00 0.491D+00
 Gap=     0.072 Goal=   None    Shift=    0.000
 RMSDP=4.24D-04 MaxDP=6.00D-02 DE=-1.19D-01 OVMax= 2.42D-01

 Cycle   5  Pass 1  IDiag  1:
 RMSU=  1.91D-04    CP:  9.70D-01  1.75D+00  6.70D-01  4.25D-01
 E= -3005.32594923225     Delta-E=       -0.068988523935 Rises=F Damp=F
 DIIS: error= 3.11D-03 at cycle   5 NSaved=   5.
 NSaved= 5 IEnMin= 5 EnMin= -3005.32594923225     IErMin= 5 ErrMin= 3.11D-03
 ErrMax= 3.11D-03  0.00D+00 EMaxC= 1.00D-01 BMatC= 1.31D-02 BMatP= 7.93D-02
 IDIUse=3 WtCom= 9.69D-01 WtEn= 3.11D-02
 Coeff-Com: -0.283D-01 0.686D-01 0.223D+00 0.378D+00 0.358D+00
 Coeff-En:   0.000D+00 0.000D+00 0.000D+00 0.199D+00 0.801D+00
 Coeff:     -0.275D-01 0.665D-01 0.216D+00 0.373D+00 0.372D+00
 Gap=     0.073 Goal=   None    Shift=    0.000
 RMSDP=1.78D-04 MaxDP=1.54D-02 DE=-6.90D-02 OVMax= 1.28D-01

 Cycle   6  Pass 1  IDiag  1:
 RMSU=  6.86D-05    CP:  9.70D-01  1.76D+00  6.32D-01  5.95D-01  2.69D-01
 E= -3005.34286892575     Delta-E=       -0.016919693498 Rises=F Damp=F
 DIIS: error= 7.65D-04 at cycle   6 NSaved=   6.
 NSaved= 6 IEnMin= 6 EnMin= -3005.34286892575     IErMin= 6 ErrMin= 7.65D-04
 ErrMax= 7.65D-04  0.00D+00 EMaxC= 1.00D-01 BMatC= 1.05D-03 BMatP= 1.31D-02
 IDIUse=3 WtCom= 9.92D-01 WtEn= 7.65D-03
 Coeff-Com:  0.264D-02-0.258D-02 0.711D-01 0.145D+00 0.247D+00 0.538D+00
 Coeff-En:   0.000D+00 0.000D+00 0.000D+00 0.000D+00 0.949D-01 0.905D+00
 Coeff:      0.262D-02-0.256D-02 0.705D-01 0.144D+00 0.245D+00 0.540D+00
 Gap=     0.075 Goal=   None    Shift=    0.000
 RMSDP=5.60D-05 MaxDP=4.81D-03 DE=-1.69D-02 OVMax= 4.06D-02

 Cycle   7  Pass 1  IDiag  1:
 RMSU=  3.18D-05    CP:  9.70D-01  1.76D+00  6.39D-01  5.73D-01  4.36D-01
                    CP:  5.52D-01
 E= -3005.34395213786     Delta-E=       -0.001083212102 Rises=F Damp=F
 DIIS: error= 4.10D-04 at cycle   7 NSaved=   7.
 NSaved= 7 IEnMin= 7 EnMin= -3005.34395213786     IErMin= 7 ErrMin= 4.10D-04
 ErrMax= 4.10D-04  0.00D+00 EMaxC= 1.00D-01 BMatC= 2.50D-04 BMatP= 1.05D-03
 IDIUse=3 WtCom= 9.96D-01 WtEn= 4.10D-03
 Coeff-Com:  0.446D-02-0.866D-02 0.183D-01 0.449D-01 0.120D+00 0.392D+00
 Coeff-Com:  0.429D+00
 Coeff-En:   0.000D+00 0.000D+00 0.000D+00 0.000D+00 0.000D+00 0.216D+00
 Coeff-En:   0.784D+00
 Coeff:      0.444D-02-0.862D-02 0.183D-01 0.447D-01 0.120D+00 0.391D+00
 Coeff:      0.431D+00
 Gap=     0.075 Goal=   None    Shift=    0.000
 RMSDP=2.58D-05 MaxDP=2.34D-03 DE=-1.08D-03 OVMax= 1.60D-02

 Cycle   8  Pass 1  IDiag  1:
 RMSU=  1.22D-05    CP:  9.70D-01  1.76D+00  6.41D-01  5.74D-01  4.06D-01
                    CP:  6.95D-01  3.86D-01
 E= -3005.34423517422     Delta-E=       -0.000283036366 Rises=F Damp=F
 DIIS: error= 1.36D-04 at cycle   8 NSaved=   8.
 NSaved= 8 IEnMin= 8 EnMin= -3005.34423517422     IErMin= 8 ErrMin= 1.36D-04
 ErrMax= 1.36D-04  0.00D+00 EMaxC= 1.00D-01 BMatC= 3.54D-05 BMatP= 2.50D-04
 IDIUse=3 WtCom= 9.99D-01 WtEn= 1.36D-03
 Coeff-Com:  0.209D-02-0.448D-02 0.151D-02 0.697D-02 0.428D-01 0.186D+00
 Coeff-Com:  0.307D+00 0.458D+00
 Coeff-En:   0.000D+00 0.000D+00 0.000D+00 0.000D+00 0.000D+00 0.000D+00
 Coeff-En:   0.152D+00 0.848D+00
 Coeff:      0.209D-02-0.447D-02 0.151D-02 0.696D-02 0.428D-01 0.185D+00
 Coeff:      0.307D+00 0.459D+00
 Gap=     0.075 Goal=   None    Shift=    0.000
 RMSDP=8.53D-06 MaxDP=6.13D-04 DE=-2.83D-04 OVMax= 4.37D-03

 Cycle   9  Pass 1  IDiag  1:
 RMSU=  3.58D-06    CP:  9.70D-01  1.76D+00  6.40D-01  5.76D-01  4.12D-01
                    CP:  6.78D-01  5.26D-01  5.07D-01
 E= -3005.34427833549     Delta-E=       -0.000043161270 Rises=F Damp=F
 DIIS: error= 3.09D-05 at cycle   9 NSaved=   9.
 NSaved= 9 IEnMin= 9 EnMin= -3005.34427833549     IErMin= 9 ErrMin= 3.09D-05
 ErrMax= 3.09D-05  0.00D+00 EMaxC= 1.00D-01 BMatC= 2.52D-06 BMatP= 3.54D-05
 IDIUse=1 WtCom= 1.00D+00 WtEn= 0.00D+00
 Coeff-Com:  0.489D-03-0.116D-02-0.107D-02-0.143D-02 0.116D-01 0.652D-01
 Coeff-Com:  0.134D+00 0.274D+00 0.519D+00
 Coeff:      0.489D-03-0.116D-02-0.107D-02-0.143D-02 0.116D-01 0.652D-01
 Coeff:      0.134D+00 0.274D+00 0.519D+00
 Gap=     0.075 Goal=   None    Shift=    0.000
 RMSDP=2.23D-06 MaxDP=3.39D-04 DE=-4.32D-05 OVMax= 8.20D-04

 Cycle  10  Pass 1  IDiag  1:
 RMSU=  1.65D-06    CP:  9.70D-01  1.76D+00  6.41D-01  5.75D-01  4.13D-01
                    CP:  6.86D-01  5.20D-01  5.65D-01  7.06D-01
 E= -3005.34428068963     Delta-E=       -0.000002354140 Rises=F Damp=F
 DIIS: error= 1.79D-05 at cycle  10 NSaved=  10.
 NSaved=10 IEnMin=10 EnMin= -3005.34428068963     IErMin=10 ErrMin= 1.79D-05
 ErrMax= 1.79D-05  0.00D+00 EMaxC= 1.00D-01 BMatC= 3.49D-07 BMatP= 2.52D-06
 IDIUse=1 WtCom= 1.00D+00 WtEn= 0.00D+00
 Coeff-Com:  0.100D-04-0.789D-04-0.781D-03-0.184D-02 0.149D-02 0.152D-01
 Coeff-Com:  0.396D-01 0.108D+00 0.315D+00 0.523D+00
 Coeff:      0.100D-04-0.789D-04-0.781D-03-0.184D-02 0.149D-02 0.152D-01
 Coeff:      0.396D-01 0.108D+00 0.315D+00 0.523D+00
 Gap=     0.076 Goal=   None    Shift=    0.000
 RMSDP=8.94D-07 MaxDP=8.03D-05 DE=-2.35D-06 OVMax= 3.30D-04

 Cycle  11  Pass 1  IDiag  1:
 RMSU=  5.83D-07    CP:  9.70D-01  1.76D+00  6.41D-01  5.75D-01  4.13D-01
                    CP:  6.87D-01  5.24D-01  5.65D-01  7.99D-01  6.59D-01
 E= -3005.34428103652     Delta-E=       -0.000000346885 Rises=F Damp=F
 DIIS: error= 5.49D-06 at cycle  11 NSaved=  11.
 NSaved=11 IEnMin=11 EnMin= -3005.34428103652     IErMin=11 ErrMin= 5.49D-06
 ErrMax= 5.49D-06  0.00D+00 EMaxC= 1.00D-01 BMatC= 6.50D-08 BMatP= 3.49D-07
 IDIUse=1 WtCom= 1.00D+00 WtEn= 0.00D+00
 Coeff-Com: -0.637D-04 0.115D-03-0.387D-03-0.111D-02-0.823D-03-0.191D-04
 Coeff-Com:  0.537D-02 0.319D-01 0.126D+00 0.344D+00 0.495D+00
 Coeff:     -0.637D-04 0.115D-03-0.387D-03-0.111D-02-0.823D-03-0.191D-04
 Coeff:      0.537D-02 0.319D-01 0.126D+00 0.344D+00 0.495D+00
 Gap=     0.076 Goal=   None    Shift=    0.000
 RMSDP=3.05D-07 MaxDP=2.35D-05 DE=-3.47D-07 OVMax= 1.20D-04

 Cycle  12  Pass 1  IDiag  1:
 RMSU=  1.95D-07    CP:  9.70D-01  1.76D+00  6.41D-01  5.75D-01  4.13D-01
                    CP:  6.87D-01  5.25D-01  5.75D-01  7.98D-01  7.58D-01
                    CP:  8.32D-01
 E= -3005.34428110701     Delta-E=       -0.000000070491 Rises=F Damp=F
 DIIS: error= 1.75D-06 at cycle  12 NSaved=  12.
 NSaved=12 IEnMin=12 EnMin= -3005.34428110701     IErMin=12 ErrMin= 1.75D-06
 ErrMax= 1.75D-06  0.00D+00 EMaxC= 1.00D-01 BMatC= 3.85D-09 BMatP= 6.50D-08
 IDIUse=1 WtCom= 1.00D+00 WtEn= 0.00D+00
 Coeff-Com: -0.206D-04 0.484D-04-0.516D-04-0.224D-03-0.578D-03-0.249D-02
 Coeff-Com: -0.446D-02-0.209D-02 0.395D-02 0.784D-01 0.212D+00 0.715D+00
 Coeff:     -0.206D-04 0.484D-04-0.516D-04-0.224D-03-0.578D-03-0.249D-02
 Coeff:     -0.446D-02-0.209D-02 0.395D-02 0.784D-01 0.212D+00 0.715D+00
 Gap=     0.076 Goal=   None    Shift=    0.000
 RMSDP=1.29D-07 MaxDP=2.49D-05 DE=-7.05D-08 OVMax= 5.63D-05

 Cycle  13  Pass 1  IDiag  1:
 RMSU=  8.91D-08    CP:  9.70D-01  1.76D+00  6.41D-01  5.75D-01  4.13D-01
                    CP:  6.88D-01  5.25D-01  5.76D-01  8.13D-01  7.82D-01
                    CP:  9.15D-01  9.08D-01
 E= -3005.34428111193     Delta-E=       -0.000000004920 Rises=F Damp=F
 DIIS: error= 7.27D-07 at cycle  13 NSaved=  13.
 NSaved=13 IEnMin=13 EnMin= -3005.34428111193     IErMin=13 ErrMin= 7.27D-07
 ErrMax= 7.27D-07  0.00D+00 EMaxC= 1.00D-01 BMatC= 1.21D-09 BMatP= 3.85D-09
 IDIUse=1 WtCom= 1.00D+00 WtEn= 0.00D+00
 Coeff-Com: -0.614D-06 0.779D-05 0.292D-04 0.393D-04-0.219D-03-0.152D-02
 Coeff-Com: -0.383D-02-0.610D-02-0.194D-01-0.933D-02 0.376D-01 0.415D+00
 Coeff-Com:  0.588D+00
 Coeff:     -0.614D-06 0.779D-05 0.292D-04 0.393D-04-0.219D-03-0.152D-02
 Coeff:     -0.383D-02-0.610D-02-0.194D-01-0.933D-02 0.376D-01 0.415D+00
 Coeff:      0.588D+00
 Gap=     0.076 Goal=   None    Shift=    0.000
 RMSDP=5.81D-08 MaxDP=5.55D-06 DE=-4.92D-09 OVMax= 2.45D-05

 Cycle  14  Pass 1  IDiag  1:
 RMSU=  3.69D-08    CP:  9.70D-01  1.76D+00  6.41D-01  5.75D-01  4.13D-01
                    CP:  6.88D-01  5.24D-01  5.77D-01  8.18D-01  7.92D-01
                    CP:  9.43D-01  1.02D+00  7.93D-01
 E= -3005.34428111365     Delta-E=       -0.000000001726 Rises=F Damp=F
 DIIS: error= 3.44D-07 at cycle  14 NSaved=  14.
 NSaved=14 IEnMin=14 EnMin= -3005.34428111365     IErMin=14 ErrMin= 3.44D-07
 ErrMax= 3.44D-07  0.00D+00 EMaxC= 1.00D-01 BMatC= 1.65D-10 BMatP= 1.21D-09
 IDIUse=1 WtCom= 1.00D+00 WtEn= 0.00D+00
 Coeff-Com:  0.348D-05-0.401D-05 0.244D-04 0.547D-04-0.367D-04-0.499D-03
 Coeff-Com: -0.160D-02-0.297D-02-0.118D-01-0.165D-01-0.101D-01 0.135D+00
 Coeff-Com:  0.329D+00 0.580D+00
 Coeff:      0.348D-05-0.401D-05 0.244D-04 0.547D-04-0.367D-04-0.499D-03
 Coeff:     -0.160D-02-0.297D-02-0.118D-01-0.165D-01-0.101D-01 0.135D+00
 Coeff:      0.329D+00 0.580D+00
 Gap=     0.076 Goal=   None    Shift=    0.000
 RMSDP=2.31D-08 MaxDP=3.37D-06 DE=-1.73D-09 OVMax= 1.01D-05

 Cycle  15  Pass 1  IDiag  1:
 RMSU=  1.47D-08    CP:  9.70D-01  1.76D+00  6.41D-01  5.75D-01  4.13D-01
                    CP:  6.88D-01  5.25D-01  5.77D-01  8.18D-01  7.95D-01
                    CP:  9.57D-01  1.05D+00  9.07D-01  8.48D-01
 E= -3005.34428111372     Delta-E=       -0.000000000062 Rises=F Damp=F
 DIIS: error= 1.39D-07 at cycle  15 NSaved=  15.
 NSaved=15 IEnMin=15 EnMin= -3005.34428111372     IErMin=15 ErrMin= 1.39D-07
 ErrMax= 1.39D-07  0.00D+00 EMaxC= 1.00D-01 BMatC= 3.72D-11 BMatP= 1.65D-10
 IDIUse=1 WtCom= 1.00D+00 WtEn= 0.00D+00
 Coeff-Com:  0.209D-05-0.348D-05 0.907D-05 0.239D-04 0.186D-04-0.732D-05
 Coeff-Com: -0.285D-03-0.487D-03-0.346D-02-0.757D-02-0.116D-01 0.789D-02
 Coeff-Com:  0.823D-01 0.355D+00 0.578D+00
 Coeff:      0.209D-05-0.348D-05 0.907D-05 0.239D-04 0.186D-04-0.732D-05
 Coeff:     -0.285D-03-0.487D-03-0.346D-02-0.757D-02-0.116D-01 0.789D-02
 Coeff:      0.823D-01 0.355D+00 0.578D+00
 Gap=     0.076 Goal=   None    Shift=    0.000
 RMSDP=9.61D-09 MaxDP=1.13D-06 DE=-6.18D-11 OVMax= 4.45D-06

 Cycle  16  Pass 1  IDiag  1:
 RMSU=  6.14D-09    CP:  9.70D-01  1.76D+00  6.41D-01  5.75D-01  4.13D-01
                    CP:  6.88D-01  5.25D-01  5.77D-01  8.18D-01  7.96D-01
                    CP:  9.60D-01  1.06D+00  9.23D-01  9.91D-01  8.59D-01
 E= -3005.34428111366     Delta-E=        0.000000000053 Rises=F Damp=F
 DIIS: error= 3.95D-08 at cycle  16 NSaved=  16.
 NSaved=16 IEnMin=15 EnMin= -3005.34428111372     IErMin=16 ErrMin= 3.95D-08
 ErrMax= 3.95D-08  0.00D+00 EMaxC= 1.00D-01 BMatC= 4.49D-12 BMatP= 3.72D-11
 IDIUse=1 WtCom= 1.00D+00 WtEn= 0.00D+00
 Coeff-Com:  0.440D-06-0.107D-05 0.529D-06 0.327D-05 0.174D-04 0.946D-04
 Coeff-Com:  0.128D-03 0.329D-03 0.288D-03-0.111D-02-0.451D-02-0.216D-01
 Coeff-Com: -0.213D-01 0.942D-01 0.292D+00 0.661D+00
 Coeff:      0.440D-06-0.107D-05 0.529D-06 0.327D-05 0.174D-04 0.946D-04
 Coeff:      0.128D-03 0.329D-03 0.288D-03-0.111D-02-0.451D-02-0.216D-01
 Coeff:     -0.213D-01 0.942D-01 0.292D+00 0.661D+00
 Gap=     0.076 Goal=   None    Shift=    0.000
 RMSDP=4.23D-09 MaxDP=3.32D-07 DE= 5.28D-11 OVMax= 2.02D-06

 SCF Done:  E(RPBE1PBE) =  -3005.34428111     A.U. after   16 cycles
            NFock= 16  Conv=0.42D-08     -V/T= 2.0101
 KE= 2.975183997107D+03 PE=-2.593669918151D+04 EE= 1.048359840627D+04
 Leave Link  502 at Tue May  3 21:01:52 2022, MaxMem= 10066329600 cpu:            6550.0 elap:             275.3
 (Enter /sw/apps/gaussian-16.0/g16/l801.exe)
 DoSCS=F DFT=T ScalE2(SS,OS)=  1.000000  1.000000
 ExpMin= 3.36D-02 ExpMax= 4.95D+03 ExpMxC= 7.45D+02 IAcc=3 IRadAn=         5 AccDes= 0.00D+00
 HarFok:  IExCor=  205 AccDes= 0.00D+00 IRadAn=         5 IDoV=-2 UseB2=F ITyADJ=14
 ICtDFT= 12500011 ScaDFX=  1.000000  1.000000  1.000000  1.000000
 GSVD:  LWork=       -5460 too small for GESVD, short by       25550 words or       25550 for optimal perf.
 Largest valence mixing into a core orbital is  1.85D-04
 Largest core mixing into a valence orbital is  5.43D-05
 Range of M.O.s used for correlation:    71  1298
 NBasis=  1298 NAE=   246 NBE=   246 NFC=    70 NFV=     0
 NROrb=   1228 NOA=   176 NOB=   176 NVA=  1052 NVB=  1052

 **** Warning!!: The smallest alpha delta epsilon is  0.75508804D-01

 Leave Link  801 at Tue May  3 21:01:52 2022, MaxMem= 10066329600 cpu:               7.2 elap:               0.3
 (Enter /sw/apps/gaussian-16.0/g16/l914.exe)
 RHF ground state
 Two-electron integrals replicated using symmetry.
 MDV= 10066329600 DFT=T DoStab=F Mixed=T DoRPA=T DoScal=F NonHer=T
 Making orbital integer symmetry assigments:
 Orbital symmetries:
       Occupied  (A) (A) (A) (A) (A) (A) (A) (A) (A) (A) (A) (A)
                 (A) (A) (A) (A) (A) (A) (A) (A) (A) (A) (A) (A)
                 (A) (A) (A) (A) (A) (A) (A) (A) (A) (A) (A) (A)
                 (A) (A) (A) (A) (A) (A) (A) (A) (A) (A) (A) (A)
                 (A) (A) (A) (A) (A) (A) (A) (A) (A) (A) (A) (A)
                 (A) (A) (A) (A) (A) (A) (A) (A) (A) (A) (A) (A)
                 (A) (A) (A) (A) (A) (A) (A) (A) (A) (A) (A) (A)
                 (A) (A) (A) (A) (A) (A) (A) (A) (A) (A) (A) (A)
                 (A) (A) (A) (A) (A) (A) (A) (A) (A) (A) (A) (A)
                 (A) (A) (A) (A) (A) (A) (A) (A) (A) (A) (A) (A)
                 (A) (A) (A) (A) (A) (A) (A) (A) (A) (A) (A) (A)
                 (A) (A) (A) (A) (A) (A) (A) (A) (A) (A) (A) (A)
                 (A) (A) (A) (A) (A) (A) (A) (A) (A) (A) (A) (A)
                 (A) (A) (A) (A) (A) (A) (A) (A) (A) (A) (A) (A)
                 (A) (A) (A) (A) (A) (A) (A) (A) (A) (A) (A) (A)
                 (A) (A) (A) (A) (A) (A) (A) (A) (A) (A) (A) (A)
                 (A) (A) (A) (A) (A) (A) (A) (A) (A) (A) (A) (A)
                 (A) (A) (A) (A) (A) (A) (A) (A) (A) (A) (A) (A)
                 (A) (A) (A) (A) (A) (A) (A) (A) (A) (A) (A) (A)
                 (A) (A) (A) (A) (A) (A) (A) (A) (A) (A) (A) (A)
                 (A) (A) (A) (A) (A) (A)
       Virtual   (A) (A) (A) (A) (A) (A) (A) (A) (A) (A) (A) (A)
                 (A) (A) (A) (A) (A) (A) (A) (A) (A) (A) (A) (A)
                 (A) (A) (A) (A) (A) (A) (A) (A) (A) (A) (A) (A)
                 (A) (A) (A) (A) (A) (A) (A) (A) (A) (A) (A) (A)
                 (A) (A) (A) (A) (A) (A) (A) (A) (A) (A) (A) (A)
                 (A) (A) (A) (A) (A) (A) (A) (A) (A) (A) (A) (A)
                 (A) (A) (A) (A) (A) (A) (A) (A) (A) (A) (A) (A)
                 (A) (A) (A) (A) (A) (A) (A) (A) (A) (A) (A) (A)
                 (A) (A) (A) (A) (A) (A) (A) (A) (A) (A) (A) (A)
                 (A) (A) (A) (A) (A) (A) (A) (A) (A) (A) (A) (A)
                 (A) (A) (A) (A) (A) (A) (A) (A) (A) (A) (A) (A)
                 (A) (A) (A) (A) (A) (A) (A) (A) (A) (A) (A) (A)
                 (A) (A) (A) (A) (A) (A) (A) (A) (A) (A) (A) (A)
                 (A) (A) (A) (A) (A) (A) (A) (A) (A) (A) (A) (A)
                 (A) (A) (A) (A) (A) (A) (A) (A) (A) (A) (A) (A)
                 (A) (A) (A) (A) (A) (A) (A) (A) (A) (A) (A) (A)
                 (A) (A) (A) (A) (A) (A) (A) (A) (A) (A) (A) (A)
                 (A) (A) (A) (A) (A) (A) (A) (A) (A) (A) (A) (A)
                 (A) (A) (A) (A) (A) (A) (A) (A) (A) (A) (A) (A)
                 (A) (A) (A) (A) (A) (A) (A) (A) (A) (A) (A) (A)
                 (A) (A) (A) (A) (A) (A) (A) (A) (A) (A) (A) (A)
                 (A) (A) (A) (A) (A) (A) (A) (A) (A) (A) (A) (A)
                 (A) (A) (A) (A) (A) (A) (A) (A) (A) (A) (A) (A)
                 (A) (A) (A) (A) (A) (A) (A) (A) (A) (A) (A) (A)
                 (A) (A) (A) (A) (A) (A) (A) (A) (A) (A) (A) (A)
                 (A) (A) (A) (A) (A) (A) (A) (A) (A) (A) (A) (A)
                 (A) (A) (A) (A) (A) (A) (A) (A) (A) (A) (A) (A)
                 (A) (A) (A) (A) (A) (A) (A) (A) (A) (A) (A) (A)
                 (A) (A) (A) (A) (A) (A) (A) (A) (A) (A) (A) (A)
                 (A) (A) (A) (A) (A) (A) (A) (A) (A) (A) (A) (A)
                 (A) (A) (A) (A) (A) (A) (A) (A) (A) (A) (A) (A)
                 (A) (A) (A) (A) (A) (A) (A) (A) (A) (A) (A) (A)
                 (A) (A) (A) (A) (A) (A) (A) (A) (A) (A) (A) (A)
                 (A) (A) (A) (A) (A) (A) (A) (A) (A) (A) (A) (A)
                 (A) (A) (A) (A) (A) (A) (A) (A) (A) (A) (A) (A)
                 (A) (A) (A) (A) (A) (A) (A) (A) (A) (A) (A) (A)
                 (A) (A) (A) (A) (A) (A) (A) (A) (A) (A) (A) (A)
                 (A) (A) (A) (A) (A) (A) (A) (A) (A) (A) (A) (A)
                 (A) (A) (A) (A) (A) (A) (A) (A) (A) (A) (A) (A)
                 (A) (A) (A) (A) (A) (A) (A) (A) (A) (A) (A) (A)
                 (A) (A) (A) (A) (A) (A) (A) (A) (A) (A) (A) (A)
                 (A) (A) (A) (A) (A) (A) (A) (A) (A) (A) (A) (A)
                 (A) (A) (A) (A) (A) (A) (A) (A) (A) (A) (A) (A)
                 (A) (A) (A) (A) (A) (A) (A) (A) (A) (A) (A) (A)
                 (A) (A) (A) (A) (A) (A) (A) (A) (A) (A) (A) (A)
                 (A) (A) (A) (A) (A) (A) (A) (A) (A) (A) (A) (A)
                 (A) (A) (A) (A) (A) (A) (A) (A) (A) (A) (A) (A)
                 (A) (A) (A) (A) (A) (A) (A) (A) (A) (A) (A) (A)
                 (A) (A) (A) (A) (A) (A) (A) (A) (A) (A) (A) (A)
                 (A) (A) (A) (A) (A) (A) (A) (A) (A) (A) (A) (A)
                 (A) (A) (A) (A) (A) (A) (A) (A) (A) (A) (A) (A)
                 (A) (A) (A) (A) (A) (A) (A) (A) (A) (A) (A) (A)
                 (A) (A) (A) (A) (A) (A) (A) (A) (A) (A) (A) (A)
                 (A) (A) (A) (A) (A) (A) (A) (A) (A) (A) (A) (A)
                 (A) (A) (A) (A) (A) (A) (A) (A) (A) (A) (A) (A)
                 (A) (A) (A) (A) (A) (A) (A) (A) (A) (A) (A) (A)
                 (A) (A) (A) (A) (A) (A) (A) (A) (A) (A) (A) (A)
                 (A) (A) (A) (A) (A) (A) (A) (A) (A) (A) (A) (A)
                 (A) (A) (A) (A) (A) (A) (A) (A) (A) (A) (A) (A)
                 (A) (A) (A) (A) (A) (A) (A) (A) (A) (A) (A) (A)
                 (A) (A) (A) (A) (A) (A) (A) (A) (A) (A) (A) (A)
                 (A) (A) (A) (A) (A) (A) (A) (A) (A) (A) (A) (A)
                 (A) (A) (A) (A) (A) (A) (A) (A) (A) (A) (A) (A)
                 (A) (A) (A) (A) (A) (A) (A) (A) (A) (A) (A) (A)
                 (A) (A) (A) (A) (A) (A) (A) (A) (A) (A) (A) (A)
                 (A) (A) (A) (A) (A) (A) (A) (A) (A) (A) (A) (A)
                 (A) (A) (A) (A) (A) (A) (A) (A) (A) (A) (A) (A)
                 (A) (A) (A) (A) (A) (A) (A) (A) (A) (A) (A) (A)
                 (A) (A) (A) (A) (A) (A) (A) (A) (A) (A) (A) (A)
                 (A) (A) (A) (A) (A) (A) (A) (A) (A) (A) (A) (A)
                 (A) (A) (A) (A) (A) (A) (A) (A) (A) (A) (A) (A)
                 (A) (A) (A) (A) (A) (A) (A) (A) (A) (A) (A) (A)
                 (A) (A) (A) (A) (A) (A) (A) (A) (A) (A) (A) (A)
                 (A) (A) (A) (A) (A) (A) (A) (A) (A) (A) (A) (A)
                 (A) (A) (A) (A) (A) (A) (A) (A) (A) (A) (A) (A)
                 (A) (A) (A) (A) (A) (A) (A) (A) (A) (A) (A) (A)
                 (A) (A) (A) (A) (A) (A) (A) (A) (A) (A) (A) (A)
                 (A) (A) (A) (A) (A) (A) (A) (A) (A) (A) (A) (A)
                 (A) (A) (A) (A) (A) (A) (A) (A) (A) (A) (A) (A)
                 (A) (A) (A) (A) (A) (A) (A) (A) (A) (A) (A) (A)
                 (A) (A) (A) (A) (A) (A) (A) (A) (A) (A) (A) (A)
                 (A) (A) (A) (A) (A) (A) (A) (A) (A) (A) (A) (A)
                 (A) (A) (A) (A) (A) (A) (A) (A) (A) (A) (A) (A)
                 (A) (A) (A) (A) (A) (A) (A) (A) (A) (A) (A) (A)
                 (A) (A) (A) (A) (A) (A) (A) (A) (A) (A) (A) (A)
                 (A) (A) (A) (A) (A) (A) (A) (A) (A) (A) (A) (A)
                 (A) (A) (A) (A) (A) (A) (A) (A) (A) (A) (A) (A)
                 (A) (A) (A) (A) (A) (A) (A) (A)
    20 initial guesses have been made.
 Convergence on wavefunction:    0.001000000000000
 Davidson Disk Diagonalization:  ConvIn= 1.00D-03 SkipCon=T Conv= 1.00D-03.
 Max sub-space:  2000 roots to seek:    20 dimension of matrix:       370304
 Iteration     1 Dimension    20 NMult     0 NNew     20
 CISAX will form    20 AO SS matrices at one time.
 NMat=    20 NSing=    20 JSym2X= 0.
 FoFJK:  IHMeth= 1 ICntrl=       0 DoSepK=F KAlg= 0 I1Cent=           0 FoldK=F
 IRaf= 510000000 NMat=      40 IRICut=       1 DoRegI=T DoRafI=F ISym2E= 0 IDoP0=3 IntGTp=3.
 FoFCou: FMM=T IPFlag=           0 FMFlag=      100000 FMFlg1=        2001
         NFxFlg=           0 DoJE=F BraDBF=F KetDBF=F FulRan=T
         wScrn=  0.000000 ICntrl=         0 IOpCl=  0 I1Cent=           0 NGrid=           0
         NMat0=   40 NMatS0=     20 NMatT0=    0 NMatD0=   40 NMtDS0=    0 NMtDT0=    0
 Symmetry not used in FoFCou.
 FMM levels:  10  Number of levels for PrismC:   9
 New state      3 was old state      4
 New state      4 was old state      6
 New state      5 was old state      7
 Excitation Energies [eV] at current iteration:
 Root      1 :     2.213651095095485
 Root      2 :     2.532286914598878
 Root      3 :     2.935818383831182
 Root      4 :     3.045227815431853
 Root      5 :     3.317763387275301
 Root      6 :     3.322485224263022
 Root      7 :     3.572280172160917
 Root      8 :     3.618832993746501
 Root      9 :     3.899756391869957
 Root     10 :     3.995491405838826
 Root     11 :     4.085729889218885
 Root     12 :     4.139601308449602
 Root     13 :     4.330009816182495
 Root     14 :     4.345158308614046
 Root     15 :     4.494381573692945
 Root     16 :     4.510717274480679
 Root     17 :     4.728495980501958
 Root     18 :     4.758236028251423
 Root     19 :     4.784012347460909
 Root     20 :     4.869119372427782
 Iteration     2 Dimension    30 NMult    20 NNew     10
 CISAX will form    10 AO SS matrices at one time.
 NMat=    10 NSing=    10 JSym2X= 0.
 Root      1 not converged, maximum delta is    0.056617325877841
 Root      2 not converged, maximum delta is    0.058021616665516
 Root      3 not converged, maximum delta is    0.142404795534424
 Root      4 not converged, maximum delta is    0.128245437221330
 Root      5 not converged, maximum delta is    0.366789514457010
 Excitation Energies [eV] at current iteration:
 Root      1 :     1.879642512759213   Change is   -0.334008582336272
 Root      2 :     2.263767122030547   Change is   -0.268519792568330
 Root      3 :     2.810776149786320   Change is   -0.125042234044862
 Root      4 :     2.896500662756030   Change is   -0.148727152675823
 Root      5 :     3.074505279304196   Change is   -0.243258107971105
 Iteration     3 Dimension    40 NMult    30 NNew     10
 CISAX will form    10 AO SS matrices at one time.
 NMat=    10 NSing=    10 JSym2X= 0.
 Root      1 not converged, maximum delta is    0.024305497967227
 Root      2 not converged, maximum delta is    0.024126796125379
 Root      3 not converged, maximum delta is    0.023543246955729
 Root      4 not converged, maximum delta is    0.017682982263329
 Root      5 not converged, maximum delta is    0.008858644973793
 Excitation Energies [eV] at current iteration:
 Root      1 :     1.849215085213388   Change is   -0.030427427545825
 Root      2 :     2.245252735617108   Change is   -0.018514386413438
 Root      3 :     2.799336911825718   Change is   -0.011439237960602
 Root      4 :     2.879166865096748   Change is   -0.017333797659281
 Root      5 :     3.062540948372270   Change is   -0.011964330931926
 Iteration     4 Dimension    50 NMult    40 NNew     10
 CISAX will form    10 AO SS matrices at one time.
 NMat=    10 NSing=    10 JSym2X= 0.
 Root      1 not converged, maximum delta is    0.002245001624488
 Root      2 not converged, maximum delta is    0.007805654115794
 Root      3 not converged, maximum delta is    0.002962437367426
 Root      4 not converged, maximum delta is    0.011355488025229
 Root      5 not converged, maximum delta is    0.010626662157043
 Excitation Energies [eV] at current iteration:
 Root      1 :     1.846227782174914   Change is   -0.002987303038474
 Root      2 :     2.242158503255743   Change is   -0.003094232361366
 Root      3 :     2.798360547378815   Change is   -0.000976364446903
 Root      4 :     2.876187897694502   Change is   -0.002978967402246
 Root      5 :     3.060430890554872   Change is   -0.002110057817398
 Iteration     5 Dimension    60 NMult    50 NNew     10
 CISAX will form    10 AO SS matrices at one time.
 NMat=    10 NSing=    10 JSym2X= 0.
 Root      1 has converged.
 Root      2 has converged.
 Root      3 has converged.
 Root      4 not converged, maximum delta is    0.001030852600566
 Root      5 not converged, maximum delta is    0.001507654423116
 Excitation Energies [eV] at current iteration:
 Root      1 :     1.845930041529924   Change is   -0.000297740644990
 Root      2 :     2.241948959733296   Change is   -0.000209543522447
 Root      3 :     2.798261665851684   Change is   -0.000098881527131
 Root      4 :     2.875946940790320   Change is   -0.000240956904183
 Root      5 :     3.060167226465386   Change is   -0.000263664089485
 Iteration     6 Dimension    64 NMult    60 NNew      4
 CISAX will form     4 AO SS matrices at one time.
 NMat=     4 NSing=     4 JSym2X= 0.
 Root      1 has converged.
 Root      2 has converged.
 Root      3 has converged.
 Root      4 has converged.
 Root      5 has converged.
 Excitation Energies [eV] at current iteration:
 Root      1 :     1.845925568352175   Change is   -0.000004473177749
 Root      2 :     2.241947761329995   Change is   -0.000001198403301
 Root      3 :     2.798261451732110   Change is   -0.000000214119574
 Root      4 :     2.875917463554604   Change is   -0.000029477235716
 Root      5 :     3.060137568793587   Change is   -0.000029657671799
 Convergence achieved on expansion vectors.
 ***********************************************************************
 Excited states from <AA,BB:AA,BB> singles matrix:
 ***********************************************************************
 
 1PDM for each excited state written to RWF  633
 Ground to excited state transition densities written to RWF  633
 Ground to excited state transition electric dipole moments (Au):
       state          X           Y           Z        Dip. S.      Osc.
         1         0.3124     -2.7603      0.4777      7.9452      0.3593
         2         1.3159      0.6773      0.4025      2.3523      0.1292
         3        -0.0522      0.0358      0.0069      0.0041      0.0003
         4         0.1042      0.1433      0.0639      0.0355      0.0025
         5        -0.1682      0.0342     -0.0320      0.0305      0.0023
 Ground to excited state transition velocity dipole moments (Au):
       state          X           Y           Z        Dip. S.      Osc.
         1        -0.0206      0.1817     -0.0317      0.0344      0.3385
         2        -0.1035     -0.0537     -0.0304      0.0145      0.1174
         3         0.0044     -0.0038      0.0019      0.0000      0.0002
         4        -0.0122     -0.0127     -0.0053      0.0003      0.0021
         5         0.0205     -0.0050      0.0053      0.0005      0.0028
 Ground to excited state transition magnetic dipole moments (Au):
       state          X           Y           Z
         1         0.0653      0.3452      2.1961
         2        -0.1899      0.4357     -0.3085
         3        -0.1721     -0.5023      0.0427
         4        -0.4892      0.0488     -0.2993
         5        -0.2820      0.0482      0.7035
 Ground to excited state transition velocity quadrupole moments (Au):
       state          XX          YY          ZZ          XY          XZ          YZ
         1        -0.6064      0.3744      0.0280      2.0842     -0.3730     -0.0727
         2        -2.1102     -0.0688      0.0167     -0.5605     -0.3304      0.0072
         3         0.0493     -0.0192      0.0049     -0.0841      0.0284     -0.0161
         4        -0.2477     -0.0695      0.0102     -0.2607     -0.0561     -0.0753
         5         0.4356     -0.1287     -0.0111     -0.3537      0.0228     -0.1278
 <0|del|b> * <b|rxdel|0> + <0|del|b> * <b|delr+rdel|0>
 Rotatory Strengths (R) in cgs (10**-40 erg-esu-cm/Gauss)
       state          XX          YY          ZZ    R(velocity)    E-M Angle
         1       -28.0813    -17.7286    -41.0561    -28.9553       91.16
         2       -62.9964     48.2360     63.2672     16.1689       85.25
         3         6.7157     -1.9948      3.9029      2.8746       67.27
         4         5.4332     23.6890     17.1809     15.4344       49.20
         5         5.4133     -8.8349    -11.0569     -4.8262       98.01
 1/2[<0|r|b>*<b|rxdel|0> + (<0|rxdel|b>*<b|r|0>)*]
 Rotatory Strengths (R) in cgs (10**-40 erg-esu-cm/Gauss)
       state          XX          YY          ZZ     R(length)
         1       -14.4365    673.9263   -741.9170    -27.4757
         2       176.7124   -208.6759     87.8168     18.6178
         3        -6.3483     12.7307     -0.2088      2.0579
         4        36.0541     -4.9468     13.5319     14.8798
         5       -33.5469     -1.1634     15.9416     -6.2563
  1/2[<0|del|b>*<b|r|0> + (<0|r|b>*<b|del|0>)*] (Au)
       state          X           Y           Z        Dip. S.   Osc.(frdel)
         1        -0.0064     -0.5015     -0.0152      0.5231      0.3488
         2        -0.1361     -0.0363     -0.0122      0.1847      0.1232
         3        -0.0002     -0.0001      0.0000      0.0004      0.0002
         4        -0.0013     -0.0018     -0.0003      0.0034      0.0023
         5        -0.0034     -0.0002     -0.0002      0.0038      0.0025

 Excitation energies and oscillator strengths:
 
 Excited State   1:      Singlet-A      1.8459 eV  671.66 nm  f=0.3593  <S**2>=0.000
     245 -> 248        0.17017
     246 -> 247        0.69395
     246 <- 247       -0.10935
 This state for optimization and/or second-order correction.
 Total Energy, E(TD-HF/TD-DFT) =  -3005.27644460    
 Copying the excited state density for this state as the 1-particle RhoCI density.
 
 Excited State   2:      Singlet-A      2.2419 eV  553.02 nm  f=0.1292  <S**2>=0.000
     245 -> 247        0.65119
     246 -> 248       -0.26007
 
 Excited State   3:      Singlet-A      2.7983 eV  443.08 nm  f=0.0003  <S**2>=0.000
     243 -> 247        0.67608
     243 -> 249       -0.15521
     243 -> 250       -0.12129
 
 Excited State   4:      Singlet-A      2.8759 eV  431.11 nm  f=0.0025  <S**2>=0.000
     240 -> 247        0.12618
     241 -> 247       -0.29669
     242 -> 247        0.57975
     242 -> 249        0.14974
 
 Excited State   5:      Singlet-A      3.0601 eV  405.16 nm  f=0.0023  <S**2>=0.000
     240 -> 247       -0.13547
     241 -> 247        0.59644
     242 -> 247        0.33848
 SavETr:  write IOETrn=   770 NScale= 10 NData=  16 NLR=1 NState=    5 LETran=     100.
 Leave Link  914 at Tue May  3 21:13:42 2022, MaxMem= 10066329600 cpu:           16974.0 elap:             710.4
 (Enter /sw/apps/gaussian-16.0/g16/l601.exe)
 Copying SCF densities to generalized density rwf, IOpCl= 0 IROHF=0.
 Hyperfine terms turned off by default for NAtoms > 100.

 **********************************************************************

            Population analysis using the SCF density.

 **********************************************************************

 Orbital symmetries:
       Occupied  (A) (A) (A) (A) (A) (A) (A) (A) (A) (A) (A) (A)
                 (A) (A) (A) (A) (A) (A) (A) (A) (A) (A) (A) (A)
                 (A) (A) (A) (A) (A) (A) (A) (A) (A) (A) (A) (A)
                 (A) (A) (A) (A) (A) (A) (A) (A) (A) (A) (A) (A)
                 (A) (A) (A) (A) (A) (A) (A) (A) (A) (A) (A) (A)
                 (A) (A) (A) (A) (A) (A) (A) (A) (A) (A) (A) (A)
                 (A) (A) (A) (A) (A) (A) (A) (A) (A) (A) (A) (A)
                 (A) (A) (A) (A) (A) (A) (A) (A) (A) (A) (A) (A)
                 (A) (A) (A) (A) (A) (A) (A) (A) (A) (A) (A) (A)
                 (A) (A) (A) (A) (A) (A) (A) (A) (A) (A) (A) (A)
                 (A) (A) (A) (A) (A) (A) (A) (A) (A) (A) (A) (A)
                 (A) (A) (A) (A) (A) (A) (A) (A) (A) (A) (A) (A)
                 (A) (A) (A) (A) (A) (A) (A) (A) (A) (A) (A) (A)
                 (A) (A) (A) (A) (A) (A) (A) (A) (A) (A) (A) (A)
                 (A) (A) (A) (A) (A) (A) (A) (A) (A) (A) (A) (A)
                 (A) (A) (A) (A) (A) (A) (A) (A) (A) (A) (A) (A)
                 (A) (A) (A) (A) (A) (A) (A) (A) (A) (A) (A) (A)
                 (A) (A) (A) (A) (A) (A) (A) (A) (A) (A) (A) (A)
                 (A) (A) (A) (A) (A) (A) (A) (A) (A) (A) (A) (A)
                 (A) (A) (A) (A) (A) (A) (A) (A) (A) (A) (A) (A)
                 (A) (A) (A) (A) (A) (A)
       Virtual   (A) (A) (A) (A) (A) (A) (A) (A) (A) (A) (A) (A)
                 (A) (A) (A) (A) (A) (A) (A) (A) (A) (A) (A) (A)
                 (A) (A) (A) (A) (A) (A) (A) (A) (A) (A) (A) (A)
                 (A) (A) (A) (A) (A) (A) (A) (A) (A) (A) (A) (A)
                 (A) (A) (A) (A) (A) (A) (A) (A) (A) (A) (A) (A)
                 (A) (A) (A) (A) (A) (A) (A) (A) (A) (A) (A) (A)
                 (A) (A) (A) (A) (A) (A) (A) (A) (A) (A) (A) (A)
                 (A) (A) (A) (A) (A) (A) (A) (A) (A) (A) (A) (A)
                 (A) (A) (A) (A) (A) (A) (A) (A) (A) (A) (A) (A)
                 (A) (A) (A) (A) (A) (A) (A) (A) (A) (A) (A) (A)
                 (A) (A) (A) (A) (A) (A) (A) (A) (A) (A) (A) (A)
                 (A) (A) (A) (A) (A) (A) (A) (A) (A) (A) (A) (A)
                 (A) (A) (A) (A) (A) (A) (A) (A) (A) (A) (A) (A)
                 (A) (A) (A) (A) (A) (A) (A) (A) (A) (A) (A) (A)
                 (A) (A) (A) (A) (A) (A) (A) (A) (A) (A) (A) (A)
                 (A) (A) (A) (A) (A) (A) (A) (A) (A) (A) (A) (A)
                 (A) (A) (A) (A) (A) (A) (A) (A) (A) (A) (A) (A)
                 (A) (A) (A) (A) (A) (A) (A) (A) (A) (A) (A) (A)
                 (A) (A) (A) (A) (A) (A) (A) (A) (A) (A) (A) (A)
                 (A) (A) (A) (A) (A) (A) (A) (A) (A) (A) (A) (A)
                 (A) (A) (A) (A) (A) (A) (A) (A) (A) (A) (A) (A)
                 (A) (A) (A) (A) (A) (A) (A) (A) (A) (A) (A) (A)
                 (A) (A) (A) (A) (A) (A) (A) (A) (A) (A) (A) (A)
                 (A) (A) (A) (A) (A) (A) (A) (A) (A) (A) (A) (A)
                 (A) (A) (A) (A) (A) (A) (A) (A) (A) (A) (A) (A)
                 (A) (A) (A) (A) (A) (A) (A) (A) (A) (A) (A) (A)
                 (A) (A) (A) (A) (A) (A) (A) (A) (A) (A) (A) (A)
                 (A) (A) (A) (A) (A) (A) (A) (A) (A) (A) (A) (A)
                 (A) (A) (A) (A) (A) (A) (A) (A) (A) (A) (A) (A)
                 (A) (A) (A) (A) (A) (A) (A) (A) (A) (A) (A) (A)
                 (A) (A) (A) (A) (A) (A) (A) (A) (A) (A) (A) (A)
                 (A) (A) (A) (A) (A) (A) (A) (A) (A) (A) (A) (A)
                 (A) (A) (A) (A) (A) (A) (A) (A) (A) (A) (A) (A)
                 (A) (A) (A) (A) (A) (A) (A) (A) (A) (A) (A) (A)
                 (A) (A) (A) (A) (A) (A) (A) (A) (A) (A) (A) (A)
                 (A) (A) (A) (A) (A) (A) (A) (A) (A) (A) (A) (A)
                 (A) (A) (A) (A) (A) (A) (A) (A) (A) (A) (A) (A)
                 (A) (A) (A) (A) (A) (A) (A) (A) (A) (A) (A) (A)
                 (A) (A) (A) (A) (A) (A) (A) (A) (A) (A) (A) (A)
                 (A) (A) (A) (A) (A) (A) (A) (A) (A) (A) (A) (A)
                 (A) (A) (A) (A) (A) (A) (A) (A) (A) (A) (A) (A)
                 (A) (A) (A) (A) (A) (A) (A) (A) (A) (A) (A) (A)
                 (A) (A) (A) (A) (A) (A) (A) (A) (A) (A) (A) (A)
                 (A) (A) (A) (A) (A) (A) (A) (A) (A) (A) (A) (A)
                 (A) (A) (A) (A) (A) (A) (A) (A) (A) (A) (A) (A)
[...]
 Alpha virt. eigenvalues --    1.17389   1.18163   1.18472   1.18699   1.19320
 Alpha virt. eigenvalues --    1.19767   1.20268   1.20814   1.21108   1.21946
 Alpha virt. eigenvalues --    1.22549   1.22738   1.22849   1.23687   1.24028
 Alpha virt. eigenvalues --    1.24547   1.25079   1.25725   1.26051   1.26237
 Alpha virt. eigenvalues --    1.26981   1.27016   1.28024   1.28421   1.28854
 Alpha virt. eigenvalues --    1.29017   1.29216   1.30081   1.30211   1.30631
 Alpha virt. eigenvalues --    1.31332   1.31491   1.32168   1.32365   1.32631
 Alpha virt. eigenvalues --    1.32957   1.33148   1.33489   1.34012   1.34413
 Alpha virt. eigenvalues --    1.34496   1.35617   1.36154   1.36280   1.36588
 Alpha virt. eigenvalues --    1.37282   1.37878   1.37928   1.38029   1.38430
 Alpha virt. eigenvalues --    1.39039   1.39285   1.39812   1.39888   1.40309
 Alpha virt. eigenvalues --    1.40748   1.40790   1.41098   1.41756   1.42332
 Alpha virt. eigenvalues --    1.42490   1.42808   1.43472   1.44222   1.44740
 Alpha virt. eigenvalues --    1.45245   1.45876   1.46158   1.46533   1.47307
 Alpha virt. eigenvalues --    1.47512   1.47593   1.47934   1.48086   1.48538
 Alpha virt. eigenvalues --    1.49667   1.49855   1.50466   1.50660   1.50907
 Alpha virt. eigenvalues --    1.50983   1.51303   1.51807   1.51946   1.52266
 Alpha virt. eigenvalues --    1.52307   1.52623   1.53140   1.53579   1.53957
 Alpha virt. eigenvalues --    1.54300   1.54391   1.54600   1.54762   1.54914
 Alpha virt. eigenvalues --    1.55278   1.55431   1.55783   1.55943   1.56177
 Alpha virt. eigenvalues --    1.56640   1.57238   1.57595   1.57789   1.58255
 Alpha virt. eigenvalues --    1.58414   1.58582   1.59493   1.59855   1.60046
 Alpha virt. eigenvalues --    1.60350   1.60541   1.61245   1.61786   1.62083
 Alpha virt. eigenvalues --    1.62328   1.62504   1.62985   1.63216   1.63292
 Alpha virt. eigenvalues --    1.63480   1.63939   1.64806   1.64908   1.65291
 Alpha virt. eigenvalues --    1.66312   1.67103   1.67286   1.67447   1.67673
 Alpha virt. eigenvalues --    1.68099   1.68385   1.68968   1.69219   1.70160
 Alpha virt. eigenvalues --    1.70413   1.70771   1.71056   1.71337   1.71742
 Alpha virt. eigenvalues --    1.71979   1.72087   1.72511   1.72758   1.72868
 Alpha virt. eigenvalues --    1.73346   1.73612   1.73942   1.74226   1.74369
 Alpha virt. eigenvalues --    1.74480   1.74742   1.74899   1.75051   1.75089
 Alpha virt. eigenvalues --    1.75538   1.75672   1.76062   1.76346   1.76720
 Alpha virt. eigenvalues --    1.76834   1.77136   1.77470   1.77576   1.77653
 Alpha virt. eigenvalues --    1.78029   1.78214   1.78370   1.78485   1.78734
 Alpha virt. eigenvalues --    1.79045   1.79227   1.79480   1.79601   1.79982
 Alpha virt. eigenvalues --    1.80327   1.80420   1.80487   1.80984   1.81067
 Alpha virt. eigenvalues --    1.81299   1.81356   1.81699   1.81956   1.82093
 Alpha virt. eigenvalues --    1.82150   1.82370   1.82496   1.82838   1.82995
 Alpha virt. eigenvalues --    1.83340   1.83418   1.83505   1.83911   1.84032
 Alpha virt. eigenvalues --    1.84078   1.84449   1.84657   1.84726   1.84940
 Alpha virt. eigenvalues --    1.85194   1.85326   1.85655   1.85821   1.85924
 Alpha virt. eigenvalues --    1.85947   1.86167   1.86280   1.86361   1.86798
 Alpha virt. eigenvalues --    1.87014   1.87104   1.87277   1.87626   1.88029
 Alpha virt. eigenvalues --    1.88215   1.88438   1.88578   1.88839   1.88949
 Alpha virt. eigenvalues --    1.89172   1.89402   1.89516   1.89867   1.90100
 Alpha virt. eigenvalues --    1.90622   1.90818   1.90963   1.91142   1.91771
 Alpha virt. eigenvalues --    1.92059   1.92186   1.92602   1.92927   1.93133
 Alpha virt. eigenvalues --    1.93173   1.93448   1.93748   1.93851   1.94293
 Alpha virt. eigenvalues --    1.94666   1.94792   1.94972   1.95412   1.95640
 Alpha virt. eigenvalues --    1.95904   1.95948   1.96150   1.96321   1.96445
 Alpha virt. eigenvalues --    1.96681   1.97198   1.97359   1.97614   1.98030
 Alpha virt. eigenvalues --    1.98678   1.98910   1.99338   2.00025   2.00252
 Alpha virt. eigenvalues --    2.00295   2.00614   2.00742   2.01126   2.01209
 Alpha virt. eigenvalues --    2.01709   2.01998   2.02185   2.02435   2.02758
 Alpha virt. eigenvalues --    2.03593   2.03869   2.04302   2.04590   2.04880
 Alpha virt. eigenvalues --    2.05319   2.05587   2.05959   2.06058   2.06460
 Alpha virt. eigenvalues --    2.06513   2.06594   2.07068   2.07702   2.07793
 Alpha virt. eigenvalues --    2.08260   2.08599   2.08898   2.08952   2.09527
 Alpha virt. eigenvalues --    2.09757   2.09997   2.10286   2.10359   2.10796
 Alpha virt. eigenvalues --    2.11066   2.11840   2.12181   2.12246   2.12590
 Alpha virt. eigenvalues --    2.13108   2.13219   2.13455   2.13859   2.14113
 Alpha virt. eigenvalues --    2.14297   2.14747   2.15045   2.15106   2.15775
 Alpha virt. eigenvalues --    2.15996   2.16490   2.17311   2.17499   2.17698
 Alpha virt. eigenvalues --    2.17985   2.18268   2.18480   2.18759   2.18886
 Alpha virt. eigenvalues --    2.19080   2.19752   2.20283   2.21380   2.21496
 Alpha virt. eigenvalues --    2.21627   2.22185   2.22964   2.23263   2.23716
 Alpha virt. eigenvalues --    2.23868   2.24331   2.24629   2.24898   2.25361
 Alpha virt. eigenvalues --    2.25792   2.26027   2.26451   2.26794   2.27359
 Alpha virt. eigenvalues --    2.27644   2.28031   2.28777   2.29046   2.29239
 Alpha virt. eigenvalues --    2.29492   2.29867   2.30428   2.30926   2.31167
 Alpha virt. eigenvalues --    2.31565   2.31797   2.32833   2.32926   2.33297
 Alpha virt. eigenvalues --    2.33439   2.33481   2.34443   2.34692   2.34733
 Alpha virt. eigenvalues --    2.35005   2.35063   2.35742   2.35838   2.36243
 Alpha virt. eigenvalues --    2.36741   2.36823   2.37263   2.37427   2.37765
 Alpha virt. eigenvalues --    2.38922   2.39001   2.39430   2.39441   2.39517
 Alpha virt. eigenvalues --    2.39749   2.40380   2.40528   2.40991   2.41413
 Alpha virt. eigenvalues --    2.42140   2.42550   2.42828   2.43054   2.43599
 Alpha virt. eigenvalues --    2.43821   2.44249   2.44392   2.45576   2.45771
 Alpha virt. eigenvalues --    2.46234   2.46388   2.47033   2.47706   2.47748
 Alpha virt. eigenvalues --    2.47991   2.48390   2.48811   2.49008   2.49250
 Alpha virt. eigenvalues --    2.49661   2.50273   2.50958   2.51385   2.51743
 Alpha virt. eigenvalues --    2.52172   2.52647   2.53466   2.53749   2.53856
 Alpha virt. eigenvalues --    2.54863   2.54938   2.54985   2.55501   2.55850
 Alpha virt. eigenvalues --    2.56305   2.56685   2.57679   2.57854   2.57935
 Alpha virt. eigenvalues --    2.58165   2.58484   2.58778   2.59574   2.59904
 Alpha virt. eigenvalues --    2.60479   2.60578   2.61001   2.61578   2.62190
 Alpha virt. eigenvalues --    2.62485   2.62534   2.63316   2.64090   2.64203
 Alpha virt. eigenvalues --    2.64653   2.65193   2.65254   2.65935   2.66267
 Alpha virt. eigenvalues --    2.66795   2.66905   2.67597   2.67838   2.67900
 Alpha virt. eigenvalues --    2.68129   2.68639   2.69389   2.69611   2.69935
 Alpha virt. eigenvalues --    2.70015   2.70775   2.71675   2.72212   2.72489
 Alpha virt. eigenvalues --    2.73462   2.73612   2.73704   2.74353   2.74402
 Alpha virt. eigenvalues --    2.75040   2.75551   2.75958   2.76383   2.76413
 Alpha virt. eigenvalues --    2.77234   2.77487   2.78189   2.78900   2.79800
 Alpha virt. eigenvalues --    2.79954   2.80352   2.80776   2.81220   2.81652
 Alpha virt. eigenvalues --    2.81962   2.82872   2.83150   2.83260   2.83994
 Alpha virt. eigenvalues --    2.84622   2.85018   2.85944   2.86263   2.87028
 Alpha virt. eigenvalues --    2.87730   2.87859   2.88083   2.88363   2.88998
 Alpha virt. eigenvalues --    2.89317   2.89957   2.90324   2.90959   2.91215
 Alpha virt. eigenvalues --    2.91456   2.92094   2.92222   2.92605   2.92769
 Alpha virt. eigenvalues --    2.93151   2.93233   2.93766   2.93826   2.94110
 Alpha virt. eigenvalues --    2.94530   2.94953   2.95087   2.95172   2.96029
 Alpha virt. eigenvalues --    2.96101   2.96261   2.96399   2.96529   2.97149
 Alpha virt. eigenvalues --    2.97540   2.97749   2.97929   2.97985   2.98410
 Alpha virt. eigenvalues --    2.98840   2.99946   3.00091   3.00186   3.00512
 Alpha virt. eigenvalues --    3.00562   3.00743   3.01026   3.01867   3.02082
 Alpha virt. eigenvalues --    3.02298   3.02760   3.02978   3.03243   3.03301
 Alpha virt. eigenvalues --    3.04140   3.04401   3.04642   3.04953   3.05259
 Alpha virt. eigenvalues --    3.05523   3.06099   3.06239   3.06909   3.07582
 Alpha virt. eigenvalues --    3.07803   3.08985   3.09413   3.09925   3.10270
 Alpha virt. eigenvalues --    3.10533   3.11000   3.11351   3.11934   3.12051
 Alpha virt. eigenvalues --    3.12953   3.13790   3.13825   3.14088   3.15160
 Alpha virt. eigenvalues --    3.17509   3.17819   3.18720   3.18779   3.19254
 Alpha virt. eigenvalues --    3.20001   3.21311   3.22092   3.23508   3.23976
 Alpha virt. eigenvalues --    3.25466   3.26590   3.37107   3.39663   3.43126
 Alpha virt. eigenvalues --    3.44488   3.45378   3.48215   3.50735   3.54222
 Alpha virt. eigenvalues --    3.55969   3.60176   3.62309   3.63267   3.65858
 Alpha virt. eigenvalues --    3.67913   3.70416
          Condensed to atoms (all electrons):
 Mulliken charges:
               1
     1  Mg   0.994835
     2  C   -0.062708
     3  C   -0.115261
     4  C   -0.059653
     5  C   -0.071466
     6  N   -0.383006
     7  C    0.092981
     8  C   -0.083437
     9  C   -0.124364
    10  C    0.070884
    11  C    0.020864
    12  C   -0.017725
    13  C   -0.078061
    14  C    0.234295
    15  O   -0.225698
    16  O   -0.370012
    17  N   -0.484517
    18  C    0.186872
    19  C   -0.168624
    20  C   -0.095285
    21  C    0.160691
    22  C    0.056078
    23  C    0.078602
    24  O   -0.282643
    25  C   -0.020709
    26  N   -0.332139
    27  C    0.020132
    28  C   -0.086805
    29  C   -0.093994
    30  C    0.017321
    31  C    0.013419
    32  C   -0.039667
    33  C   -0.060466
    34  N   -0.512203
    35  C    0.184744
    36  C   -0.180310
    37  C   -0.019927
    38  C    0.197700
    39  C    0.090133
    40  C    0.104492
    41  O   -0.262119
    42  C   -0.114480
    43  C    0.292304
    44  O   -0.224953
    45  O   -0.392540
    46  C    0.117606
    47  C    0.242893
    48  C   -0.104647
    49  C   -0.281556
    50  C    0.055742
    51  C    0.004235
    52  C   -0.010924
    53  C   -0.013323
    54  C   -0.291487
    55  C    0.016949
    56  C    0.016533
    57  C   -0.070936
    58  C    0.044083
    59  C   -0.231159
    60  C   -0.037238
    61  C    0.014703
    62  C   -0.045966
    63  C   -0.021381
    64  C   -0.274441
    65  C   -0.001143
    66  C   -0.009541
    67  H    0.023289
    68  H    0.023561
    69  H   -0.003071
    70  H    0.045246
    71  H    0.045994
    72  H    0.034238
    73  H    0.055555
    74  H    0.052690
    75  H    0.038925
    76  H    0.081337
    77  H    0.073586
    78  H    0.064659
    79  H    0.048920
    80  H    0.044916
    81  H    0.061815
    82  H    0.058259
    83  H    0.056099
    84  H    0.058518
    85  H    0.052489
    86  H    0.036646
    87  H    0.033409
    88  H    0.045111
    89  H    0.059054
    90  H    0.041956
    91  H    0.027909
    92  H    0.064851
    93  H    0.043509
    94  H    0.042740
    95  H    0.073512
    96  H    0.073907
    97  H    0.038082
    98  H    0.082189
    99  H    0.045772
   100  H    0.079580
   101  H    0.052368
   102  H    0.078458
   103  H    0.036975
   104  H    0.013217
   105  H    0.047606
   106  H    0.059833
   107  H    0.029855
   108  H    0.010370
   109  H    0.030980
   110  H    0.018265
   111  H    0.025335
   112  H    0.016257
   113  H    0.026662
   114  H    0.052678
   115  H    0.032971
   116  H    0.022518
   117  H    0.042642
   118  H    0.020660
   119  H    0.036475
   120  H    0.039900
   121  H    0.023038
   122  H    0.030024
   123  H    0.022808
   124  H    0.036772
   125  H    0.045012
   126  H    0.028149
   127  H    0.037453
   128  H    0.014100
   129  H    0.028713
   130  H    0.018738
   131  H    0.027711
   132  H    0.027684
   133  H    0.041347
   134  H    0.039133
   135  H    0.035972
   136  H    0.026257
   137  H    0.042057
   138  H    0.033160
   139  H    0.027651
   140  H    0.042369
 Sum of Mulliken charges =  -0.00000
 Mulliken charges with hydrogens summed into heavy atoms:
               1
     1  Mg   0.994835
     2  C   -0.062708
     3  C   -0.091972
     4  C   -0.036092
     5  C   -0.074538
     6  N   -0.383006
     7  C    0.092981
     8  C   -0.038192
     9  C   -0.078370
    10  C    0.070884
    11  C    0.163347
    12  C    0.102536
    13  C    0.060184
    14  C    0.234295
    15  O   -0.225698
    16  O   -0.370012
    17  N   -0.484517
    18  C    0.186872
    19  C   -0.168624
    20  C   -0.095285
    21  C    0.160691
    22  C    0.211729
    23  C    0.078602
    24  O   -0.282643
    25  C    0.152167
    26  N   -0.332139
    27  C    0.020132
    28  C   -0.034317
    29  C   -0.057349
    30  C    0.017321
    31  C    0.150993
    32  C    0.030199
    33  C    0.090634
    34  N   -0.512203
    35  C    0.184744
    36  C   -0.180310
    37  C   -0.019927
    38  C    0.197700
    39  C    0.275633
    40  C    0.104492
    41  O   -0.262119
    42  C   -0.032291
    43  C    0.292304
    44  O   -0.224953
    45  O   -0.392540
    46  C    0.295326
    47  C    0.358325
    48  C   -0.091429
    49  C   -0.281556
    50  C    0.193036
    51  C    0.045585
    52  C    0.032676
    53  C    0.029596
    54  C   -0.238808
    55  C    0.115080
    56  C    0.073668
    57  C   -0.007998
    58  C    0.096915
    59  C   -0.194387
    60  C    0.073377
    61  C    0.057516
    62  C    0.000483
    63  C    0.047650
    64  C   -0.235309
    65  C    0.103143
    66  C    0.093638
 Electronic spatial extent (au):  <R**2>=         132879.8591
 Charge=             -0.0000 electrons
 Dipole moment (field-independent basis, Debye):
    X=             -1.2152    Y=              3.3154    Z=             -3.2307  Tot=              4.7860
 Quadrupole moment (field-independent basis, Debye-Ang):
   XX=           -364.4946   YY=           -407.6806   ZZ=           -402.7119
   XY=             -0.0629   XZ=             -1.6221   YZ=             -9.3821
 Traceless Quadrupole moment (field-independent basis, Debye-Ang):
   XX=             27.1344   YY=            -16.0516   ZZ=            -11.0829
   XY=             -0.0629   XZ=             -1.6221   YZ=             -9.3821
 Octapole moment (field-independent basis, Debye-Ang**2):
  XXX=            295.7479  YYY=            139.5627  ZZZ=             -6.1254  XYY=           -179.6418
  XXY=           -271.1264  XXZ=             17.9908  XZZ=             55.8486  YZZ=             -3.4238
  YYZ=            -34.0862  XYZ=            -80.8910
 Hexadecapole moment (field-independent basis, Debye-Ang**3):
 XXXX=        -152838.9879 YYYY=         -19965.1475 ZZZZ=          -6449.2209 XXXY=          -3169.9956
 XXXZ=           1072.7677 YYYX=            884.1432 YYYZ=           -410.4316 ZZZX=             62.6468
 ZZZY=             38.6122 XXYY=         -30263.3181 XXZZ=         -27408.9226 YYZZ=          -4445.5414
 XXYZ=           -572.8371 YYXZ=           -323.0236 ZZXY=              6.1869
 N-N= 9.472572497017D+03 E-N=-2.593669915880D+04  KE= 2.975183997107D+03
 Leave Link  601 at Tue May  3 21:13:43 2022, MaxMem= 10066329600 cpu:              11.8 elap:               0.6
 (Enter /sw/apps/gaussian-16.0/g16/l9999.exe)
 1\1\GINC-BP1-COMPUTE128\SP\RPBE1PBE TD-FC\def2SVP\C55H74Mg1N4O6\OF1564
 1\03-May-2022\0\\#p PBE1PBE/Def2SVP td=(nstates=5)\\step_1051_chromoph
 ore_1 TDDFT with PBE1PBE functional\\0,1\Mg,0,-2.122,17.921,26.572\C,0
 ,-2.533,15.93,29.433\C,0,-3.13,20.557,28.322\C,0,-2.26,19.595,23.679\C
 ,0,-1.536,14.998,24.698\N,0,-2.824,18.208,28.654\C,0,-2.881,17.286,29.
 697\C,0,-3.181,17.997,31.014\C,0,-3.635,19.444,30.526\C,0,-3.085,19.43
 4,29.118\C,0,-5.255,19.604,30.497\C,0,-1.894,18.14,32.037\C,0,-2.067,1
 7.633,33.516\C,0,-0.728,17.556,34.317\O,0,0.374,17.793,33.912\O,0,-1.0
 24,17.408,35.654\N,0,-2.47,19.847,26.074\C,0,-2.929,20.792,26.974\C,0,
 -3.022,22.078,26.293\C,0,-2.502,21.824,24.978\C,0,-2.428,20.333,24.876
 \C,0,-3.508,23.341,26.918\C,0,-2.172,22.794,23.838\O,0,-1.847,22.434,2
 2.662\C,0,-2.184,24.272,24.084\N,0,-1.869,17.399,24.486\C,0,-2.064,18.
 249,23.455\C,0,-2.138,17.562,22.113\C,0,-1.655,16.152,22.469\C,0,-1.66
 8,16.204,24.029\C,0,-3.534,17.738,21.401\C,0,-0.396,15.866,21.698\C,0,
 0.895,16.116,22.49\N,0,-2.005,15.889,26.911\C,0,-1.72,14.764,26.059\C,
 0,-1.694,13.551,26.816\C,0,-2.017,14.,28.137\C,0,-2.179,15.395,28.141\
 C,0,-1.476,12.163,26.325\C,0,-2.163,13.546,29.47\O,0,-2.042,12.396,29.
 963\C,0,-2.668,14.766,30.436\C,0,-1.681,14.839,31.55\O,0,-0.518,15.143
 ,31.543\O,0,-2.267,14.409,32.73\C,0,-1.351,13.918,33.798\C,0,0.04,17.3
 88,36.59\C,0,-0.297,18.279,37.827\C,0,-0.137,18.01,39.153\C,0,0.408,16
 .762,39.751\C,0,-0.561,19.085,40.153\C,0,0.514,19.985,40.739\C,0,0.637
 ,21.399,40.033\C,0,1.225,22.567,40.907\C,0,0.546,23.864,40.375\C,0,2.7
 55,22.524,40.83\C,0,3.284,23.384,41.965\C,0,3.757,22.476,43.074\C,0,3.
 925,23.332,44.296\C,0,5.404,23.052,44.838\C,0,2.82,22.995,45.38\C,0,1.
 458,23.678,45.108\C,0,0.284,22.699,44.88\C,0,-0.97,23.245,45.581\C,0,-
 1.07,22.781,47.054\C,0,-2.266,22.817,44.832\H,0,-3.116,21.498,28.876\H
 ,0,-2.261,20.162,22.746\H,0,-1.301,14.203,23.988\H,0,-3.916,17.501,31.
 647\H,0,-3.132,20.218,31.106\H,0,-5.483,20.162,29.589\H,0,-5.566,20.23
 ,31.333\H,0,-5.813,18.684,30.324\H,0,-1.577,19.176,32.157\H,0,-1.049,1
 7.645,31.558\H,0,-2.561,16.663,33.568\H,0,-2.689,18.361,34.036\H,0,-4.
 097,22.981,27.762\H,0,-4.218,23.892,26.301\H,0,-2.749,24.107,27.076\H,
 0,-3.211,24.603,24.235\H,0,-1.829,24.918,23.281\H,0,-1.571,24.428,24.9
 72\H,0,-1.427,18.092,21.479\H,0,-2.447,15.484,22.131\H,0,-4.054,16.795
 ,21.236\H,0,-3.295,18.08,20.394\H,0,-4.227,18.392,21.93\H,0,-0.271,16.
 302,20.706\H,0,-0.579,14.817,21.468\H,0,0.642,16.544,23.46\H,0,1.572,1
 6.759,21.927\H,0,1.422,15.177,22.659\H,0,-2.445,11.709,26.116\H,0,-0.8
 74,11.685,27.098\H,0,-0.892,12.272,25.411\H,0,-3.689,14.575,30.766\H,0
 ,-1.381,14.691,34.566\H,0,-0.337,13.659,33.492\H,0,-1.718,13.037,34.32
 3\H,0,1.032,17.631,36.209\H,0,0.007,16.352,36.928\H,0,-0.83,19.22,37.6
 92\H,0,-0.452,16.344,40.275\H,0,1.191,16.969,40.48\H,0,0.568,16.116,38
 .888\H,0,-0.917,18.452,40.966\H,0,-1.392,19.671,39.762\H,0,1.421,19.38
 2,40.697\H,0,0.361,20.091,41.813\H,0,-0.306,21.59,39.52\H,0,1.345,21.3
 19,39.209\H,0,0.841,22.418,41.916\H,0,-0.44,23.891,40.84\H,0,0.176,23.
 706,39.362\H,0,1.295,24.656,40.358\H,0,2.967,22.904,39.83\H,0,3.041,21
 .475,40.897\H,0,2.541,24.099,42.319\H,0,4.141,23.924,41.562\H,0,4.708,
 22.032,42.781\H,0,2.939,21.757,43.125\H,0,3.904,24.388,44.025\H,0,5.58
 9,22.078,45.291\H,0,5.557,23.823,45.594\H,0,6.077,23.255,44.005\H,0,3.
 188,23.452,46.299\H,0,2.726,21.931,45.596\H,0,1.571,24.345,44.254\H,0,
 1.24,24.391,45.903\H,0,0.47,21.655,45.133\H,0,0.186,22.68,43.795\H,0,-
 0.816,24.323,45.529\H,0,-2.073,22.858,47.474\H,0,-0.507,23.571,47.553\
 H,0,-0.679,21.786,47.263\H,0,-3.004,22.248,45.397\H,0,-2.034,22.154,43
 .999\H,0,-2.592,23.813,44.532\\Version=ES64L-G16RevA.03\State=1-A\HF=-
 3005.3442811\RMSD=4.232e-09\PG=C01 [X(C55H74Mg1N4O6)]\\@


 WE THE UNWILLING
 LED BY THE UNQUALIFIED
 HAVE BEEN DOING THE UNBELIEVABLE SO LONG WITH SO LITTLE
 THAT WE NOW ATTEMPT THE IMPOSSIBLE WITH NOTHING.

                                    -- ANONYMOUS
 Job cpu time:       0 days  6 hours 36 minutes 27.3 seconds.
 Elapsed time:       0 days  0 hours 16 minutes 37.1 seconds.
 File lengths (MBytes):  RWF=   8929 Int=      0 D2E=      0 Chk=    390 Scr=      1
 Normal termination of Gaussian 16 at Tue May  3 21:13:44 2022.
