 Entering Gaussian System, Link 0=g16
 Initial command:
 /sw/apps/gaussian-16.0/g16/l1.exe "/tmp/Gau-27759.inp" -scrdir="/tmp/"
 Entering Link 1 = /sw/apps/gaussian-16.0/g16/l1.exe PID=     27760.
  
 Copyright (c) 1988,1990,1992,1993,1995,1998,2003,2009,2016,
            Gaussian, Inc.  All Rights Reserved.
  
 This is part of the Gaussian(R) 16 program.  It is based on
 the Gaussian(R) 09 system (copyright 2009, Gaussian, Inc.),
 the Gaussian(R) 03 system (copyright 2003, Gaussian, Inc.),
 the Gaussian(R) 98 system (copyright 1998, Gaussian, Inc.),
 the Gaussian(R) 94 system (copyright 1995, Gaussian, Inc.),
 the Gaussian 92(TM) system (copyright 1992, Gaussian, Inc.),
 the Gaussian 90(TM) system (copyright 1990, Gaussian, Inc.),
 the Gaussian 88(TM) system (copyright 1988, Gaussian, Inc.),
 the Gaussian 86(TM) system (copyright 1986, Carnegie Mellon
 University), and the Gaussian 82(TM) system (copyright 1983,
 Carnegie Mellon University). Gaussian is a federally registered
 trademark of Gaussian, Inc.
  
 This software contains proprietary and confidential information,
 including trade secrets, belonging to Gaussian, Inc.
  
 This software is provided under written license and may be
 used, copied, transmitted, or stored only in accord with that
 written license.
  
 The following legend is applicable only to US Government
 contracts under FAR:
  
                    RESTRICTED RIGHTS LEGEND
  
 Use, reproduction and disclosure by the US Government is
 subject to restrictions as set forth in subparagraphs (a)
 and (c) of the Commercial Computer Software - Restricted
 Rights clause in FAR 52.227-19.
  
 Gaussian, Inc.
 340 Quinnipiac St., Bldg. 40, Wallingford CT 06492
  
  
 ---------------------------------------------------------------
 Warning -- This program may not be used in any manner that
 competes with the business of Gaussian, Inc. or will provide
 assistance to any competitor of Gaussian, Inc.  The licensee
 of this program is prohibited from giving any competitor of
 Gaussian, Inc. access to this program.  By using this program,
 the user acknowledges that Gaussian, Inc. is engaged in the
 business of creating and licensing software in the field of
 computational chemistry and represents and warrants to the
 licensee that it is not a competitor of Gaussian, Inc. and that
 it will not use this program in any manner prohibited above.
 ---------------------------------------------------------------
  

 Cite this work as:
 Gaussian 16, Revision A.03,
 M. J. Frisch, G. W. Trucks, H. B. Schlegel, G. E. Scuseria, 
 M. A. Robb, J. R. Cheeseman, G. Scalmani, V. Barone, 
 G. A. Petersson, H. Nakatsuji, X. Li, M. Caricato, A. V. Marenich, 
 J. Bloino, B. G. Janesko, R. Gomperts, B. Mennucci, H. P. Hratchian, 
 J. V. Ortiz, A. F. Izmaylov, J. L. Sonnenberg, D. Williams-Young, 
 F. Ding, F. Lipparini, F. Egidi, J. Goings, B. Peng, A. Petrone, 
 T. Henderson, D. Ranasinghe, V. G. Zakrzewski, J. Gao, N. Rega, 
 G. Zheng, W. Liang, M. Hada, M. Ehara, K. Toyota, R. Fukuda, 
 J. Hasegawa, M. Ishida, T. Nakajima, Y. Honda, O. Kitao, H. Nakai, 
 T. Vreven, K. Throssell, J. A. Montgomery, Jr., J. E. Peralta, 
 F. Ogliaro, M. J. Bearpark, J. J. Heyd, E. N. Brothers, K. N. Kudin, 
 V. N. Staroverov, T. A. Keith, R. Kobayashi, J. Normand, 
 K. Raghavachari, A. P. Rendell, J. C. Burant, S. S. Iyengar, 
 J. Tomasi, M. Cossi, J. M. Millam, M. Klene, C. Adamo, R. Cammi, 
 J. W. Ochterski, R. L. Martin, K. Morokuma, O. Farkas, 
 J. B. Foresman, and D. J. Fox, Gaussian, Inc., Wallingford CT, 2016.
 
 ******************************************
 Gaussian 16:  ES64L-G16RevA.03 25-Dec-2016
                29-Apr-2022 
 ******************************************
 %nproc=24
 Will use up to   24 processors via shared memory.
 %mem=75GB
 --------------------------------
 #p wB97XD/Def2SVP td=(nstates=5)
 --------------------------------
 1/38=1,172=1/1;
 2/12=2,17=6,18=5,40=1/2;
 3/5=43,7=101,11=9,25=1,30=1,74=-58/1,2,3,8;
 4//1;
 5/5=2,38=5/2;
 8/6=1,10=1,108=5/1;
 9/41=5,42=1,70=2/14;
 6/7=2,8=2,9=2,10=2/1;
 99/5=1,9=1/99;
 Leave Link    1 at Fri Apr 29 21:19:39 2022, MaxMem= 10066329600 cpu:               0.7 elap:               0.0
 (Enter /sw/apps/gaussian-16.0/g16/l101.exe)
 ----------------------------------------------------
 step_501_chromophore_12 TDDFT with wB97XD functional
 ----------------------------------------------------
 Symbolic Z-matrix:
 Charge =  0 Multiplicity = 1
 Mg                    46.936    15.625    28.058 
 C                     44.932    15.296    30.937 
 C                     49.09     17.559    29.833 
 C                     48.76     16.004    25.235 
 C                     44.458    14.021    26.229 
 N                     46.958    16.417    30.082 
 C                     46.097    16.059    31.123 
 C                     46.628    16.601    32.416 
 C                     47.629    17.68     31.939 
 C                     47.921    17.182    30.5 
 C                     47.128    19.158    31.891 
 C                     47.277    15.546    33.389 
 C                     46.823    15.653    34.81 
 C                     47.918    15.572    35.89 
 O                     48.554    14.555    36.161 
 O                     48.138    16.74     36.624 
 N                     48.693    16.535    27.656 
 C                     49.516    17.231    28.557 
 C                     50.692    17.655    27.908 
 C                     50.642    17.2      26.507 
 C                     49.366    16.549    26.42 
 C                     51.746    18.547    28.496 
 C                     51.622    17.408    25.272 
 O                     51.379    16.913    24.197 
 C                     52.942    18.148    25.435 
 N                     46.59     15.18     25.997 
 C                     47.507    15.463    25.036 
 C                     46.956    15.017    23.598 
 C                     45.704    14.106    23.965 
 C                     45.552    14.449    25.508 
 C                     46.571    16.163    22.622 
 C                     45.923    12.573    23.705 
 C                     44.848    12.011    22.873 
 N                     45.055    14.86     28.457 
 C                     44.202    14.133    27.628 
 C                     43.059    13.685    28.376 
 C                     43.291    14.14     29.658 
 C                     44.479    14.8      29.683 
 C                     41.946    12.804    27.751 
 C                     42.745    14.209    31.001 
 O                     41.65     13.856    31.38 
 C                     43.81     15.006    31.906 
 C                     43.16     16.206    32.464 
 O                     42.63     17.116    31.774 
 O                     43.204    16.125    33.825 
 C                     42.271    17.048    34.524 
 C                     49.085    16.573    37.754 
 C                     49.246    17.81     38.592 
 C                     50.486    18.118    39.058 
 C                     51.768    17.333    38.861 
 C                     50.745    19.482    39.719 
 C                     51.698    20.567    39.125 
 C                     51.246    21.847    39.614 
 C                     52.263    22.999    39.112 
 C                     53.193    23.439    40.228 
 C                     51.621    24.225    38.391 
 C                     51.675    24.145    36.844 
 C                     52.768    25.003    36.156 
 C                     53.608    24.299    35.106 
 C                     54.987    23.75     35.693 
 C                     53.935    25.213    33.887 
 C                     52.808    25.092    32.722 
 C                     53.165    24.787    31.278 
 C                     52.285    23.646    30.652 
 C                     50.803    23.969    30.341 
 C                     52.379    22.365    31.513 
 H                     49.713    18.206    30.454 
 H                     49.276    16.094    24.277 
 H                     43.659    13.583    25.628 
 H                     45.898    17.172    32.991 
 H                     48.538    17.726    32.539 
 H                     46.412    19.408    32.675 
 H                     46.696    19.313    30.902 
 H                     47.905    19.922    31.896 
 H                     48.352    15.689    33.281 
 H                     47.12     14.526    33.037 
 H                     46.116    14.825    34.864 
 H                     46.374    16.632    34.977 
 H                     52.688    18.061    28.751 
 H                     51.399    18.922    29.458 
 H                     52.048    19.431    27.935 
 H                     53.468    18.018    24.49 
 H                     53.472    17.832    26.334 
 H                     52.751    19.177    25.741 
 H                     47.741    14.502    23.044 
 H                     44.84     14.473    23.409 
 H                     46.632    17.178    23.016 
 H                     45.554    16.075    22.239 
 H                     47.247    16.086    21.77 
 H                     45.878    12.05     24.661 
 H                     46.85     12.328    23.187 
 H                     45.207    11.939    21.846 
 H                     43.863    12.476    22.893 
 H                     44.583    11.022    23.247 
 H                     42.319    12.37     26.823 
 H                     41.       13.343    27.682 
 H                     41.837    11.979    28.454 
 H                     44.196    14.384    32.714 
 H                     42.26     16.836    35.593 
 H                     41.279    16.758    34.177 
 H                     42.557    18.06     34.236 
 H                     50.116    16.369    37.464 
 H                     48.887    15.66     38.315 
 H                     48.436    18.538    38.635 
 H                     52.108    17.062    37.862 
 H                     51.615    16.352    39.31 
 H                     52.529    17.803    39.485 
 H                     50.865    19.184    40.761 
 H                     49.78     19.98     39.625 
 H                     51.867    20.589    38.049 
 H                     52.675    20.282    39.516 
 H                     51.026    22.016    40.668 
 H                     50.307    22.065    39.106 
 H                     52.955    22.591    38.375 
 H                     54.148    23.621    39.735 
 H                     53.455    22.659    40.943 
 H                     52.878    24.326    40.776 
 H                     52.018    25.215    38.614 
 H                     50.597    24.282    38.759 
 H                     50.699    24.576    36.62 
 H                     51.79     23.075    36.667 
 H                     53.424    25.407    36.928 
 H                     52.368    25.897    35.679 
 H                     53.098    23.416    34.72 
 H                     55.248    23.037    34.912 
 H                     54.668    23.308    36.637 
 H                     55.806    24.456    35.831 
 H                     54.917    25.015    33.458 
 H                     54.019    26.247    34.22 
 H                     52.475    26.129    32.739 
 H                     52.001    24.456    33.087 
 H                     54.2      24.511    31.077 
 H                     52.954    25.62     30.607 
 H                     52.741    23.468    29.678 
 H                     50.664    24.953    30.79 
 H                     50.096    23.216    30.689 
 H                     50.768    24.112    29.261 
 H                     52.621    21.526    30.861 
 H                     51.434    22.209    32.034 
 H                     53.214    22.356    32.213 
 
 ITRead=  0  0  0  0  0  0  0  0  0  0  0  0  0  0  0  0  0  0  0  0
 ITRead=  0  0  0  0  0  0  0  0  0  0  0  0  0  0  0  0  0  0  0  0
 ITRead=  0  0  0  0  0  0  0  0  0  0  0  0  0  0  0  0  0  0  0  0
 ITRead=  0  0  0  0  0  0  0  0  0  0  0  0  0  0  0  0  0  0  0  0
 ITRead=  0  0  0  0  0  0  0  0  0  0  0  0  0  0  0  0  0  0  0  0
 ITRead=  0  0  0  0  0  0  0  0  0  0  0  0  0  0  0  0  0  0  0  0
 ITRead=  0  0  0  0  0  0  0  0  0  0  0  0  0  0  0  0  0  0  0  0
 MicOpt= -1 -1 -1 -1 -1 -1 -1 -1 -1 -1 -1 -1 -1 -1 -1 -1 -1 -1 -1 -1
 MicOpt= -1 -1 -1 -1 -1 -1 -1 -1 -1 -1 -1 -1 -1 -1 -1 -1 -1 -1 -1 -1
 MicOpt= -1 -1 -1 -1 -1 -1 -1 -1 -1 -1 -1 -1 -1 -1 -1 -1 -1 -1 -1 -1
 MicOpt= -1 -1 -1 -1 -1 -1 -1 -1 -1 -1 -1 -1 -1 -1 -1 -1 -1 -1 -1 -1
 MicOpt= -1 -1 -1 -1 -1 -1 -1 -1 -1 -1 -1 -1 -1 -1 -1 -1 -1 -1 -1 -1
 MicOpt= -1 -1 -1 -1 -1 -1 -1 -1 -1 -1 -1 -1 -1 -1 -1 -1 -1 -1 -1 -1
 MicOpt= -1 -1 -1 -1 -1 -1 -1 -1 -1 -1 -1 -1 -1 -1 -1 -1 -1 -1 -1 -1
 NAtoms=    140 NQM=      140 NQMF=       0 NMMI=      0 NMMIF=      0
                NMic=       0 NMicF=      0.
                    Isotopes and Nuclear Properties:
 (Nuclear quadrupole moments (NQMom) in fm**2, nuclear magnetic moments (NMagM)
  in nuclear magnetons)

  Atom         1           2           3           4           5           6           7           8           9          10
 IAtWgt=          24          12          12          12          12          14          12          12          12          12
 AtmWgt=  23.9850450  12.0000000  12.0000000  12.0000000  12.0000000  14.0030740  12.0000000  12.0000000  12.0000000  12.0000000
 NucSpn=           0           0           0           0           0           2           0           0           0           0
 AtZEff=  -0.0000000  -0.0000000  -0.0000000  -0.0000000  -0.0000000  -0.0000000  -0.0000000  -0.0000000  -0.0000000  -0.0000000
 NQMom=    0.0000000   0.0000000   0.0000000   0.0000000   0.0000000   2.0440000   0.0000000   0.0000000   0.0000000   0.0000000
 NMagM=    0.0000000   0.0000000   0.0000000   0.0000000   0.0000000   0.4037610   0.0000000   0.0000000   0.0000000   0.0000000
 AtZNuc=  12.0000000   6.0000000   6.0000000   6.0000000   6.0000000   7.0000000   6.0000000   6.0000000   6.0000000   6.0000000

  Atom        11          12          13          14          15          16          17          18          19          20
 IAtWgt=          12          12          12          12          16          16          14          12          12          12
 AtmWgt=  12.0000000  12.0000000  12.0000000  12.0000000  15.9949146  15.9949146  14.0030740  12.0000000  12.0000000  12.0000000
 NucSpn=           0           0           0           0           0           0           2           0           0           0
 AtZEff=  -0.0000000  -0.0000000  -0.0000000  -0.0000000  -0.0000000  -0.0000000  -0.0000000  -0.0000000  -0.0000000  -0.0000000
 NQMom=    0.0000000   0.0000000   0.0000000   0.0000000   0.0000000   0.0000000   2.0440000   0.0000000   0.0000000   0.0000000
 NMagM=    0.0000000   0.0000000   0.0000000   0.0000000   0.0000000   0.0000000   0.4037610   0.0000000   0.0000000   0.0000000
 AtZNuc=   6.0000000   6.0000000   6.0000000   6.0000000   8.0000000   8.0000000   7.0000000   6.0000000   6.0000000   6.0000000

  Atom        21          22          23          24          25          26          27          28          29          30
 IAtWgt=          12          12          12          16          12          14          12          12          12          12
 AtmWgt=  12.0000000  12.0000000  12.0000000  15.9949146  12.0000000  14.0030740  12.0000000  12.0000000  12.0000000  12.0000000
 NucSpn=           0           0           0           0           0           2           0           0           0           0
 AtZEff=  -0.0000000  -0.0000000  -0.0000000  -0.0000000  -0.0000000  -0.0000000  -0.0000000  -0.0000000  -0.0000000  -0.0000000
 NQMom=    0.0000000   0.0000000   0.0000000   0.0000000   0.0000000   2.0440000   0.0000000   0.0000000   0.0000000   0.0000000
 NMagM=    0.0000000   0.0000000   0.0000000   0.0000000   0.0000000   0.4037610   0.0000000   0.0000000   0.0000000   0.0000000
 AtZNuc=   6.0000000   6.0000000   6.0000000   8.0000000   6.0000000   7.0000000   6.0000000   6.0000000   6.0000000   6.0000000

  Atom        31          32          33          34          35          36          37          38          39          40
 IAtWgt=          12          12          12          14          12          12          12          12          12          12
 AtmWgt=  12.0000000  12.0000000  12.0000000  14.0030740  12.0000000  12.0000000  12.0000000  12.0000000  12.0000000  12.0000000
 NucSpn=           0           0           0           2           0           0           0           0           0           0
 AtZEff=  -0.0000000  -0.0000000  -0.0000000  -0.0000000  -0.0000000  -0.0000000  -0.0000000  -0.0000000  -0.0000000  -0.0000000
 NQMom=    0.0000000   0.0000000   0.0000000   2.0440000   0.0000000   0.0000000   0.0000000   0.0000000   0.0000000   0.0000000
 NMagM=    0.0000000   0.0000000   0.0000000   0.4037610   0.0000000   0.0000000   0.0000000   0.0000000   0.0000000   0.0000000
 AtZNuc=   6.0000000   6.0000000   6.0000000   7.0000000   6.0000000   6.0000000   6.0000000   6.0000000   6.0000000   6.0000000

  Atom        41          42          43          44          45          46          47          48          49          50
 IAtWgt=          16          12          12          16          16          12          12          12          12          12
 AtmWgt=  15.9949146  12.0000000  12.0000000  15.9949146  15.9949146  12.0000000  12.0000000  12.0000000  12.0000000  12.0000000
 NucSpn=           0           0           0           0           0           0           0           0           0           0
 AtZEff=  -0.0000000  -0.0000000  -0.0000000  -0.0000000  -0.0000000  -0.0000000  -0.0000000  -0.0000000  -0.0000000  -0.0000000
 NQMom=    0.0000000   0.0000000   0.0000000   0.0000000   0.0000000   0.0000000   0.0000000   0.0000000   0.0000000   0.0000000
 NMagM=    0.0000000   0.0000000   0.0000000   0.0000000   0.0000000   0.0000000   0.0000000   0.0000000   0.0000000   0.0000000
 AtZNuc=   8.0000000   6.0000000   6.0000000   8.0000000   8.0000000   6.0000000   6.0000000   6.0000000   6.0000000   6.0000000

  Atom        51          52          53          54          55          56          57          58          59          60
 IAtWgt=          12          12          12          12          12          12          12          12          12          12
 AtmWgt=  12.0000000  12.0000000  12.0000000  12.0000000  12.0000000  12.0000000  12.0000000  12.0000000  12.0000000  12.0000000
 NucSpn=           0           0           0           0           0           0           0           0           0           0
 AtZEff=  -0.0000000  -0.0000000  -0.0000000  -0.0000000  -0.0000000  -0.0000000  -0.0000000  -0.0000000  -0.0000000  -0.0000000
 NQMom=    0.0000000   0.0000000   0.0000000   0.0000000   0.0000000   0.0000000   0.0000000   0.0000000   0.0000000   0.0000000
 NMagM=    0.0000000   0.0000000   0.0000000   0.0000000   0.0000000   0.0000000   0.0000000   0.0000000   0.0000000   0.0000000
 AtZNuc=   6.0000000   6.0000000   6.0000000   6.0000000   6.0000000   6.0000000   6.0000000   6.0000000   6.0000000   6.0000000

  Atom        61          62          63          64          65          66          67          68          69          70
 IAtWgt=          12          12          12          12          12          12           1           1           1           1
 AtmWgt=  12.0000000  12.0000000  12.0000000  12.0000000  12.0000000  12.0000000   1.0078250   1.0078250   1.0078250   1.0078250
 NucSpn=           0           0           0           0           0           0           1           1           1           1
 AtZEff=  -0.0000000  -0.0000000  -0.0000000  -0.0000000  -0.0000000  -0.0000000  -0.0000000  -0.0000000  -0.0000000  -0.0000000
 NQMom=    0.0000000   0.0000000   0.0000000   0.0000000   0.0000000   0.0000000   0.0000000   0.0000000   0.0000000   0.0000000
 NMagM=    0.0000000   0.0000000   0.0000000   0.0000000   0.0000000   0.0000000   2.7928460   2.7928460   2.7928460   2.7928460
 AtZNuc=   6.0000000   6.0000000   6.0000000   6.0000000   6.0000000   6.0000000   1.0000000   1.0000000   1.0000000   1.0000000

  Atom        71          72          73          74          75          76          77          78          79          80
 IAtWgt=           1           1           1           1           1           1           1           1           1           1
 AtmWgt=   1.0078250   1.0078250   1.0078250   1.0078250   1.0078250   1.0078250   1.0078250   1.0078250   1.0078250   1.0078250
 NucSpn=           1           1           1           1           1           1           1           1           1           1
 AtZEff=  -0.0000000  -0.0000000  -0.0000000  -0.0000000  -0.0000000  -0.0000000  -0.0000000  -0.0000000  -0.0000000  -0.0000000
 NQMom=    0.0000000   0.0000000   0.0000000   0.0000000   0.0000000   0.0000000   0.0000000   0.0000000   0.0000000   0.0000000
 NMagM=    2.7928460   2.7928460   2.7928460   2.7928460   2.7928460   2.7928460   2.7928460   2.7928460   2.7928460   2.7928460
 AtZNuc=   1.0000000   1.0000000   1.0000000   1.0000000   1.0000000   1.0000000   1.0000000   1.0000000   1.0000000   1.0000000

  Atom        81          82          83          84          85          86          87          88          89          90
 IAtWgt=           1           1           1           1           1           1           1           1           1           1
 AtmWgt=   1.0078250   1.0078250   1.0078250   1.0078250   1.0078250   1.0078250   1.0078250   1.0078250   1.0078250   1.0078250
 NucSpn=           1           1           1           1           1           1           1           1           1           1
 AtZEff=  -0.0000000  -0.0000000  -0.0000000  -0.0000000  -0.0000000  -0.0000000  -0.0000000  -0.0000000  -0.0000000  -0.0000000
 NQMom=    0.0000000   0.0000000   0.0000000   0.0000000   0.0000000   0.0000000   0.0000000   0.0000000   0.0000000   0.0000000
 NMagM=    2.7928460   2.7928460   2.7928460   2.7928460   2.7928460   2.7928460   2.7928460   2.7928460   2.7928460   2.7928460
 AtZNuc=   1.0000000   1.0000000   1.0000000   1.0000000   1.0000000   1.0000000   1.0000000   1.0000000   1.0000000   1.0000000

  Atom        91          92          93          94          95          96          97          98          99         100
 IAtWgt=           1           1           1           1           1           1           1           1           1           1
 AtmWgt=   1.0078250   1.0078250   1.0078250   1.0078250   1.0078250   1.0078250   1.0078250   1.0078250   1.0078250   1.0078250
 NucSpn=           1           1           1           1           1           1           1           1           1           1
 AtZEff=  -0.0000000  -0.0000000  -0.0000000  -0.0000000  -0.0000000  -0.0000000  -0.0000000  -0.0000000  -0.0000000  -0.0000000
 NQMom=    0.0000000   0.0000000   0.0000000   0.0000000   0.0000000   0.0000000   0.0000000   0.0000000   0.0000000   0.0000000
 NMagM=    2.7928460   2.7928460   2.7928460   2.7928460   2.7928460   2.7928460   2.7928460   2.7928460   2.7928460   2.7928460
 AtZNuc=   1.0000000   1.0000000   1.0000000   1.0000000   1.0000000   1.0000000   1.0000000   1.0000000   1.0000000   1.0000000

  Atom       101         102         103         104         105         106         107         108         109         110
 IAtWgt=           1           1           1           1           1           1           1           1           1           1
 AtmWgt=   1.0078250   1.0078250   1.0078250   1.0078250   1.0078250   1.0078250   1.0078250   1.0078250   1.0078250   1.0078250
 NucSpn=           1           1           1           1           1           1           1           1           1           1
 AtZEff=  -0.0000000  -0.0000000  -0.0000000  -0.0000000  -0.0000000  -0.0000000  -0.0000000  -0.0000000  -0.0000000  -0.0000000
 NQMom=    0.0000000   0.0000000   0.0000000   0.0000000   0.0000000   0.0000000   0.0000000   0.0000000   0.0000000   0.0000000
 NMagM=    2.7928460   2.7928460   2.7928460   2.7928460   2.7928460   2.7928460   2.7928460   2.7928460   2.7928460   2.7928460
 AtZNuc=   1.0000000   1.0000000   1.0000000   1.0000000   1.0000000   1.0000000   1.0000000   1.0000000   1.0000000   1.0000000

  Atom       111         112         113         114         115         116         117         118         119         120
 IAtWgt=           1           1           1           1           1           1           1           1           1           1
 AtmWgt=   1.0078250   1.0078250   1.0078250   1.0078250   1.0078250   1.0078250   1.0078250   1.0078250   1.0078250   1.0078250
 NucSpn=           1           1           1           1           1           1           1           1           1           1
 AtZEff=  -0.0000000  -0.0000000  -0.0000000  -0.0000000  -0.0000000  -0.0000000  -0.0000000  -0.0000000  -0.0000000  -0.0000000
 NQMom=    0.0000000   0.0000000   0.0000000   0.0000000   0.0000000   0.0000000   0.0000000   0.0000000   0.0000000   0.0000000
 NMagM=    2.7928460   2.7928460   2.7928460   2.7928460   2.7928460   2.7928460   2.7928460   2.7928460   2.7928460   2.7928460
 AtZNuc=   1.0000000   1.0000000   1.0000000   1.0000000   1.0000000   1.0000000   1.0000000   1.0000000   1.0000000   1.0000000

  Atom       121         122         123         124         125         126         127         128         129         130
 IAtWgt=           1           1           1           1           1           1           1           1           1           1
 AtmWgt=   1.0078250   1.0078250   1.0078250   1.0078250   1.0078250   1.0078250   1.0078250   1.0078250   1.0078250   1.0078250
 NucSpn=           1           1           1           1           1           1           1           1           1           1
 AtZEff=  -0.0000000  -0.0000000  -0.0000000  -0.0000000  -0.0000000  -0.0000000  -0.0000000  -0.0000000  -0.0000000  -0.0000000
 NQMom=    0.0000000   0.0000000   0.0000000   0.0000000   0.0000000   0.0000000   0.0000000   0.0000000   0.0000000   0.0000000
 NMagM=    2.7928460   2.7928460   2.7928460   2.7928460   2.7928460   2.7928460   2.7928460   2.7928460   2.7928460   2.7928460
 AtZNuc=   1.0000000   1.0000000   1.0000000   1.0000000   1.0000000   1.0000000   1.0000000   1.0000000   1.0000000   1.0000000

  Atom       131         132         133         134         135         136         137         138         139         140
 IAtWgt=           1           1           1           1           1           1           1           1           1           1
 AtmWgt=   1.0078250   1.0078250   1.0078250   1.0078250   1.0078250   1.0078250   1.0078250   1.0078250   1.0078250   1.0078250
 NucSpn=           1           1           1           1           1           1           1           1           1           1
 AtZEff=  -0.0000000  -0.0000000  -0.0000000  -0.0000000  -0.0000000  -0.0000000  -0.0000000  -0.0000000  -0.0000000  -0.0000000
 NQMom=    0.0000000   0.0000000   0.0000000   0.0000000   0.0000000   0.0000000   0.0000000   0.0000000   0.0000000   0.0000000
 NMagM=    2.7928460   2.7928460   2.7928460   2.7928460   2.7928460   2.7928460   2.7928460   2.7928460   2.7928460   2.7928460
 AtZNuc=   1.0000000   1.0000000   1.0000000   1.0000000   1.0000000   1.0000000   1.0000000   1.0000000   1.0000000   1.0000000
 Leave Link  101 at Fri Apr 29 21:19:39 2022, MaxMem= 10066329600 cpu:               2.8 elap:               0.1
 (Enter /sw/apps/gaussian-16.0/g16/l202.exe)
 Stoichiometry    C55H74MgN4O6
 Framework group  C1[X(C55H74MgN4O6)]
 Deg. of freedom   414
 Full point group                 C1      NOp   1
 Largest Abelian subgroup         C1      NOp   1
 Largest concise Abelian subgroup C1      NOp   1
                         Standard orientation:                         
 ---------------------------------------------------------------------
 Center     Atomic      Atomic             Coordinates (Angstroms)
 Number     Number       Type             X           Y           Z
 ---------------------------------------------------------------------
      1         12           0        4.211738    0.473088    0.285027
      2          6           0        3.215866   -2.828536   -0.436369
      3          6           0        0.942538    1.358139    0.529388
      4          6           0        5.221326    3.650117    0.857011
      5          6           0        7.489008   -0.429436   -0.424545
      6          7           0        2.326175   -0.564104   -0.020269
      7          6           0        2.154436   -1.939835   -0.196437
      8          6           0        0.699286   -2.278954   -0.073504
      9          6           0        0.019233   -0.901899   -0.260634
     10          6           0        1.187442    0.046376    0.113600
     11          6           0       -0.509168   -0.546017   -1.686092
     12          6           0        0.271699   -3.000895    1.259510
     13          6           0       -0.602832   -4.197997    1.062159
     14          6           0       -1.825638   -4.317271    1.990870
     15          8           0       -1.763368   -4.551109    3.196552
     16          8           0       -3.073415   -4.196366    1.374579
     17          7           0        3.229419    2.178651    0.735423
     18          6           0        1.843141    2.346438    0.889133
     19          6           0        1.557142    3.669846    1.277395
     20          6           0        2.828237    4.406267    1.397092
     21          6           0        3.808589    3.430816    1.013749
     22          6           0        0.187923    4.271827    1.400608
     23          6           0        3.165954    5.922471    1.737626
     24          8           0        4.310561    6.304112    1.800254
     25          6           0        2.063915    6.909659    2.094751
     26          7           0        6.084106    1.488338    0.114824
     27          6           0        6.213254    2.811226    0.393728
     28          6           0        7.730389    3.277927    0.168220
     29          6           0        8.512338    1.897053    0.050510
     30          6           0        7.289304    0.895967   -0.103165
     31          6           0        7.993497    4.197657   -1.056111
     32          6           0        9.417507    1.560383    1.288643
     33          6           0       10.795654    1.251517    0.877540
     34          7           0        5.174495   -1.243369   -0.354865
     35          6           0        6.538990   -1.491308   -0.496488
     36          6           0        6.751883   -2.872807   -0.832337
     37          6           0        5.484805   -3.419337   -0.846155
     38          6           0        4.583588   -2.450202   -0.536071
     39          6           0        8.168232   -3.480055   -1.007723
     40          6           0        4.727723   -4.633979   -1.086983
     41          8           0        5.133604   -5.694641   -1.508327
     42          6           0        3.176459   -4.282101   -0.845688
     43          6           0        2.427491   -4.546295   -2.087908
     44          8           0        2.675744   -4.007843   -3.198556
     45          8           0        1.473272   -5.484475   -1.823138
     46          6           0        0.897214   -6.130384   -3.032260
     47          6           0       -4.220091   -4.474271    2.274302
     48          6           0       -5.552913   -4.430613    1.581472
     49          6           0       -6.606731   -3.880024    2.241729
     50          6           0       -6.620991   -3.311059    3.646946
     51          6           0       -7.923909   -3.603491    1.498043
     52          6           0       -8.501626   -2.172561    1.259397
     53          6           0       -9.332261   -2.237841    0.081429
     54          6           0      -10.040395   -0.803439   -0.151883
     55          6           0      -11.492674   -0.826517    0.288923
     56          6           0       -9.888033   -0.177636   -1.573234
     57          6           0       -8.758325    0.878395   -1.678518
     58          6           0       -9.210290    2.361567   -1.669329
     59          6           0       -8.457099    3.284088   -0.728386
     60          6           0       -9.203643    3.474282    0.669508
     61          6           0       -8.214578    4.696952   -1.339356
     62          6           0       -6.808810    4.770253   -2.152030
     63          6           0       -5.768890    5.841918   -1.876872
     64          6           0       -4.317649    5.264920   -1.706198
     65          6           0       -3.602903    4.729541   -2.971062
     66          6           0       -4.295996    4.193445   -0.591483
     67          1           0       -0.126986    1.577427    0.549623
     68          1           0        5.630597    4.650591    1.010859
     69          1           0        8.511639   -0.679427   -0.712951
     70          1           0        0.308901   -2.867135   -0.904894
     71          1           0       -0.843149   -0.750555    0.388818
     72          1           0       -0.884999   -1.403775   -2.245390
     73          1           0        0.312092   -0.062395   -2.215632
     74          1           0       -1.267437    0.235426   -1.728817
     75          1           0       -0.208061   -2.225766    1.856791
     76          1           0        1.138050   -3.283079    1.858477
     77          1           0        0.115806   -5.004950    1.206154
     78          1           0       -1.043201   -4.168024    0.065611
     79          1           0       -0.158077    4.454845    2.418141
     80          1           0       -0.547513    3.565061    1.018386
     81          1           0       -0.015057    5.207369    0.880087
     82          1           0        2.576537    7.814646    2.418510
     83          1           0        1.349183    6.478266    2.796189
     84          1           0        1.381584    7.019526    1.251358
     85          1           0        8.051246    3.908117    0.997845
     86          1           0        9.103021    1.916240   -0.866576
     87          1           0        7.142609    4.391773   -1.709940
     88          1           0        8.770710    3.815895   -1.718622
     89          1           0        8.343945    5.150832   -0.659308
     90          1           0        9.029449    0.659998    1.766354
     91          1           0        9.505150    2.364257    2.019248
     92          1           0       11.411042    2.137360    1.036831
     93          1           0       10.974541    0.846036   -0.117666
     94          1           0       11.172322    0.421691    1.475647
     95          1           0        8.899027   -2.805848   -0.560452
     96          1           0        8.354185   -3.770303   -2.042796
     97          1           0        8.151397   -4.372734   -0.383578
     98          1           0        2.754519   -4.865921   -0.027235
     99          1           0        0.247136   -6.956881   -2.745683
    100          1           0        1.744955   -6.606836   -3.525110
    101          1           0        0.437120   -5.337143   -3.622148
    102          1           0       -4.364617   -3.746975    3.073570
    103          1           0       -4.048218   -5.359988    2.885414
    104          1           0       -5.608945   -4.636788    0.512695
    105          1           0       -5.911231   -2.539417    3.943343
    106          1           0       -6.352592   -4.121989    4.323500
    107          1           0       -7.660176   -3.085990    3.889505
    108          1           0       -8.567429   -4.369587    1.931572
    109          1           0       -7.689658   -3.905232    0.477189
    110          1           0       -7.816054   -1.326989    1.216725
    111          1           0       -9.068033   -1.977063    2.170221
    112          1           0      -10.080922   -3.018427   -0.052993
    113          1           0       -8.663136   -2.358888   -0.769997
    114          1           0       -9.603438   -0.058601    0.513535
    115          1           0      -11.662929    0.156627    0.727829
    116          1           0      -11.708159   -1.487198    1.128766
    117          1           0      -12.217715   -1.015776   -0.501516
    118          1           0      -10.753167    0.323244   -2.006937
    119          1           0       -9.724383   -1.015926   -2.249797
    120          1           0       -8.390083    0.630767   -2.674305
    121          1           0       -8.112806    0.617770   -0.838974
    122          1           0      -10.273641    2.395075   -1.429124
    123          1           0       -9.164713    2.825220   -2.654069
    124          1           0       -7.481279    2.872257   -0.469629
    125          1           0       -8.379725    3.863818    1.266058
    126          1           0       -9.503573    2.452766    0.903618
    127          1           0      -10.045362    4.165455    0.714559
    128          1           0       -8.240517    5.492565   -0.595114
    129          1           0       -9.042061    4.954478   -1.999700
    130          1           0       -7.224240    4.996348   -3.133277
    131          1           0       -6.371068    3.771853   -2.175459
    132          1           0       -5.940794    6.480467   -1.010555
    133          1           0       -5.636067    6.525238   -2.715968
    134          1           0       -3.727299    6.127785   -1.397578
    135          1           0       -4.387267    4.753736   -3.728271
    136          1           0       -3.135399    3.753174   -2.844135
    137          1           0       -2.887585    5.507091   -3.239037
    138          1           0       -3.489136    4.430453    0.101620
    139          1           0       -4.164177    3.208064   -1.039200
    140          1           0       -5.167799    4.209157    0.061985
 ---------------------------------------------------------------------
 Rotational constants (GHZ):           0.0360791           0.0151005           0.0116756
 Leave Link  202 at Fri Apr 29 21:19:39 2022, MaxMem= 10066329600 cpu:               0.2 elap:               0.0
 (Enter /sw/apps/gaussian-16.0/g16/l301.exe)
 Standard basis: def2SVP (5D, 7F)
 Ernie: Thresh=  0.10000D-02 Tol=  0.10000D-05 Strict=F.
 There are  1364 symmetry adapted cartesian basis functions of A   symmetry.
 There are  1298 symmetry adapted basis functions of A   symmetry.
  1298 basis functions,  2180 primitive gaussians,  1364 cartesian basis functions
   246 alpha electrons      246 beta electrons
       nuclear repulsion energy      9818.4597710726 Hartrees.
 IExCor= 4639 DFT=T Ex+Corr=wB97XD ExCW=0 ScaHFX=  1.000000
 ScaDFX=  1.000000  1.000000  1.000000  1.000000 ScalE2=  1.000000  1.000000
 IRadAn=      5 IRanWt=     -1 IRanGd=            0 ICorTp=0 IEmpDi=121
 HFx  wShort=  0.000000 wLong=  0.200000 cFull=  0.222036 cShort=  0.000000 cLong=  0.777964
 DFx  wShort=  0.000000 wLong=  0.200000 cFull=  0.000000 cShort=  0.000000 cLong=  1.000000
 NAtoms=  140 NActive=  140 NUniq=  140 SFac= 1.00D+00 NAtFMM=   60 NAOKFM=T Big=T
 Integral buffers will be    131072 words long.
 Raffenetti 1 integral format.
 Two-electron integral symmetry is turned on.
 R6Disp:  Grimme-D2 Dispersion energy=       -0.1322055907 Hartrees.
 Nuclear repulsion after empirical dispersion term =     9818.3275654819 Hartrees.
 Leave Link  301 at Fri Apr 29 21:19:39 2022, MaxMem= 10066329600 cpu:               1.3 elap:               0.1
 (Enter /sw/apps/gaussian-16.0/g16/l302.exe)
 NPDir=0 NMtPBC=     1 NCelOv=     1 NCel=       1 NClECP=     1 NCelD=      1
         NCelK=      1 NCelE2=     1 NClLst=     1 CellRange=     0.0.
 One-electron integrals computed using PRISM.
 One-electron integral symmetry used in STVInt
   1 Symmetry operations used in ECPInt.
 ECPInt:  NShTT=  192510 NPrTT=  683786 LenC2=  104041 LenP2D=  222619.
 LDataN:  DoStor=T MaxTD1= 4 Len=   56
 NBasis=  1298 RedAO= T EigKep=  2.91D-04  NBF=  1298
 NBsUse=  1298 1.00D-06 EigRej= -1.00D+00 NBFU=  1298
 Precomputing XC quadrature grid using
 IXCGrd= 4 IRadAn=           5 IRanWt=          -1 IRanGd=           0 AccXCQ= 0.00D+00.
 Generated NRdTot=       0 NPtTot=           0 NUsed=           0 NTot=          32
 NSgBfM=  1195  1192  1192  1195  1195 MxSgAt=   140 MxSgA2=   140.
 Leave Link  302 at Fri Apr 29 21:19:43 2022, MaxMem= 10066329600 cpu:              89.6 elap:               3.8
 (Enter /sw/apps/gaussian-16.0/g16/l303.exe)
 DipDrv:  MaxL=1.
 Leave Link  303 at Fri Apr 29 21:19:44 2022, MaxMem= 10066329600 cpu:               6.1 elap:               0.3
 (Enter /sw/apps/gaussian-16.0/g16/l308.exe)
 Leave Link  308 at Fri Apr 29 21:19:44 2022, MaxMem= 10066329600 cpu:              10.3 elap:               0.5
 (Enter /sw/apps/gaussian-16.0/g16/l401.exe)
 ExpMin= 3.36D-02 ExpMax= 4.95D+03 ExpMxC= 7.45D+02 IAcc=3 IRadAn=         5 AccDes= 0.00D+00
 Harris functional with IExCor= 4639 and IRadAn=       5 diagonalized for initial guess.
 HarFok:  IExCor= 4639 AccDes= 0.00D+00 IRadAn=         5 IDoV= 1 UseB2=F ITyADJ=14
 ICtDFT=  3500011 ScaDFX=  1.000000  1.000000  1.000000  1.000000
 FoFCou: FMM=F IPFlag=           0 FMFlag=      100000 FMFlg1=        2001
         NFxFlg=           0 DoJE=T BraDBF=F KetDBF=T FulRan=T
         wScrn=  0.000000 ICntrl=       500 IOpCl=  0 I1Cent=   200000004 NGrid=           0
         NMat0=    1 NMatS0=      1 NMatT0=    0 NMatD0=    1 NMtDS0=    0 NMtDT0=    0
 Petite list used in FoFCou.
 Harris En= -2878.00827458230    
 JPrj=0 DoOrth=F DoCkMO=F.
 Leave Link  401 at Fri Apr 29 21:19:51 2022, MaxMem= 10066329600 cpu:             163.7 elap:               6.9
 (Enter /sw/apps/gaussian-16.0/g16/l502.exe)
 Integral symmetry usage will be decided dynamically.
 Closed shell SCF:
 Using DIIS extrapolation, IDIIS=  1040.
 NGot= 10066329600 LenX= 10062561258 LenY= 10060699398
 Requested convergence on RMS density matrix=1.00D-08 within 128 cycles.
 Requested convergence on MAX density matrix=1.00D-06.
 Requested convergence on             energy=1.00D-06.
 No special actions if energy rises.
 Fock matrices will be formed incrementally for  20 cycles.

 Cycle   1  Pass 1  IDiag  1:
 FoFJK:  IHMeth= 1 ICntrl=       0 DoSepK=T KAlg= 0 I1Cent=           0 FoldK=F
 IRaf=         1 NMat=       1 IRICut=       1 DoRegI=T DoRafI=F ISym2E= 0 IDoP0=0 IntGTp=1.
 FoFCou: FMM=T IPFlag=           0 FMFlag=      100000 FMFlg1=        2001
         NFxFlg=           0 DoJE=T BraDBF=F KetDBF=F FulRan=T
         wScrn=  0.000000 ICntrl=       500 IOpCl=  0 I1Cent=           0 NGrid=           0
         NMat0=    1 NMatS0=      1 NMatT0=    0 NMatD0=    1 NMtDS0=    0 NMtDT0=    0
 Symmetry not used in FoFCou.
 FMM levels:  10  Number of levels for PrismC:   9
 E= -3007.18816701739    
 DIIS: error= 3.72D-02 at cycle   1 NSaved=   1.
 NSaved= 1 IEnMin= 1 EnMin= -3007.18816701739     IErMin= 1 ErrMin= 3.72D-02
 ErrMax= 3.72D-02  0.00D+00 EMaxC= 1.00D-01 BMatC= 1.49D+00 BMatP= 1.49D+00
 IDIUse=3 WtCom= 6.28D-01 WtEn= 3.72D-01
 Coeff-Com:  0.100D+01
 Coeff-En:   0.100D+01
 Coeff:      0.100D+01
 Gap=     0.155 Goal=   None    Shift=    0.000
 GapD=    0.155 DampG=1.000 DampE=0.500 DampFc=0.5000 IDamp=-1.
 Damping current iteration by 5.00D-01
 RMSDP=1.50D-03 MaxDP=2.16D-01              OVMax= 1.48D-01

 Cycle   2  Pass 1  IDiag  1:
 RMSU=  7.43D-04    CP:  9.87D-01
 E= -3007.51078788014     Delta-E=       -0.322620862742 Rises=F Damp=T
 DIIS: error= 1.53D-02 at cycle   2 NSaved=   2.
 NSaved= 2 IEnMin= 2 EnMin= -3007.51078788014     IErMin= 2 ErrMin= 1.53D-02
 ErrMax= 1.53D-02  0.00D+00 EMaxC= 1.00D-01 BMatC= 2.89D-01 BMatP= 1.49D+00
 IDIUse=3 WtCom= 8.47D-01 WtEn= 1.53D-01
 Coeff-Com: -0.349D+00 0.135D+01
 Coeff-En:   0.000D+00 0.100D+01
 Coeff:     -0.296D+00 0.130D+01
 Gap=     0.174 Goal=   None    Shift=    0.000
 RMSDP=6.92D-04 MaxDP=7.78D-02 DE=-3.23D-01 OVMax= 1.21D-01

 Cycle   3  Pass 1  IDiag  1:
 RMSU=  6.39D-04    CP:  9.79D-01  1.34D+00
 E= -3007.74984016840     Delta-E=       -0.239052288262 Rises=F Damp=F
 DIIS: error= 1.30D-02 at cycle   3 NSaved=   3.
 NSaved= 3 IEnMin= 3 EnMin= -3007.74984016840     IErMin= 3 ErrMin= 1.30D-02
 ErrMax= 1.30D-02  0.00D+00 EMaxC= 1.00D-01 BMatC= 1.36D-01 BMatP= 2.89D-01
 IDIUse=3 WtCom= 8.70D-01 WtEn= 1.30D-01
 Coeff-Com: -0.306D+00 0.682D+00 0.624D+00
 Coeff-En:   0.000D+00 0.000D+00 0.100D+01
 Coeff:     -0.266D+00 0.593D+00 0.673D+00
 Gap=     0.161 Goal=   None    Shift=    0.000
 RMSDP=4.03D-04 MaxDP=4.65D-02 DE=-2.39D-01 OVMax= 7.61D-02

 Cycle   4  Pass 1  IDiag  1:
 RMSU=  2.16D-04    CP:  9.76D-01  1.62D+00  5.77D-01
 E= -3007.84681447052     Delta-E=       -0.096974302121 Rises=F Damp=F
 DIIS: error= 4.83D-03 at cycle   4 NSaved=   4.
 NSaved= 4 IEnMin= 4 EnMin= -3007.84681447052     IErMin= 4 ErrMin= 4.83D-03
 ErrMax= 4.83D-03  0.00D+00 EMaxC= 1.00D-01 BMatC= 2.12D-02 BMatP= 1.36D-01
 IDIUse=3 WtCom= 9.52D-01 WtEn= 4.83D-02
 Coeff-Com: -0.114D+00 0.230D+00 0.372D+00 0.513D+00
 Coeff-En:   0.000D+00 0.000D+00 0.106D+00 0.894D+00
 Coeff:     -0.109D+00 0.218D+00 0.359D+00 0.531D+00
 Gap=     0.160 Goal=   None    Shift=    0.000
 RMSDP=1.26D-04 MaxDP=1.63D-02 DE=-9.70D-02 OVMax= 2.14D-02

 Cycle   5  Pass 1  IDiag  1:
 RMSU=  6.00D-05    CP:  9.76D-01  1.59D+00  7.04D-01  6.64D-01
 E= -3007.86384160336     Delta-E=       -0.017027132842 Rises=F Damp=F
 DIIS: error= 6.45D-04 at cycle   5 NSaved=   5.
 NSaved= 5 IEnMin= 5 EnMin= -3007.86384160336     IErMin= 5 ErrMin= 6.45D-04
 ErrMax= 6.45D-04  0.00D+00 EMaxC= 1.00D-01 BMatC= 4.50D-04 BMatP= 2.12D-02
 IDIUse=3 WtCom= 9.94D-01 WtEn= 6.45D-03
 Coeff-Com: -0.301D-01 0.573D-01 0.123D+00 0.232D+00 0.618D+00
 Coeff-En:   0.000D+00 0.000D+00 0.000D+00 0.000D+00 0.100D+01
 Coeff:     -0.299D-01 0.570D-01 0.122D+00 0.230D+00 0.621D+00
 Gap=     0.159 Goal=   None    Shift=    0.000
 RMSDP=2.29D-05 MaxDP=3.27D-03 DE=-1.70D-02 OVMax= 4.78D-03

 Cycle   6  Pass 1  IDiag  1:
 RMSU=  1.98D-05    CP:  9.76D-01  1.59D+00  7.07D-01  7.06D-01  8.97D-01
 E= -3007.86419287119     Delta-E=       -0.000351267829 Rises=F Damp=F
 DIIS: error= 2.78D-04 at cycle   6 NSaved=   6.
 NSaved= 6 IEnMin= 6 EnMin= -3007.86419287119     IErMin= 6 ErrMin= 2.78D-04
 ErrMax= 2.78D-04  0.00D+00 EMaxC= 1.00D-01 BMatC= 6.47D-05 BMatP= 4.50D-04
 IDIUse=3 WtCom= 9.97D-01 WtEn= 2.78D-03
 Coeff-Com:  0.893D-02-0.194D-01-0.142D-01 0.283D-02 0.282D+00 0.740D+00
 Coeff-En:   0.000D+00 0.000D+00 0.000D+00 0.000D+00 0.000D+00 0.100D+01
 Coeff:      0.891D-02-0.194D-01-0.141D-01 0.282D-02 0.281D+00 0.741D+00
 Gap=     0.160 Goal=   None    Shift=    0.000
 RMSDP=1.13D-05 MaxDP=1.85D-03 DE=-3.51D-04 OVMax= 3.40D-03

 Cycle   7  Pass 1  IDiag  1:
 RMSU=  7.57D-06    CP:  9.76D-01  1.59D+00  7.11D-01  7.24D-01  9.99D-01
                    CP:  9.45D-01
 E= -3007.86426575602     Delta-E=       -0.000072884832 Rises=F Damp=F
 DIIS: error= 8.94D-05 at cycle   7 NSaved=   7.
 NSaved= 7 IEnMin= 7 EnMin= -3007.86426575602     IErMin= 7 ErrMin= 8.94D-05
 ErrMax= 8.94D-05  0.00D+00 EMaxC= 1.00D-01 BMatC= 6.37D-06 BMatP= 6.47D-05
 IDIUse=1 WtCom= 1.00D+00 WtEn= 0.00D+00
 Coeff-Com:  0.629D-02-0.128D-01-0.162D-01-0.217D-01 0.465D-01 0.284D+00
 Coeff-Com:  0.713D+00
 Coeff:      0.629D-02-0.128D-01-0.162D-01-0.217D-01 0.465D-01 0.284D+00
 Coeff:      0.713D+00
 Gap=     0.160 Goal=   None    Shift=    0.000
 RMSDP=4.32D-06 MaxDP=6.47D-04 DE=-7.29D-05 OVMax= 1.61D-03

 Cycle   8  Pass 1  IDiag  1:
 RMSU=  2.98D-06    CP:  9.76D-01  1.59D+00  7.14D-01  7.26D-01  1.02D+00
                    CP:  1.06D+00  1.05D+00
 E= -3007.86427634604     Delta-E=       -0.000010590016 Rises=F Damp=F
 DIIS: error= 2.88D-05 at cycle   8 NSaved=   8.
 NSaved= 8 IEnMin= 8 EnMin= -3007.86427634604     IErMin= 8 ErrMin= 2.88D-05
 ErrMax= 2.88D-05  0.00D+00 EMaxC= 1.00D-01 BMatC= 1.58D-06 BMatP= 6.37D-06
 IDIUse=1 WtCom= 1.00D+00 WtEn= 0.00D+00
 Coeff-Com:  0.156D-02-0.292D-02-0.550D-02-0.119D-01-0.296D-01 0.337D-02
 Coeff-Com:  0.349D+00 0.696D+00
 Coeff:      0.156D-02-0.292D-02-0.550D-02-0.119D-01-0.296D-01 0.337D-02
 Coeff:      0.349D+00 0.696D+00
 Gap=     0.160 Goal=   None    Shift=    0.000
 RMSDP=2.39D-06 MaxDP=3.52D-04 DE=-1.06D-05 OVMax= 1.24D-03

 Cycle   9  Pass 1  IDiag  1:
 RMSU=  1.54D-06    CP:  9.76D-01  1.59D+00  7.14D-01  7.28D-01  1.04D+00
                    CP:  1.09D+00  1.23D+00  1.13D+00
 E= -3007.86428007774     Delta-E=       -0.000003731702 Rises=F Damp=F
 DIIS: error= 1.87D-05 at cycle   9 NSaved=   9.
 NSaved= 9 IEnMin= 9 EnMin= -3007.86428007774     IErMin= 9 ErrMin= 1.87D-05
 ErrMax= 1.87D-05  0.00D+00 EMaxC= 1.00D-01 BMatC= 2.43D-07 BMatP= 1.58D-06
 IDIUse=1 WtCom= 1.00D+00 WtEn= 0.00D+00
 Coeff-Com: -0.617D-03 0.131D-02 0.122D-02 0.497D-04-0.173D-01-0.501D-01
 Coeff-Com: -0.977D-02 0.214D+00 0.861D+00
 Coeff:     -0.617D-03 0.131D-02 0.122D-02 0.497D-04-0.173D-01-0.501D-01
 Coeff:     -0.977D-02 0.214D+00 0.861D+00
 Gap=     0.160 Goal=   None    Shift=    0.000
 RMSDP=1.56D-06 MaxDP=1.05D-04 DE=-3.73D-06 OVMax= 9.57D-04

 Cycle  10  Pass 1  IDiag  1:
 RMSU=  7.81D-07    CP:  9.76D-01  1.59D+00  7.14D-01  7.28D-01  1.04D+00
                    CP:  1.11D+00  1.32D+00  1.42D+00  1.42D+00
 E= -3007.86428157852     Delta-E=       -0.000001500781 Rises=F Damp=F
 DIIS: error= 1.42D-05 at cycle  10 NSaved=  10.
 NSaved=10 IEnMin=10 EnMin= -3007.86428157852     IErMin=10 ErrMin= 1.42D-05
 ErrMax= 1.42D-05  0.00D+00 EMaxC= 1.00D-01 BMatC= 8.93D-08 BMatP= 2.43D-07
 IDIUse=1 WtCom= 1.00D+00 WtEn= 0.00D+00
 Coeff-Com: -0.747D-03 0.146D-02 0.226D-02 0.388D-02 0.273D-02-0.217D-01
 Coeff-Com: -0.114D+00-0.146D+00 0.309D+00 0.963D+00
 Coeff:     -0.747D-03 0.146D-02 0.226D-02 0.388D-02 0.273D-02-0.217D-01
 Coeff:     -0.114D+00-0.146D+00 0.309D+00 0.963D+00
 Gap=     0.160 Goal=   None    Shift=    0.000
 RMSDP=1.43D-06 MaxDP=1.04D-04 DE=-1.50D-06 OVMax= 9.24D-04

 Cycle  11  Pass 1  IDiag  1:
 RMSU=  4.58D-07    CP:  9.76D-01  1.59D+00  7.14D-01  7.28D-01  1.04D+00
                    CP:  1.13D+00  1.39D+00  1.66D+00  1.97D+00  1.59D+00
 E= -3007.86428244709     Delta-E=       -0.000000868567 Rises=F Damp=F
 DIIS: error= 9.24D-06 at cycle  11 NSaved=  11.
 NSaved=11 IEnMin=11 EnMin= -3007.86428244709     IErMin=11 ErrMin= 9.24D-06
 ErrMax= 9.24D-06  0.00D+00 EMaxC= 1.00D-01 BMatC= 4.18D-08 BMatP= 8.93D-08
 IDIUse=1 WtCom= 1.00D+00 WtEn= 0.00D+00
 Coeff-Com: -0.147D-03 0.261D-03 0.643D-03 0.184D-02 0.643D-02 0.556D-02
 Coeff-Com: -0.486D-01-0.128D+00-0.127D+00 0.474D+00 0.815D+00
 Coeff:     -0.147D-03 0.261D-03 0.643D-03 0.184D-02 0.643D-02 0.556D-02
 Coeff:     -0.486D-01-0.128D+00-0.127D+00 0.474D+00 0.815D+00
 Gap=     0.160 Goal=   None    Shift=    0.000
 RMSDP=8.83D-07 MaxDP=6.78D-05 DE=-8.69D-07 OVMax= 5.66D-04

 Cycle  12  Pass 1  IDiag  1:
 RMSU=  2.60D-07    CP:  9.76D-01  1.59D+00  7.14D-01  7.28D-01  1.04D+00
                    CP:  1.13D+00  1.42D+00  1.79D+00  2.28D+00  2.19D+00
                    CP:  1.46D+00
 E= -3007.86428279012     Delta-E=       -0.000000343036 Rises=F Damp=F
 DIIS: error= 5.63D-06 at cycle  12 NSaved=  12.
 NSaved=12 IEnMin=12 EnMin= -3007.86428279012     IErMin=12 ErrMin= 5.63D-06
 ErrMax= 5.63D-06  0.00D+00 EMaxC= 1.00D-01 BMatC= 1.21D-08 BMatP= 4.18D-08
 IDIUse=1 WtCom= 1.00D+00 WtEn= 0.00D+00
 Coeff-Com:  0.313D-03-0.623D-03-0.894D-03-0.117D-02 0.494D-03 0.128D-01
 Coeff-Com:  0.401D-01 0.380D-01-0.222D+00-0.327D+00 0.181D+00 0.128D+01
 Coeff:      0.313D-03-0.623D-03-0.894D-03-0.117D-02 0.494D-03 0.128D-01
 Coeff:      0.401D-01 0.380D-01-0.222D+00-0.327D+00 0.181D+00 0.128D+01
 Gap=     0.160 Goal=   None    Shift=    0.000
 RMSDP=9.83D-07 MaxDP=7.90D-05 DE=-3.43D-07 OVMax= 6.66D-04

 Cycle  13  Pass 1  IDiag  1:
 RMSU=  1.60D-07    CP:  9.76D-01  1.59D+00  7.14D-01  7.28D-01  1.04D+00
                    CP:  1.13D+00  1.45D+00  1.91D+00  2.62D+00  2.87D+00
                    CP:  2.32D+00  1.77D+00
 E= -3007.86428298218     Delta-E=       -0.000000192060 Rises=F Damp=F
 DIIS: error= 2.30D-06 at cycle  13 NSaved=  13.
 NSaved=13 IEnMin=13 EnMin= -3007.86428298218     IErMin=13 ErrMin= 2.30D-06
 ErrMax= 2.30D-06  0.00D+00 EMaxC= 1.00D-01 BMatC= 4.02D-09 BMatP= 1.21D-08
 IDIUse=1 WtCom= 1.00D+00 WtEn= 0.00D+00
 Coeff-Com:  0.183D-03-0.358D-03-0.587D-03-0.996D-03-0.153D-02 0.410D-02
 Coeff-Com:  0.300D-01 0.553D-01-0.616D-01-0.255D+00-0.177D+00 0.613D+00
 Coeff-Com:  0.795D+00
 Coeff:      0.183D-03-0.358D-03-0.587D-03-0.996D-03-0.153D-02 0.410D-02
 Coeff:      0.300D-01 0.553D-01-0.616D-01-0.255D+00-0.177D+00 0.613D+00
 Coeff:      0.795D+00
 Gap=     0.160 Goal=   None    Shift=    0.000
 RMSDP=3.41D-07 MaxDP=3.96D-05 DE=-1.92D-07 OVMax= 2.17D-04

 Cycle  14  Pass 1  IDiag  1:
 RMSU=  1.24D-07    CP:  9.76D-01  1.59D+00  7.14D-01  7.28D-01  1.04D+00
                    CP:  1.13D+00  1.46D+00  1.94D+00  2.72D+00  3.00D+00
                    CP:  2.66D+00  2.27D+00  1.19D+00
 E= -3007.86428300837     Delta-E=       -0.000000026190 Rises=F Damp=F
 DIIS: error= 7.95D-07 at cycle  14 NSaved=  14.
 NSaved=14 IEnMin=14 EnMin= -3007.86428300837     IErMin=14 ErrMin= 7.95D-07
 ErrMax= 7.95D-07  0.00D+00 EMaxC= 1.00D-01 BMatC= 5.18D-10 BMatP= 4.02D-09
 IDIUse=1 WtCom= 1.00D+00 WtEn= 0.00D+00
 Coeff-Com: -0.952D-05 0.214D-04 0.682D-05-0.479D-04-0.529D-03-0.136D-02
 Coeff-Com: -0.767D-04 0.917D-02 0.214D-01-0.103D-01-0.101D+00-0.463D-01
 Coeff-Com:  0.180D+00 0.949D+00
 Coeff:     -0.952D-05 0.214D-04 0.682D-05-0.479D-04-0.529D-03-0.136D-02
 Coeff:     -0.767D-04 0.917D-02 0.214D-01-0.103D-01-0.101D+00-0.463D-01
 Coeff:      0.180D+00 0.949D+00
 Gap=     0.160 Goal=   None    Shift=    0.000
 RMSDP=1.47D-07 MaxDP=1.76D-05 DE=-2.62D-08 OVMax= 1.02D-04

 Cycle  15  Pass 1  IDiag  1:
 RMSU=  4.99D-08    CP:  9.76D-01  1.59D+00  7.14D-01  7.28D-01  1.04D+00
                    CP:  1.13D+00  1.46D+00  1.95D+00  2.75D+00  3.00D+00
                    CP:  2.80D+00  2.48D+00  1.49D+00  1.59D+00
 E= -3007.86428301304     Delta-E=       -0.000000004669 Rises=F Damp=F
 DIIS: error= 6.46D-07 at cycle  15 NSaved=  15.
 NSaved=15 IEnMin=15 EnMin= -3007.86428301304     IErMin=15 ErrMin= 6.46D-07
 ErrMax= 6.46D-07  0.00D+00 EMaxC= 1.00D-01 BMatC= 2.70D-10 BMatP= 5.18D-10
 IDIUse=1 WtCom= 1.00D+00 WtEn= 0.00D+00
 Coeff-Com: -0.489D-04 0.971D-04 0.145D-03 0.212D-03 0.963D-04-0.164D-02
 Coeff-Com: -0.749D-02-0.804D-02 0.254D-01 0.575D-01-0.899D-02-0.152D+00
 Coeff-Com: -0.130D+00 0.500D+00 0.725D+00
 Coeff:     -0.489D-04 0.971D-04 0.145D-03 0.212D-03 0.963D-04-0.164D-02
 Coeff:     -0.749D-02-0.804D-02 0.254D-01 0.575D-01-0.899D-02-0.152D+00
 Coeff:     -0.130D+00 0.500D+00 0.725D+00
 Gap=     0.160 Goal=   None    Shift=    0.000
 RMSDP=5.27D-08 MaxDP=1.14D-05 DE=-4.67D-09 OVMax= 3.28D-05

 Cycle  16  Pass 1  IDiag  1:
 RMSU=  2.72D-08    CP:  9.76D-01  1.59D+00  7.14D-01  7.28D-01  1.04D+00
                    CP:  1.13D+00  1.46D+00  1.95D+00  2.75D+00  3.00D+00
                    CP:  2.83D+00  2.57D+00  1.61D+00  1.83D+00  9.95D-01
 E= -3007.86428301404     Delta-E=       -0.000000001000 Rises=F Damp=F
 DIIS: error= 3.41D-07 at cycle  16 NSaved=  16.
 NSaved=16 IEnMin=16 EnMin= -3007.86428301404     IErMin=16 ErrMin= 3.41D-07
 ErrMax= 3.41D-07  0.00D+00 EMaxC= 1.00D-01 BMatC= 6.19D-11 BMatP= 2.70D-10
 IDIUse=1 WtCom= 1.00D+00 WtEn= 0.00D+00
 Coeff-Com: -0.143D-04 0.274D-04 0.476D-04 0.809D-04 0.187D-03-0.137D-03
 Coeff-Com: -0.284D-02-0.503D-02 0.286D-02 0.220D-01 0.209D-01-0.332D-01
 Coeff-Com: -0.120D+00-0.535D-01 0.225D+00 0.944D+00
 Coeff:     -0.143D-04 0.274D-04 0.476D-04 0.809D-04 0.187D-03-0.137D-03
 Coeff:     -0.284D-02-0.503D-02 0.286D-02 0.220D-01 0.209D-01-0.332D-01
 Coeff:     -0.120D+00-0.535D-01 0.225D+00 0.944D+00
 Gap=     0.160 Goal=   None    Shift=    0.000
 RMSDP=3.93D-08 MaxDP=5.58D-06 DE=-1.00D-09 OVMax= 2.58D-05

 Cycle  17  Pass 1  IDiag  1:
 RMSU=  1.36D-08    CP:  9.76D-01  1.59D+00  7.14D-01  7.28D-01  1.04D+00
                    CP:  1.13D+00  1.46D+00  1.95D+00  2.76D+00  3.00D+00
                    CP:  2.86D+00  2.61D+00  1.70D+00  1.98D+00  1.23D+00
                    CP:  1.69D+00
 E= -3007.86428301461     Delta-E=       -0.000000000562 Rises=F Damp=F
 DIIS: error= 2.10D-07 at cycle  17 NSaved=  17.
 NSaved=17 IEnMin=17 EnMin= -3007.86428301461     IErMin=17 ErrMin= 2.10D-07
 ErrMax= 2.10D-07  0.00D+00 EMaxC= 1.00D-01 BMatC= 2.43D-11 BMatP= 6.19D-11
 IDIUse=1 WtCom= 1.00D+00 WtEn= 0.00D+00
 Coeff-Com:  0.140D-04-0.281D-04-0.409D-04-0.586D-04 0.387D-04 0.628D-03
 Coeff-Com:  0.182D-02 0.188D-02-0.918D-02-0.153D-01 0.950D-02 0.569D-01
 Coeff-Com: -0.305D-02-0.201D+00-0.235D+00 0.325D+00 0.107D+01
 Coeff:      0.140D-04-0.281D-04-0.409D-04-0.586D-04 0.387D-04 0.628D-03
 Coeff:      0.182D-02 0.188D-02-0.918D-02-0.153D-01 0.950D-02 0.569D-01
 Coeff:     -0.305D-02-0.201D+00-0.235D+00 0.325D+00 0.107D+01
 Gap=     0.160 Goal=   None    Shift=    0.000
 RMSDP=3.11D-08 MaxDP=4.66D-06 DE=-5.62D-10 OVMax= 2.06D-05

 Cycle  18  Pass 1  IDiag  1:
 RMSU=  6.81D-09    CP:  9.76D-01  1.59D+00  7.14D-01  7.28D-01  1.04D+00
                    CP:  1.13D+00  1.46D+00  1.95D+00  2.76D+00  3.00D+00
                    CP:  2.87D+00  2.64D+00  1.75D+00  2.08D+00  1.38D+00
                    CP:  2.50D+00  1.56D+00
 E= -3007.86428301482     Delta-E=       -0.000000000216 Rises=F Damp=F
 DIIS: error= 8.64D-08 at cycle  18 NSaved=  18.
 NSaved=18 IEnMin=18 EnMin= -3007.86428301482     IErMin=18 ErrMin= 8.64D-08
 ErrMax= 8.64D-08  0.00D+00 EMaxC= 1.00D-01 BMatC= 8.68D-12 BMatP= 2.43D-11
 IDIUse=1 WtCom= 1.00D+00 WtEn= 0.00D+00
 Coeff-Com:  0.116D-04-0.228D-04-0.372D-04-0.580D-04-0.415D-04 0.359D-03
 Coeff-Com:  0.180D-02 0.287D-02-0.595D-02-0.157D-01-0.335D-02 0.421D-01
 Coeff-Com:  0.362D-01-0.711D-01-0.192D+00-0.180D+00 0.529D+00 0.855D+00
 Coeff:      0.116D-04-0.228D-04-0.372D-04-0.580D-04-0.415D-04 0.359D-03
 Coeff:      0.180D-02 0.287D-02-0.595D-02-0.157D-01-0.335D-02 0.421D-01
 Coeff:      0.362D-01-0.711D-01-0.192D+00-0.180D+00 0.529D+00 0.855D+00
 Gap=     0.160 Goal=   None    Shift=    0.000
 RMSDP=1.68D-08 MaxDP=1.23D-06 DE=-2.16D-10 OVMax= 1.08D-05

 Cycle  19  Pass 1  IDiag  1:
 RMSU=  4.21D-09    CP:  9.76D-01  1.59D+00  7.14D-01  7.28D-01  1.04D+00
                    CP:  1.13D+00  1.46D+00  1.95D+00  2.76D+00  3.00D+00
                    CP:  2.87D+00  2.65D+00  1.77D+00  2.13D+00  1.48D+00
                    CP:  2.93D+00  2.02D+00  1.21D+00
 E= -3007.86428301488     Delta-E=       -0.000000000055 Rises=F Damp=F
 DIIS: error= 5.05D-08 at cycle  19 NSaved=  19.
 NSaved=19 IEnMin=19 EnMin= -3007.86428301488     IErMin=19 ErrMin= 5.05D-08
 ErrMax= 5.05D-08  0.00D+00 EMaxC= 1.00D-01 BMatC= 1.80D-12 BMatP= 8.68D-12
 IDIUse=1 WtCom= 1.00D+00 WtEn= 0.00D+00
 Coeff-Com:  0.566D-06-0.936D-06-0.347D-05-0.641D-05-0.278D-04-0.421D-04
 Coeff-Com:  0.156D-03 0.774D-03 0.318D-03-0.187D-02-0.437D-02 0.107D-02
 Coeff-Com:  0.139D-01 0.305D-01-0.837D-02-0.178D+00-0.738D-01 0.348D+00
 Coeff-Com:  0.872D+00
 Coeff:      0.566D-06-0.936D-06-0.347D-05-0.641D-05-0.278D-04-0.421D-04
 Coeff:      0.156D-03 0.774D-03 0.318D-03-0.187D-02-0.437D-02 0.107D-02
 Coeff:      0.139D-01 0.305D-01-0.837D-02-0.178D+00-0.738D-01 0.348D+00
 Coeff:      0.872D+00
 Gap=     0.160 Goal=   None    Shift=    0.000
 RMSDP=7.34D-09 MaxDP=7.19D-07 DE=-5.46D-11 OVMax= 4.85D-06

 SCF Done:  E(RwB97XD) =  -3007.86428301     A.U. after   19 cycles
            NFock= 19  Conv=0.73D-08     -V/T= 2.0108
 KE= 2.975674201850D+03 PE=-2.662913273020D+04 EE= 1.082726667985D+04
 Leave Link  502 at Fri Apr 29 21:27:59 2022, MaxMem= 10066329600 cpu:           11279.9 elap:             487.7
 (Enter /sw/apps/gaussian-16.0/g16/l801.exe)
 DoSCS=F DFT=T ScalE2(SS,OS)=  1.000000  1.000000
 ExpMin= 3.36D-02 ExpMax= 4.95D+03 ExpMxC= 7.45D+02 IAcc=3 IRadAn=         5 AccDes= 0.00D+00
 HarFok:  IExCor=  205 AccDes= 0.00D+00 IRadAn=         5 IDoV=-2 UseB2=F ITyADJ=14
 ICtDFT= 12500011 ScaDFX=  1.000000  1.000000  1.000000  1.000000
 GSVD:  LWork=       -5460 too small for GESVD, short by       25550 words or       25550 for optimal perf.
 Largest valence mixing into a core orbital is  1.88D-04
 Largest core mixing into a valence orbital is  5.50D-05
 Range of M.O.s used for correlation:    71  1298
 NBasis=  1298 NAE=   246 NBE=   246 NFC=    70 NFV=     0
 NROrb=   1228 NOA=   176 NOB=   176 NVA=  1052 NVB=  1052
 Leave Link  801 at Fri Apr 29 21:27:59 2022, MaxMem= 10066329600 cpu:               6.1 elap:               0.3
 (Enter /sw/apps/gaussian-16.0/g16/l914.exe)
 RHF ground state
 Two-electron integrals replicated using symmetry.
 MDV= 10066329600 DFT=T DoStab=F Mixed=T DoRPA=T DoScal=F NonHer=T
 Making orbital integer symmetry assigments:
 Orbital symmetries:
       Occupied  (A) (A) (A) (A) (A) (A) (A) (A) (A) (A) (A) (A)
                 (A) (A) (A) (A) (A) (A) (A) (A) (A) (A) (A) (A)
                 (A) (A) (A) (A) (A) (A) (A) (A) (A) (A) (A) (A)
                 (A) (A) (A) (A) (A) (A) (A) (A) (A) (A) (A) (A)
                 (A) (A) (A) (A) (A) (A) (A) (A) (A) (A) (A) (A)
                 (A) (A) (A) (A) (A) (A) (A) (A) (A) (A) (A) (A)
                 (A) (A) (A) (A) (A) (A) (A) (A) (A) (A) (A) (A)
                 (A) (A) (A) (A) (A) (A) (A) (A) (A) (A) (A) (A)
                 (A) (A) (A) (A) (A) (A) (A) (A) (A) (A) (A) (A)
                 (A) (A) (A) (A) (A) (A) (A) (A) (A) (A) (A) (A)
                 (A) (A) (A) (A) (A) (A) (A) (A) (A) (A) (A) (A)
                 (A) (A) (A) (A) (A) (A) (A) (A) (A) (A) (A) (A)
                 (A) (A) (A) (A) (A) (A) (A) (A) (A) (A) (A) (A)
                 (A) (A) (A) (A) (A) (A) (A) (A) (A) (A) (A) (A)
                 (A) (A) (A) (A) (A) (A) (A) (A) (A) (A) (A) (A)
                 (A) (A) (A) (A) (A) (A) (A) (A) (A) (A) (A) (A)
                 (A) (A) (A) (A) (A) (A) (A) (A) (A) (A) (A) (A)
                 (A) (A) (A) (A) (A) (A) (A) (A) (A) (A) (A) (A)
                 (A) (A) (A) (A) (A) (A) (A) (A) (A) (A) (A) (A)
                 (A) (A) (A) (A) (A) (A) (A) (A) (A) (A) (A) (A)
                 (A) (A) (A) (A) (A) (A)
       Virtual   (A) (A) (A) (A) (A) (A) (A) (A) (A) (A) (A) (A)
                 (A) (A) (A) (A) (A) (A) (A) (A) (A) (A) (A) (A)
                 (A) (A) (A) (A) (A) (A) (A) (A) (A) (A) (A) (A)
                 (A) (A) (A) (A) (A) (A) (A) (A) (A) (A) (A) (A)
                 (A) (A) (A) (A) (A) (A) (A) (A) (A) (A) (A) (A)
                 (A) (A) (A) (A) (A) (A) (A) (A) (A) (A) (A) (A)
                 (A) (A) (A) (A) (A) (A) (A) (A) (A) (A) (A) (A)
                 (A) (A) (A) (A) (A) (A) (A) (A) (A) (A) (A) (A)
                 (A) (A) (A) (A) (A) (A) (A) (A) (A) (A) (A) (A)
                 (A) (A) (A) (A) (A) (A) (A) (A) (A) (A) (A) (A)
                 (A) (A) (A) (A) (A) (A) (A) (A) (A) (A) (A) (A)
                 (A) (A) (A) (A) (A) (A) (A) (A) (A) (A) (A) (A)
                 (A) (A) (A) (A) (A) (A) (A) (A) (A) (A) (A) (A)
                 (A) (A) (A) (A) (A) (A) (A) (A) (A) (A) (A) (A)
                 (A) (A) (A) (A) (A) (A) (A) (A) (A) (A) (A) (A)
                 (A) (A) (A) (A) (A) (A) (A) (A) (A) (A) (A) (A)
                 (A) (A) (A) (A) (A) (A) (A) (A) (A) (A) (A) (A)
                 (A) (A) (A) (A) (A) (A) (A) (A) (A) (A) (A) (A)
                 (A) (A) (A) (A) (A) (A) (A) (A) (A) (A) (A) (A)
                 (A) (A) (A) (A) (A) (A) (A) (A) (A) (A) (A) (A)
                 (A) (A) (A) (A) (A) (A) (A) (A) (A) (A) (A) (A)
                 (A) (A) (A) (A) (A) (A) (A) (A) (A) (A) (A) (A)
                 (A) (A) (A) (A) (A) (A) (A) (A) (A) (A) (A) (A)
                 (A) (A) (A) (A) (A) (A) (A) (A) (A) (A) (A) (A)
                 (A) (A) (A) (A) (A) (A) (A) (A) (A) (A) (A) (A)
                 (A) (A) (A) (A) (A) (A) (A) (A) (A) (A) (A) (A)
                 (A) (A) (A) (A) (A) (A) (A) (A) (A) (A) (A) (A)
                 (A) (A) (A) (A) (A) (A) (A) (A) (A) (A) (A) (A)
                 (A) (A) (A) (A) (A) (A) (A) (A) (A) (A) (A) (A)
                 (A) (A) (A) (A) (A) (A) (A) (A) (A) (A) (A) (A)
                 (A) (A) (A) (A) (A) (A) (A) (A) (A) (A) (A) (A)
                 (A) (A) (A) (A) (A) (A) (A) (A) (A) (A) (A) (A)
                 (A) (A) (A) (A) (A) (A) (A) (A) (A) (A) (A) (A)
                 (A) (A) (A) (A) (A) (A) (A) (A) (A) (A) (A) (A)
                 (A) (A) (A) (A) (A) (A) (A) (A) (A) (A) (A) (A)
                 (A) (A) (A) (A) (A) (A) (A) (A) (A) (A) (A) (A)
                 (A) (A) (A) (A) (A) (A) (A) (A) (A) (A) (A) (A)
                 (A) (A) (A) (A) (A) (A) (A) (A) (A) (A) (A) (A)
                 (A) (A) (A) (A) (A) (A) (A) (A) (A) (A) (A) (A)
                 (A) (A) (A) (A) (A) (A) (A) (A) (A) (A) (A) (A)
                 (A) (A) (A) (A) (A) (A) (A) (A) (A) (A) (A) (A)
                 (A) (A) (A) (A) (A) (A) (A) (A) (A) (A) (A) (A)
                 (A) (A) (A) (A) (A) (A) (A) (A) (A) (A) (A) (A)
                 (A) (A) (A) (A) (A) (A) (A) (A) (A) (A) (A) (A)
                 (A) (A) (A) (A) (A) (A) (A) (A) (A) (A) (A) (A)
                 (A) (A) (A) (A) (A) (A) (A) (A) (A) (A) (A) (A)
                 (A) (A) (A) (A) (A) (A) (A) (A) (A) (A) (A) (A)
                 (A) (A) (A) (A) (A) (A) (A) (A) (A) (A) (A) (A)
                 (A) (A) (A) (A) (A) (A) (A) (A) (A) (A) (A) (A)
                 (A) (A) (A) (A) (A) (A) (A) (A) (A) (A) (A) (A)
                 (A) (A) (A) (A) (A) (A) (A) (A) (A) (A) (A) (A)
                 (A) (A) (A) (A) (A) (A) (A) (A) (A) (A) (A) (A)
                 (A) (A) (A) (A) (A) (A) (A) (A) (A) (A) (A) (A)
                 (A) (A) (A) (A) (A) (A) (A) (A) (A) (A) (A) (A)
                 (A) (A) (A) (A) (A) (A) (A) (A) (A) (A) (A) (A)
                 (A) (A) (A) (A) (A) (A) (A) (A) (A) (A) (A) (A)
                 (A) (A) (A) (A) (A) (A) (A) (A) (A) (A) (A) (A)
                 (A) (A) (A) (A) (A) (A) (A) (A) (A) (A) (A) (A)
                 (A) (A) (A) (A) (A) (A) (A) (A) (A) (A) (A) (A)
                 (A) (A) (A) (A) (A) (A) (A) (A) (A) (A) (A) (A)
                 (A) (A) (A) (A) (A) (A) (A) (A) (A) (A) (A) (A)
                 (A) (A) (A) (A) (A) (A) (A) (A) (A) (A) (A) (A)
                 (A) (A) (A) (A) (A) (A) (A) (A) (A) (A) (A) (A)
                 (A) (A) (A) (A) (A) (A) (A) (A) (A) (A) (A) (A)
                 (A) (A) (A) (A) (A) (A) (A) (A) (A) (A) (A) (A)
                 (A) (A) (A) (A) (A) (A) (A) (A) (A) (A) (A) (A)
                 (A) (A) (A) (A) (A) (A) (A) (A) (A) (A) (A) (A)
                 (A) (A) (A) (A) (A) (A) (A) (A) (A) (A) (A) (A)
                 (A) (A) (A) (A) (A) (A) (A) (A) (A) (A) (A) (A)
                 (A) (A) (A) (A) (A) (A) (A) (A) (A) (A) (A) (A)
                 (A) (A) (A) (A) (A) (A) (A) (A) (A) (A) (A) (A)
                 (A) (A) (A) (A) (A) (A) (A) (A) (A) (A) (A) (A)
                 (A) (A) (A) (A) (A) (A) (A) (A) (A) (A) (A) (A)
                 (A) (A) (A) (A) (A) (A) (A) (A) (A) (A) (A) (A)
                 (A) (A) (A) (A) (A) (A) (A) (A) (A) (A) (A) (A)
                 (A) (A) (A) (A) (A) (A) (A) (A) (A) (A) (A) (A)
                 (A) (A) (A) (A) (A) (A) (A) (A) (A) (A) (A) (A)
                 (A) (A) (A) (A) (A) (A) (A) (A) (A) (A) (A) (A)
                 (A) (A) (A) (A) (A) (A) (A) (A) (A) (A) (A) (A)
                 (A) (A) (A) (A) (A) (A) (A) (A) (A) (A) (A) (A)
                 (A) (A) (A) (A) (A) (A) (A) (A) (A) (A) (A) (A)
                 (A) (A) (A) (A) (A) (A) (A) (A) (A) (A) (A) (A)
                 (A) (A) (A) (A) (A) (A) (A) (A) (A) (A) (A) (A)
                 (A) (A) (A) (A) (A) (A) (A) (A) (A) (A) (A) (A)
                 (A) (A) (A) (A) (A) (A) (A) (A) (A) (A) (A) (A)
                 (A) (A) (A) (A) (A) (A) (A) (A) (A) (A) (A) (A)
                 (A) (A) (A) (A) (A) (A) (A) (A) (A) (A) (A) (A)
                 (A) (A) (A) (A) (A) (A) (A) (A)
    20 initial guesses have been made.
 Convergence on wavefunction:    0.001000000000000
 Davidson Disk Diagonalization:  ConvIn= 1.00D-03 SkipCon=T Conv= 1.00D-03.
 Max sub-space:  2000 roots to seek:    20 dimension of matrix:       370304
 Iteration     1 Dimension    20 NMult     0 NNew     20
 CISAX will form    20 AO SS matrices at one time.
 NMat=    20 NSing=    20 JSym2X= 0.
 FoFJK:  IHMeth= 1 ICntrl=       0 DoSepK=T KAlg= 0 I1Cent=           0 FoldK=F
 IRaf=         1 NMat=      40 IRICut=       1 DoRegI=T DoRafI=F ISym2E= 0 IDoP0=3 IntGTp=3.
 FoFCou: FMM=T IPFlag=           0 FMFlag=      100000 FMFlg1=        2001
         NFxFlg=           0 DoJE=F BraDBF=F KetDBF=F FulRan=T
         wScrn=  0.000000 ICntrl=       500 IOpCl=  0 I1Cent=           0 NGrid=           0
         NMat0=   20 NMatS0=     20 NMatT0=    0 NMatD0=   20 NMtDS0=    0 NMtDT0=    0
 Symmetry not used in FoFCou.
 FMM levels:  10  Number of levels for PrismC:   9
 New state      3 was old state      5
 New state      4 was old state      6
 New state      5 was old state      7
 Excitation Energies [eV] at current iteration:
 Root      1 :     2.247796694049532
 Root      2 :     2.597832330781622
 Root      3 :     3.587246110547914
 Root      4 :     3.875351529987598
 Root      5 :     4.260577663585456
 Root      6 :     4.347580578358655
 Root      7 :     4.468390877105665
 Root      8 :     4.525321784940133
 Root      9 :     4.690894149127883
 Root     10 :     4.719837574834730
 Root     11 :     4.968429657976341
 Root     12 :     5.054368165917925
 Root     13 :     5.204040246256019
 Root     14 :     5.267789208452148
 Root     15 :     5.306525653239594
 Root     16 :     5.349094811054893
 Root     17 :     5.447893741752920
 Root     18 :     5.942546108238315
 Root     19 :     6.545850716859567
 Root     20 :     7.033125931551461
 Iteration     2 Dimension    30 NMult    20 NNew     10
 CISAX will form    10 AO SS matrices at one time.
 NMat=    10 NSing=    10 JSym2X= 0.
 Root      1 not converged, maximum delta is    0.083883099173168
 Root      2 not converged, maximum delta is    0.070845350009180
 Root      3 not converged, maximum delta is    0.085909342254846
 Root      4 not converged, maximum delta is    0.073897142366777
 Root      5 not converged, maximum delta is    0.178571606751020
 Excitation Energies [eV] at current iteration:
 Root      1 :     1.737638955995755   Change is   -0.510157738053777
 Root      2 :     2.170044655118995   Change is   -0.427787675662627
 Root      3 :     3.213615606337504   Change is   -0.373630504210410
 Root      4 :     3.508395422152661   Change is   -0.366956107834937
 Root      5 :     3.897273917811794   Change is   -0.363303745773661
 Iteration     3 Dimension    40 NMult    30 NNew     10
 CISAX will form    10 AO SS matrices at one time.
 NMat=    10 NSing=    10 JSym2X= 0.
 Root      1 not converged, maximum delta is    0.019511923724423
 Root      2 not converged, maximum delta is    0.020091928118730
 Root      3 not converged, maximum delta is    0.007038726813560
 Root      4 not converged, maximum delta is    0.014956858321150
 Root      5 not converged, maximum delta is    0.128151178160443
 Excitation Energies [eV] at current iteration:
 Root      1 :     1.696274588216137   Change is   -0.041364367779619
 Root      2 :     2.145979920381534   Change is   -0.024064734737461
 Root      3 :     3.199672102046340   Change is   -0.013943504291164
 Root      4 :     3.491809679751851   Change is   -0.016585742400810
 Root      5 :     3.737288714389098   Change is   -0.159985203422696
 Iteration     4 Dimension    50 NMult    40 NNew     10
 CISAX will form    10 AO SS matrices at one time.
 NMat=    10 NSing=    10 JSym2X= 0.
 Root      1 not converged, maximum delta is    0.005782798094877
 Root      2 not converged, maximum delta is    0.002241288760886
 Root      3 not converged, maximum delta is    0.005133582660981
 Root      4 not converged, maximum delta is    0.010429233520836
 Root      5 not converged, maximum delta is    0.049173917463535
 Excitation Energies [eV] at current iteration:
 Root      1 :     1.691574220866787   Change is   -0.004700367349350
 Root      2 :     2.143547368292266   Change is   -0.002432552089268
 Root      3 :     3.197154764198673   Change is   -0.002517337847667
 Root      4 :     3.488515744730592   Change is   -0.003293935021259
 Root      5 :     3.694694520779327   Change is   -0.042594193609771
 Iteration     5 Dimension    60 NMult    50 NNew     10
 CISAX will form    10 AO SS matrices at one time.
 NMat=    10 NSing=    10 JSym2X= 0.
 Root      1 not converged, maximum delta is    0.001376979890989
 Root      2 has converged.
 Root      3 not converged, maximum delta is    0.001121302672845
 Root      4 not converged, maximum delta is    0.003255380268365
 Root      5 not converged, maximum delta is    0.013854671391693
 Excitation Energies [eV] at current iteration:
 Root      1 :     1.691149078082092   Change is   -0.000425142784694
 Root      2 :     2.143341630998648   Change is   -0.000205737293617
 Root      3 :     3.196947339339734   Change is   -0.000207424858939
 Root      4 :     3.488123067425771   Change is   -0.000392677304822
 Root      5 :     3.688873692289300   Change is   -0.005820828490028
 Iteration     6 Dimension    68 NMult    60 NNew      8
 CISAX will form     8 AO SS matrices at one time.
 NMat=     8 NSing=     8 JSym2X= 0.
 Root      1 has converged.
 Root      2 has converged.
 Root      3 has converged.
 Root      4 not converged, maximum delta is    0.002156503280872
 Root      5 not converged, maximum delta is    0.008367424437404
 Excitation Energies [eV] at current iteration:
 Root      1 :     1.691109268315167   Change is   -0.000039809766925
 Root      2 :     2.143338622119711   Change is   -0.000003008878937
 Root      3 :     3.196923372806750   Change is   -0.000023966532984
 Root      4 :     3.488063718296980   Change is   -0.000059349128791
 Root      5 :     3.687661869599308   Change is   -0.001211822689991
 Iteration     7 Dimension    72 NMult    68 NNew      4
 CISAX will form     4 AO SS matrices at one time.
 NMat=     4 NSing=     4 JSym2X= 0.
 Root      1 has converged.
 Root      2 has converged.
 Root      3 has converged.
 Root      4 not converged, maximum delta is    0.001005707019204
 Root      5 not converged, maximum delta is    0.013999317581609
 Excitation Energies [eV] at current iteration:
 Root      1 :     1.691109165167974   Change is   -0.000000103147193
 Root      2 :     2.143337363209041   Change is   -0.000001258910670
 Root      3 :     3.196922813788443   Change is   -0.000000559018307
 Root      4 :     3.488051985773968   Change is   -0.000011732523012
 Root      5 :     3.686951759509103   Change is   -0.000710110090206
 Iteration     8 Dimension    76 NMult    72 NNew      4
 CISAX will form     4 AO SS matrices at one time.
 NMat=     4 NSing=     4 JSym2X= 0.
 Root      1 has converged.
 Root      2 has converged.
 Root      3 has converged.
 Root      4 has converged.
 Root      5 not converged, maximum delta is    0.020169399882157
 Excitation Energies [eV] at current iteration:
 Root      1 :     1.691109118968291   Change is   -0.000000046199684
 Root      2 :     2.143336805910986   Change is   -0.000000557298055
 Root      3 :     3.196922484418286   Change is   -0.000000329370157
 Root      4 :     3.488049659873303   Change is   -0.000002325900665
 Root      5 :     3.686294746639526   Change is   -0.000657012869577
 Iteration     9 Dimension    78 NMult    76 NNew      2
 CISAX will form     2 AO SS matrices at one time.
 NMat=     2 NSing=     2 JSym2X= 0.
 Root      1 has converged.
 Root      2 has converged.
 Root      3 has converged.
 Root      4 has converged.
 Root      5 not converged, maximum delta is    0.016509781941498
 Excitation Energies [eV] at current iteration:
 Root      1 :     1.691109061274781   Change is   -0.000000057693509
 Root      2 :     2.143336450837084   Change is   -0.000000355073903
 Root      3 :     3.196922348672538   Change is   -0.000000135745748
 Root      4 :     3.488049623756718   Change is   -0.000000036116585
 Root      5 :     3.685865525740028   Change is   -0.000429220899498
 Iteration    10 Dimension    80 NMult    78 NNew      2
 CISAX will form     2 AO SS matrices at one time.
 NMat=     2 NSing=     2 JSym2X= 0.
 Root      1 has converged.
 Root      2 has converged.
 Root      3 has converged.
 Root      4 has converged.
 Root      5 not converged, maximum delta is    0.005965888068316
 Excitation Energies [eV] at current iteration:
 Root      1 :     1.691109040910848   Change is   -0.000000020363934
 Root      2 :     2.143336393294910   Change is   -0.000000057542174
 Root      3 :     3.196922324172997   Change is   -0.000000024499541
 Root      4 :     3.488049618936523   Change is   -0.000000004820195
 Root      5 :     3.685727029220446   Change is   -0.000138496519582
 Iteration    11 Dimension    82 NMult    80 NNew      2
 CISAX will form     2 AO SS matrices at one time.
 NMat=     2 NSing=     2 JSym2X= 0.
 Root      1 has converged.
 Root      2 has converged.
 Root      3 has converged.
 Root      4 has converged.
 Root      5 not converged, maximum delta is    0.001174485104131
 Excitation Energies [eV] at current iteration:
 Root      1 :     1.691109036211127   Change is   -0.000000004699721
 Root      2 :     2.143335761125075   Change is   -0.000000632169835
 Root      3 :     3.196922309699443   Change is   -0.000000014473554
 Root      4 :     3.488049610653856   Change is   -0.000000008282667
 Root      5 :     3.685699372221062   Change is   -0.000027656999384
 Iteration    12 Dimension    84 NMult    82 NNew      2
 CISAX will form     2 AO SS matrices at one time.
 NMat=     2 NSing=     2 JSym2X= 0.
 Root      1 has converged.
 Root      2 has converged.
 Root      3 has converged.
 Root      4 has converged.
 Root      5 has converged.
 Excitation Energies [eV] at current iteration:
 Root      1 :     1.691109031072200   Change is   -0.000000005138927
 Root      2 :     2.143335616964037   Change is   -0.000000144161038
 Root      3 :     3.196922273957358   Change is   -0.000000035742084
 Root      4 :     3.488049601853110   Change is   -0.000000008800746
 Root      5 :     3.685695122802883   Change is   -0.000004249418179
 Convergence achieved on expansion vectors.
 ***********************************************************************
 Excited states from <AA,BB:AA,BB> singles matrix:
 ***********************************************************************
 
 1PDM for each excited state written to RWF  633
 Ground to excited state transition densities written to RWF  633
 Ground to excited state transition electric dipole moments (Au):
       state          X           Y           Z        Dip. S.      Osc.
         1        -1.7188      2.4613      0.6749      9.4676      0.3923
         2        -1.3796     -1.0479     -0.1580      3.0264      0.1589
         3        -0.1256     -0.1174     -0.0292      0.0304      0.0024
         4        -0.0009     -0.1602     -0.0005      0.0257      0.0022
         5         0.2024      0.2365     -0.0056      0.0969      0.0088
 Ground to excited state transition velocity dipole moments (Au):
       state          X           Y           Z        Dip. S.      Osc.
         1         0.1036     -0.1490     -0.0395      0.0345      0.3698
         2         0.1026      0.0783      0.0121      0.0168      0.1422
         3         0.0134      0.0128      0.0036      0.0004      0.0020
         4        -0.0032      0.0202      0.0008      0.0004      0.0022
         5        -0.0279     -0.0287     -0.0025      0.0016      0.0079
 Ground to excited state transition magnetic dipole moments (Au):
       state          X           Y           Z
         1        -0.0165      0.3481     -1.3452
         2        -0.0649      0.0923      0.1725
         3        -0.0827      0.2341     -0.9577
         4        -0.0097      0.0710      0.0254
         5        -0.2053      0.6687      0.0429
 Ground to excited state transition velocity quadrupole moments (Au):
[...]
 Alpha virt. eigenvalues --    1.23222   1.23795   1.23988   1.25062   1.26018
 Alpha virt. eigenvalues --    1.26535   1.26631   1.27152   1.27640   1.28191
 Alpha virt. eigenvalues --    1.28304   1.28632   1.29083   1.29325   1.29783
 Alpha virt. eigenvalues --    1.30288   1.30550   1.31227   1.31724   1.32071
 Alpha virt. eigenvalues --    1.32318   1.33468   1.34083   1.34243   1.35362
 Alpha virt. eigenvalues --    1.35491   1.36484   1.36787   1.36910   1.37816
 Alpha virt. eigenvalues --    1.38848   1.39348   1.39440   1.39687   1.39830
 Alpha virt. eigenvalues --    1.40256   1.40708   1.41080   1.41378   1.42060
 Alpha virt. eigenvalues --    1.42394   1.42596   1.42678   1.43665   1.44448
 Alpha virt. eigenvalues --    1.44565   1.44831   1.45033   1.45638   1.46531
 Alpha virt. eigenvalues --    1.46608   1.46620   1.47139   1.47374   1.47713
 Alpha virt. eigenvalues --    1.48409   1.48846   1.48932   1.49184   1.49714
 Alpha virt. eigenvalues --    1.49940   1.50176   1.50675   1.51895   1.52177
 Alpha virt. eigenvalues --    1.52362   1.52661   1.53042   1.53861   1.54979
 Alpha virt. eigenvalues --    1.55011   1.55340   1.55642   1.56181   1.56636
 Alpha virt. eigenvalues --    1.56951   1.57136   1.57804   1.58015   1.58358
 Alpha virt. eigenvalues --    1.58417   1.58979   1.59202   1.59273   1.60066
 Alpha virt. eigenvalues --    1.60400   1.60748   1.60806   1.60957   1.61106
 Alpha virt. eigenvalues --    1.61317   1.61700   1.61745   1.62587   1.62778
 Alpha virt. eigenvalues --    1.62945   1.63110   1.63532   1.63677   1.63795
 Alpha virt. eigenvalues --    1.63938   1.64337   1.64354   1.64679   1.64794
 Alpha virt. eigenvalues --    1.65146   1.65340   1.65531   1.65757   1.66570
 Alpha virt. eigenvalues --    1.66804   1.67123   1.67889   1.68093   1.68436
 Alpha virt. eigenvalues --    1.68477   1.68734   1.69075   1.69355   1.70018
 Alpha virt. eigenvalues --    1.70826   1.71053   1.71283   1.71667   1.71948
 Alpha virt. eigenvalues --    1.72529   1.73316   1.74087   1.74702   1.75018
 Alpha virt. eigenvalues --    1.75179   1.75249   1.75583   1.76394   1.76862
 Alpha virt. eigenvalues --    1.77221   1.77345   1.77963   1.78331   1.78730
 Alpha virt. eigenvalues --    1.78940   1.79380   1.79732   1.79884   1.80264
 Alpha virt. eigenvalues --    1.80573   1.80638   1.80948   1.81057   1.81271
 Alpha virt. eigenvalues --    1.81660   1.81826   1.81927   1.82154   1.82316
 Alpha virt. eigenvalues --    1.82521   1.82626   1.82749   1.82941   1.83102
 Alpha virt. eigenvalues --    1.83537   1.83725   1.84159   1.84350   1.84681
 Alpha virt. eigenvalues --    1.84949   1.85079   1.85322   1.85586   1.85680
 Alpha virt. eigenvalues --    1.85842   1.85964   1.86098   1.86391   1.86490
 Alpha virt. eigenvalues --    1.86578   1.87005   1.87145   1.87266   1.87403
 Alpha virt. eigenvalues --    1.87903   1.88084   1.88278   1.88415   1.88715
 Alpha virt. eigenvalues --    1.88791   1.89118   1.89285   1.89385   1.89779
 Alpha virt. eigenvalues --    1.89899   1.90319   1.90457   1.90846   1.91016
 Alpha virt. eigenvalues --    1.91400   1.91416   1.91557   1.91650   1.91888
 Alpha virt. eigenvalues --    1.92095   1.92221   1.92314   1.92436   1.92640
 Alpha virt. eigenvalues --    1.93165   1.93215   1.93533   1.93554   1.93693
 Alpha virt. eigenvalues --    1.94109   1.94269   1.94464   1.94800   1.94881
 Alpha virt. eigenvalues --    1.95075   1.95242   1.95588   1.96157   1.96168
 Alpha virt. eigenvalues --    1.96306   1.96370   1.96857   1.96973   1.97624
 Alpha virt. eigenvalues --    1.97897   1.98118   1.98382   1.98771   1.99059
 Alpha virt. eigenvalues --    1.99384   1.99581   1.99698   1.99980   2.00080
 Alpha virt. eigenvalues --    2.00455   2.00683   2.00885   2.00972   2.01799
 Alpha virt. eigenvalues --    2.01929   2.02093   2.02262   2.02397   2.02499
 Alpha virt. eigenvalues --    2.02819   2.02905   2.03044   2.03543   2.03757
 Alpha virt. eigenvalues --    2.04505   2.04988   2.05297   2.05497   2.05847
 Alpha virt. eigenvalues --    2.05924   2.06552   2.06818   2.07198   2.07369
 Alpha virt. eigenvalues --    2.07936   2.08255   2.08532   2.08982   2.09624
 Alpha virt. eigenvalues --    2.09690   2.10025   2.10335   2.10652   2.11089
 Alpha virt. eigenvalues --    2.11226   2.11579   2.11750   2.12119   2.12487
 Alpha virt. eigenvalues --    2.12800   2.13010   2.13318   2.13643   2.13802
 Alpha virt. eigenvalues --    2.14283   2.14462   2.14923   2.15205   2.15352
 Alpha virt. eigenvalues --    2.15441   2.15924   2.16234   2.16395   2.16778
 Alpha virt. eigenvalues --    2.17007   2.17264   2.17348   2.17524   2.18280
 Alpha virt. eigenvalues --    2.18334   2.18780   2.19026   2.19371   2.19497
 Alpha virt. eigenvalues --    2.19764   2.19859   2.20360   2.20464   2.20801
 Alpha virt. eigenvalues --    2.21129   2.21341   2.21502   2.21706   2.21813
 Alpha virt. eigenvalues --    2.22164   2.22815   2.22975   2.23604   2.24356
 Alpha virt. eigenvalues --    2.24684   2.24754   2.24991   2.25175   2.26116
 Alpha virt. eigenvalues --    2.26522   2.26756   2.27284   2.27715   2.28133
 Alpha virt. eigenvalues --    2.28236   2.28433   2.28953   2.29626   2.29877
 Alpha virt. eigenvalues --    2.30020   2.30644   2.31229   2.31304   2.31962
 Alpha virt. eigenvalues --    2.32613   2.33450   2.33989   2.34326   2.34956
 Alpha virt. eigenvalues --    2.35094   2.35335   2.35947   2.36015   2.36182
 Alpha virt. eigenvalues --    2.37021   2.37175   2.37503   2.38118   2.38555
 Alpha virt. eigenvalues --    2.38619   2.38903   2.39803   2.39897   2.40618
 Alpha virt. eigenvalues --    2.40708   2.41308   2.41422   2.41671   2.41968
 Alpha virt. eigenvalues --    2.42315   2.42781   2.43217   2.43344   2.43606
 Alpha virt. eigenvalues --    2.44183   2.44895   2.44970   2.45685   2.45920
 Alpha virt. eigenvalues --    2.46199   2.46295   2.46883   2.47057   2.47395
 Alpha virt. eigenvalues --    2.48018   2.48199   2.48486   2.48635   2.48955
 Alpha virt. eigenvalues --    2.49168   2.49497   2.49835   2.49949   2.50126
 Alpha virt. eigenvalues --    2.50307   2.50969   2.51147   2.51375   2.51996
 Alpha virt. eigenvalues --    2.52243   2.52665   2.53411   2.53879   2.54229
 Alpha virt. eigenvalues --    2.54705   2.54865   2.55342   2.56153   2.56306
 Alpha virt. eigenvalues --    2.56713   2.57111   2.57965   2.58159   2.58416
 Alpha virt. eigenvalues --    2.59472   2.60508   2.60625   2.61282   2.61415
 Alpha virt. eigenvalues --    2.61989   2.62346   2.62395   2.62624   2.63003
 Alpha virt. eigenvalues --    2.63980   2.64069   2.64372   2.65201   2.65360
 Alpha virt. eigenvalues --    2.65706   2.65939   2.66014   2.67124   2.67310
 Alpha virt. eigenvalues --    2.68142   2.68459   2.68861   2.68933   2.69308
 Alpha virt. eigenvalues --    2.69764   2.69878   2.70579   2.70622   2.70852
 Alpha virt. eigenvalues --    2.72171   2.72491   2.72608   2.72738   2.73645
 Alpha virt. eigenvalues --    2.74020   2.74341   2.74751   2.75136   2.75290
 Alpha virt. eigenvalues --    2.75791   2.75978   2.76017   2.76154   2.76684
 Alpha virt. eigenvalues --    2.76974   2.77284   2.77876   2.78650   2.78869
 Alpha virt. eigenvalues --    2.79672   2.79814   2.80100   2.80678   2.80764
 Alpha virt. eigenvalues --    2.81446   2.81880   2.82215   2.82278   2.83070
 Alpha virt. eigenvalues --    2.83463   2.84029   2.84140   2.84317   2.85021
 Alpha virt. eigenvalues --    2.85334   2.86114   2.86173   2.86464   2.87042
 Alpha virt. eigenvalues --    2.87753   2.88639   2.88943   2.90018   2.90237
 Alpha virt. eigenvalues --    2.90910   2.91371   2.92473   2.92664   2.92920
 Alpha virt. eigenvalues --    2.94069   2.94172   2.94450   2.95067   2.95428
 Alpha virt. eigenvalues --    2.95600   2.95838   2.96230   2.96986   2.97121
 Alpha virt. eigenvalues --    2.97742   2.98064   2.98601   2.99157   2.99558
 Alpha virt. eigenvalues --    2.99679   2.99824   3.00449   3.00576   3.00769
 Alpha virt. eigenvalues --    3.01047   3.01311   3.01605   3.02061   3.02452
 Alpha virt. eigenvalues --    3.02682   3.02870   3.03347   3.03718   3.04298
 Alpha virt. eigenvalues --    3.04357   3.04555   3.04864   3.05175   3.05472
 Alpha virt. eigenvalues --    3.05667   3.05743   3.06125   3.06457   3.06516
 Alpha virt. eigenvalues --    3.06603   3.07257   3.07595   3.08687   3.08733
 Alpha virt. eigenvalues --    3.08944   3.09285   3.09887   3.10265   3.10674
 Alpha virt. eigenvalues --    3.11213   3.11379   3.11582   3.11864   3.12002
 Alpha virt. eigenvalues --    3.12078   3.12503   3.12937   3.13495   3.14243
 Alpha virt. eigenvalues --    3.14507   3.15071   3.15313   3.15900   3.16359
 Alpha virt. eigenvalues --    3.16620   3.17228   3.17453   3.17586   3.18501
 Alpha virt. eigenvalues --    3.19110   3.20032   3.20311   3.20725   3.21955
 Alpha virt. eigenvalues --    3.22517   3.22993   3.23523   3.23994   3.25480
 Alpha virt. eigenvalues --    3.25919   3.26536   3.27288   3.28373   3.30682
 Alpha virt. eigenvalues --    3.30945   3.35605   3.41702   3.46855   3.47210
 Alpha virt. eigenvalues --    3.47513   3.51816   3.55147   3.57448   3.60669
 Alpha virt. eigenvalues --    3.63626   3.64141   3.67315   3.70491   3.71471
 Alpha virt. eigenvalues --    3.72423   3.76093
          Condensed to atoms (all electrons):
 Mulliken charges:
               1
     1  Mg   0.980040
     2  C   -0.033356
     3  C   -0.099278
     4  C   -0.063167
     5  C   -0.089215
     6  N   -0.321362
     7  C    0.017823
     8  C   -0.082140
     9  C   -0.129343
    10  C    0.029418
    11  C    0.022581
    12  C    0.035630
    13  C    0.036593
    14  C    0.213683
    15  O   -0.277896
    16  O   -0.382141
    17  N   -0.523162
    18  C    0.242039
    19  C   -0.150772
    20  C   -0.080589
    21  C    0.154513
    22  C    0.041735
    23  C    0.076325
    24  O   -0.213580
    25  C   -0.007872
    26  N   -0.359342
    27  C    0.071893
    28  C   -0.108439
    29  C   -0.079688
    30  C    0.063548
    31  C    0.008256
    32  C    0.027349
    33  C   -0.074167
    34  N   -0.443920
    35  C    0.130454
    36  C   -0.214577
    37  C    0.008317
    38  C    0.121142
    39  C    0.094244
    40  C    0.108808
    41  O   -0.190310
    42  C   -0.043529
    43  C    0.276015
    44  O   -0.281303
    45  O   -0.373272
    46  C    0.141254
    47  C    0.255578
    48  C   -0.101697
    49  C   -0.227235
    50  C    0.020958
    51  C    0.006802
    52  C    0.006371
    53  C    0.008736
    54  C   -0.191767
    55  C    0.002471
    56  C   -0.008600
    57  C   -0.025457
    58  C    0.044287
    59  C   -0.217518
    60  C   -0.012132
    61  C    0.006860
    62  C   -0.048393
    63  C    0.022068
    64  C   -0.251809
    65  C    0.009824
    66  C   -0.017324
    67  H   -0.009676
    68  H    0.021871
    69  H   -0.003345
    70  H    0.030363
    71  H    0.027269
    72  H    0.046490
    73  H    0.043241
    74  H    0.033270
    75  H    0.036287
    76  H    0.039497
    77  H    0.075722
    78  H    0.048056
    79  H    0.051185
    80  H    0.025907
    81  H    0.044456
    82  H    0.070959
    83  H    0.046964
    84  H    0.048625
    85  H    0.038058
    86  H    0.037841
    87  H    0.044133
    88  H    0.029865
    89  H    0.037127
    90  H    0.035635
    91  H    0.037719
    92  H    0.038965
    93  H    0.028166
    94  H    0.026899
    95  H    0.030978
    96  H    0.066510
    97  H    0.049766
    98  H    0.057455
    99  H    0.060912
   100  H    0.064589
   101  H    0.068170
   102  H    0.014395
   103  H    0.051533
   104  H    0.029160
   105  H    0.068179
   106  H    0.040666
   107  H    0.035728
   108  H    0.046676
   109  H    0.004263
   110  H    0.031405
   111  H    0.014113
   112  H    0.030847
   113  H    0.014721
   114  H    0.015659
   115  H    0.018746
   116  H    0.017269
   117  H    0.035901
   118  H    0.010373
   119  H    0.011515
   120  H    0.027133
   121  H    0.025126
   122  H    0.012297
   123  H    0.015538
   124  H    0.022729
   125  H    0.032407
   126  H    0.024569
   127  H    0.040531
   128  H    0.007122
   129  H    0.017129
   130  H    0.024902
   131  H    0.031099
   132  H    0.022581
   133  H    0.014932
   134  H    0.018078
   135  H    0.026814
   136  H    0.038345
   137  H    0.031419
   138  H    0.027046
   139  H    0.031197
   140  H    0.026665
 Sum of Mulliken charges =  -0.00000
 Mulliken charges with hydrogens summed into heavy atoms:
               1
     1  Mg   0.980040
     2  C   -0.033356
     3  C   -0.108954
     4  C   -0.041296
     5  C   -0.092560
     6  N   -0.321362
     7  C    0.017823
     8  C   -0.051778
     9  C   -0.102074
    10  C    0.029418
    11  C    0.145582
    12  C    0.111415
    13  C    0.160372
    14  C    0.213683
    15  O   -0.277896
    16  O   -0.382141
    17  N   -0.523162
    18  C    0.242039
    19  C   -0.150772
    20  C   -0.080589
    21  C    0.154513
    22  C    0.163283
    23  C    0.076325
    24  O   -0.213580
    25  C    0.158676
    26  N   -0.359342
    27  C    0.071893
    28  C   -0.070382
    29  C   -0.041846
    30  C    0.063548
    31  C    0.119381
    32  C    0.100703
    33  C    0.019864
    34  N   -0.443920
    35  C    0.130454
    36  C   -0.214577
    37  C    0.008317
    38  C    0.121142
    39  C    0.241498
    40  C    0.108808
    41  O   -0.190310
    42  C    0.013926
    43  C    0.276015
    44  O   -0.281303
    45  O   -0.373272
    46  C    0.334925
    47  C    0.321505
    48  C   -0.072537
    49  C   -0.227235
    50  C    0.165531
    51  C    0.057741
    52  C    0.051889
    53  C    0.054304
    54  C   -0.176108
    55  C    0.074388
    56  C    0.013289
    57  C    0.026802
    58  C    0.072122
    59  C   -0.194789
    60  C    0.085375
    61  C    0.031110
    62  C    0.007609
    63  C    0.059582
    64  C   -0.233731
    65  C    0.106402
    66  C    0.067584
 Electronic spatial extent (au):  <R**2>=          90974.9298
 Charge=             -0.0000 electrons
 Dipole moment (field-independent basis, Debye):
    X=             -4.5205    Y=              3.3545    Z=              0.7289  Tot=              5.6762
 Quadrupole moment (field-independent basis, Debye-Ang):
   XX=           -370.6025   YY=           -411.8895   ZZ=           -413.9374
   XY=             12.6636   XZ=              9.1550   YZ=              0.9598
 Traceless Quadrupole moment (field-independent basis, Debye-Ang):
   XX=             28.2073   YY=            -13.0797   ZZ=            -15.1276
   XY=             12.6636   XZ=              9.1550   YZ=              0.9598
 Octapole moment (field-independent basis, Debye-Ang**2):
  XXX=            223.8916  YYY=              3.1395  ZZZ=             -7.7294  XYY=           -212.1808
  XXY=             43.4236  XXZ=             46.5987  XZZ=            -64.5417  YZZ=              8.5303
  YYZ=            -56.2735  XYZ=            -76.6664
 Hexadecapole moment (field-independent basis, Debye-Ang**3):
 XXXX=         -82624.9376 YYYY=         -31809.9012 ZZZZ=          -6222.8808 XXXY=           1032.9295
 XXXZ=            -61.0181 YYYX=            154.7379 YYYZ=            424.8575 ZZZX=            -11.8642
 ZZZY=            201.7742 XXYY=         -20549.0147 XXZZ=         -15449.3972 YYZZ=          -6318.4715
 XXYZ=           -628.6251 YYXZ=            125.6453 ZZXY=            150.6256
 N-N= 9.818327565482D+03 E-N=-2.662913272930D+04  KE= 2.975674201850D+03
 Leave Link  601 at Fri Apr 29 21:54:54 2022, MaxMem= 10066329600 cpu:              11.6 elap:               0.6
 (Enter /sw/apps/gaussian-16.0/g16/l9999.exe)
 1\1\GINC-BP1-COMPUTE150\SP\RwB97XD TD-FC\def2SVP\C55H74Mg1N4O6\OF15641
 \29-Apr-2022\0\\#p wB97XD/Def2SVP td=(nstates=5)\\step_501_chromophore
 _12 TDDFT with wB97XD functional\\0,1\Mg,0,46.936,15.625,28.058\C,0,44
 .932,15.296,30.937\C,0,49.09,17.559,29.833\C,0,48.76,16.004,25.235\C,0
 ,44.458,14.021,26.229\N,0,46.958,16.417,30.082\C,0,46.097,16.059,31.12
 3\C,0,46.628,16.601,32.416\C,0,47.629,17.68,31.939\C,0,47.921,17.182,3
 0.5\C,0,47.128,19.158,31.891\C,0,47.277,15.546,33.389\C,0,46.823,15.65
 3,34.81\C,0,47.918,15.572,35.89\O,0,48.554,14.555,36.161\O,0,48.138,16
 .74,36.624\N,0,48.693,16.535,27.656\C,0,49.516,17.231,28.557\C,0,50.69
 2,17.655,27.908\C,0,50.642,17.2,26.507\C,0,49.366,16.549,26.42\C,0,51.
 746,18.547,28.496\C,0,51.622,17.408,25.272\O,0,51.379,16.913,24.197\C,
 0,52.942,18.148,25.435\N,0,46.59,15.18,25.997\C,0,47.507,15.463,25.036
 \C,0,46.956,15.017,23.598\C,0,45.704,14.106,23.965\C,0,45.552,14.449,2
 5.508\C,0,46.571,16.163,22.622\C,0,45.923,12.573,23.705\C,0,44.848,12.
 011,22.873\N,0,45.055,14.86,28.457\C,0,44.202,14.133,27.628\C,0,43.059
 ,13.685,28.376\C,0,43.291,14.14,29.658\C,0,44.479,14.8,29.683\C,0,41.9
 46,12.804,27.751\C,0,42.745,14.209,31.001\O,0,41.65,13.856,31.38\C,0,4
 3.81,15.006,31.906\C,0,43.16,16.206,32.464\O,0,42.63,17.116,31.774\O,0
 ,43.204,16.125,33.825\C,0,42.271,17.048,34.524\C,0,49.085,16.573,37.75
 4\C,0,49.246,17.81,38.592\C,0,50.486,18.118,39.058\C,0,51.768,17.333,3
 8.861\C,0,50.745,19.482,39.719\C,0,51.698,20.567,39.125\C,0,51.246,21.
 847,39.614\C,0,52.263,22.999,39.112\C,0,53.193,23.439,40.228\C,0,51.62
 1,24.225,38.391\C,0,51.675,24.145,36.844\C,0,52.768,25.003,36.156\C,0,
 53.608,24.299,35.106\C,0,54.987,23.75,35.693\C,0,53.935,25.213,33.887\
 C,0,52.808,25.092,32.722\C,0,53.165,24.787,31.278\C,0,52.285,23.646,30
 .652\C,0,50.803,23.969,30.341\C,0,52.379,22.365,31.513\H,0,49.713,18.2
 06,30.454\H,0,49.276,16.094,24.277\H,0,43.659,13.583,25.628\H,0,45.898
 ,17.172,32.991\H,0,48.538,17.726,32.539\H,0,46.412,19.408,32.675\H,0,4
 6.696,19.313,30.902\H,0,47.905,19.922,31.896\H,0,48.352,15.689,33.281\
 H,0,47.12,14.526,33.037\H,0,46.116,14.825,34.864\H,0,46.374,16.632,34.
 977\H,0,52.688,18.061,28.751\H,0,51.399,18.922,29.458\H,0,52.048,19.43
 1,27.935\H,0,53.468,18.018,24.49\H,0,53.472,17.832,26.334\H,0,52.751,1
 9.177,25.741\H,0,47.741,14.502,23.044\H,0,44.84,14.473,23.409\H,0,46.6
 32,17.178,23.016\H,0,45.554,16.075,22.239\H,0,47.247,16.086,21.77\H,0,
 45.878,12.05,24.661\H,0,46.85,12.328,23.187\H,0,45.207,11.939,21.846\H
 ,0,43.863,12.476,22.893\H,0,44.583,11.022,23.247\H,0,42.319,12.37,26.8
 23\H,0,41.,13.343,27.682\H,0,41.837,11.979,28.454\H,0,44.196,14.384,32
 .714\H,0,42.26,16.836,35.593\H,0,41.279,16.758,34.177\H,0,42.557,18.06
 ,34.236\H,0,50.116,16.369,37.464\H,0,48.887,15.66,38.315\H,0,48.436,18
 .538,38.635\H,0,52.108,17.062,37.862\H,0,51.615,16.352,39.31\H,0,52.52
 9,17.803,39.485\H,0,50.865,19.184,40.761\H,0,49.78,19.98,39.625\H,0,51
 .867,20.589,38.049\H,0,52.675,20.282,39.516\H,0,51.026,22.016,40.668\H
 ,0,50.307,22.065,39.106\H,0,52.955,22.591,38.375\H,0,54.148,23.621,39.
 735\H,0,53.455,22.659,40.943\H,0,52.878,24.326,40.776\H,0,52.018,25.21
 5,38.614\H,0,50.597,24.282,38.759\H,0,50.699,24.576,36.62\H,0,51.79,23
 .075,36.667\H,0,53.424,25.407,36.928\H,0,52.368,25.897,35.679\H,0,53.0
 98,23.416,34.72\H,0,55.248,23.037,34.912\H,0,54.668,23.308,36.637\H,0,
 55.806,24.456,35.831\H,0,54.917,25.015,33.458\H,0,54.019,26.247,34.22\
 H,0,52.475,26.129,32.739\H,0,52.001,24.456,33.087\H,0,54.2,24.511,31.0
 77\H,0,52.954,25.62,30.607\H,0,52.741,23.468,29.678\H,0,50.664,24.953,
 30.79\H,0,50.096,23.216,30.689\H,0,50.768,24.112,29.261\H,0,52.621,21.
 526,30.861\H,0,51.434,22.209,32.034\H,0,53.214,22.356,32.213\\Version=
 ES64L-G16RevA.03\State=1-A\HF=-3007.864283\RMSD=7.338e-09\PG=C01 [X(C5
 5H74Mg1N4O6)]\\@


    THE DOUGHNUT CREED
 AS YOU RAMBLE ON THROUGH LIFE, BROTHER
 WHATEVER BE YOUR GOAL
 KEEP YOUR EYE UPON THE DOUGHNUT
 AND NOT UPON THE HOLE.
 Job cpu time:       0 days 13 hours 53 minutes 19.8 seconds.
 Elapsed time:       0 days  0 hours 35 minutes 15.0 seconds.
 File lengths (MBytes):  RWF=   8929 Int=      0 D2E=      0 Chk=    390 Scr=      1
 Normal termination of Gaussian 16 at Fri Apr 29 21:54:55 2022.
