 Entering Gaussian System, Link 0=g16
 Initial command:
 /sw/apps/gaussian-16.0/g16/l1.exe "/tmp/Gau-114956.inp" -scrdir="/tmp/"
 Entering Link 1 = /sw/apps/gaussian-16.0/g16/l1.exe PID=    114957.
  
 Copyright (c) 1988,1990,1992,1993,1995,1998,2003,2009,2016,
            Gaussian, Inc.  All Rights Reserved.
  
 This is part of the Gaussian(R) 16 program.  It is based on
 the Gaussian(R) 09 system (copyright 2009, Gaussian, Inc.),
 the Gaussian(R) 03 system (copyright 2003, Gaussian, Inc.),
 the Gaussian(R) 98 system (copyright 1998, Gaussian, Inc.),
 the Gaussian(R) 94 system (copyright 1995, Gaussian, Inc.),
 the Gaussian 92(TM) system (copyright 1992, Gaussian, Inc.),
 the Gaussian 90(TM) system (copyright 1990, Gaussian, Inc.),
 the Gaussian 88(TM) system (copyright 1988, Gaussian, Inc.),
 the Gaussian 86(TM) system (copyright 1986, Carnegie Mellon
 University), and the Gaussian 82(TM) system (copyright 1983,
 Carnegie Mellon University). Gaussian is a federally registered
 trademark of Gaussian, Inc.
  
 This software contains proprietary and confidential information,
 including trade secrets, belonging to Gaussian, Inc.
  
 This software is provided under written license and may be
 used, copied, transmitted, or stored only in accord with that
 written license.
  
 The following legend is applicable only to US Government
 contracts under FAR:
  
                    RESTRICTED RIGHTS LEGEND
  
 Use, reproduction and disclosure by the US Government is
 subject to restrictions as set forth in subparagraphs (a)
 and (c) of the Commercial Computer Software - Restricted
 Rights clause in FAR 52.227-19.
  
 Gaussian, Inc.
 340 Quinnipiac St., Bldg. 40, Wallingford CT 06492
  
  
 ---------------------------------------------------------------
 Warning -- This program may not be used in any manner that
 competes with the business of Gaussian, Inc. or will provide
 assistance to any competitor of Gaussian, Inc.  The licensee
 of this program is prohibited from giving any competitor of
 Gaussian, Inc. access to this program.  By using this program,
 the user acknowledges that Gaussian, Inc. is engaged in the
 business of creating and licensing software in the field of
 computational chemistry and represents and warrants to the
 licensee that it is not a competitor of Gaussian, Inc. and that
 it will not use this program in any manner prohibited above.
 ---------------------------------------------------------------
  

 Cite this work as:
 Gaussian 16, Revision A.03,
 M. J. Frisch, G. W. Trucks, H. B. Schlegel, G. E. Scuseria, 
 M. A. Robb, J. R. Cheeseman, G. Scalmani, V. Barone, 
 G. A. Petersson, H. Nakatsuji, X. Li, M. Caricato, A. V. Marenich, 
 J. Bloino, B. G. Janesko, R. Gomperts, B. Mennucci, H. P. Hratchian, 
 J. V. Ortiz, A. F. Izmaylov, J. L. Sonnenberg, D. Williams-Young, 
 F. Ding, F. Lipparini, F. Egidi, J. Goings, B. Peng, A. Petrone, 
 T. Henderson, D. Ranasinghe, V. G. Zakrzewski, J. Gao, N. Rega, 
 G. Zheng, W. Liang, M. Hada, M. Ehara, K. Toyota, R. Fukuda, 
 J. Hasegawa, M. Ishida, T. Nakajima, Y. Honda, O. Kitao, H. Nakai, 
 T. Vreven, K. Throssell, J. A. Montgomery, Jr., J. E. Peralta, 
 F. Ogliaro, M. J. Bearpark, J. J. Heyd, E. N. Brothers, K. N. Kudin, 
 V. N. Staroverov, T. A. Keith, R. Kobayashi, J. Normand, 
 K. Raghavachari, A. P. Rendell, J. C. Burant, S. S. Iyengar, 
 J. Tomasi, M. Cossi, J. M. Millam, M. Klene, C. Adamo, R. Cammi, 
 J. W. Ochterski, R. L. Martin, K. Morokuma, O. Farkas, 
 J. B. Foresman, and D. J. Fox, Gaussian, Inc., Wallingford CT, 2016.
 
 ******************************************
 Gaussian 16:  ES64L-G16RevA.03 25-Dec-2016
                29-Apr-2022 
 ******************************************
 %nproc=24
 Will use up to   24 processors via shared memory.
 %mem=75GB
 ------------------------------
 #p blyp/Def2SVP td=(nstates=5)
 ------------------------------
 1/38=1,172=1/1;
 2/12=2,17=6,18=5,40=1/2;
 3/5=43,7=101,11=9,25=1,30=1,74=402/1,2,3,8;
 4//1;
 5/5=2,38=5/2;
 8/6=1,10=1,108=5/1;
 9/41=5,42=1,70=2/14;
 6/7=2,8=2,9=2,10=2/1;
 99/5=1,9=1/99;
 Leave Link    1 at Fri Apr 29 11:47:22 2022, MaxMem= 10066329600 cpu:               0.9 elap:               0.0
 (Enter /sw/apps/gaussian-16.0/g16/l101.exe)
 -------------------------------------------------
 step_251_chromophore_9 TDDFT with blyp functional
 -------------------------------------------------
 Symbolic Z-matrix:
 Charge =  0 Multiplicity = 1
 Mg                    35.66     1.746     29.232 
 C                     33.472    2.341     31.895 
 C                     38.121    1.241     31.625 
 C                     37.79     1.615     26.779 
 C                     33.017    2.534     27.01 
 N                     35.876    2.185     31.541 
 C                     34.825    2.247     32.365 
 C                     35.34     2.182     33.764 
 C                     36.88     2.273     33.631 
 C                     37.006    1.846     32.182 
 C                     37.595    3.59      33.938 
 C                     34.896    0.872     34.489 
 C                     34.262    0.972     35.914 
 C                     34.688    2.141     36.856 
 O                     34.254    3.302     36.767 
 O                     35.517    1.689     37.899 
 N                     37.698    1.311     29.199 
 C                     38.455    0.954     30.307 
 C                     39.748    0.601     29.818 
 C                     39.736    0.825     28.383 
 C                     38.39     1.256     28.036 
 C                     40.944    0.2       30.709 
 C                     40.894    0.723     27.349 
 O                     40.781    0.949     26.186 
 C                     42.225    0.238     27.889 
 N                     35.396    2.026     27.207 
 C                     36.472    1.98      26.39 
 C                     36.138    2.227     24.893 
 C                     34.551    2.251     24.969 
 C                     34.265    2.245     26.466 
 C                     36.853    3.599     24.361 
 C                     33.864    1.141     24.113 
 C                     33.417   -0.126     24.82 
 N                     33.607    2.294     29.343 
 C                     32.663    2.488     28.371 
 C                     31.347    2.767     29.046 
 C                     31.642    2.712     30.427 
 C                     33.045    2.461     30.587 
 C                     30.057    3.203     28.406 
 C                     31.079    2.839     31.769 
 O                     29.913    3.096     32.082 
 C                     32.201    2.445     32.725 
 C                     32.264    3.54      33.751 
 O                     32.777    4.631     33.582 
 O                     31.499    3.139     34.753 
 C                     31.031    4.136     35.703 
 C                     35.908    2.752     38.867 
 C                     37.121    2.09      39.54 
 C                     37.206    1.388     40.697 
 C                     36.022    0.999     41.513 
 C                     38.492    0.674     41.076 
 C                     39.507    1.325     41.879 
 C                     40.078    0.384     42.989 
 C                     41.643    0.108     42.912 
 C                     42.071   -1.063     43.752 
 C                     42.388    1.36      43.325 
 C                     42.874    2.189     42.115 
 C                     44.323    2.729     42.29 
 C                     44.647    3.848     41.223 
 C                     45.738    3.194     40.364 
 C                     44.946    5.224     41.809 
 C                     43.996    6.354     41.395 
 C                     44.172    7.551     42.445 
 C                     44.161    8.996     41.842 
 C                     45.626    9.364     41.516 
 C                     43.381    10.174    42.514 
 H                     38.926    1.223     32.362 
 H                     38.445    1.398     25.933 
 H                     32.199    2.762     26.323 
 H                     34.933    3.024     34.323 
 H                     37.285    1.571     34.36 
 H                     36.969    4.411     34.288 
 H                     38.136    3.939     33.058 
 H                     38.324    3.361     34.715 
 H                     35.667    0.102     34.507 
 H                     34.145    0.53      33.777 
 H                     34.549    0.03      36.383 
 H                     33.178    1.009     35.809 
 H                     41.84     0.791     30.519 
 H                     41.298   -0.809     30.497 
 H                     40.739    0.228     31.78 
 H                     42.138   -0.686     28.461 
 H                     42.669    1.05      28.465 
 H                     42.949    0.141     27.08 
 H                     36.48     1.417     24.249 
 H                     34.117    3.155     24.542 
 H                     36.029    4.303     24.244 
 H                     37.255    3.516     23.351 
 H                     37.53     4.057     25.083 
 H                     34.658    0.799     23.449 
 H                     33.05     1.529     23.501 
 H                     34.252   -0.367     25.479 
 H                     33.307   -0.809     23.978 
 H                     32.56    -0.118     25.493 
 H                     30.049    3.416     27.337 
 H                     29.711    4.118     28.887 
 H                     29.333    2.437     28.682 
 H                     31.989    1.573     33.344 
 H                     31.229    5.193     35.528 
 H                     31.601    3.892     36.6 
 H                     30.077    3.797     36.107 
 H                     35.144    3.044     39.588 
 H                     36.124    3.672     38.322 
 H                     38.108    2.303     39.13 
 H                     35.189    1.7       41.556 
 H                     36.439    0.853     42.51 
 H                     35.601    0.105     41.054 
 H                     38.892    0.409     40.098 
 H                     38.262   -0.303     41.5 
 H                     39.172    2.232     42.382 
 H                     40.37     1.608     41.276 
 H                     39.539   -0.543     43.184 
 H                     39.983    0.822     43.983 
 H                     41.761   -0.151     41.86 
 H                     42.448   -0.835     44.749 
 H                     42.841   -1.556     43.159 
 H                     41.213   -1.721     43.889 
 H                     43.144    1.173     44.088 
 H                     41.727    1.976     43.935 
 H                     42.243    3.073     42.02 
 H                     42.823    1.594     41.203 
 H                     44.955    1.843     42.361 
 H                     44.298    3.199     43.273 
 H                     43.75     3.97      40.616 
 H                     45.275    2.824     39.449 
 H                     46.29     2.322     40.718 
 H                     46.399    4.014     40.083 
 H                     45.942    5.539     41.498 
 H                     44.915    5.132     42.894 
 H                     42.959    6.04      41.517 
 H                     44.099    6.565     40.331 
 H                     45.062    7.451     43.066 
 H                     43.309    7.461     43.105 
 H                     43.565    8.901     40.935 
 H                     46.094    8.741     40.753 
 H                     46.332    9.332     42.345 
 H                     45.678    10.43     41.292 
 H                     42.577    10.449    41.831 
 H                     44.067    11.012    42.636 
 H                     43.053    9.785     43.478 
 
 ITRead=  0  0  0  0  0  0  0  0  0  0  0  0  0  0  0  0  0  0  0  0
 ITRead=  0  0  0  0  0  0  0  0  0  0  0  0  0  0  0  0  0  0  0  0
 ITRead=  0  0  0  0  0  0  0  0  0  0  0  0  0  0  0  0  0  0  0  0
 ITRead=  0  0  0  0  0  0  0  0  0  0  0  0  0  0  0  0  0  0  0  0
 ITRead=  0  0  0  0  0  0  0  0  0  0  0  0  0  0  0  0  0  0  0  0
 ITRead=  0  0  0  0  0  0  0  0  0  0  0  0  0  0  0  0  0  0  0  0
 ITRead=  0  0  0  0  0  0  0  0  0  0  0  0  0  0  0  0  0  0  0  0
 MicOpt= -1 -1 -1 -1 -1 -1 -1 -1 -1 -1 -1 -1 -1 -1 -1 -1 -1 -1 -1 -1
 MicOpt= -1 -1 -1 -1 -1 -1 -1 -1 -1 -1 -1 -1 -1 -1 -1 -1 -1 -1 -1 -1
 MicOpt= -1 -1 -1 -1 -1 -1 -1 -1 -1 -1 -1 -1 -1 -1 -1 -1 -1 -1 -1 -1
 MicOpt= -1 -1 -1 -1 -1 -1 -1 -1 -1 -1 -1 -1 -1 -1 -1 -1 -1 -1 -1 -1
 MicOpt= -1 -1 -1 -1 -1 -1 -1 -1 -1 -1 -1 -1 -1 -1 -1 -1 -1 -1 -1 -1
 MicOpt= -1 -1 -1 -1 -1 -1 -1 -1 -1 -1 -1 -1 -1 -1 -1 -1 -1 -1 -1 -1
 MicOpt= -1 -1 -1 -1 -1 -1 -1 -1 -1 -1 -1 -1 -1 -1 -1 -1 -1 -1 -1 -1
 NAtoms=    140 NQM=      140 NQMF=       0 NMMI=      0 NMMIF=      0
                NMic=       0 NMicF=      0.
                    Isotopes and Nuclear Properties:
 (Nuclear quadrupole moments (NQMom) in fm**2, nuclear magnetic moments (NMagM)
  in nuclear magnetons)

  Atom         1           2           3           4           5           6           7           8           9          10
 IAtWgt=          24          12          12          12          12          14          12          12          12          12
 AtmWgt=  23.9850450  12.0000000  12.0000000  12.0000000  12.0000000  14.0030740  12.0000000  12.0000000  12.0000000  12.0000000
 NucSpn=           0           0           0           0           0           2           0           0           0           0
 AtZEff=  -0.0000000  -0.0000000  -0.0000000  -0.0000000  -0.0000000  -0.0000000  -0.0000000  -0.0000000  -0.0000000  -0.0000000
 NQMom=    0.0000000   0.0000000   0.0000000   0.0000000   0.0000000   2.0440000   0.0000000   0.0000000   0.0000000   0.0000000
 NMagM=    0.0000000   0.0000000   0.0000000   0.0000000   0.0000000   0.4037610   0.0000000   0.0000000   0.0000000   0.0000000
 AtZNuc=  12.0000000   6.0000000   6.0000000   6.0000000   6.0000000   7.0000000   6.0000000   6.0000000   6.0000000   6.0000000

  Atom        11          12          13          14          15          16          17          18          19          20
 IAtWgt=          12          12          12          12          16          16          14          12          12          12
 AtmWgt=  12.0000000  12.0000000  12.0000000  12.0000000  15.9949146  15.9949146  14.0030740  12.0000000  12.0000000  12.0000000
 NucSpn=           0           0           0           0           0           0           2           0           0           0
 AtZEff=  -0.0000000  -0.0000000  -0.0000000  -0.0000000  -0.0000000  -0.0000000  -0.0000000  -0.0000000  -0.0000000  -0.0000000
 NQMom=    0.0000000   0.0000000   0.0000000   0.0000000   0.0000000   0.0000000   2.0440000   0.0000000   0.0000000   0.0000000
 NMagM=    0.0000000   0.0000000   0.0000000   0.0000000   0.0000000   0.0000000   0.4037610   0.0000000   0.0000000   0.0000000
 AtZNuc=   6.0000000   6.0000000   6.0000000   6.0000000   8.0000000   8.0000000   7.0000000   6.0000000   6.0000000   6.0000000

  Atom        21          22          23          24          25          26          27          28          29          30
 IAtWgt=          12          12          12          16          12          14          12          12          12          12
 AtmWgt=  12.0000000  12.0000000  12.0000000  15.9949146  12.0000000  14.0030740  12.0000000  12.0000000  12.0000000  12.0000000
 NucSpn=           0           0           0           0           0           2           0           0           0           0
 AtZEff=  -0.0000000  -0.0000000  -0.0000000  -0.0000000  -0.0000000  -0.0000000  -0.0000000  -0.0000000  -0.0000000  -0.0000000
 NQMom=    0.0000000   0.0000000   0.0000000   0.0000000   0.0000000   2.0440000   0.0000000   0.0000000   0.0000000   0.0000000
 NMagM=    0.0000000   0.0000000   0.0000000   0.0000000   0.0000000   0.4037610   0.0000000   0.0000000   0.0000000   0.0000000
 AtZNuc=   6.0000000   6.0000000   6.0000000   8.0000000   6.0000000   7.0000000   6.0000000   6.0000000   6.0000000   6.0000000

  Atom        31          32          33          34          35          36          37          38          39          40
 IAtWgt=          12          12          12          14          12          12          12          12          12          12
 AtmWgt=  12.0000000  12.0000000  12.0000000  14.0030740  12.0000000  12.0000000  12.0000000  12.0000000  12.0000000  12.0000000
 NucSpn=           0           0           0           2           0           0           0           0           0           0
 AtZEff=  -0.0000000  -0.0000000  -0.0000000  -0.0000000  -0.0000000  -0.0000000  -0.0000000  -0.0000000  -0.0000000  -0.0000000
 NQMom=    0.0000000   0.0000000   0.0000000   2.0440000   0.0000000   0.0000000   0.0000000   0.0000000   0.0000000   0.0000000
 NMagM=    0.0000000   0.0000000   0.0000000   0.4037610   0.0000000   0.0000000   0.0000000   0.0000000   0.0000000   0.0000000
 AtZNuc=   6.0000000   6.0000000   6.0000000   7.0000000   6.0000000   6.0000000   6.0000000   6.0000000   6.0000000   6.0000000

  Atom        41          42          43          44          45          46          47          48          49          50
 IAtWgt=          16          12          12          16          16          12          12          12          12          12
 AtmWgt=  15.9949146  12.0000000  12.0000000  15.9949146  15.9949146  12.0000000  12.0000000  12.0000000  12.0000000  12.0000000
 NucSpn=           0           0           0           0           0           0           0           0           0           0
 AtZEff=  -0.0000000  -0.0000000  -0.0000000  -0.0000000  -0.0000000  -0.0000000  -0.0000000  -0.0000000  -0.0000000  -0.0000000
 NQMom=    0.0000000   0.0000000   0.0000000   0.0000000   0.0000000   0.0000000   0.0000000   0.0000000   0.0000000   0.0000000
 NMagM=    0.0000000   0.0000000   0.0000000   0.0000000   0.0000000   0.0000000   0.0000000   0.0000000   0.0000000   0.0000000
 AtZNuc=   8.0000000   6.0000000   6.0000000   8.0000000   8.0000000   6.0000000   6.0000000   6.0000000   6.0000000   6.0000000

  Atom        51          52          53          54          55          56          57          58          59          60
 IAtWgt=          12          12          12          12          12          12          12          12          12          12
 AtmWgt=  12.0000000  12.0000000  12.0000000  12.0000000  12.0000000  12.0000000  12.0000000  12.0000000  12.0000000  12.0000000
 NucSpn=           0           0           0           0           0           0           0           0           0           0
 AtZEff=  -0.0000000  -0.0000000  -0.0000000  -0.0000000  -0.0000000  -0.0000000  -0.0000000  -0.0000000  -0.0000000  -0.0000000
 NQMom=    0.0000000   0.0000000   0.0000000   0.0000000   0.0000000   0.0000000   0.0000000   0.0000000   0.0000000   0.0000000
 NMagM=    0.0000000   0.0000000   0.0000000   0.0000000   0.0000000   0.0000000   0.0000000   0.0000000   0.0000000   0.0000000
 AtZNuc=   6.0000000   6.0000000   6.0000000   6.0000000   6.0000000   6.0000000   6.0000000   6.0000000   6.0000000   6.0000000

  Atom        61          62          63          64          65          66          67          68          69          70
 IAtWgt=          12          12          12          12          12          12           1           1           1           1
 AtmWgt=  12.0000000  12.0000000  12.0000000  12.0000000  12.0000000  12.0000000   1.0078250   1.0078250   1.0078250   1.0078250
 NucSpn=           0           0           0           0           0           0           1           1           1           1
 AtZEff=  -0.0000000  -0.0000000  -0.0000000  -0.0000000  -0.0000000  -0.0000000  -0.0000000  -0.0000000  -0.0000000  -0.0000000
 NQMom=    0.0000000   0.0000000   0.0000000   0.0000000   0.0000000   0.0000000   0.0000000   0.0000000   0.0000000   0.0000000
 NMagM=    0.0000000   0.0000000   0.0000000   0.0000000   0.0000000   0.0000000   2.7928460   2.7928460   2.7928460   2.7928460
 AtZNuc=   6.0000000   6.0000000   6.0000000   6.0000000   6.0000000   6.0000000   1.0000000   1.0000000   1.0000000   1.0000000

  Atom        71          72          73          74          75          76          77          78          79          80
 IAtWgt=           1           1           1           1           1           1           1           1           1           1
 AtmWgt=   1.0078250   1.0078250   1.0078250   1.0078250   1.0078250   1.0078250   1.0078250   1.0078250   1.0078250   1.0078250
 NucSpn=           1           1           1           1           1           1           1           1           1           1
 AtZEff=  -0.0000000  -0.0000000  -0.0000000  -0.0000000  -0.0000000  -0.0000000  -0.0000000  -0.0000000  -0.0000000  -0.0000000
 NQMom=    0.0000000   0.0000000   0.0000000   0.0000000   0.0000000   0.0000000   0.0000000   0.0000000   0.0000000   0.0000000
 NMagM=    2.7928460   2.7928460   2.7928460   2.7928460   2.7928460   2.7928460   2.7928460   2.7928460   2.7928460   2.7928460
 AtZNuc=   1.0000000   1.0000000   1.0000000   1.0000000   1.0000000   1.0000000   1.0000000   1.0000000   1.0000000   1.0000000

  Atom        81          82          83          84          85          86          87          88          89          90
 IAtWgt=           1           1           1           1           1           1           1           1           1           1
 AtmWgt=   1.0078250   1.0078250   1.0078250   1.0078250   1.0078250   1.0078250   1.0078250   1.0078250   1.0078250   1.0078250
 NucSpn=           1           1           1           1           1           1           1           1           1           1
 AtZEff=  -0.0000000  -0.0000000  -0.0000000  -0.0000000  -0.0000000  -0.0000000  -0.0000000  -0.0000000  -0.0000000  -0.0000000
 NQMom=    0.0000000   0.0000000   0.0000000   0.0000000   0.0000000   0.0000000   0.0000000   0.0000000   0.0000000   0.0000000
 NMagM=    2.7928460   2.7928460   2.7928460   2.7928460   2.7928460   2.7928460   2.7928460   2.7928460   2.7928460   2.7928460
 AtZNuc=   1.0000000   1.0000000   1.0000000   1.0000000   1.0000000   1.0000000   1.0000000   1.0000000   1.0000000   1.0000000

  Atom        91          92          93          94          95          96          97          98          99         100
 IAtWgt=           1           1           1           1           1           1           1           1           1           1
 AtmWgt=   1.0078250   1.0078250   1.0078250   1.0078250   1.0078250   1.0078250   1.0078250   1.0078250   1.0078250   1.0078250
 NucSpn=           1           1           1           1           1           1           1           1           1           1
 AtZEff=  -0.0000000  -0.0000000  -0.0000000  -0.0000000  -0.0000000  -0.0000000  -0.0000000  -0.0000000  -0.0000000  -0.0000000
 NQMom=    0.0000000   0.0000000   0.0000000   0.0000000   0.0000000   0.0000000   0.0000000   0.0000000   0.0000000   0.0000000
 NMagM=    2.7928460   2.7928460   2.7928460   2.7928460   2.7928460   2.7928460   2.7928460   2.7928460   2.7928460   2.7928460
 AtZNuc=   1.0000000   1.0000000   1.0000000   1.0000000   1.0000000   1.0000000   1.0000000   1.0000000   1.0000000   1.0000000

  Atom       101         102         103         104         105         106         107         108         109         110
 IAtWgt=           1           1           1           1           1           1           1           1           1           1
 AtmWgt=   1.0078250   1.0078250   1.0078250   1.0078250   1.0078250   1.0078250   1.0078250   1.0078250   1.0078250   1.0078250
 NucSpn=           1           1           1           1           1           1           1           1           1           1
 AtZEff=  -0.0000000  -0.0000000  -0.0000000  -0.0000000  -0.0000000  -0.0000000  -0.0000000  -0.0000000  -0.0000000  -0.0000000
 NQMom=    0.0000000   0.0000000   0.0000000   0.0000000   0.0000000   0.0000000   0.0000000   0.0000000   0.0000000   0.0000000
 NMagM=    2.7928460   2.7928460   2.7928460   2.7928460   2.7928460   2.7928460   2.7928460   2.7928460   2.7928460   2.7928460
 AtZNuc=   1.0000000   1.0000000   1.0000000   1.0000000   1.0000000   1.0000000   1.0000000   1.0000000   1.0000000   1.0000000

  Atom       111         112         113         114         115         116         117         118         119         120
 IAtWgt=           1           1           1           1           1           1           1           1           1           1
 AtmWgt=   1.0078250   1.0078250   1.0078250   1.0078250   1.0078250   1.0078250   1.0078250   1.0078250   1.0078250   1.0078250
 NucSpn=           1           1           1           1           1           1           1           1           1           1
 AtZEff=  -0.0000000  -0.0000000  -0.0000000  -0.0000000  -0.0000000  -0.0000000  -0.0000000  -0.0000000  -0.0000000  -0.0000000
 NQMom=    0.0000000   0.0000000   0.0000000   0.0000000   0.0000000   0.0000000   0.0000000   0.0000000   0.0000000   0.0000000
 NMagM=    2.7928460   2.7928460   2.7928460   2.7928460   2.7928460   2.7928460   2.7928460   2.7928460   2.7928460   2.7928460
 AtZNuc=   1.0000000   1.0000000   1.0000000   1.0000000   1.0000000   1.0000000   1.0000000   1.0000000   1.0000000   1.0000000

  Atom       121         122         123         124         125         126         127         128         129         130
 IAtWgt=           1           1           1           1           1           1           1           1           1           1
 AtmWgt=   1.0078250   1.0078250   1.0078250   1.0078250   1.0078250   1.0078250   1.0078250   1.0078250   1.0078250   1.0078250
 NucSpn=           1           1           1           1           1           1           1           1           1           1
 AtZEff=  -0.0000000  -0.0000000  -0.0000000  -0.0000000  -0.0000000  -0.0000000  -0.0000000  -0.0000000  -0.0000000  -0.0000000
 NQMom=    0.0000000   0.0000000   0.0000000   0.0000000   0.0000000   0.0000000   0.0000000   0.0000000   0.0000000   0.0000000
 NMagM=    2.7928460   2.7928460   2.7928460   2.7928460   2.7928460   2.7928460   2.7928460   2.7928460   2.7928460   2.7928460
 AtZNuc=   1.0000000   1.0000000   1.0000000   1.0000000   1.0000000   1.0000000   1.0000000   1.0000000   1.0000000   1.0000000

  Atom       131         132         133         134         135         136         137         138         139         140
 IAtWgt=           1           1           1           1           1           1           1           1           1           1
 AtmWgt=   1.0078250   1.0078250   1.0078250   1.0078250   1.0078250   1.0078250   1.0078250   1.0078250   1.0078250   1.0078250
 NucSpn=           1           1           1           1           1           1           1           1           1           1
 AtZEff=  -0.0000000  -0.0000000  -0.0000000  -0.0000000  -0.0000000  -0.0000000  -0.0000000  -0.0000000  -0.0000000  -0.0000000
 NQMom=    0.0000000   0.0000000   0.0000000   0.0000000   0.0000000   0.0000000   0.0000000   0.0000000   0.0000000   0.0000000
 NMagM=    2.7928460   2.7928460   2.7928460   2.7928460   2.7928460   2.7928460   2.7928460   2.7928460   2.7928460   2.7928460
 AtZNuc=   1.0000000   1.0000000   1.0000000   1.0000000   1.0000000   1.0000000   1.0000000   1.0000000   1.0000000   1.0000000
 Leave Link  101 at Fri Apr 29 11:47:23 2022, MaxMem= 10066329600 cpu:               4.3 elap:               0.2
 (Enter /sw/apps/gaussian-16.0/g16/l202.exe)
 Stoichiometry    C55H74MgN4O6
 Framework group  C1[X(C55H74MgN4O6)]
 Deg. of freedom   414
 Full point group                 C1      NOp   1
 Largest Abelian subgroup         C1      NOp   1
 Largest concise Abelian subgroup C1      NOp   1
                         Standard orientation:                         
 ---------------------------------------------------------------------
 Center     Atomic      Atomic             Coordinates (Angstroms)
 Number     Number       Type             X           Y           Z
 ---------------------------------------------------------------------
      1         12           0       -5.122184    0.813045   -0.188429
      2          6           0       -3.778479   -2.380834    0.287521
      3          6           0       -1.924909    1.807469   -1.097577
      4          6           0       -6.254955    3.860513   -0.220724
      5          6           0       -8.223510   -0.419800    0.997130
      6          7           0       -2.956817   -0.106531    0.002417
      7          6           0       -2.734419   -1.423830    0.054228
      8          6           0       -1.278805   -1.648651   -0.185137
      9          6           0       -0.647846   -0.234631   -0.187589
     10          6           0       -1.900009    0.569642   -0.475755
     11          6           0        0.119567    0.259647    1.039901
     12          6           0       -1.017862   -2.403470   -1.527157
     13          6           0       -0.068677   -3.645093   -1.526216
     14          6           0        1.095410   -3.712147   -0.489005
     15          8           0        0.950497   -4.034998    0.702199
     16          8           0        2.344620   -3.494956   -1.098673
     17          7           0       -4.229659    2.608480   -0.757261
     18          6           0       -2.946838    2.732420   -1.274147
     19          6           0       -2.797165    4.096430   -1.664855
     20          6           0       -4.024642    4.781106   -1.298706
     21          6           0       -4.917722    3.775031   -0.743630
     22          6           0       -1.498746    4.709010   -2.234023
     23          6           0       -4.383482    6.292952   -1.376667
     24          8           0       -5.422277    6.757950   -1.028678
     25          6           0       -3.336126    7.192097   -2.003541
     26          7           0       -6.976723    1.562401    0.309441
     27          6           0       -7.179158    2.898414    0.271094
     28          6           0       -8.611651    3.331283    0.688421
     29          6           0       -9.300811    1.905021    0.813941
     30          6           0       -8.135486    0.932127    0.678529
     31          6           0       -8.567706    4.231079    2.054097
     32          6           0      -10.507644    1.702722   -0.155302
     33          6           0      -10.258617    0.954490   -1.452638
     34          7           0       -5.940386   -1.031772    0.485832
     35          6           0       -7.213838   -1.387117    0.840243
     36          6           0       -7.221558   -2.861932    1.140548
     37          6           0       -5.885508   -3.270619    0.928050
     38          6           0       -5.106236   -2.122175    0.566356
     39          6           0       -8.342249   -3.677520    1.725923
     40          6           0       -4.971376   -4.409679    0.959173
     41          8           0       -5.225095   -5.578721    1.263379
     42          6           0       -3.650904   -3.893186    0.395573
     43          6           0       -2.596059   -4.319597    1.375953
     44          8           0       -2.366593   -3.775330    2.440439
     45          8           0       -2.137912   -5.478010    0.930746
     46          6           0       -1.414693   -6.334003    1.857980
     47          6           0        3.501840   -3.606514   -0.166862
     48          6           0        4.587233   -2.877069   -0.974560
     49          6           0        5.550081   -3.369556   -1.792519
     50          6           0        5.647641   -4.805030   -2.178434
     51          6           0        6.408246   -2.434956   -2.627568
     52          6           0        7.670361   -1.925476   -2.131250
     53          6           0        8.795701   -1.972592   -3.215229
     54          6           0        9.443119   -0.568218   -3.589280
     55          6           0       10.237477   -0.613123   -4.864821
     56          6           0       10.309273   -0.099614   -2.438939
     57          6           0        9.588400    0.920089   -1.528949
     58          6           0       10.498000    2.111324   -1.110127
     59          6           0        9.859109    2.923720    0.084636
     60          6           0        9.554039    4.285648   -0.554085
     61          6           0       10.677671    2.919769    1.371536
     62          6           0        9.999692    2.301448    2.599876
     63          6           0       11.141696    1.963677    3.671334
     64          6           0       10.785807    2.262804    5.166533
     65          6           0       11.246360    3.707679    5.463435
     66          6           0       11.139861    1.269935    6.322615
     67          1           0       -0.901156    2.156640   -1.244300
     68          1           0       -6.704360    4.839703   -0.396937
     69          1           0       -9.184663   -0.801896    1.348220
     70          1           0       -0.885365   -2.264462    0.622994
     71          1           0        0.095438   -0.240342   -0.984938
     72          1           0        0.223979   -0.447373    1.863088
     73          1           0       -0.345697    1.162374    1.436759
     74          1           0        1.116397    0.520358    0.684979
     75          1           0       -0.726625   -1.746402   -2.346368
     76          1           0       -2.037435   -2.721845   -1.743994
     77          1           0        0.363066   -3.631647   -2.527770
     78          1           0       -0.673469   -4.543333   -1.404391
     79          1           0       -1.164818    5.592681   -1.690135
     80          1           0       -1.635670    5.108910   -3.238848
     81          1           0       -0.661331    4.013031   -2.298820
     82          1           0       -2.991261    6.828517   -2.971739
     83          1           0       -2.524943    7.313015   -1.285476
     84          1           0       -3.705912    8.215342   -2.069074
     85          1           0       -9.106256    3.931576   -0.075001
     86          1           0       -9.770813    1.742099    1.783712
     87          1           0       -8.978366    3.574550    2.821306
     88          1           0       -9.264550    5.069478    2.044657
     89          1           0       -7.560809    4.481248    2.390178
     90          1           0      -10.747327    2.714288   -0.483298
     91          1           0      -11.382345    1.289910    0.346863
     92          1           0       -9.315274    1.364825   -1.815014
     93          1           0      -11.126163    1.256028   -2.039147
     94          1           0      -10.081442   -0.120708   -1.452743
     95          1           0       -9.250648   -3.166081    2.044412
     96          1           0       -7.978746   -4.201371    2.610088
     97          1           0       -8.540252   -4.454207    0.987912
     98          1           0       -3.318594   -4.388278   -0.517084
     99          1           0       -1.345036   -6.063135    2.911002
    100          1           0       -0.391208   -6.270632    1.487160
    101          1           0       -1.559748   -7.368627    1.546909
    102          1           0        3.799432   -4.619927    0.103758
    103          1           0        3.241619   -3.143034    0.785793
    104          1           0        4.727652   -1.812201   -0.790236
    105          1           0        5.371551   -5.546682   -1.429523
    106          1           0        6.696857   -4.922701   -2.451403
    107          1           0        4.939379   -4.963271   -2.991135
    108          1           0        5.716367   -1.615991   -2.820719
    109          1           0        6.549618   -2.853013   -3.623785
    110          1           0        8.057299   -2.450407   -1.257975
    111          1           0        7.592025   -0.875216   -1.849675
    112          1           0        8.596198   -2.550155   -4.117723
    113          1           0        9.668060   -2.530029   -2.872946
    114          1           0        8.552842    0.039554   -3.749686
    115          1           0       11.312644   -0.761219   -4.763789
    116          1           0       10.029920    0.341305   -5.348127
    117          1           0        9.867511   -1.438765   -5.472551
    118          1           0       11.311881    0.192015   -2.752634
    119          1           0       10.598517   -0.965269   -1.842737
    120          1           0        9.310777    0.424191   -0.598545
    121          1           0        8.698730    1.308160   -2.025194
    122          1           0       10.754976    2.619655   -2.040194
    123          1           0       11.398085    1.620894   -0.739803
    124          1           0        8.917058    2.432529    0.327975
    125          1           0        8.492035    4.317110   -0.798320
    126          1           0       10.020747    4.587532   -1.492943
    127          1           0        9.724099    5.010237    0.242364
    128          1           0       10.920828    3.946006    1.646626
    129          1           0       11.595940    2.367945    1.174247
    130          1           0        9.572600    1.330513    2.347432
    131          1           0        9.148433    2.907662    2.908239
    132          1           0       12.095236    2.442254    3.448920
    133          1           0       11.292886    0.888290    3.575659
    134          1           0        9.700355    2.177313    5.203635
    135          1           0       10.730928    4.478046    4.888817
    136          1           0       12.301188    3.925582    5.300466
    137          1           0       11.204711    3.874436    6.540326
    138          1           0       10.194539    0.898749    6.718996
    139          1           0       11.674722    1.822183    7.095058
    140          1           0       11.775162    0.512727    5.863017
 ---------------------------------------------------------------------
 Rotational constants (GHZ):           0.0364553           0.0112647           0.0098482
 Leave Link  202 at Fri Apr 29 11:47:23 2022, MaxMem= 10066329600 cpu:               0.2 elap:               0.0
 (Enter /sw/apps/gaussian-16.0/g16/l301.exe)
 Standard basis: def2SVP (5D, 7F)
 Ernie: Thresh=  0.10000D-02 Tol=  0.10000D-05 Strict=F.
 There are  1364 symmetry adapted cartesian basis functions of A   symmetry.
 There are  1298 symmetry adapted basis functions of A   symmetry.
  1298 basis functions,  2180 primitive gaussians,  1364 cartesian basis functions
   246 alpha electrons      246 beta electrons
       nuclear repulsion energy      9585.0703578767 Hartrees.
 IExCor=  402 DFT=T Ex=B Corr=LYP ExCW=0 ScaHFX=  0.000000
 ScaDFX=  1.000000  1.000000  1.000000  1.000000 ScalE2=  1.000000  1.000000
 IRadAn=      5 IRanWt=     -1 IRanGd=            0 ICorTp=0 IEmpDi=  4
 NAtoms=  140 NActive=  140 NUniq=  140 SFac= 1.00D+00 NAtFMM=   60 NAOKFM=T Big=T
 Integral buffers will be    131072 words long.
 Regular integral format.
 Two-electron integral symmetry is turned on.
 Leave Link  301 at Fri Apr 29 11:47:23 2022, MaxMem= 10066329600 cpu:               1.3 elap:               0.1
 (Enter /sw/apps/gaussian-16.0/g16/l302.exe)
 NPDir=0 NMtPBC=     1 NCelOv=     1 NCel=       1 NClECP=     1 NCelD=      1
         NCelK=      1 NCelE2=     1 NClLst=     1 CellRange=     0.0.
 One-electron integrals computed using PRISM.
 One-electron integral symmetry used in STVInt
   1 Symmetry operations used in ECPInt.
 ECPInt:  NShTT=  192510 NPrTT=  683786 LenC2=   94331 LenP2D=  205707.
 LDataN:  DoStor=T MaxTD1= 4 Len=   56
 NBasis=  1298 RedAO= T EigKep=  2.82D-04  NBF=  1298
 NBsUse=  1298 1.00D-06 EigRej= -1.00D+00 NBFU=  1298
 Precomputing XC quadrature grid using
 IXCGrd= 4 IRadAn=           5 IRanWt=          -1 IRanGd=           0 AccXCQ= 0.00D+00.
 Generated NRdTot=       0 NPtTot=           0 NUsed=           0 NTot=          32
 NSgBfM=  1112  1102  1105  1106  1112 MxSgAt=   140 MxSgA2=   140.
 Leave Link  302 at Fri Apr 29 11:47:26 2022, MaxMem= 10066329600 cpu:              86.5 elap:               3.6
 (Enter /sw/apps/gaussian-16.0/g16/l303.exe)
 DipDrv:  MaxL=1.
 Leave Link  303 at Fri Apr 29 11:47:27 2022, MaxMem= 10066329600 cpu:               7.5 elap:               0.3
 (Enter /sw/apps/gaussian-16.0/g16/l308.exe)
 Leave Link  308 at Fri Apr 29 11:47:27 2022, MaxMem= 10066329600 cpu:               8.7 elap:               0.4
 (Enter /sw/apps/gaussian-16.0/g16/l401.exe)
 ExpMin= 3.36D-02 ExpMax= 4.95D+03 ExpMxC= 7.45D+02 IAcc=3 IRadAn=         5 AccDes= 0.00D+00
 Harris functional with IExCor=  402 and IRadAn=       5 diagonalized for initial guess.
 HarFok:  IExCor=  402 AccDes= 0.00D+00 IRadAn=         5 IDoV= 1 UseB2=F ITyADJ=14
 ICtDFT=  3500011 ScaDFX=  1.000000  1.000000  1.000000  1.000000
 FoFCou: FMM=F IPFlag=           0 FMFlag=      100000 FMFlg1=        2001
         NFxFlg=           0 DoJE=T BraDBF=F KetDBF=T FulRan=T
         wScrn=  0.000000 ICntrl=       500 IOpCl=  0 I1Cent=   200000004 NGrid=           0
         NMat0=    1 NMatS0=      1 NMatT0=    0 NMatD0=    1 NMtDS0=    0 NMtDT0=    0
 Petite list used in FoFCou.
 Harris En= -3008.75868710568    
 JPrj=0 DoOrth=F DoCkMO=F.
 Leave Link  401 at Fri Apr 29 11:47:33 2022, MaxMem= 10066329600 cpu:             142.1 elap:               6.2
 (Enter /sw/apps/gaussian-16.0/g16/l502.exe)
 Integral symmetry usage will be decided dynamically.
 Closed shell SCF:
 Using DIIS extrapolation, IDIIS=  1040.
 NGot= 10066329600 LenX= 10062561258 LenY= 10060699398
 Requested convergence on RMS density matrix=1.00D-08 within 128 cycles.
 Requested convergence on MAX density matrix=1.00D-06.
 Requested convergence on             energy=1.00D-06.
 No special actions if energy rises.
 Fock matrices will be formed incrementally for  20 cycles.

 Cycle   1  Pass 1  IDiag  1:
 FoFJK:  IHMeth= 1 ICntrl=     500 DoSepK=F KAlg= 0 I1Cent=           0 FoldK=F
 IRaf= 510000000 NMat=       1 IRICut=       1 DoRegI=T DoRafI=F ISym2E= 0 IDoP0=0 IntGTp=1.
 FoFCou: FMM=T IPFlag=           0 FMFlag=      100000 FMFlg1=        2001
         NFxFlg=           0 DoJE=T BraDBF=F KetDBF=F FulRan=T
         wScrn=  0.000000 ICntrl=       500 IOpCl=  0 I1Cent=           0 NGrid=           0
         NMat0=    1 NMatS0=      1 NMatT0=    0 NMatD0=    1 NMtDS0=    0 NMtDT0=    0
 Symmetry not used in FoFCou.
 FMM levels:  10  Number of levels for PrismC:   9
 E= -3005.66742726965    
 DIIS: error= 1.94D-02 at cycle   1 NSaved=   1.
 NSaved= 1 IEnMin= 1 EnMin= -3005.66742726965     IErMin= 1 ErrMin= 1.94D-02
 ErrMax= 1.94D-02  0.00D+00 EMaxC= 1.00D-01 BMatC= 1.54D+00 BMatP= 1.54D+00
 IDIUse=3 WtCom= 8.06D-01 WtEn= 1.94D-01
 Coeff-Com:  0.100D+01
 Coeff-En:   0.100D+01
 Coeff:      0.100D+01
 Gap=     0.055 Goal=   None    Shift=    0.000
 GapD=    0.055 DampG=0.500 DampE=0.500 DampFc=0.2500 IDamp=-1.
 Damping current iteration by 2.50D-01
 RMSDP=4.21D-03 MaxDP=1.58D+00              OVMax= 7.78D-01

 Cycle   2  Pass 1  IDiag  1:
 RMSU=  1.05D-03    CP:  9.91D-01
 E= -3006.16761830625     Delta-E=       -0.500191036594 Rises=F Damp=T
 DIIS: error= 8.13D-03 at cycle   2 NSaved=   2.
 NSaved= 2 IEnMin= 2 EnMin= -3006.16761830625     IErMin= 2 ErrMin= 8.13D-03
 ErrMax= 8.13D-03  0.00D+00 EMaxC= 1.00D-01 BMatC= 2.53D-01 BMatP= 1.54D+00
 IDIUse=3 WtCom= 9.19D-01 WtEn= 8.13D-02
 Coeff-Com: -0.303D+00 0.130D+01
 Coeff-En:   0.705D-01 0.930D+00
 Coeff:     -0.273D+00 0.127D+01
 Gap=    -0.295 Goal=   None    Shift=    0.000
 RMSDP=1.65D-03 MaxDP=2.71D-01 DE=-5.00D-01 OVMax= 5.90D-01

 Cycle   3  Pass 1  IDiag  1:
 RMSU=  1.63D-03    CP:  9.67D-01  1.10D+00
 E= -3004.51223649853     Delta-E=        1.655381807717 Rises=F Damp=F
 DIIS: error= 6.47D-02 at cycle   3 NSaved=   3.
 NSaved= 3 IEnMin= 2 EnMin= -3006.16761830625     IErMin= 2 ErrMin= 8.13D-03
 ErrMax= 6.47D-02  0.00D+00 EMaxC= 1.00D-01 BMatC= 1.82D+00 BMatP= 2.53D-01
 IDIUse=2 WtCom= 0.00D+00 WtEn= 1.00D+00
 Coeff-En:   0.000D+00 0.749D+00 0.251D+00
 Coeff:      0.000D+00 0.749D+00 0.251D+00
 Gap=    -0.080 Goal=   None    Shift=    0.000
 RMSDP=2.15D-03 MaxDP=3.78D-01 DE= 1.66D+00 OVMax= 7.35D-01

 Cycle   4  Pass 1  IDiag  1:
 RMSU=  1.14D-03    CP:  9.71D-01  1.88D+00  1.79D-03
 E= -3004.91680388480     Delta-E=       -0.404567386275 Rises=F Damp=F
 DIIS: error= 5.63D-02 at cycle   4 NSaved=   4.
 NSaved= 4 IEnMin= 2 EnMin= -3006.16761830625     IErMin= 2 ErrMin= 8.13D-03
 ErrMax= 5.63D-02  0.00D+00 EMaxC= 1.00D-01 BMatC= 1.35D+00 BMatP= 2.53D-01
 IDIUse=2 WtCom= 0.00D+00 WtEn= 1.00D+00
 EnCoef did     1 forward-backward iterations
 Coeff-En:   0.142D+00 0.000D+00 0.399D+00 0.459D+00
 Coeff:      0.142D+00 0.000D+00 0.399D+00 0.459D+00
 Gap=     0.055 Goal=   None    Shift=    0.000
 RMSDP=1.91D-03 MaxDP=4.18D-01 DE=-4.05D-01 OVMax= 6.68D-01

 Cycle   5  Pass 1  IDiag  1:
 RMSU=  1.27D-03    CP:  9.75D-01  9.72D-01  1.63D-01  1.08D-01
 E= -3005.43445621050     Delta-E=       -0.517652325694 Rises=F Damp=F
 DIIS: error= 3.64D-02 at cycle   5 NSaved=   5.
 NSaved= 5 IEnMin= 2 EnMin= -3006.16761830625     IErMin= 2 ErrMin= 8.13D-03
 ErrMax= 3.64D-02  0.00D+00 EMaxC= 1.00D-01 BMatC= 1.17D+00 BMatP= 2.53D-01
 IDIUse=2 WtCom= 0.00D+00 WtEn= 1.00D+00
 EnCoef did     4 forward-backward iterations
 Coeff-En:   0.813D-01 0.000D+00 0.337D+00 0.403D+00 0.179D+00
 Coeff:      0.813D-01 0.000D+00 0.337D+00 0.403D+00 0.179D+00
 Gap=    -0.195 Goal=   None    Shift=    0.000
 RMSDP=1.25D-03 MaxDP=3.89D-01 DE=-5.18D-01 OVMax= 3.93D-01

 Cycle   6  Pass 1  IDiag  1:
 RMSU=  7.25D-04    CP:  9.79D-01  8.22D-01  2.25D-01  1.40D-01  2.13D-01
 E= -3007.08514848005     Delta-E=       -1.650692269553 Rises=F Damp=F
 DIIS: error= 1.86D-02 at cycle   6 NSaved=   6.
 NSaved= 6 IEnMin= 6 EnMin= -3007.08514848005     IErMin= 2 ErrMin= 8.13D-03
 ErrMax= 1.86D-02  0.00D+00 EMaxC= 1.00D-01 BMatC= 2.59D-01 BMatP= 2.53D-01
 IDIUse=3 WtCom= 8.14D-01 WtEn= 1.86D-01
 EnCoef did     2 forward-backward iterations
 Coeff-Com: -0.136D+00 0.495D+00 0.161D+00 0.120D+00 0.910D-01 0.269D+00
 Coeff-En:   0.000D+00 0.000D+00 0.000D+00 0.409D-01 0.189D+00 0.770D+00
 Coeff:     -0.111D+00 0.403D+00 0.131D+00 0.105D+00 0.109D+00 0.362D+00
 Gap=     0.055 Goal=   None    Shift=    0.000
 RMSDP=7.78D-04 MaxDP=1.68D-01 DE=-1.65D+00 OVMax= 3.16D-01

 Cycle   7  Pass 1  IDiag  1:
 RMSU=  5.90D-04    CP:  9.78D-01  1.12D+00  2.30D-01  1.86D-01  8.59D-02
                    CP:  4.97D-01
 E= -3007.26176848869     Delta-E=       -0.176620008635 Rises=F Damp=F
 DIIS: error= 1.68D-02 at cycle   7 NSaved=   7.
 NSaved= 7 IEnMin= 7 EnMin= -3007.26176848869     IErMin= 2 ErrMin= 8.13D-03
 ErrMax= 1.68D-02  0.00D+00 EMaxC= 1.00D-01 BMatC= 1.14D-01 BMatP= 2.53D-01
 IDIUse=3 WtCom= 8.32D-01 WtEn= 1.68D-01
 EnCoef did     5 forward-backward iterations
 Coeff-Com: -0.195D+00 0.430D+00 0.220D-01-0.150D-01 0.547D-01 0.280D+00
 Coeff-Com:  0.424D+00
 Coeff-En:   0.000D+00 0.000D+00 0.000D+00 0.000D+00 0.293D-01 0.291D+00
 Coeff-En:   0.680D+00
 Coeff:     -0.163D+00 0.357D+00 0.183D-01-0.125D-01 0.505D-01 0.281D+00
 Coeff:      0.467D+00
 Gap=     0.044 Goal=   None    Shift=    0.000
 RMSDP=4.37D-04 MaxDP=5.28D-02 DE=-1.77D-01 OVMax= 1.85D-01

 Cycle   8  Pass 1  IDiag  1:
 RMSU=  3.25D-04    CP:  9.80D-01  1.13D+00  2.04D-01  7.89D-02  1.87D-01
                    CP:  6.09D-01  6.41D-01
 E= -3007.32663660941     Delta-E=       -0.064868120728 Rises=F Damp=F
 DIIS: error= 7.17D-03 at cycle   8 NSaved=   8.
 NSaved= 8 IEnMin= 8 EnMin= -3007.32663660941     IErMin= 8 ErrMin= 7.17D-03
 ErrMax= 7.17D-03  0.00D+00 EMaxC= 1.00D-01 BMatC= 3.10D-02 BMatP= 1.14D-01
 IDIUse=3 WtCom= 9.28D-01 WtEn= 7.17D-02
 Coeff-Com: -0.789D-01 0.178D+00-0.770D-02 0.188D-02 0.121D-01 0.127D+00
 Coeff-Com:  0.355D+00 0.413D+00
 Coeff-En:   0.000D+00 0.000D+00 0.000D+00 0.000D+00 0.000D+00 0.000D+00
 Coeff-En:   0.315D+00 0.685D+00
 Coeff:     -0.733D-01 0.166D+00-0.714D-02 0.175D-02 0.113D-01 0.118D+00
 Coeff:      0.352D+00 0.432D+00
 Gap=     0.040 Goal=   None    Shift=    0.000
 RMSDP=2.81D-04 MaxDP=2.30D-02 DE=-6.49D-02 OVMax= 2.37D-01

 Cycle   9  Pass 1  IDiag  1:
 RMSU=  1.55D-04    CP:  9.80D-01  1.14D+00  1.78D-01  1.46D-01  1.40D-01
                    CP:  6.54D-01  7.21D-01  3.82D-01
 E= -3007.35216699147     Delta-E=       -0.025530382054 Rises=F Damp=F
 DIIS: error= 3.11D-03 at cycle   9 NSaved=   9.
 NSaved= 9 IEnMin= 9 EnMin= -3007.35216699147     IErMin= 9 ErrMin= 3.11D-03
 ErrMax= 3.11D-03  0.00D+00 EMaxC= 1.00D-01 BMatC= 9.05D-03 BMatP= 3.10D-02
 IDIUse=3 WtCom= 9.69D-01 WtEn= 3.11D-02
 Coeff-Com: -0.463D-01 0.111D+00-0.890D-02 0.208D-02 0.120D-02 0.634D-01
 Coeff-Com:  0.251D+00 0.376D+00 0.251D+00
 Coeff-En:   0.000D+00 0.000D+00 0.000D+00 0.000D+00 0.000D+00 0.000D+00
 Coeff-En:   0.000D+00 0.290D+00 0.710D+00
 Coeff:     -0.449D-01 0.107D+00-0.863D-02 0.202D-02 0.116D-02 0.615D-01
 Coeff:      0.243D+00 0.373D+00 0.265D+00
 Gap=     0.043 Goal=   None    Shift=    0.000
 RMSDP=1.61D-04 MaxDP=1.47D-02 DE=-2.55D-02 OVMax= 1.36D-01

 Cycle  10  Pass 1  IDiag  1:
 RMSU=  6.16D-05    CP:  9.80D-01  1.12D+00  1.92D-01  1.22D-01  1.50D-01
                    CP:  6.06D-01  7.71D-01  6.32D-01  3.00D-01
 E= -3007.36241490534     Delta-E=       -0.010247913870 Rises=F Damp=F
 DIIS: error= 1.64D-03 at cycle  10 NSaved=  10.
 NSaved=10 IEnMin=10 EnMin= -3007.36241490534     IErMin=10 ErrMin= 1.64D-03
 ErrMax= 1.64D-03  0.00D+00 EMaxC= 1.00D-01 BMatC= 1.49D-03 BMatP= 9.05D-03
 IDIUse=3 WtCom= 9.84D-01 WtEn= 1.64D-02
 Coeff-Com: -0.221D-01 0.531D-01-0.762D-02 0.530D-02-0.326D-02 0.266D-01
 Coeff-Com:  0.113D+00 0.202D+00 0.216D+00 0.417D+00
 Coeff-En:   0.000D+00 0.000D+00 0.000D+00 0.000D+00 0.000D+00 0.000D+00
 Coeff-En:   0.000D+00 0.000D+00 0.216D+00 0.784D+00
 Coeff:     -0.217D-01 0.522D-01-0.749D-02 0.521D-02-0.321D-02 0.262D-01
 Coeff:      0.111D+00 0.199D+00 0.216D+00 0.423D+00
 Gap=     0.044 Goal=   None    Shift=    0.000
 RMSDP=6.53D-05 MaxDP=5.56D-03 DE=-1.02D-02 OVMax= 5.15D-02

 Cycle  11  Pass 1  IDiag  1:
 RMSU=  3.59D-05    CP:  9.80D-01  1.13D+00  1.85D-01  1.29D-01  1.48D-01
                    CP:  6.26D-01  7.65D-01  5.79D-01  5.46D-01  5.55D-01
 E= -3007.36419625654     Delta-E=       -0.001781351206 Rises=F Damp=F
 DIIS: error= 7.24D-04 at cycle  11 NSaved=  11.
 NSaved=11 IEnMin=11 EnMin= -3007.36419625654     IErMin=11 ErrMin= 7.24D-04
 ErrMax= 7.24D-04  0.00D+00 EMaxC= 1.00D-01 BMatC= 4.74D-04 BMatP= 1.49D-03
 IDIUse=3 WtCom= 9.93D-01 WtEn= 7.24D-03
 Coeff-Com: -0.118D-01 0.248D-01-0.395D-02 0.368D-02-0.274D-02 0.115D-01
 Coeff-Com:  0.119D-01 0.279D-01 0.651D-01 0.375D+00 0.498D+00
 Coeff-En:   0.000D+00 0.000D+00 0.000D+00 0.000D+00 0.000D+00 0.000D+00
 Coeff-En:   0.000D+00 0.000D+00 0.000D+00 0.201D+00 0.799D+00
 Coeff:     -0.117D-01 0.246D-01-0.392D-02 0.365D-02-0.272D-02 0.114D-01
 Coeff:      0.118D-01 0.277D-01 0.647D-01 0.374D+00 0.500D+00
 Gap=     0.044 Goal=   None    Shift=    0.000
 RMSDP=3.94D-05 MaxDP=4.23D-03 DE=-1.78D-03 OVMax= 3.20D-02

 Cycle  12  Pass 1  IDiag  1:
 RMSU=  2.65D-05    CP:  9.80D-01  1.13D+00  1.83D-01  1.31D-01  1.50D-01
                    CP:  6.31D-01  7.63D-01  5.84D-01  5.11D-01  8.37D-01
                    CP:  3.87D-01
 E= -3007.36442251316     Delta-E=       -0.000226256612 Rises=F Damp=F
 DIIS: error= 5.39D-04 at cycle  12 NSaved=  12.
 NSaved=12 IEnMin=12 EnMin= -3007.36442251316     IErMin=12 ErrMin= 5.39D-04
 ErrMax= 5.39D-04  0.00D+00 EMaxC= 1.00D-01 BMatC= 2.85D-04 BMatP= 4.74D-04
 IDIUse=3 WtCom= 9.95D-01 WtEn= 5.39D-03
 Coeff-Com: -0.721D-02 0.118D-01-0.144D-02 0.943D-03-0.104D-02 0.499D-02
 Coeff-Com: -0.284D-01-0.499D-01-0.241D-01 0.217D+00 0.512D+00 0.365D+00
 Coeff-En:   0.000D+00 0.000D+00 0.000D+00 0.000D+00 0.000D+00 0.000D+00
 Coeff-En:   0.000D+00 0.000D+00 0.000D+00 0.000D+00 0.404D+00 0.596D+00
 Coeff:     -0.717D-02 0.117D-01-0.143D-02 0.938D-03-0.104D-02 0.496D-02
 Coeff:     -0.283D-01-0.497D-01-0.240D-01 0.216D+00 0.511D+00 0.366D+00
 Gap=     0.044 Goal=   None    Shift=    0.000
 RMSDP=2.68D-05 MaxDP=2.55D-03 DE=-2.26D-04 OVMax= 1.95D-02

 Cycle  13  Pass 1  IDiag  1:
 RMSU=  1.19D-05    CP:  9.80D-01  1.13D+00  1.83D-01  1.30D-01  1.52D-01
                    CP:  6.35D-01  7.63D-01  5.89D-01  5.22D-01  8.31D-01
                    CP:  8.14D-01  3.39D-01
 E= -3007.36475040983     Delta-E=       -0.000327896671 Rises=F Damp=F
 DIIS: error= 2.00D-04 at cycle  13 NSaved=  13.
 NSaved=13 IEnMin=13 EnMin= -3007.36475040983     IErMin=13 ErrMin= 2.00D-04
 ErrMax= 2.00D-04  0.00D+00 EMaxC= 1.00D-01 BMatC= 5.14D-05 BMatP= 2.85D-04
 IDIUse=3 WtCom= 9.98D-01 WtEn= 2.00D-03
 Coeff-Com: -0.463D-02 0.675D-02-0.583D-03 0.319D-03 0.661D-04 0.264D-02
 Coeff-Com: -0.241D-01-0.448D-01-0.352D-01 0.990D-01 0.312D+00 0.301D+00
 Coeff-Com:  0.387D+00
 Coeff-En:   0.000D+00 0.000D+00 0.000D+00 0.000D+00 0.000D+00 0.000D+00
 Coeff-En:   0.000D+00 0.000D+00 0.000D+00 0.000D+00 0.000D+00 0.164D+00
 Coeff-En:   0.836D+00
 Coeff:     -0.462D-02 0.673D-02-0.582D-03 0.319D-03 0.660D-04 0.263D-02
 Coeff:     -0.240D-01-0.447D-01-0.351D-01 0.988D-01 0.311D+00 0.301D+00
 Coeff:      0.388D+00
 Gap=     0.044 Goal=   None    Shift=    0.000
 RMSDP=9.90D-06 MaxDP=1.07D-03 DE=-3.28D-04 OVMax= 5.81D-03

 Cycle  14  Pass 1  IDiag  1:
 RMSU=  4.79D-06    CP:  9.80D-01  1.13D+00  1.83D-01  1.30D-01  1.51D-01
                    CP:  6.37D-01  7.61D-01  5.86D-01  5.25D-01  8.65D-01
                    CP:  7.75D-01  5.19D-01  4.73D-01
 E= -3007.36480364659     Delta-E=       -0.000053236767 Rises=F Damp=F
 DIIS: error= 1.00D-04 at cycle  14 NSaved=  14.
 NSaved=14 IEnMin=14 EnMin= -3007.36480364659     IErMin=14 ErrMin= 1.00D-04
 ErrMax= 1.00D-04  0.00D+00 EMaxC= 1.00D-01 BMatC= 9.73D-06 BMatP= 5.14D-05
 IDIUse=3 WtCom= 9.99D-01 WtEn= 1.00D-03
 Coeff-Com: -0.224D-02 0.341D-02-0.220D-03 0.673D-04 0.244D-03-0.474D-04
 Coeff-Com: -0.123D-01-0.225D-01-0.225D-01 0.262D-01 0.119D+00 0.140D+00
 Coeff-Com:  0.304D+00 0.468D+00
 Coeff-En:   0.000D+00 0.000D+00 0.000D+00 0.000D+00 0.000D+00 0.000D+00
 Coeff-En:   0.000D+00 0.000D+00 0.000D+00 0.000D+00 0.000D+00 0.000D+00
 Coeff-En:   0.150D+00 0.850D+00
 Coeff:     -0.224D-02 0.341D-02-0.219D-03 0.672D-04 0.244D-03-0.474D-04
 Coeff:     -0.123D-01-0.225D-01-0.225D-01 0.262D-01 0.119D+00 0.139D+00
 Coeff:      0.304D+00 0.468D+00
 Gap=     0.044 Goal=   None    Shift=    0.000
 RMSDP=3.94D-06 MaxDP=3.76D-04 DE=-5.32D-05 OVMax= 1.58D-03

 Cycle  15  Pass 1  IDiag  1:
 RMSU=  2.13D-06    CP:  9.80D-01  1.13D+00  1.82D-01  1.30D-01  1.52D-01
                    CP:  6.36D-01  7.63D-01  5.88D-01  5.27D-01  8.73D-01
                    CP:  7.95D-01  4.87D-01  5.90D-01  5.21D-01
 E= -3007.36481267884     Delta-E=       -0.000009032252 Rises=F Damp=F
 DIIS: error= 6.07D-05 at cycle  15 NSaved=  15.
 NSaved=15 IEnMin=15 EnMin= -3007.36481267884     IErMin=15 ErrMin= 6.07D-05
 ErrMax= 6.07D-05  0.00D+00 EMaxC= 1.00D-01 BMatC= 2.62D-06 BMatP= 9.73D-06
 IDIUse=1 WtCom= 1.00D+00 WtEn= 0.00D+00
 Coeff-Com: -0.919D-03 0.164D-02-0.806D-04-0.221D-04 0.170D-03-0.108D-02
 Coeff-Com: -0.475D-02-0.833D-02-0.114D-01-0.279D-02 0.230D-01 0.442D-01
 Coeff-Com:  0.159D+00 0.375D+00 0.426D+00
 Coeff:     -0.919D-03 0.164D-02-0.806D-04-0.221D-04 0.170D-03-0.108D-02
 Coeff:     -0.475D-02-0.833D-02-0.114D-01-0.279D-02 0.230D-01 0.442D-01
 Coeff:      0.159D+00 0.375D+00 0.426D+00
 Gap=     0.044 Goal=   None    Shift=    0.000
 RMSDP=1.60D-06 MaxDP=2.01D-04 DE=-9.03D-06 OVMax= 2.90D-04

 Cycle  16  Pass 1  IDiag  1:
 RMSU=  8.34D-07    CP:  9.80D-01  1.13D+00  1.82D-01  1.30D-01  1.52D-01
                    CP:  6.36D-01  7.64D-01  5.89D-01  5.29D-01  8.77D-01
                    CP:  8.03D-01  4.96D-01  5.80D-01  6.02D-01  5.39D-01
 E= -3007.36481485378     Delta-E=       -0.000002174935 Rises=F Damp=F
 DIIS: error= 2.09D-05 at cycle  16 NSaved=  16.
 NSaved=16 IEnMin=16 EnMin= -3007.36481485378     IErMin=16 ErrMin= 2.09D-05
 ErrMax= 2.09D-05  0.00D+00 EMaxC= 1.00D-01 BMatC= 2.45D-07 BMatP= 2.62D-06
 IDIUse=1 WtCom= 1.00D+00 WtEn= 0.00D+00
 Coeff-Com: -0.296D-03 0.615D-03-0.465D-04-0.784D-05 0.758D-04-0.704D-03
 Coeff-Com: -0.123D-02-0.204D-02-0.453D-02-0.635D-02-0.442D-02 0.840D-02
 Coeff-Com:  0.510D-01 0.150D+00 0.253D+00 0.556D+00
 Coeff:     -0.296D-03 0.615D-03-0.465D-04-0.784D-05 0.758D-04-0.704D-03
 Coeff:     -0.123D-02-0.204D-02-0.453D-02-0.635D-02-0.442D-02 0.840D-02
 Coeff:      0.510D-01 0.150D+00 0.253D+00 0.556D+00
 Gap=     0.044 Goal=   None    Shift=    0.000
 RMSDP=6.89D-07 MaxDP=1.70D-04 DE=-2.17D-06 OVMax= 1.86D-04

 Cycle  17  Pass 1  IDiag  1:
 RMSU=  4.38D-07    CP:  9.80D-01  1.13D+00  1.82D-01  1.30D-01  1.52D-01
                    CP:  6.36D-01  7.64D-01  5.90D-01  5.29D-01  8.79D-01
                    CP:  8.06D-01  5.02D-01  5.90D-01  6.08D-01  5.59D-01
                    CP:  6.11D-01
 E= -3007.36481503153     Delta-E=       -0.000000177752 Rises=F Damp=F
 DIIS: error= 8.42D-06 at cycle  17 NSaved=  17.
 NSaved=17 IEnMin=17 EnMin= -3007.36481503153     IErMin=17 ErrMin= 8.42D-06
 ErrMax= 8.42D-06  0.00D+00 EMaxC= 1.00D-01 BMatC= 8.05D-08 BMatP= 2.45D-07
 IDIUse=1 WtCom= 1.00D+00 WtEn= 0.00D+00
 Coeff-Com: -0.681D-05 0.505D-04-0.191D-04 0.605D-05 0.267D-04-0.246D-03
 Coeff-Com:  0.399D-04 0.328D-04-0.126D-02-0.473D-02-0.868D-02-0.298D-02
 Coeff-Com: -0.987D-03 0.145D-01 0.760D-01 0.435D+00 0.493D+00
 Coeff:     -0.681D-05 0.505D-04-0.191D-04 0.605D-05 0.267D-04-0.246D-03
 Coeff:      0.399D-04 0.328D-04-0.126D-02-0.473D-02-0.868D-02-0.298D-02
 Coeff:     -0.987D-03 0.145D-01 0.760D-01 0.435D+00 0.493D+00
 Gap=     0.044 Goal=   None    Shift=    0.000
 RMSDP=3.38D-07 MaxDP=4.39D-05 DE=-1.78D-07 OVMax= 1.00D-04

 Cycle  18  Pass 1  IDiag  1:
 RMSU=  1.81D-07    CP:  9.80D-01  1.13D+00  1.82D-01  1.30D-01  1.52D-01
                    CP:  6.36D-01  7.64D-01  5.90D-01  5.29D-01  8.81D-01
                    CP:  8.07D-01  5.05D-01  5.95D-01  6.09D-01  5.72D-01
                    CP:  7.15D-01  5.81D-01
 E= -3007.36481510506     Delta-E=       -0.000000073533 Rises=F Damp=F
 DIIS: error= 2.53D-06 at cycle  18 NSaved=  18.
 NSaved=18 IEnMin=18 EnMin= -3007.36481510506     IErMin=18 ErrMin= 2.53D-06
 ErrMax= 2.53D-06  0.00D+00 EMaxC= 1.00D-01 BMatC= 1.07D-08 BMatP= 8.05D-08
 IDIUse=1 WtCom= 1.00D+00 WtEn= 0.00D+00
 Coeff-Com:  0.255D-04-0.313D-04-0.781D-05 0.353D-05 0.105D-04-0.881D-04
 Coeff-Com:  0.158D-03 0.200D-03-0.382D-03-0.266D-02-0.541D-02-0.293D-02
 Coeff-Com: -0.719D-02-0.968D-02 0.194D-01 0.241D+00 0.356D+00 0.411D+00
 Coeff:      0.255D-04-0.313D-04-0.781D-05 0.353D-05 0.105D-04-0.881D-04
 Coeff:      0.158D-03 0.200D-03-0.382D-03-0.266D-02-0.541D-02-0.293D-02
 Coeff:     -0.719D-02-0.968D-02 0.194D-01 0.241D+00 0.356D+00 0.411D+00
 Gap=     0.044 Goal=   None    Shift=    0.000
 RMSDP=1.31D-07 MaxDP=1.36D-05 DE=-7.35D-08 OVMax= 3.46D-05

 Cycle  19  Pass 1  IDiag  1:
 RMSU=  6.85D-08    CP:  9.80D-01  1.13D+00  1.82D-01  1.30D-01  1.52D-01
                    CP:  6.36D-01  7.64D-01  5.90D-01  5.29D-01  8.81D-01
                    CP:  8.08D-01  5.05D-01  5.94D-01  6.11D-01  5.75D-01
                    CP:  7.49D-01  6.28D-01  5.17D-01
 E= -3007.36481511476     Delta-E=       -0.000000009692 Rises=F Damp=F
 DIIS: error= 1.46D-06 at cycle  19 NSaved=  19.
 NSaved=19 IEnMin=19 EnMin= -3007.36481511476     IErMin=19 ErrMin= 1.46D-06
 ErrMax= 1.46D-06  0.00D+00 EMaxC= 1.00D-01 BMatC= 1.52D-09 BMatP= 1.07D-08
 IDIUse=1 WtCom= 1.00D+00 WtEn= 0.00D+00
 Coeff-Com:  0.106D-04-0.124D-04-0.369D-05 0.198D-05 0.478D-05-0.271D-04
 Coeff-Com:  0.928D-04 0.894D-04-0.104D-03-0.109D-02-0.218D-02-0.137D-02
 Coeff-Com: -0.451D-02-0.846D-02 0.184D-02 0.105D+00 0.177D+00 0.291D+00
 Coeff-Com:  0.443D+00
 Coeff:      0.106D-04-0.124D-04-0.369D-05 0.198D-05 0.478D-05-0.271D-04
 Coeff:      0.928D-04 0.894D-04-0.104D-03-0.109D-02-0.218D-02-0.137D-02
 Coeff:     -0.451D-02-0.846D-02 0.184D-02 0.105D+00 0.177D+00 0.291D+00
 Coeff:      0.443D+00
 Gap=     0.044 Goal=   None    Shift=    0.000
 RMSDP=4.84D-08 MaxDP=4.82D-06 DE=-9.69D-09 OVMax= 1.44D-05

 Cycle  20  Pass 1  IDiag  1:
 RMSU=  2.61D-08    CP:  9.80D-01  1.13D+00  1.82D-01  1.30D-01  1.52D-01
                    CP:  6.36D-01  7.64D-01  5.90D-01  5.29D-01  8.81D-01
                    CP:  8.08D-01  5.05D-01  5.94D-01  6.10D-01  5.80D-01
                    CP:  7.49D-01  6.33D-01  5.30D-01  4.82D-01
 E= -3007.36481511598     Delta-E=       -0.000000001226 Rises=F Damp=F
 DIIS: error= 3.62D-07 at cycle  20 NSaved=  20.
 NSaved=20 IEnMin=20 EnMin= -3007.36481511598     IErMin=20 ErrMin= 3.62D-07
 ErrMax= 3.62D-07  0.00D+00 EMaxC= 1.00D-01 BMatC= 3.38D-10 BMatP= 1.52D-09
 IDIUse=1 WtCom= 1.00D+00 WtEn= 0.00D+00
 Coeff-Com:  0.605D-05-0.621D-05-0.105D-05-0.303D-07 0.902D-06-0.114D-04
 Coeff-Com:  0.495D-04 0.423D-04 0.126D-04-0.358D-03-0.748D-03-0.642D-03
 Coeff-Com: -0.254D-02-0.549D-02-0.318D-02 0.367D-01 0.729D-01 0.149D+00
 Coeff-Com:  0.332D+00 0.422D+00
 Coeff:      0.605D-05-0.621D-05-0.105D-05-0.303D-07 0.902D-06-0.114D-04
 Coeff:      0.495D-04 0.423D-04 0.126D-04-0.358D-03-0.748D-03-0.642D-03
 Coeff:     -0.254D-02-0.549D-02-0.318D-02 0.367D-01 0.729D-01 0.149D+00
 Coeff:      0.332D+00 0.422D+00
 Gap=     0.044 Goal=   None    Shift=    0.000
 RMSDP=2.02D-08 MaxDP=3.29D-06 DE=-1.23D-09 OVMax= 4.13D-06

 Cycle  21  Pass 1  IDiag  1:
 Restarting incremental Fock formation.
 E= -3007.36481511608     Delta-E=       -0.000000000096 Rises=F Damp=F
 DIIS: error= 1.47D-07 at cycle  21 NSaved=  20.
 NSaved=20 IEnMin=20 EnMin= -3007.36481511608     IErMin=20 ErrMin= 1.47D-07
 ErrMax= 1.47D-07  0.00D+00 EMaxC= 1.00D-01 BMatC= 3.57D-11 BMatP= 3.38D-10
 IDIUse=1 WtCom= 1.00D+00 WtEn= 0.00D+00
 Coeff-Com:  0.252D-05-0.241D-05 0.159D-06 0.478D-06-0.381D-05 0.190D-04
 Coeff-Com:  0.122D-04 0.255D-04-0.487D-04-0.123D-03-0.205D-03-0.107D-02
 Coeff-Com: -0.256D-02-0.277D-02 0.873D-02 0.230D-01 0.586D-01 0.166D+00
 Coeff-Com:  0.290D+00 0.461D+00
 Coeff:      0.252D-05-0.241D-05 0.159D-06 0.478D-06-0.381D-05 0.190D-04
 Coeff:      0.122D-04 0.255D-04-0.487D-04-0.123D-03-0.205D-03-0.107D-02
 Coeff:     -0.256D-02-0.277D-02 0.873D-02 0.230D-01 0.586D-01 0.166D+00
 Coeff:      0.290D+00 0.461D+00
 Gap=     0.044 Goal=   None    Shift=    0.000
 RMSDP=7.71D-09 MaxDP=8.61D-07 DE=-9.64D-11 OVMax= 2.49D-06

 SCF Done:  E(RB-LYP) =  -3007.36481512     A.U. after   21 cycles
            NFock= 21  Conv=0.77D-08     -V/T= 2.0099
 KE= 2.977940228097D+03 PE=-2.616620149294D+04 EE= 1.059582609185D+04
 Leave Link  502 at Fri Apr 29 11:51:33 2022, MaxMem= 10066329600 cpu:            5742.5 elap:             240.1
 (Enter /sw/apps/gaussian-16.0/g16/l801.exe)
 DoSCS=F DFT=T ScalE2(SS,OS)=  1.000000  1.000000
 ExpMin= 3.36D-02 ExpMax= 4.95D+03 ExpMxC= 7.45D+02 IAcc=3 IRadAn=         5 AccDes= 0.00D+00
 HarFok:  IExCor=  205 AccDes= 0.00D+00 IRadAn=         5 IDoV=-2 UseB2=F ITyADJ=14
 ICtDFT= 12500011 ScaDFX=  1.000000  1.000000  1.000000  1.000000
 GSVD:  LWork=       -5460 too small for GESVD, short by       25550 words or       25550 for optimal perf.
 Largest valence mixing into a core orbital is  1.36D-04
 Largest core mixing into a valence orbital is  4.64D-05
 Range of M.O.s used for correlation:    71  1298
 NBasis=  1298 NAE=   246 NBE=   246 NFC=    70 NFV=     0
 NROrb=   1228 NOA=   176 NOB=   176 NVA=  1052 NVB=  1052

 **** Warning!!: The smallest alpha delta epsilon is  0.43744020D-01

 Leave Link  801 at Fri Apr 29 11:51:34 2022, MaxMem= 10066329600 cpu:               6.3 elap:               0.3
 (Enter /sw/apps/gaussian-16.0/g16/l914.exe)
 RHF ground state
 Two-electron integrals replicated using symmetry.
 MDV= 10066329600 DFT=T DoStab=F Mixed=F DoRPA=T DoScal=T NonHer=F
 Making orbital integer symmetry assigments:
 Orbital symmetries:
       Occupied  (A) (A) (A) (A) (A) (A) (A) (A) (A) (A) (A) (A)
                 (A) (A) (A) (A) (A) (A) (A) (A) (A) (A) (A) (A)
                 (A) (A) (A) (A) (A) (A) (A) (A) (A) (A) (A) (A)
                 (A) (A) (A) (A) (A) (A) (A) (A) (A) (A) (A) (A)
                 (A) (A) (A) (A) (A) (A) (A) (A) (A) (A) (A) (A)
                 (A) (A) (A) (A) (A) (A) (A) (A) (A) (A) (A) (A)
                 (A) (A) (A) (A) (A) (A) (A) (A) (A) (A) (A) (A)
                 (A) (A) (A) (A) (A) (A) (A) (A) (A) (A) (A) (A)
                 (A) (A) (A) (A) (A) (A) (A) (A) (A) (A) (A) (A)
                 (A) (A) (A) (A) (A) (A) (A) (A) (A) (A) (A) (A)
                 (A) (A) (A) (A) (A) (A) (A) (A) (A) (A) (A) (A)
                 (A) (A) (A) (A) (A) (A) (A) (A) (A) (A) (A) (A)
                 (A) (A) (A) (A) (A) (A) (A) (A) (A) (A) (A) (A)
                 (A) (A) (A) (A) (A) (A) (A) (A) (A) (A) (A) (A)
                 (A) (A) (A) (A) (A) (A) (A) (A) (A) (A) (A) (A)
                 (A) (A) (A) (A) (A) (A) (A) (A) (A) (A) (A) (A)
                 (A) (A) (A) (A) (A) (A) (A) (A) (A) (A) (A) (A)
                 (A) (A) (A) (A) (A) (A) (A) (A) (A) (A) (A) (A)
                 (A) (A) (A) (A) (A) (A) (A) (A) (A) (A) (A) (A)
                 (A) (A) (A) (A) (A) (A) (A) (A) (A) (A) (A) (A)
                 (A) (A) (A) (A) (A) (A)
       Virtual   (A) (A) (A) (A) (A) (A) (A) (A) (A) (A) (A) (A)
                 (A) (A) (A) (A) (A) (A) (A) (A) (A) (A) (A) (A)
                 (A) (A) (A) (A) (A) (A) (A) (A) (A) (A) (A) (A)
                 (A) (A) (A) (A) (A) (A) (A) (A) (A) (A) (A) (A)
                 (A) (A) (A) (A) (A) (A) (A) (A) (A) (A) (A) (A)
                 (A) (A) (A) (A) (A) (A) (A) (A) (A) (A) (A) (A)
                 (A) (A) (A) (A) (A) (A) (A) (A) (A) (A) (A) (A)
                 (A) (A) (A) (A) (A) (A) (A) (A) (A) (A) (A) (A)
                 (A) (A) (A) (A) (A) (A) (A) (A) (A) (A) (A) (A)
                 (A) (A) (A) (A) (A) (A) (A) (A) (A) (A) (A) (A)
                 (A) (A) (A) (A) (A) (A) (A) (A) (A) (A) (A) (A)
                 (A) (A) (A) (A) (A) (A) (A) (A) (A) (A) (A) (A)
                 (A) (A) (A) (A) (A) (A) (A) (A) (A) (A) (A) (A)
                 (A) (A) (A) (A) (A) (A) (A) (A) (A) (A) (A) (A)
                 (A) (A) (A) (A) (A) (A) (A) (A) (A) (A) (A) (A)
                 (A) (A) (A) (A) (A) (A) (A) (A) (A) (A) (A) (A)
                 (A) (A) (A) (A) (A) (A) (A) (A) (A) (A) (A) (A)
                 (A) (A) (A) (A) (A) (A) (A) (A) (A) (A) (A) (A)
                 (A) (A) (A) (A) (A) (A) (A) (A) (A) (A) (A) (A)
                 (A) (A) (A) (A) (A) (A) (A) (A) (A) (A) (A) (A)
                 (A) (A) (A) (A) (A) (A) (A) (A) (A) (A) (A) (A)
                 (A) (A) (A) (A) (A) (A) (A) (A) (A) (A) (A) (A)
                 (A) (A) (A) (A) (A) (A) (A) (A) (A) (A) (A) (A)
                 (A) (A) (A) (A) (A) (A) (A) (A) (A) (A) (A) (A)
                 (A) (A) (A) (A) (A) (A) (A) (A) (A) (A) (A) (A)
                 (A) (A) (A) (A) (A) (A) (A) (A) (A) (A) (A) (A)
                 (A) (A) (A) (A) (A) (A) (A) (A) (A) (A) (A) (A)
                 (A) (A) (A) (A) (A) (A) (A) (A) (A) (A) (A) (A)
                 (A) (A) (A) (A) (A) (A) (A) (A) (A) (A) (A) (A)
                 (A) (A) (A) (A) (A) (A) (A) (A) (A) (A) (A) (A)
                 (A) (A) (A) (A) (A) (A) (A) (A) (A) (A) (A) (A)
                 (A) (A) (A) (A) (A) (A) (A) (A) (A) (A) (A) (A)
                 (A) (A) (A) (A) (A) (A) (A) (A) (A) (A) (A) (A)
                 (A) (A) (A) (A) (A) (A) (A) (A) (A) (A) (A) (A)
                 (A) (A) (A) (A) (A) (A) (A) (A) (A) (A) (A) (A)
                 (A) (A) (A) (A) (A) (A) (A) (A) (A) (A) (A) (A)
                 (A) (A) (A) (A) (A) (A) (A) (A) (A) (A) (A) (A)
                 (A) (A) (A) (A) (A) (A) (A) (A) (A) (A) (A) (A)
                 (A) (A) (A) (A) (A) (A) (A) (A) (A) (A) (A) (A)
                 (A) (A) (A) (A) (A) (A) (A) (A) (A) (A) (A) (A)
                 (A) (A) (A) (A) (A) (A) (A) (A) (A) (A) (A) (A)
                 (A) (A) (A) (A) (A) (A) (A) (A) (A) (A) (A) (A)
                 (A) (A) (A) (A) (A) (A) (A) (A) (A) (A) (A) (A)
                 (A) (A) (A) (A) (A) (A) (A) (A) (A) (A) (A) (A)
                 (A) (A) (A) (A) (A) (A) (A) (A) (A) (A) (A) (A)
                 (A) (A) (A) (A) (A) (A) (A) (A) (A) (A) (A) (A)
                 (A) (A) (A) (A) (A) (A) (A) (A) (A) (A) (A) (A)
                 (A) (A) (A) (A) (A) (A) (A) (A) (A) (A) (A) (A)
                 (A) (A) (A) (A) (A) (A) (A) (A) (A) (A) (A) (A)
                 (A) (A) (A) (A) (A) (A) (A) (A) (A) (A) (A) (A)
                 (A) (A) (A) (A) (A) (A) (A) (A) (A) (A) (A) (A)
                 (A) (A) (A) (A) (A) (A) (A) (A) (A) (A) (A) (A)
                 (A) (A) (A) (A) (A) (A) (A) (A) (A) (A) (A) (A)
                 (A) (A) (A) (A) (A) (A) (A) (A) (A) (A) (A) (A)
                 (A) (A) (A) (A) (A) (A) (A) (A) (A) (A) (A) (A)
                 (A) (A) (A) (A) (A) (A) (A) (A) (A) (A) (A) (A)
                 (A) (A) (A) (A) (A) (A) (A) (A) (A) (A) (A) (A)
                 (A) (A) (A) (A) (A) (A) (A) (A) (A) (A) (A) (A)
                 (A) (A) (A) (A) (A) (A) (A) (A) (A) (A) (A) (A)
                 (A) (A) (A) (A) (A) (A) (A) (A) (A) (A) (A) (A)
                 (A) (A) (A) (A) (A) (A) (A) (A) (A) (A) (A) (A)
                 (A) (A) (A) (A) (A) (A) (A) (A) (A) (A) (A) (A)
                 (A) (A) (A) (A) (A) (A) (A) (A) (A) (A) (A) (A)
                 (A) (A) (A) (A) (A) (A) (A) (A) (A) (A) (A) (A)
                 (A) (A) (A) (A) (A) (A) (A) (A) (A) (A) (A) (A)
                 (A) (A) (A) (A) (A) (A) (A) (A) (A) (A) (A) (A)
                 (A) (A) (A) (A) (A) (A) (A) (A) (A) (A) (A) (A)
                 (A) (A) (A) (A) (A) (A) (A) (A) (A) (A) (A) (A)
                 (A) (A) (A) (A) (A) (A) (A) (A) (A) (A) (A) (A)
                 (A) (A) (A) (A) (A) (A) (A) (A) (A) (A) (A) (A)
                 (A) (A) (A) (A) (A) (A) (A) (A) (A) (A) (A) (A)
                 (A) (A) (A) (A) (A) (A) (A) (A) (A) (A) (A) (A)
                 (A) (A) (A) (A) (A) (A) (A) (A) (A) (A) (A) (A)
                 (A) (A) (A) (A) (A) (A) (A) (A) (A) (A) (A) (A)
                 (A) (A) (A) (A) (A) (A) (A) (A) (A) (A) (A) (A)
                 (A) (A) (A) (A) (A) (A) (A) (A) (A) (A) (A) (A)
                 (A) (A) (A) (A) (A) (A) (A) (A) (A) (A) (A) (A)
                 (A) (A) (A) (A) (A) (A) (A) (A) (A) (A) (A) (A)
                 (A) (A) (A) (A) (A) (A) (A) (A) (A) (A) (A) (A)
                 (A) (A) (A) (A) (A) (A) (A) (A) (A) (A) (A) (A)
                 (A) (A) (A) (A) (A) (A) (A) (A) (A) (A) (A) (A)
                 (A) (A) (A) (A) (A) (A) (A) (A) (A) (A) (A) (A)
                 (A) (A) (A) (A) (A) (A) (A) (A) (A) (A) (A) (A)
                 (A) (A) (A) (A) (A) (A) (A) (A) (A) (A) (A) (A)
                 (A) (A) (A) (A) (A) (A) (A) (A) (A) (A) (A) (A)
                 (A) (A) (A) (A) (A) (A) (A) (A) (A) (A) (A) (A)
                 (A) (A) (A) (A) (A) (A) (A) (A) (A) (A) (A) (A)
                 (A) (A) (A) (A) (A) (A) (A) (A)
    20 initial guesses have been made.
 Convergence on wavefunction:    0.001000000000000
 Davidson Disk Diagonalization:  ConvIn= 1.00D-03 SkipCon=T Conv= 1.00D-03.
 Max sub-space:  2000 roots to seek:    20 dimension of matrix:       370304
 Iteration     1 Dimension    20 NMult     0 NNew     20
 CISAX will form    20 AO SS matrices at one time.
 NMat=    20 NSing=    20 JSym2X= 0.
 FoFJK:  IHMeth= 1 ICntrl=     500 DoSepK=F KAlg= 0 I1Cent=           0 FoldK=F
 IRaf= 510000000 NMat=      20 IRICut=       1 DoRegI=T DoRafI=F ISym2E= 0 IDoP0=0 IntGTp=1.
 FoFCou: FMM=T IPFlag=           0 FMFlag=      100000 FMFlg1=        2001
         NFxFlg=           0 DoJE=F BraDBF=F KetDBF=F FulRan=T
         wScrn=  0.000000 ICntrl=       500 IOpCl=  0 I1Cent=           0 NGrid=           0
         NMat0=   20 NMatS0=     20 NMatT0=    0 NMatD0=   20 NMtDS0=    0 NMtDT0=    0
 Symmetry not used in FoFCou.
 FMM levels:  10  Number of levels for PrismC:   9
 New state      1 was old state      3
 New state      2 was old state      4
 New state      3 was old state      1
 New state      4 was old state      2
 New state      5 was old state      8
 Excitation Energies [eV] at current iteration:
 Root      1 :     2.006189536717563
 Root      2 :     2.045813155912527
 Root      3 :     2.147304034817699
 Root      4 :     2.285657429150662
 Root      5 :     2.526835385062185
 Root      6 :     2.648365104208935
 Root      7 :     2.809553323643142
 Root      8 :     2.976288003429931
 Root      9 :     3.044027196633771
 Root     10 :     3.080870402029889
 Root     11 :     3.188055498242322
 Root     12 :     3.240603727913033
 Root     13 :     3.290901478307279
 Root     14 :     3.297022370815378
 Root     15 :     3.302939064937152
 Root     16 :     3.385683667130908
 Root     17 :     3.605093594977311
 Root     18 :     3.975437890525184
 Root     19 :     4.088929757964496
 Root     20 :     4.342498331941827
 Iteration     2 Dimension    40 NMult    20 NNew     20
 CISAX will form    20 AO SS matrices at one time.
 NMat=    20 NSing=    20 JSym2X= 0.
 New state      1 was old state      3
 Root      1 not converged, maximum delta is    0.174283205147883
 New state      2 was old state      1
 Root      2 not converged, maximum delta is    0.274828671375987
 New state      3 was old state      2
 Root      3 not converged, maximum delta is    0.312195369144760
 Root      4 not converged, maximum delta is    0.316895232712001
 New state      5 was old state      7
 Root      5 not converged, maximum delta is    0.442983283345257
 Excitation Energies [eV] at current iteration:
 Root      1 :     1.894647207863393   Change is   -0.252656826954306
 Root      2 :     1.987183080768212   Change is   -0.019006455949351
 Root      3 :     2.029286395894331   Change is   -0.016526760018195
 Root      4 :     2.084762992905364   Change is   -0.200894436245298
 Root      5 :     2.488090700830060   Change is   -0.321462622813082
 Root      6 :     2.530386901842367   Change is    0.003551516780182
 Root      7 :     2.644032158119854   Change is   -0.004332946089082
 Root      8 :     2.726111271019571   Change is   -0.354759131010318
 Root      9 :     2.896443798505027   Change is   -0.489239868625881
 Root     10 :     2.947260955483403   Change is   -0.029027047946528
 Root     11 :     3.001689063397833   Change is   -0.042338133235937
 Root     12 :     3.151126425238206   Change is   -0.089477302674827
 Root     13 :     3.211974653948132   Change is    0.023919155705810
 Root     14 :     3.275199388737329   Change is   -0.021822982078048
 Root     15 :     3.290694787017904   Change is   -0.000206691289374
 Root     16 :     3.299287137645007   Change is   -0.003651927292145
 Root     17 :     3.359519428308924   Change is   -0.245574166668388
 Root     18 :     3.549029487161347   Change is   -0.426408403363837
 Root     19 :     3.610200011479328   Change is   -0.478729746485168
 Root     20 :     3.761620182827149   Change is   -0.580878149114678
 Iteration     3 Dimension    45 NMult    40 NNew      5
 CISAX will form     5 AO SS matrices at one time.
 NMat=     5 NSing=     5 JSym2X= 0.
 Root      1 not converged, maximum delta is    0.022095671387835
 Root      2 not converged, maximum delta is    0.123371115864083
 Root      3 not converged, maximum delta is    0.138442397918486
 Root      4 not converged, maximum delta is    0.111732731034941
 Root      5 not converged, maximum delta is    0.077681752969614
 Excitation Energies [eV] at current iteration:
 Root      1 :     1.854051427689760   Change is   -0.040595780173634
 Root      2 :     1.970936543912552   Change is   -0.016246536855660
 Root      3 :     2.022504257343572   Change is   -0.006782138550759
 Root      4 :     2.066206149746642   Change is   -0.018556843158722
 Root      5 :     2.466849707417872   Change is   -0.021240993412189
 Iteration     4 Dimension    50 NMult    45 NNew      5
 CISAX will form     5 AO SS matrices at one time.
 NMat=     5 NSing=     5 JSym2X= 0.
 Root      1 not converged, maximum delta is    0.009145195440859
 Root      2 not converged, maximum delta is    0.053315803761475
 Root      3 not converged, maximum delta is    0.053038772178985
 Root      4 not converged, maximum delta is    0.042295587480492
 Root      5 not converged, maximum delta is    0.020081799762296
 Excitation Energies [eV] at current iteration:
 Root      1 :     1.837429268238946   Change is   -0.016622159450814
 Root      2 :     1.961836142748838   Change is   -0.009100401163714
 Root      3 :     2.019882134392931   Change is   -0.002622122950641
 Root      4 :     2.060871649069846   Change is   -0.005334500676796
 Root      5 :     2.457710648385206   Change is   -0.009139059032666
 Iteration     5 Dimension    55 NMult    50 NNew      5
 CISAX will form     5 AO SS matrices at one time.
 NMat=     5 NSing=     5 JSym2X= 0.
 Root      1 not converged, maximum delta is    0.003519847737367
 Root      2 not converged, maximum delta is    0.017180259603741
 Root      3 not converged, maximum delta is    0.015508037985875
 Root      4 not converged, maximum delta is    0.012988746867263
 Root      5 not converged, maximum delta is    0.005800446099187
 Excitation Energies [eV] at current iteration:
 Root      1 :     1.831818998518604   Change is   -0.005610269720342
 Root      2 :     1.958458760926492   Change is   -0.003377381822346
 Root      3 :     2.018973344483312   Change is   -0.000908789909619
 Root      4 :     2.059335673834837   Change is   -0.001535975235009
 Root      5 :     2.454580154117378   Change is   -0.003130494267828
 Iteration     6 Dimension    60 NMult    55 NNew      5
 CISAX will form     5 AO SS matrices at one time.
 NMat=     5 NSing=     5 JSym2X= 0.
 Root      1 not converged, maximum delta is    0.003035655231148
 Root      2 not converged, maximum delta is    0.007882295704678
 Root      3 not converged, maximum delta is    0.006479352429051
 Root      4 not converged, maximum delta is    0.005835140472133
 Root      5 not converged, maximum delta is    0.002693065801616
 Excitation Energies [eV] at current iteration:
 Root      1 :     1.829135386704324   Change is   -0.002683611814280
 Root      2 :     1.956816678387481   Change is   -0.001642082539011
 Root      3 :     2.018531494887831   Change is   -0.000441849595481
 Root      4 :     2.058689898104880   Change is   -0.000645775729957
 Root      5 :     2.453239635114121   Change is   -0.001340519003257
 Iteration     7 Dimension    65 NMult    60 NNew      5
 CISAX will form     5 AO SS matrices at one time.
 NMat=     5 NSing=     5 JSym2X= 0.
 Root      1 not converged, maximum delta is    0.002184042855092
 Root      2 not converged, maximum delta is    0.003070799197463
 Root      3 not converged, maximum delta is    0.002426714022709
 Root      4 not converged, maximum delta is    0.002273653662255
 Root      5 not converged, maximum delta is    0.001374447100443
 Excitation Energies [eV] at current iteration:
 Root      1 :     1.827997435232309   Change is   -0.001137951472015
 Root      2 :     1.956162184048808   Change is   -0.000654494338673
 Root      3 :     2.018341650110679   Change is   -0.000189844777153
 Root      4 :     2.058451969268125   Change is   -0.000237928836755
 Root      5 :     2.452786959205735   Change is   -0.000452675908386
 Iteration     8 Dimension    70 NMult    65 NNew      5
 CISAX will form     5 AO SS matrices at one time.
 NMat=     5 NSing=     5 JSym2X= 0.
 Root      1 not converged, maximum delta is    0.001579856941276
 Root      2 not converged, maximum delta is    0.002102184567394
 Root      3 not converged, maximum delta is    0.001094076465145
 Root      4 not converged, maximum delta is    0.001036123857613
 Root      5 has converged.
 Excitation Energies [eV] at current iteration:
 Root      1 :     1.827494362039730   Change is   -0.000503073192579
 Root      2 :     1.955871976097391   Change is   -0.000290207951417
 Root      3 :     2.018265003450411   Change is   -0.000076646660268
 Root      4 :     2.058356221525362   Change is   -0.000095747742763
[...]
 Alpha virt. eigenvalues --    1.06627   1.06918   1.07044   1.08325   1.08536
 Alpha virt. eigenvalues --    1.09126   1.09717   1.09941   1.10585   1.10699
 Alpha virt. eigenvalues --    1.10819   1.11079   1.11941   1.12339   1.12757
 Alpha virt. eigenvalues --    1.13130   1.13287   1.13972   1.14349   1.14437
 Alpha virt. eigenvalues --    1.15098   1.15416   1.15981   1.16484   1.16774
 Alpha virt. eigenvalues --    1.17632   1.18091   1.18374   1.18716   1.19605
 Alpha virt. eigenvalues --    1.20009   1.20720   1.21227   1.21501   1.22142
 Alpha virt. eigenvalues --    1.22689   1.23074   1.23656   1.23857   1.24625
 Alpha virt. eigenvalues --    1.25062   1.25268   1.25457   1.26018   1.26571
 Alpha virt. eigenvalues --    1.26782   1.27188   1.27337   1.28120   1.28225
 Alpha virt. eigenvalues --    1.28506   1.29039   1.29885   1.30147   1.30297
 Alpha virt. eigenvalues --    1.30756   1.30860   1.31040   1.31965   1.32432
 Alpha virt. eigenvalues --    1.32647   1.33072   1.33351   1.33680   1.34091
 Alpha virt. eigenvalues --    1.34304   1.34710   1.34910   1.35580   1.35746
 Alpha virt. eigenvalues --    1.36427   1.36816   1.37157   1.37415   1.37708
 Alpha virt. eigenvalues --    1.38652   1.38683   1.39197   1.39555   1.39818
 Alpha virt. eigenvalues --    1.40365   1.40724   1.41144   1.41432   1.41766
 Alpha virt. eigenvalues --    1.42072   1.43078   1.43956   1.44460   1.44769
 Alpha virt. eigenvalues --    1.44839   1.45139   1.45427   1.45688   1.46077
 Alpha virt. eigenvalues --    1.46135   1.46227   1.46387   1.46573   1.46959
 Alpha virt. eigenvalues --    1.47119   1.47835   1.47899   1.48602   1.48833
 Alpha virt. eigenvalues --    1.49152   1.49282   1.49350   1.49912   1.50309
 Alpha virt. eigenvalues --    1.50373   1.50708   1.51032   1.51105   1.51310
 Alpha virt. eigenvalues --    1.51358   1.51685   1.51985   1.52135   1.52543
 Alpha virt. eigenvalues --    1.52707   1.52919   1.53535   1.54259   1.54498
 Alpha virt. eigenvalues --    1.55120   1.55271   1.55613   1.55855   1.56156
 Alpha virt. eigenvalues --    1.56592   1.57305   1.57523   1.58293   1.58400
 Alpha virt. eigenvalues --    1.59617   1.59973   1.60739   1.61319   1.61590
 Alpha virt. eigenvalues --    1.61937   1.62176   1.62392   1.63821   1.64155
 Alpha virt. eigenvalues --    1.64260   1.64412   1.64918   1.65164   1.65249
 Alpha virt. eigenvalues --    1.65473   1.65640   1.65769   1.65932   1.66334
 Alpha virt. eigenvalues --    1.66426   1.66732   1.67070   1.67266   1.67635
 Alpha virt. eigenvalues --    1.67790   1.67872   1.68244   1.68547   1.68931
 Alpha virt. eigenvalues --    1.68991   1.69156   1.69504   1.69559   1.69855
 Alpha virt. eigenvalues --    1.70331   1.70632   1.70736   1.70868   1.70998
 Alpha virt. eigenvalues --    1.71129   1.71285   1.71481   1.71953   1.72039
 Alpha virt. eigenvalues --    1.72368   1.72679   1.72869   1.73115   1.73175
 Alpha virt. eigenvalues --    1.73294   1.73448   1.73524   1.73686   1.73888
 Alpha virt. eigenvalues --    1.74072   1.74224   1.74357   1.74591   1.74950
 Alpha virt. eigenvalues --    1.75101   1.75434   1.75572   1.75923   1.76177
 Alpha virt. eigenvalues --    1.76430   1.76661   1.76918   1.76988   1.77191
 Alpha virt. eigenvalues --    1.77229   1.77575   1.77673   1.77871   1.77923
 Alpha virt. eigenvalues --    1.78435   1.78502   1.78723   1.78739   1.78873
 Alpha virt. eigenvalues --    1.79105   1.79407   1.79508   1.79567   1.79841
 Alpha virt. eigenvalues --    1.80130   1.80520   1.80792   1.80909   1.81303
 Alpha virt. eigenvalues --    1.81523   1.81573   1.81703   1.82162   1.82533
 Alpha virt. eigenvalues --    1.82718   1.82840   1.83322   1.83363   1.83660
 Alpha virt. eigenvalues --    1.83684   1.83914   1.83942   1.84060   1.84164
 Alpha virt. eigenvalues --    1.84577   1.84719   1.85161   1.85317   1.85804
 Alpha virt. eigenvalues --    1.85948   1.86193   1.86336   1.86551   1.86849
 Alpha virt. eigenvalues --    1.86945   1.87525   1.87616   1.88033   1.88350
 Alpha virt. eigenvalues --    1.88654   1.88904   1.89102   1.89155   1.89393
 Alpha virt. eigenvalues --    1.89722   1.90237   1.90575   1.90994   1.91136
 Alpha virt. eigenvalues --    1.91499   1.91590   1.91853   1.92188   1.92858
 Alpha virt. eigenvalues --    1.92941   1.93112   1.93410   1.93484   1.93923
 Alpha virt. eigenvalues --    1.94205   1.94291   1.94658   1.95043   1.95489
 Alpha virt. eigenvalues --    1.95690   1.95730   1.96212   1.96333   1.96822
 Alpha virt. eigenvalues --    1.97240   1.97412   1.97852   1.98000   1.98748
 Alpha virt. eigenvalues --    1.99083   1.99126   1.99357   1.99525   1.99982
 Alpha virt. eigenvalues --    2.00063   2.00452   2.00711   2.01062   2.01257
 Alpha virt. eigenvalues --    2.01620   2.01899   2.02083   2.02366   2.02600
 Alpha virt. eigenvalues --    2.03016   2.03480   2.04084   2.04141   2.04624
 Alpha virt. eigenvalues --    2.04777   2.05257   2.05477   2.05714   2.05900
 Alpha virt. eigenvalues --    2.06305   2.06369   2.06521   2.06939   2.07006
 Alpha virt. eigenvalues --    2.07512   2.07572   2.08328   2.08965   2.09392
 Alpha virt. eigenvalues --    2.09642   2.09806   2.10027   2.10510   2.11065
 Alpha virt. eigenvalues --    2.11925   2.12257   2.12373   2.12605   2.13149
 Alpha virt. eigenvalues --    2.13399   2.13937   2.14036   2.14800   2.15011
 Alpha virt. eigenvalues --    2.15115   2.15597   2.15847   2.16331   2.16575
 Alpha virt. eigenvalues --    2.17552   2.17821   2.18144   2.18352   2.19077
 Alpha virt. eigenvalues --    2.19265   2.19442   2.19594   2.20372   2.20515
 Alpha virt. eigenvalues --    2.20781   2.21040   2.22503   2.22604   2.22815
 Alpha virt. eigenvalues --    2.23357   2.23508   2.24022   2.24363   2.25130
 Alpha virt. eigenvalues --    2.25376   2.25427   2.26090   2.26472   2.27109
 Alpha virt. eigenvalues --    2.27914   2.28199   2.28451   2.28566   2.29021
 Alpha virt. eigenvalues --    2.29169   2.30090   2.30426   2.30600   2.31009
 Alpha virt. eigenvalues --    2.31322   2.31581   2.31805   2.32041   2.32155
 Alpha virt. eigenvalues --    2.32552   2.32690   2.33257   2.33819   2.34254
 Alpha virt. eigenvalues --    2.34371   2.34807   2.34964   2.35353   2.35648
 Alpha virt. eigenvalues --    2.36008   2.36145   2.36699   2.36915   2.37758
 Alpha virt. eigenvalues --    2.37815   2.38233   2.38556   2.38802   2.39045
 Alpha virt. eigenvalues --    2.39461   2.39499   2.40303   2.40446   2.40874
 Alpha virt. eigenvalues --    2.41082   2.41280   2.41870   2.42542   2.42565
 Alpha virt. eigenvalues --    2.43880   2.44627   2.44720   2.44961   2.45357
 Alpha virt. eigenvalues --    2.45474   2.45803   2.46440   2.46599   2.47352
 Alpha virt. eigenvalues --    2.47540   2.47952   2.48129   2.48445   2.48769
 Alpha virt. eigenvalues --    2.49170   2.49436   2.50215   2.50496   2.50918
 Alpha virt. eigenvalues --    2.51294   2.52213   2.52693   2.52754   2.54188
 Alpha virt. eigenvalues --    2.54270   2.54752   2.54832   2.55500   2.55574
 Alpha virt. eigenvalues --    2.55769   2.56234   2.56428   2.57678   2.58030
 Alpha virt. eigenvalues --    2.58120   2.58314   2.58564   2.59515   2.59680
 Alpha virt. eigenvalues --    2.60048   2.60375   2.60677   2.61187   2.61439
 Alpha virt. eigenvalues --    2.61749   2.62120   2.62271   2.63305   2.63796
 Alpha virt. eigenvalues --    2.63833   2.64266   2.64613   2.64672   2.64748
 Alpha virt. eigenvalues --    2.64979   2.65387   2.65709   2.66018   2.66840
 Alpha virt. eigenvalues --    2.67372   2.67757   2.68085   2.68752   2.69511
 Alpha virt. eigenvalues --    2.69846   2.70497   2.70575   2.70700   2.71372
 Alpha virt. eigenvalues --    2.71760   2.72646   2.72973   2.73277   2.74587
 Alpha virt. eigenvalues --    2.74921   2.75915   2.76033   2.76373   2.76976
 Alpha virt. eigenvalues --    2.77414   2.77865   2.78064   2.78197   2.78523
 Alpha virt. eigenvalues --    2.79247   2.79467   2.80776   2.81177   2.81334
 Alpha virt. eigenvalues --    2.81509   2.82148   2.82477   2.82868   2.83087
 Alpha virt. eigenvalues --    2.83294   2.83545   2.83896   2.84391   2.84402
 Alpha virt. eigenvalues --    2.84754   2.85542   2.85933   2.86009   2.86381
 Alpha virt. eigenvalues --    2.86879   2.87106   2.87261   2.87320   2.87873
 Alpha virt. eigenvalues --    2.88274   2.88360   2.88497   2.88752   2.88982
 Alpha virt. eigenvalues --    2.89203   2.89834   2.89911   2.89954   2.90307
 Alpha virt. eigenvalues --    2.90366   2.90873   2.91000   2.91064   2.91738
 Alpha virt. eigenvalues --    2.91798   2.92112   2.92684   2.92738   2.93342
 Alpha virt. eigenvalues --    2.93469   2.93719   2.95104   2.95405   2.95570
 Alpha virt. eigenvalues --    2.96015   2.97001   2.97119   2.97195   2.97353
 Alpha virt. eigenvalues --    2.97755   2.97770   2.98165   2.99583   3.00082
 Alpha virt. eigenvalues --    3.01008   3.01454   3.02092   3.02344   3.02829
 Alpha virt. eigenvalues --    3.02894   3.03654   3.04005   3.04168   3.04449
 Alpha virt. eigenvalues --    3.06706   3.07660   3.08126   3.08482   3.09158
 Alpha virt. eigenvalues --    3.11266   3.11941   3.12289   3.13894   3.15383
 Alpha virt. eigenvalues --    3.18073   3.19763   3.24581   3.29777   3.31843
 Alpha virt. eigenvalues --    3.33485   3.34227   3.37982   3.38318   3.43095
 Alpha virt. eigenvalues --    3.45848   3.46848   3.51277   3.54535   3.55951
 Alpha virt. eigenvalues --    3.57626   3.64046
          Condensed to atoms (all electrons):
 Mulliken charges:
               1
     1  Mg   0.674469
     2  C    0.045955
     3  C   -0.033350
     4  C   -0.023949
     5  C   -0.066694
     6  N   -0.152490
     7  C   -0.053800
     8  C   -0.030802
     9  C    0.009451
    10  C   -0.048383
    11  C    0.148954
    12  C    0.097364
    13  C    0.158826
    14  C    0.097003
    15  O   -0.208065
    16  O   -0.281474
    17  N   -0.314806
    18  C    0.169517
    19  C   -0.134178
    20  C    0.006017
    21  C    0.078272
    22  C    0.168829
    23  C   -0.077083
    24  O   -0.120725
    25  C    0.124976
    26  N   -0.237561
    27  C    0.037300
    28  C   -0.007554
    29  C    0.054851
    30  C    0.040792
    31  C    0.115171
    32  C    0.065574
    33  C    0.080346
    34  N   -0.255728
    35  C    0.095744
    36  C   -0.172753
    37  C    0.090413
    38  C    0.067119
    39  C    0.166433
    40  C   -0.031177
    41  O   -0.143175
    42  C    0.041370
    43  C    0.080101
    44  O   -0.182742
    45  O   -0.235381
    46  C    0.235724
    47  C    0.316681
    48  C   -0.072345
    49  C   -0.168713
    50  C    0.144774
    51  C    0.134642
    52  C    0.138375
    53  C    0.044552
    54  C   -0.103439
    55  C    0.128786
    56  C    0.154738
    57  C    0.017305
    58  C    0.086241
    59  C   -0.046840
    60  C    0.113268
    61  C    0.106808
    62  C    0.055874
    63  C    0.099317
    64  C   -0.099204
    65  C    0.091743
    66  C    0.118252
    67  H   -0.065403
    68  H   -0.039552
    69  H   -0.069876
    70  H    0.006147
    71  H   -0.043914
    72  H    0.007338
    73  H   -0.007692
    74  H   -0.017386
    75  H   -0.013040
    76  H   -0.029774
    77  H   -0.012178
    78  H    0.011259
    79  H   -0.008991
    80  H   -0.007167
    81  H   -0.016467
    82  H    0.011492
    83  H    0.003363
    84  H   -0.022892
    85  H   -0.008538
    86  H   -0.032602
    87  H   -0.024585
    88  H   -0.000310
    89  H    0.012102
    90  H   -0.031711
    91  H   -0.024081
    92  H   -0.011540
    93  H   -0.002640
    94  H   -0.002871
    95  H   -0.011066
    96  H    0.011768
    97  H    0.008878
    98  H   -0.001607
    99  H    0.037755
   100  H   -0.011703
   101  H    0.003484
   102  H   -0.001932
   103  H   -0.003521
   104  H   -0.044012
   105  H   -0.015195
   106  H   -0.003678
   107  H    0.014550
   108  H   -0.032966
   109  H   -0.035285
   110  H   -0.027463
   111  H   -0.024802
   112  H   -0.044070
   113  H   -0.053599
   114  H   -0.039257
   115  H   -0.012329
   116  H   -0.013574
   117  H   -0.032147
   118  H   -0.042910
   119  H   -0.048659
   120  H   -0.019186
   121  H   -0.020372
   122  H   -0.023529
   123  H   -0.043012
   124  H   -0.035524
   125  H   -0.028840
   126  H   -0.007896
   127  H   -0.030131
   128  H   -0.033027
   129  H   -0.029947
   130  H   -0.033937
   131  H   -0.018844
   132  H   -0.022680
   133  H   -0.043878
   134  H   -0.039520
   135  H   -0.011482
   136  H   -0.025021
   137  H   -0.026690
   138  H   -0.005704
   139  H   -0.019704
   140  H   -0.015743
 Sum of Mulliken charges =  -0.00000
 Mulliken charges with hydrogens summed into heavy atoms:
               1
     1  Mg   0.674469
     2  C    0.045955
     3  C   -0.098754
     4  C   -0.063501
     5  C   -0.136570
     6  N   -0.152490
     7  C   -0.053800
     8  C   -0.024655
     9  C   -0.034464
    10  C   -0.048383
    11  C    0.131215
    12  C    0.054550
    13  C    0.157907
    14  C    0.097003
    15  O   -0.208065
    16  O   -0.281474
    17  N   -0.314806
    18  C    0.169517
    19  C   -0.134178
    20  C    0.006017
    21  C    0.078272
    22  C    0.136203
    23  C   -0.077083
    24  O   -0.120725
    25  C    0.116938
    26  N   -0.237561
    27  C    0.037300
    28  C   -0.016092
    29  C    0.022250
    30  C    0.040792
    31  C    0.102378
    32  C    0.009782
    33  C    0.063295
    34  N   -0.255728
    35  C    0.095744
    36  C   -0.172753
    37  C    0.090413
    38  C    0.067119
    39  C    0.176013
    40  C   -0.031177
    41  O   -0.143175
    42  C    0.039763
    43  C    0.080101
    44  O   -0.182742
    45  O   -0.235381
    46  C    0.265260
    47  C    0.311228
    48  C   -0.116357
    49  C   -0.168713
    50  C    0.140451
    51  C    0.066392
    52  C    0.086110
    53  C   -0.053117
    54  C   -0.142696
    55  C    0.070736
    56  C    0.063169
    57  C   -0.022254
    58  C    0.019700
    59  C   -0.082364
    60  C    0.046401
    61  C    0.043834
    62  C    0.003093
    63  C    0.032758
    64  C   -0.138724
    65  C    0.028551
    66  C    0.077101
 Electronic spatial extent (au):  <R**2>=         110513.5997
 Charge=             -0.0000 electrons
 Dipole moment (field-independent basis, Debye):
    X=              3.3644    Y=              0.1328    Z=             -3.3990  Tot=              4.7844
 Quadrupole moment (field-independent basis, Debye-Ang):
   XX=           -371.1120   YY=           -428.0919   ZZ=           -406.8721
   XY=            -10.4728   XZ=             -2.6240   YZ=             10.6610
 Traceless Quadrupole moment (field-independent basis, Debye-Ang):
   XX=             30.9133   YY=            -26.0665   ZZ=             -4.8468
   XY=            -10.4728   XZ=             -2.6240   YZ=             10.6610
 Octapole moment (field-independent basis, Debye-Ang**2):
  XXX=           -394.8362  YYY=           -183.5519  ZZZ=             -4.9234  XYY=            246.7828
  XXY=            -56.0918  XXZ=             41.2676  XZZ=            -19.2426  YZZ=             -1.8603
  YYZ=            -36.8538  XYZ=            -48.4455
 Hexadecapole moment (field-independent basis, Debye-Ang**3):
 XXXX=        -110068.1320 YYYY=         -27975.6124 ZZZZ=         -11293.1016 XXXY=           -881.5244
 XXXZ=          -1041.3846 YYYX=             30.9258 YYYZ=            -80.7395 ZZZX=            -68.5348
 ZZZY=           -108.1939 XXYY=         -25250.9394 XXZZ=         -21228.0992 YYZZ=          -6295.3377
 XXYZ=            348.2846 YYXZ=            -64.2898 ZZXY=            -47.7328
 N-N= 9.585070357877D+03 E-N=-2.616620147662D+04  KE= 2.977940228097D+03
 Leave Link  601 at Fri Apr 29 12:01:05 2022, MaxMem= 10066329600 cpu:              11.5 elap:               0.6
 (Enter /sw/apps/gaussian-16.0/g16/l9999.exe)
 1\1\GINC-BP1-COMPUTE156\SP\RBLYP TD-FC\def2SVP\C55H74Mg1N4O6\OF15641\2
 9-Apr-2022\0\\#p blyp/Def2SVP td=(nstates=5)\\step_251_chromophore_9 T
 DDFT with blyp functional\\0,1\Mg,0,35.66,1.746,29.232\C,0,33.472,2.34
 1,31.895\C,0,38.121,1.241,31.625\C,0,37.79,1.615,26.779\C,0,33.017,2.5
 34,27.01\N,0,35.876,2.185,31.541\C,0,34.825,2.247,32.365\C,0,35.34,2.1
 82,33.764\C,0,36.88,2.273,33.631\C,0,37.006,1.846,32.182\C,0,37.595,3.
 59,33.938\C,0,34.896,0.872,34.489\C,0,34.262,0.972,35.914\C,0,34.688,2
 .141,36.856\O,0,34.254,3.302,36.767\O,0,35.517,1.689,37.899\N,0,37.698
 ,1.311,29.199\C,0,38.455,0.954,30.307\C,0,39.748,0.601,29.818\C,0,39.7
 36,0.825,28.383\C,0,38.39,1.256,28.036\C,0,40.944,0.2,30.709\C,0,40.89
 4,0.723,27.349\O,0,40.781,0.949,26.186\C,0,42.225,0.238,27.889\N,0,35.
 396,2.026,27.207\C,0,36.472,1.98,26.39\C,0,36.138,2.227,24.893\C,0,34.
 551,2.251,24.969\C,0,34.265,2.245,26.466\C,0,36.853,3.599,24.361\C,0,3
 3.864,1.141,24.113\C,0,33.417,-0.126,24.82\N,0,33.607,2.294,29.343\C,0
 ,32.663,2.488,28.371\C,0,31.347,2.767,29.046\C,0,31.642,2.712,30.427\C
 ,0,33.045,2.461,30.587\C,0,30.057,3.203,28.406\C,0,31.079,2.839,31.769
 \O,0,29.913,3.096,32.082\C,0,32.201,2.445,32.725\C,0,32.264,3.54,33.75
 1\O,0,32.777,4.631,33.582\O,0,31.499,3.139,34.753\C,0,31.031,4.136,35.
 703\C,0,35.908,2.752,38.867\C,0,37.121,2.09,39.54\C,0,37.206,1.388,40.
 697\C,0,36.022,0.999,41.513\C,0,38.492,0.674,41.076\C,0,39.507,1.325,4
 1.879\C,0,40.078,0.384,42.989\C,0,41.643,0.108,42.912\C,0,42.071,-1.06
 3,43.752\C,0,42.388,1.36,43.325\C,0,42.874,2.189,42.115\C,0,44.323,2.7
 29,42.29\C,0,44.647,3.848,41.223\C,0,45.738,3.194,40.364\C,0,44.946,5.
 224,41.809\C,0,43.996,6.354,41.395\C,0,44.172,7.551,42.445\C,0,44.161,
 8.996,41.842\C,0,45.626,9.364,41.516\C,0,43.381,10.174,42.514\H,0,38.9
 26,1.223,32.362\H,0,38.445,1.398,25.933\H,0,32.199,2.762,26.323\H,0,34
 .933,3.024,34.323\H,0,37.285,1.571,34.36\H,0,36.969,4.411,34.288\H,0,3
 8.136,3.939,33.058\H,0,38.324,3.361,34.715\H,0,35.667,0.102,34.507\H,0
 ,34.145,0.53,33.777\H,0,34.549,0.03,36.383\H,0,33.178,1.009,35.809\H,0
 ,41.84,0.791,30.519\H,0,41.298,-0.809,30.497\H,0,40.739,0.228,31.78\H,
 0,42.138,-0.686,28.461\H,0,42.669,1.05,28.465\H,0,42.949,0.141,27.08\H
 ,0,36.48,1.417,24.249\H,0,34.117,3.155,24.542\H,0,36.029,4.303,24.244\
 H,0,37.255,3.516,23.351\H,0,37.53,4.057,25.083\H,0,34.658,0.799,23.449
 \H,0,33.05,1.529,23.501\H,0,34.252,-0.367,25.479\H,0,33.307,-0.809,23.
 978\H,0,32.56,-0.118,25.493\H,0,30.049,3.416,27.337\H,0,29.711,4.118,2
 8.887\H,0,29.333,2.437,28.682\H,0,31.989,1.573,33.344\H,0,31.229,5.193
 ,35.528\H,0,31.601,3.892,36.6\H,0,30.077,3.797,36.107\H,0,35.144,3.044
 ,39.588\H,0,36.124,3.672,38.322\H,0,38.108,2.303,39.13\H,0,35.189,1.7,
 41.556\H,0,36.439,0.853,42.51\H,0,35.601,0.105,41.054\H,0,38.892,0.409
 ,40.098\H,0,38.262,-0.303,41.5\H,0,39.172,2.232,42.382\H,0,40.37,1.608
 ,41.276\H,0,39.539,-0.543,43.184\H,0,39.983,0.822,43.983\H,0,41.761,-0
 .151,41.86\H,0,42.448,-0.835,44.749\H,0,42.841,-1.556,43.159\H,0,41.21
 3,-1.721,43.889\H,0,43.144,1.173,44.088\H,0,41.727,1.976,43.935\H,0,42
 .243,3.073,42.02\H,0,42.823,1.594,41.203\H,0,44.955,1.843,42.361\H,0,4
 4.298,3.199,43.273\H,0,43.75,3.97,40.616\H,0,45.275,2.824,39.449\H,0,4
 6.29,2.322,40.718\H,0,46.399,4.014,40.083\H,0,45.942,5.539,41.498\H,0,
 44.915,5.132,42.894\H,0,42.959,6.04,41.517\H,0,44.099,6.565,40.331\H,0
 ,45.062,7.451,43.066\H,0,43.309,7.461,43.105\H,0,43.565,8.901,40.935\H
 ,0,46.094,8.741,40.753\H,0,46.332,9.332,42.345\H,0,45.678,10.43,41.292
 \H,0,42.577,10.449,41.831\H,0,44.067,11.012,42.636\H,0,43.053,9.785,43
 .478\\Version=ES64L-G16RevA.03\State=1-A\HF=-3007.3648151\RMSD=7.709e-
 09\PG=C01 [X(C55H74Mg1N4O6)]\\@


 A people that values its privileges above its principles soon loses both.
 -- Dwight D. Eisenhower
 Job cpu time:       0 days  5 hours 27 minutes 23.4 seconds.
 Elapsed time:       0 days  0 hours 13 minutes 42.4 seconds.
 File lengths (MBytes):  RWF=   8034 Int=      0 D2E=      0 Chk=    390 Scr=      1
 Normal termination of Gaussian 16 at Fri Apr 29 12:01:06 2022.
