 Entering Gaussian System, Link 0=g16
 Initial command:
 /sw/apps/gaussian-16.0/g16/l1.exe "/tmp/Gau-35810.inp" -scrdir="/tmp/"
 Entering Link 1 = /sw/apps/gaussian-16.0/g16/l1.exe PID=     35811.
  
 Copyright (c) 1988,1990,1992,1993,1995,1998,2003,2009,2016,
            Gaussian, Inc.  All Rights Reserved.
  
 This is part of the Gaussian(R) 16 program.  It is based on
 the Gaussian(R) 09 system (copyright 2009, Gaussian, Inc.),
 the Gaussian(R) 03 system (copyright 2003, Gaussian, Inc.),
 the Gaussian(R) 98 system (copyright 1998, Gaussian, Inc.),
 the Gaussian(R) 94 system (copyright 1995, Gaussian, Inc.),
 the Gaussian 92(TM) system (copyright 1992, Gaussian, Inc.),
 the Gaussian 90(TM) system (copyright 1990, Gaussian, Inc.),
 the Gaussian 88(TM) system (copyright 1988, Gaussian, Inc.),
 the Gaussian 86(TM) system (copyright 1986, Carnegie Mellon
 University), and the Gaussian 82(TM) system (copyright 1983,
 Carnegie Mellon University). Gaussian is a federally registered
 trademark of Gaussian, Inc.
  
 This software contains proprietary and confidential information,
 including trade secrets, belonging to Gaussian, Inc.
  
 This software is provided under written license and may be
 used, copied, transmitted, or stored only in accord with that
 written license.
  
 The following legend is applicable only to US Government
 contracts under FAR:
  
                    RESTRICTED RIGHTS LEGEND
  
 Use, reproduction and disclosure by the US Government is
 subject to restrictions as set forth in subparagraphs (a)
 and (c) of the Commercial Computer Software - Restricted
 Rights clause in FAR 52.227-19.
  
 Gaussian, Inc.
 340 Quinnipiac St., Bldg. 40, Wallingford CT 06492
  
  
 ---------------------------------------------------------------
 Warning -- This program may not be used in any manner that
 competes with the business of Gaussian, Inc. or will provide
 assistance to any competitor of Gaussian, Inc.  The licensee
 of this program is prohibited from giving any competitor of
 Gaussian, Inc. access to this program.  By using this program,
 the user acknowledges that Gaussian, Inc. is engaged in the
 business of creating and licensing software in the field of
 computational chemistry and represents and warrants to the
 licensee that it is not a competitor of Gaussian, Inc. and that
 it will not use this program in any manner prohibited above.
 ---------------------------------------------------------------
  

 Cite this work as:
 Gaussian 16, Revision A.03,
 M. J. Frisch, G. W. Trucks, H. B. Schlegel, G. E. Scuseria, 
 M. A. Robb, J. R. Cheeseman, G. Scalmani, V. Barone, 
 G. A. Petersson, H. Nakatsuji, X. Li, M. Caricato, A. V. Marenich, 
 J. Bloino, B. G. Janesko, R. Gomperts, B. Mennucci, H. P. Hratchian, 
 J. V. Ortiz, A. F. Izmaylov, J. L. Sonnenberg, D. Williams-Young, 
 F. Ding, F. Lipparini, F. Egidi, J. Goings, B. Peng, A. Petrone, 
 T. Henderson, D. Ranasinghe, V. G. Zakrzewski, J. Gao, N. Rega, 
 G. Zheng, W. Liang, M. Hada, M. Ehara, K. Toyota, R. Fukuda, 
 J. Hasegawa, M. Ishida, T. Nakajima, Y. Honda, O. Kitao, H. Nakai, 
 T. Vreven, K. Throssell, J. A. Montgomery, Jr., J. E. Peralta, 
 F. Ogliaro, M. J. Bearpark, J. J. Heyd, E. N. Brothers, K. N. Kudin, 
 V. N. Staroverov, T. A. Keith, R. Kobayashi, J. Normand, 
 K. Raghavachari, A. P. Rendell, J. C. Burant, S. S. Iyengar, 
 J. Tomasi, M. Cossi, J. M. Millam, M. Klene, C. Adamo, R. Cammi, 
 J. W. Ochterski, R. L. Martin, K. Morokuma, O. Farkas, 
 J. B. Foresman, and D. J. Fox, Gaussian, Inc., Wallingford CT, 2016.
 
 ******************************************
 Gaussian 16:  ES64L-G16RevA.03 25-Dec-2016
                29-Apr-2022 
 ******************************************
 %nproc=24
 Will use up to   24 processors via shared memory.
 %mem=75GB
 ------------------------------
 #p blyp/Def2SVP td=(nstates=5)
 ------------------------------
 1/38=1,172=1/1;
 2/12=2,17=6,18=5,40=1/2;
 3/5=43,7=101,11=9,25=1,30=1,74=402/1,2,3,8;
 4//1;
 5/5=2,38=5/2;
 8/6=1,10=1,108=5/1;
 9/41=5,42=1,70=2/14;
 6/7=2,8=2,9=2,10=2/1;
 99/5=1,9=1/99;
 Leave Link    1 at Fri Apr 29 02:24:07 2022, MaxMem= 10066329600 cpu:               1.5 elap:               0.1
 (Enter /sw/apps/gaussian-16.0/g16/l101.exe)
 ---------------------------------------------------
 step_1801_chromophore_25 TDDFT with blyp functional
 ---------------------------------------------------
 Symbolic Z-matrix:
 Charge =  0 Multiplicity = 1
 Mg                   -2.479     34.491    26.742 
 C                    -3.817     32.887    29.506 
 C                    -1.027     36.836    28.812 
 C                    -1.558     36.307    24.046 
 C                    -3.928     32.189    24.678 
 N                    -2.532     34.86     28.953 
 C                    -2.944     33.931    29.828 
 C                    -2.436     34.293    31.257 
 C                    -1.618     35.686    31.037 
 C                    -1.775     35.852    29.484 
 C                    -2.011     36.966    31.843 
 C                    -1.61      33.185    32.09 
 C                    -2.256     32.567    33.31 
 C                    -1.364     32.287    34.47 
 O                    -0.882     31.206    34.699 
 O                    -1.363     33.407    35.289 
 N                    -1.455     36.32     26.51 
 C                    -0.84      37.075    27.443 
 C                    -0.177     38.164    26.806 
 C                    -0.295     37.984    25.368 
 C                    -1.166     36.843    25.311 
 C                     0.692     39.123    27.551 
 C                     0.267     38.846    24.211 
 O                     0.104     38.651    23.011 
 C                     1.136     40.109    24.499 
 N                    -2.822     34.353    24.637 
 C                    -2.323     35.199    23.715 
 C                    -2.358     34.634    22.269 
 C                    -2.998     33.228    22.507 
 C                    -3.232     33.221    24.031 
 C                    -3.088     35.315    21.126 
 C                    -2.192     32.028    21.919 
 C                    -0.774     31.792    22.522 
 N                    -3.673     32.852    26.964 
 C                    -4.192     31.976    26.034 
 C                    -4.847     30.907    26.69 
 C                    -4.783     31.196    28.092 
 C                    -4.086     32.43     28.173 
 C                    -5.503     29.726    26.127 
 C                    -5.1       30.83     29.469 
 O                    -5.778     29.857    29.839 
 C                    -4.503     31.921    30.444 
 C                    -5.668     32.554    31.219 
 O                    -6.537     33.352    30.835 
 O                    -5.535     32.16     32.506 
 C                    -6.528     32.754    33.441 
 C                    -0.632     33.118    36.575 
 C                    -1.322     34.004    37.592 
 C                    -1.896     33.639    38.747 
 C                    -2.255     32.182    39.059 
 C                    -2.323     34.627    39.766 
 C                    -1.474     35.822    40.184 
 C                    -1.199     35.903    41.775 
 C                     0.096     36.641    42.208 
 C                     1.303     35.824    42.73 
 C                    -0.312     37.688    43.303 
 C                    -1.08      37.235    44.594 
 C                    -0.344     37.528    45.932 
 C                     0.29      36.345    46.681 
 C                    -0.291     36.171    48.079 
 C                     1.84      36.625    46.826 
 C                     2.711     35.392    46.943 
 C                     4.237     35.73     46.878 
 C                     4.883     34.95     45.635 
 C                     6.375     34.68     45.895 
 C                     4.664     35.686    44.312 
 H                    -0.367     37.427    29.45 
 H                    -0.992     36.724    23.211 
 H                    -4.224     31.388    23.998 
 H                    -3.351     34.709    31.677 
 H                    -0.617     35.469    31.41 
 H                    -2.843     36.791    32.526 
 H                    -2.264     37.75     31.129 
 H                    -1.105     37.342    32.318 
 H                    -0.64      33.608    32.35 
 H                    -1.377     32.381    31.392 
 H                    -2.747     31.614    33.114 
 H                    -3.079     33.158    33.711 
 H                     0.832     40.097    27.083 
 H                     1.667     38.707    27.804 
 H                     0.182     39.341    28.489 
 H                     0.706     40.763    25.257 
 H                     1.117     40.776    23.637 
 H                     2.084     39.671    24.812 
 H                    -1.335     34.41     21.966 
 H                    -4.02      33.161    22.134 
 H                    -3.641     36.129    21.596 
 H                    -3.796     34.609    20.693 
 H                    -2.408     35.695    20.363 
 H                    -1.985     32.178    20.859 
 H                    -2.765     31.116    22.088 
 H                    -0.335     32.69     22.959 
 H                    -0.077     31.503    21.735 
 H                    -0.837     30.957    23.22 
 H                    -4.935     29.213    25.35 
 H                    -6.392     30.08     25.605 
 H                    -5.696     29.022    26.936 
 H                    -3.905     31.369    31.168 
 H                    -6.355     33.776    33.777 
 H                    -6.689     32.075    34.278 
 H                    -7.506     32.857    32.97 
 H                     0.355     33.512    36.331 
 H                    -0.46      32.087    36.887 
 H                    -1.15      35.078    37.529 
 H                    -1.528     31.7      39.712 
 H                    -2.404     31.577    38.165 
 H                    -3.269     32.124    39.453 
 H                    -2.695     34.142    40.668 
 H                    -3.273     34.99     39.373 
 H                    -1.856     36.804    39.906 
 H                    -0.529     35.687    39.659 
 H                    -1.149     34.933    42.268 
 H                    -2.128     36.342    42.139 
 H                     0.393     37.131    41.281 
 H                     1.631     36.115    43.727 
 H                     2.138     36.083    42.079 
 H                     1.229     34.742    42.837 
 H                    -0.847     38.504    42.818 
 H                     0.536     38.269    43.668 
 H                    -1.01      36.161    44.42 
 H                    -2.069     37.692    44.57 
 H                    -1.132     38.008    46.512 
 H                     0.463     38.229    45.719 
 H                     0.11      35.418    46.135 
 H                     0.436     35.742    48.769 
 H                    -1.069     35.407    48.103 
 H                    -0.705     37.144    48.343 
 H                     2.002     37.391    47.584 
 H                     2.19      37.05     45.885 
 H                     2.519     34.618    46.199 
 H                     2.564     34.967    47.936 
 H                     4.513     35.448    47.894 
 H                     4.427     36.799    46.776 
 H                     4.32      34.021    45.716 
 H                     6.703     35.242    46.769 
 H                     7.049     34.947    45.081 
 H                     6.462     33.598    46.003 
 H                     3.698     35.418    43.885 
 H                     5.472     35.511    43.601 
 H                     4.624     36.746    44.56 
 
 ITRead=  0  0  0  0  0  0  0  0  0  0  0  0  0  0  0  0  0  0  0  0
 ITRead=  0  0  0  0  0  0  0  0  0  0  0  0  0  0  0  0  0  0  0  0
 ITRead=  0  0  0  0  0  0  0  0  0  0  0  0  0  0  0  0  0  0  0  0
 ITRead=  0  0  0  0  0  0  0  0  0  0  0  0  0  0  0  0  0  0  0  0
 ITRead=  0  0  0  0  0  0  0  0  0  0  0  0  0  0  0  0  0  0  0  0
 ITRead=  0  0  0  0  0  0  0  0  0  0  0  0  0  0  0  0  0  0  0  0
 ITRead=  0  0  0  0  0  0  0  0  0  0  0  0  0  0  0  0  0  0  0  0
 MicOpt= -1 -1 -1 -1 -1 -1 -1 -1 -1 -1 -1 -1 -1 -1 -1 -1 -1 -1 -1 -1
 MicOpt= -1 -1 -1 -1 -1 -1 -1 -1 -1 -1 -1 -1 -1 -1 -1 -1 -1 -1 -1 -1
 MicOpt= -1 -1 -1 -1 -1 -1 -1 -1 -1 -1 -1 -1 -1 -1 -1 -1 -1 -1 -1 -1
 MicOpt= -1 -1 -1 -1 -1 -1 -1 -1 -1 -1 -1 -1 -1 -1 -1 -1 -1 -1 -1 -1
 MicOpt= -1 -1 -1 -1 -1 -1 -1 -1 -1 -1 -1 -1 -1 -1 -1 -1 -1 -1 -1 -1
 MicOpt= -1 -1 -1 -1 -1 -1 -1 -1 -1 -1 -1 -1 -1 -1 -1 -1 -1 -1 -1 -1
 MicOpt= -1 -1 -1 -1 -1 -1 -1 -1 -1 -1 -1 -1 -1 -1 -1 -1 -1 -1 -1 -1
 NAtoms=    140 NQM=      140 NQMF=       0 NMMI=      0 NMMIF=      0
                NMic=       0 NMicF=      0.
                    Isotopes and Nuclear Properties:
 (Nuclear quadrupole moments (NQMom) in fm**2, nuclear magnetic moments (NMagM)
  in nuclear magnetons)

  Atom         1           2           3           4           5           6           7           8           9          10
 IAtWgt=          24          12          12          12          12          14          12          12          12          12
 AtmWgt=  23.9850450  12.0000000  12.0000000  12.0000000  12.0000000  14.0030740  12.0000000  12.0000000  12.0000000  12.0000000
 NucSpn=           0           0           0           0           0           2           0           0           0           0
 AtZEff=  -0.0000000  -0.0000000  -0.0000000  -0.0000000  -0.0000000  -0.0000000  -0.0000000  -0.0000000  -0.0000000  -0.0000000
 NQMom=    0.0000000   0.0000000   0.0000000   0.0000000   0.0000000   2.0440000   0.0000000   0.0000000   0.0000000   0.0000000
 NMagM=    0.0000000   0.0000000   0.0000000   0.0000000   0.0000000   0.4037610   0.0000000   0.0000000   0.0000000   0.0000000
 AtZNuc=  12.0000000   6.0000000   6.0000000   6.0000000   6.0000000   7.0000000   6.0000000   6.0000000   6.0000000   6.0000000

  Atom        11          12          13          14          15          16          17          18          19          20
 IAtWgt=          12          12          12          12          16          16          14          12          12          12
 AtmWgt=  12.0000000  12.0000000  12.0000000  12.0000000  15.9949146  15.9949146  14.0030740  12.0000000  12.0000000  12.0000000
 NucSpn=           0           0           0           0           0           0           2           0           0           0
 AtZEff=  -0.0000000  -0.0000000  -0.0000000  -0.0000000  -0.0000000  -0.0000000  -0.0000000  -0.0000000  -0.0000000  -0.0000000
 NQMom=    0.0000000   0.0000000   0.0000000   0.0000000   0.0000000   0.0000000   2.0440000   0.0000000   0.0000000   0.0000000
 NMagM=    0.0000000   0.0000000   0.0000000   0.0000000   0.0000000   0.0000000   0.4037610   0.0000000   0.0000000   0.0000000
 AtZNuc=   6.0000000   6.0000000   6.0000000   6.0000000   8.0000000   8.0000000   7.0000000   6.0000000   6.0000000   6.0000000

  Atom        21          22          23          24          25          26          27          28          29          30
 IAtWgt=          12          12          12          16          12          14          12          12          12          12
 AtmWgt=  12.0000000  12.0000000  12.0000000  15.9949146  12.0000000  14.0030740  12.0000000  12.0000000  12.0000000  12.0000000
 NucSpn=           0           0           0           0           0           2           0           0           0           0
 AtZEff=  -0.0000000  -0.0000000  -0.0000000  -0.0000000  -0.0000000  -0.0000000  -0.0000000  -0.0000000  -0.0000000  -0.0000000
 NQMom=    0.0000000   0.0000000   0.0000000   0.0000000   0.0000000   2.0440000   0.0000000   0.0000000   0.0000000   0.0000000
 NMagM=    0.0000000   0.0000000   0.0000000   0.0000000   0.0000000   0.4037610   0.0000000   0.0000000   0.0000000   0.0000000
 AtZNuc=   6.0000000   6.0000000   6.0000000   8.0000000   6.0000000   7.0000000   6.0000000   6.0000000   6.0000000   6.0000000

  Atom        31          32          33          34          35          36          37          38          39          40
 IAtWgt=          12          12          12          14          12          12          12          12          12          12
 AtmWgt=  12.0000000  12.0000000  12.0000000  14.0030740  12.0000000  12.0000000  12.0000000  12.0000000  12.0000000  12.0000000
 NucSpn=           0           0           0           2           0           0           0           0           0           0
 AtZEff=  -0.0000000  -0.0000000  -0.0000000  -0.0000000  -0.0000000  -0.0000000  -0.0000000  -0.0000000  -0.0000000  -0.0000000
 NQMom=    0.0000000   0.0000000   0.0000000   2.0440000   0.0000000   0.0000000   0.0000000   0.0000000   0.0000000   0.0000000
 NMagM=    0.0000000   0.0000000   0.0000000   0.4037610   0.0000000   0.0000000   0.0000000   0.0000000   0.0000000   0.0000000
 AtZNuc=   6.0000000   6.0000000   6.0000000   7.0000000   6.0000000   6.0000000   6.0000000   6.0000000   6.0000000   6.0000000

  Atom        41          42          43          44          45          46          47          48          49          50
 IAtWgt=          16          12          12          16          16          12          12          12          12          12
 AtmWgt=  15.9949146  12.0000000  12.0000000  15.9949146  15.9949146  12.0000000  12.0000000  12.0000000  12.0000000  12.0000000
 NucSpn=           0           0           0           0           0           0           0           0           0           0
 AtZEff=  -0.0000000  -0.0000000  -0.0000000  -0.0000000  -0.0000000  -0.0000000  -0.0000000  -0.0000000  -0.0000000  -0.0000000
 NQMom=    0.0000000   0.0000000   0.0000000   0.0000000   0.0000000   0.0000000   0.0000000   0.0000000   0.0000000   0.0000000
 NMagM=    0.0000000   0.0000000   0.0000000   0.0000000   0.0000000   0.0000000   0.0000000   0.0000000   0.0000000   0.0000000
 AtZNuc=   8.0000000   6.0000000   6.0000000   8.0000000   8.0000000   6.0000000   6.0000000   6.0000000   6.0000000   6.0000000

  Atom        51          52          53          54          55          56          57          58          59          60
 IAtWgt=          12          12          12          12          12          12          12          12          12          12
 AtmWgt=  12.0000000  12.0000000  12.0000000  12.0000000  12.0000000  12.0000000  12.0000000  12.0000000  12.0000000  12.0000000
 NucSpn=           0           0           0           0           0           0           0           0           0           0
 AtZEff=  -0.0000000  -0.0000000  -0.0000000  -0.0000000  -0.0000000  -0.0000000  -0.0000000  -0.0000000  -0.0000000  -0.0000000
 NQMom=    0.0000000   0.0000000   0.0000000   0.0000000   0.0000000   0.0000000   0.0000000   0.0000000   0.0000000   0.0000000
 NMagM=    0.0000000   0.0000000   0.0000000   0.0000000   0.0000000   0.0000000   0.0000000   0.0000000   0.0000000   0.0000000
 AtZNuc=   6.0000000   6.0000000   6.0000000   6.0000000   6.0000000   6.0000000   6.0000000   6.0000000   6.0000000   6.0000000

  Atom        61          62          63          64          65          66          67          68          69          70
 IAtWgt=          12          12          12          12          12          12           1           1           1           1
 AtmWgt=  12.0000000  12.0000000  12.0000000  12.0000000  12.0000000  12.0000000   1.0078250   1.0078250   1.0078250   1.0078250
 NucSpn=           0           0           0           0           0           0           1           1           1           1
 AtZEff=  -0.0000000  -0.0000000  -0.0000000  -0.0000000  -0.0000000  -0.0000000  -0.0000000  -0.0000000  -0.0000000  -0.0000000
 NQMom=    0.0000000   0.0000000   0.0000000   0.0000000   0.0000000   0.0000000   0.0000000   0.0000000   0.0000000   0.0000000
 NMagM=    0.0000000   0.0000000   0.0000000   0.0000000   0.0000000   0.0000000   2.7928460   2.7928460   2.7928460   2.7928460
 AtZNuc=   6.0000000   6.0000000   6.0000000   6.0000000   6.0000000   6.0000000   1.0000000   1.0000000   1.0000000   1.0000000

  Atom        71          72          73          74          75          76          77          78          79          80
 IAtWgt=           1           1           1           1           1           1           1           1           1           1
 AtmWgt=   1.0078250   1.0078250   1.0078250   1.0078250   1.0078250   1.0078250   1.0078250   1.0078250   1.0078250   1.0078250
 NucSpn=           1           1           1           1           1           1           1           1           1           1
 AtZEff=  -0.0000000  -0.0000000  -0.0000000  -0.0000000  -0.0000000  -0.0000000  -0.0000000  -0.0000000  -0.0000000  -0.0000000
 NQMom=    0.0000000   0.0000000   0.0000000   0.0000000   0.0000000   0.0000000   0.0000000   0.0000000   0.0000000   0.0000000
 NMagM=    2.7928460   2.7928460   2.7928460   2.7928460   2.7928460   2.7928460   2.7928460   2.7928460   2.7928460   2.7928460
 AtZNuc=   1.0000000   1.0000000   1.0000000   1.0000000   1.0000000   1.0000000   1.0000000   1.0000000   1.0000000   1.0000000

  Atom        81          82          83          84          85          86          87          88          89          90
 IAtWgt=           1           1           1           1           1           1           1           1           1           1
 AtmWgt=   1.0078250   1.0078250   1.0078250   1.0078250   1.0078250   1.0078250   1.0078250   1.0078250   1.0078250   1.0078250
 NucSpn=           1           1           1           1           1           1           1           1           1           1
 AtZEff=  -0.0000000  -0.0000000  -0.0000000  -0.0000000  -0.0000000  -0.0000000  -0.0000000  -0.0000000  -0.0000000  -0.0000000
 NQMom=    0.0000000   0.0000000   0.0000000   0.0000000   0.0000000   0.0000000   0.0000000   0.0000000   0.0000000   0.0000000
 NMagM=    2.7928460   2.7928460   2.7928460   2.7928460   2.7928460   2.7928460   2.7928460   2.7928460   2.7928460   2.7928460
 AtZNuc=   1.0000000   1.0000000   1.0000000   1.0000000   1.0000000   1.0000000   1.0000000   1.0000000   1.0000000   1.0000000

  Atom        91          92          93          94          95          96          97          98          99         100
 IAtWgt=           1           1           1           1           1           1           1           1           1           1
 AtmWgt=   1.0078250   1.0078250   1.0078250   1.0078250   1.0078250   1.0078250   1.0078250   1.0078250   1.0078250   1.0078250
 NucSpn=           1           1           1           1           1           1           1           1           1           1
 AtZEff=  -0.0000000  -0.0000000  -0.0000000  -0.0000000  -0.0000000  -0.0000000  -0.0000000  -0.0000000  -0.0000000  -0.0000000
 NQMom=    0.0000000   0.0000000   0.0000000   0.0000000   0.0000000   0.0000000   0.0000000   0.0000000   0.0000000   0.0000000
 NMagM=    2.7928460   2.7928460   2.7928460   2.7928460   2.7928460   2.7928460   2.7928460   2.7928460   2.7928460   2.7928460
 AtZNuc=   1.0000000   1.0000000   1.0000000   1.0000000   1.0000000   1.0000000   1.0000000   1.0000000   1.0000000   1.0000000

  Atom       101         102         103         104         105         106         107         108         109         110
 IAtWgt=           1           1           1           1           1           1           1           1           1           1
 AtmWgt=   1.0078250   1.0078250   1.0078250   1.0078250   1.0078250   1.0078250   1.0078250   1.0078250   1.0078250   1.0078250
 NucSpn=           1           1           1           1           1           1           1           1           1           1
 AtZEff=  -0.0000000  -0.0000000  -0.0000000  -0.0000000  -0.0000000  -0.0000000  -0.0000000  -0.0000000  -0.0000000  -0.0000000
 NQMom=    0.0000000   0.0000000   0.0000000   0.0000000   0.0000000   0.0000000   0.0000000   0.0000000   0.0000000   0.0000000
 NMagM=    2.7928460   2.7928460   2.7928460   2.7928460   2.7928460   2.7928460   2.7928460   2.7928460   2.7928460   2.7928460
 AtZNuc=   1.0000000   1.0000000   1.0000000   1.0000000   1.0000000   1.0000000   1.0000000   1.0000000   1.0000000   1.0000000

  Atom       111         112         113         114         115         116         117         118         119         120
 IAtWgt=           1           1           1           1           1           1           1           1           1           1
 AtmWgt=   1.0078250   1.0078250   1.0078250   1.0078250   1.0078250   1.0078250   1.0078250   1.0078250   1.0078250   1.0078250
 NucSpn=           1           1           1           1           1           1           1           1           1           1
 AtZEff=  -0.0000000  -0.0000000  -0.0000000  -0.0000000  -0.0000000  -0.0000000  -0.0000000  -0.0000000  -0.0000000  -0.0000000
 NQMom=    0.0000000   0.0000000   0.0000000   0.0000000   0.0000000   0.0000000   0.0000000   0.0000000   0.0000000   0.0000000
 NMagM=    2.7928460   2.7928460   2.7928460   2.7928460   2.7928460   2.7928460   2.7928460   2.7928460   2.7928460   2.7928460
 AtZNuc=   1.0000000   1.0000000   1.0000000   1.0000000   1.0000000   1.0000000   1.0000000   1.0000000   1.0000000   1.0000000

  Atom       121         122         123         124         125         126         127         128         129         130
 IAtWgt=           1           1           1           1           1           1           1           1           1           1
 AtmWgt=   1.0078250   1.0078250   1.0078250   1.0078250   1.0078250   1.0078250   1.0078250   1.0078250   1.0078250   1.0078250
 NucSpn=           1           1           1           1           1           1           1           1           1           1
 AtZEff=  -0.0000000  -0.0000000  -0.0000000  -0.0000000  -0.0000000  -0.0000000  -0.0000000  -0.0000000  -0.0000000  -0.0000000
 NQMom=    0.0000000   0.0000000   0.0000000   0.0000000   0.0000000   0.0000000   0.0000000   0.0000000   0.0000000   0.0000000
 NMagM=    2.7928460   2.7928460   2.7928460   2.7928460   2.7928460   2.7928460   2.7928460   2.7928460   2.7928460   2.7928460
 AtZNuc=   1.0000000   1.0000000   1.0000000   1.0000000   1.0000000   1.0000000   1.0000000   1.0000000   1.0000000   1.0000000

  Atom       131         132         133         134         135         136         137         138         139         140
 IAtWgt=           1           1           1           1           1           1           1           1           1           1
 AtmWgt=   1.0078250   1.0078250   1.0078250   1.0078250   1.0078250   1.0078250   1.0078250   1.0078250   1.0078250   1.0078250
 NucSpn=           1           1           1           1           1           1           1           1           1           1
 AtZEff=  -0.0000000  -0.0000000  -0.0000000  -0.0000000  -0.0000000  -0.0000000  -0.0000000  -0.0000000  -0.0000000  -0.0000000
 NQMom=    0.0000000   0.0000000   0.0000000   0.0000000   0.0000000   0.0000000   0.0000000   0.0000000   0.0000000   0.0000000
 NMagM=    2.7928460   2.7928460   2.7928460   2.7928460   2.7928460   2.7928460   2.7928460   2.7928460   2.7928460   2.7928460
 AtZNuc=   1.0000000   1.0000000   1.0000000   1.0000000   1.0000000   1.0000000   1.0000000   1.0000000   1.0000000   1.0000000
 Leave Link  101 at Fri Apr 29 02:24:07 2022, MaxMem= 10066329600 cpu:               2.8 elap:               0.1
 (Enter /sw/apps/gaussian-16.0/g16/l202.exe)
 Stoichiometry    C55H74MgN4O6
 Framework group  C1[X(C55H74MgN4O6)]
 Deg. of freedom   414
 Full point group                 C1      NOp   1
 Largest Abelian subgroup         C1      NOp   1
 Largest concise Abelian subgroup C1      NOp   1
                         Standard orientation:                         
 ---------------------------------------------------------------------
 Center     Atomic      Atomic             Coordinates (Angstroms)
 Number     Number       Type             X           Y           Z
 ---------------------------------------------------------------------
      1         12           0        6.139640    0.387263   -0.007125
      2          6           0        3.798801   -2.161889   -0.165399
      3          6           0        3.676664    2.687569   -0.738268
      4          6           0        8.480127    2.805736   -0.303141
      5          6           0        8.593292   -1.880645    0.696497
      6          7           0        3.960703    0.226443   -0.510972
      7          6           0        3.245568   -0.881540   -0.267324
      8          6           0        1.724520   -0.538946   -0.281223
      9          6           0        1.689180    1.058135   -0.606882
     10          6           0        3.228697    1.355063   -0.682609
     11          6           0        0.890386    1.593353   -1.838935
     12          6           0        0.823830   -0.957660    0.990494
     13          6           0       -0.204720   -2.053291    0.819267
     14          6           0       -1.493560   -1.880680    1.546426
     15          8           0       -1.738448   -2.397209    2.607819
     16          8           0       -2.370338   -1.206308    0.708784
     17          7           0        6.047219    2.441179   -0.476729
     18          6           0        4.964867    3.230865   -0.630515
     19          6           0        5.387940    4.578211   -0.822685
     20          6           0        6.830469    4.626644   -0.646806
     21          6           0        7.130368    3.229039   -0.503518
     22          6           0        4.427050    5.717831   -0.911135
     23          6           0        7.797237    5.834585   -0.708238
     24          8           0        9.016446    5.799817   -0.578183
     25          6           0        7.263432    7.278846   -0.958111
     26          7           0        8.275706    0.438301    0.041177
     27          6           0        9.025628    1.551026   -0.078236
     28          6           0       10.485705    1.373334    0.419726
     29          6           0       10.469982   -0.119623    0.882234
     30          6           0        9.023601   -0.551598    0.567973
     31          6           0       11.699893    1.597825   -0.462578
     32          6           0       10.970410   -0.364133    2.340029
     33          6           0       10.122530    0.285940    3.475165
     34          7           0        6.261928   -1.637285    0.210795
     35          6           0        7.330920   -2.453122    0.516251
     36          6           0        6.886369   -3.783968    0.698857
     37          6           0        5.482212   -3.781549    0.413275
     38          6           0        5.186145   -2.434362    0.077778
     39          6           0        7.642858   -4.978999    1.075277
     40          6           0        4.219717   -4.504681    0.295972
     41          8           0        4.053173   -5.729027    0.424626
     42          6           0        3.077275   -3.488183   -0.102619
     43          6           0        2.500849   -3.928313   -1.456339
     44          8           0        2.990976   -3.845436   -2.593145
     45          8           0        1.241593   -4.360351   -1.217779
     46          6           0        0.477983   -4.744800   -2.435239
     47          6           0       -3.750894   -1.168591    1.312373
     48          6           0       -4.672688   -1.154863    0.110086
     49          6           0       -5.668380   -2.006213   -0.173681
     50          6           0       -5.807304   -3.365292    0.521069
     51          6           0       -6.649638   -1.745428   -1.253477
     52          6           0       -7.302313   -0.387422   -1.484529
     53          6           0       -8.918273   -0.432725   -1.493764
     54          6           0       -9.641075    0.880632   -1.091510
     55          6           0      -10.330181    0.981030    0.291196
     56          6           0      -10.704338    1.183493   -2.204814
     57          6           0      -11.789900    0.115910   -2.583677
     58          6           0      -13.261199    0.573972   -2.375724
     59          6           0      -14.037638   -0.010698   -1.185031
     60          6           0      -15.282629   -0.770276   -1.626935
     61          6           0      -14.497057    1.186183   -0.258567
     62          6           0      -14.697129    0.833793    1.200341
     63          6           0      -14.950212    2.095053    2.090463
     64          6           0      -13.805770    2.170605    3.210869
     65          6           0      -14.329855    2.905846    4.456389
     66          6           0      -12.517537    2.803185    2.681449
     67          1           0        2.885389    3.439536   -0.719435
     68          1           0        9.160617    3.632565   -0.091583
     69          1           0        9.369549   -2.539928    1.089420
     70          1           0        1.461935   -0.910264   -1.271098
     71          1           0        1.145573    1.489554    0.233705
     72          1           0        0.393807    0.796409   -2.393578
     73          1           0        1.585773    2.129601   -2.484952
     74          1           0        0.225627    2.378553   -1.479222
     75          1           0        0.354074   -0.057462    1.385972
     76          1           0        1.515942   -1.268569    1.772943
     77          1           0        0.145454   -3.038735    1.125836
     78          1           0       -0.478126   -2.232586   -0.220210
     79          1           0        4.793168    6.607224   -1.423227
     80          1           0        4.019223    6.007899    0.056970
     81          1           0        3.592518    5.374521   -1.522005
     82          1           0        6.560572    7.339755   -1.788447
     83          1           0        8.066417    7.909555   -1.339838
     84          1           0        6.803540    7.524312   -0.000633
     85          1           0       10.600109    1.935253    1.346911
     86          1           0       11.036606   -0.772894    0.218702
     87          1           0       11.291999    1.746819   -1.462943
     88          1           0       12.307412    0.693341   -0.458476
     89          1           0       12.290395    2.459493   -0.149842
     90          1           0       11.958201    0.071700    2.492567
     91          1           0       10.976326   -1.438813    2.523498
     92          1           0        9.550122    1.153744    3.144470
     93          1           0       10.777936    0.672951    4.255784
     94          1           0        9.507124   -0.492291    3.926861
     95          1           0        8.328300   -4.842590    1.912584
     96          1           0        8.301593   -5.209798    0.238067
     97          1           0        6.935093   -5.766514    1.332638
     98          1           0        2.290104   -3.629726    0.636847
     99          1           0        0.047440   -3.942703   -3.034057
    100          1           0       -0.265031   -5.498007   -2.174204
    101          1           0        1.120711   -5.227067   -3.172296
    102          1           0       -3.728588   -0.188127    1.788959
    103          1           0       -4.020624   -1.866917    2.105769
    104          1           0       -4.715901   -0.243799   -0.485837
    105          1           0       -6.554510   -3.358122    1.314098
    106          1           0       -4.862974   -3.746098    0.909256
    107          1           0       -5.993694   -4.144214   -0.217399
    108          1           0       -7.428572   -2.506704   -1.284034
    109          1           0       -6.106034   -2.032812   -2.153822
    110          1           0       -7.022117    0.131022   -2.401174
    111          1           0       -6.961486    0.228282   -0.652892
    112          1           0       -9.345755   -1.198913   -0.848270
    113          1           0       -9.124874   -0.786346   -2.503976
    114          1           0       -8.823545    1.600807   -1.116594
    115          1           0      -11.388875    1.230861    0.236194
    116          1           0       -9.871118    1.835747    0.788013
    117          1           0      -10.348398    0.120565    0.959715
    118          1           0      -10.180917    1.516969   -3.100431
    119          1           0      -11.263923    2.100515   -2.015541
    120          1           0      -11.561316   -0.593769   -1.788216
    121          1           0      -11.606296   -0.194365   -3.612057
    122          1           0      -13.709175    0.304249   -3.331921
    123          1           0      -13.255051    1.655604   -2.241358
    124          1           0      -13.406508   -0.710146   -0.635221
    125          1           0      -16.069597   -0.730910   -0.873409
    126          1           0      -15.105134   -1.845140   -1.679082
    127          1           0      -15.526268   -0.376599   -2.613586
    128          1           0      -15.321507    1.717856   -0.733088
    129          1           0      -13.671695    1.896047   -0.199613
    130          1           0      -13.880068    0.274051    1.657043
    131          1           0      -15.612526    0.247898    1.284350
    132          1           0      -15.979211    1.887544    2.383817
    133          1           0      -14.958381    3.021264    1.514849
    134          1           0      -13.714497    1.105812    3.421712
    135          1           0      -15.286237    3.376267    4.229799
    136          1           0      -13.680721    3.689931    4.846257
    137          1           0      -14.380084    2.150916    5.242210
    138          1           0      -11.895417    2.049107    2.200157
    139          1           0      -11.965544    3.332973    3.458391
    140          1           0      -12.823413    3.509039    1.910143
 ---------------------------------------------------------------------
 Rotational constants (GHZ):           0.0529487           0.0081017           0.0074388
 Leave Link  202 at Fri Apr 29 02:24:07 2022, MaxMem= 10066329600 cpu:               0.2 elap:               0.0
 (Enter /sw/apps/gaussian-16.0/g16/l301.exe)
 Standard basis: def2SVP (5D, 7F)
 Ernie: Thresh=  0.10000D-02 Tol=  0.10000D-05 Strict=F.
 There are  1364 symmetry adapted cartesian basis functions of A   symmetry.
 There are  1298 symmetry adapted basis functions of A   symmetry.
  1298 basis functions,  2180 primitive gaussians,  1364 cartesian basis functions
   246 alpha electrons      246 beta electrons
       nuclear repulsion energy      9358.2031634124 Hartrees.
 IExCor=  402 DFT=T Ex=B Corr=LYP ExCW=0 ScaHFX=  0.000000
 ScaDFX=  1.000000  1.000000  1.000000  1.000000 ScalE2=  1.000000  1.000000
 IRadAn=      5 IRanWt=     -1 IRanGd=            0 ICorTp=0 IEmpDi=  4
 NAtoms=  140 NActive=  140 NUniq=  140 SFac= 1.00D+00 NAtFMM=   60 NAOKFM=T Big=T
 Integral buffers will be    131072 words long.
 Regular integral format.
 Two-electron integral symmetry is turned on.
 Leave Link  301 at Fri Apr 29 02:24:07 2022, MaxMem= 10066329600 cpu:               1.4 elap:               0.1
 (Enter /sw/apps/gaussian-16.0/g16/l302.exe)
 NPDir=0 NMtPBC=     1 NCelOv=     1 NCel=       1 NClECP=     1 NCelD=      1
         NCelK=      1 NCelE2=     1 NClLst=     1 CellRange=     0.0.
 One-electron integrals computed using PRISM.
 One-electron integral symmetry used in STVInt
   1 Symmetry operations used in ECPInt.
 ECPInt:  NShTT=  192510 NPrTT=  683786 LenC2=   90355 LenP2D=  200761.
 LDataN:  DoStor=T MaxTD1= 4 Len=   56
 NBasis=  1298 RedAO= T EigKep=  3.12D-04  NBF=  1298
 NBsUse=  1298 1.00D-06 EigRej= -1.00D+00 NBFU=  1298
 Precomputing XC quadrature grid using
 IXCGrd= 4 IRadAn=           5 IRanWt=          -1 IRanGd=           0 AccXCQ= 0.00D+00.
 Generated NRdTot=       0 NPtTot=           0 NUsed=           0 NTot=          32
 NSgBfM=   972   948   964   967   972 MxSgAt=   140 MxSgA2=   140.
 Leave Link  302 at Fri Apr 29 02:24:10 2022, MaxMem= 10066329600 cpu:              79.7 elap:               3.3
 (Enter /sw/apps/gaussian-16.0/g16/l303.exe)
 DipDrv:  MaxL=1.
 Leave Link  303 at Fri Apr 29 02:24:11 2022, MaxMem= 10066329600 cpu:               7.6 elap:               0.4
 (Enter /sw/apps/gaussian-16.0/g16/l308.exe)
 Leave Link  308 at Fri Apr 29 02:24:11 2022, MaxMem= 10066329600 cpu:              13.7 elap:               0.6
 (Enter /sw/apps/gaussian-16.0/g16/l401.exe)
 ExpMin= 3.36D-02 ExpMax= 4.95D+03 ExpMxC= 7.45D+02 IAcc=3 IRadAn=         5 AccDes= 0.00D+00
 Harris functional with IExCor=  402 and IRadAn=       5 diagonalized for initial guess.
 HarFok:  IExCor=  402 AccDes= 0.00D+00 IRadAn=         5 IDoV= 1 UseB2=F ITyADJ=14
 ICtDFT=  3500011 ScaDFX=  1.000000  1.000000  1.000000  1.000000
 FoFCou: FMM=F IPFlag=           0 FMFlag=      100000 FMFlg1=        2001
         NFxFlg=           0 DoJE=T BraDBF=F KetDBF=T FulRan=T
         wScrn=  0.000000 ICntrl=       500 IOpCl=  0 I1Cent=   200000004 NGrid=           0
         NMat0=    1 NMatS0=      1 NMatT0=    0 NMatD0=    1 NMtDS0=    0 NMtDT0=    0
 Petite list used in FoFCou.
 Harris En= -3008.76700654841    
 JPrj=0 DoOrth=F DoCkMO=F.
 Leave Link  401 at Fri Apr 29 02:24:17 2022, MaxMem= 10066329600 cpu:             131.1 elap:               5.5
 (Enter /sw/apps/gaussian-16.0/g16/l502.exe)
 Integral symmetry usage will be decided dynamically.
 Closed shell SCF:
 Using DIIS extrapolation, IDIIS=  1040.
 NGot= 10066329600 LenX= 10062561258 LenY= 10060699398
 Requested convergence on RMS density matrix=1.00D-08 within 128 cycles.
 Requested convergence on MAX density matrix=1.00D-06.
 Requested convergence on             energy=1.00D-06.
 No special actions if energy rises.
 Fock matrices will be formed incrementally for  20 cycles.

 Cycle   1  Pass 1  IDiag  1:
 FoFJK:  IHMeth= 1 ICntrl=     500 DoSepK=F KAlg= 0 I1Cent=           0 FoldK=F
 IRaf= 510000000 NMat=       1 IRICut=       1 DoRegI=T DoRafI=F ISym2E= 0 IDoP0=0 IntGTp=1.
 FoFCou: FMM=T IPFlag=           0 FMFlag=      100000 FMFlg1=        2001
         NFxFlg=           0 DoJE=T BraDBF=F KetDBF=F FulRan=T
         wScrn=  0.000000 ICntrl=       500 IOpCl=  0 I1Cent=           0 NGrid=           0
         NMat0=    1 NMatS0=      1 NMatT0=    0 NMatD0=    1 NMtDS0=    0 NMtDT0=    0
 Symmetry not used in FoFCou.
 FMM levels:  10  Number of levels for PrismC:   9
 E= -3005.68054067800    
 DIIS: error= 1.80D-02 at cycle   1 NSaved=   1.
 NSaved= 1 IEnMin= 1 EnMin= -3005.68054067800     IErMin= 1 ErrMin= 1.80D-02
 ErrMax= 1.80D-02  0.00D+00 EMaxC= 1.00D-01 BMatC= 1.54D+00 BMatP= 1.54D+00
 IDIUse=3 WtCom= 8.20D-01 WtEn= 1.80D-01
 Coeff-Com:  0.100D+01
 Coeff-En:   0.100D+01
 Coeff:      0.100D+01
 Gap=     0.057 Goal=   None    Shift=    0.000
 GapD=    0.057 DampG=0.500 DampE=0.500 DampFc=0.2500 IDamp=-1.
 Damping current iteration by 2.50D-01
 RMSDP=3.99D-03 MaxDP=1.37D+00              OVMax= 9.34D-01

 Cycle   2  Pass 1  IDiag  1:
 RMSU=  9.94D-04    CP:  9.91D-01
 E= -3006.17203458898     Delta-E=       -0.491493910977 Rises=F Damp=T
 DIIS: error= 6.76D-03 at cycle   2 NSaved=   2.
 NSaved= 2 IEnMin= 2 EnMin= -3006.17203458898     IErMin= 2 ErrMin= 6.76D-03
 ErrMax= 6.76D-03  0.00D+00 EMaxC= 1.00D-01 BMatC= 2.59D-01 BMatP= 1.54D+00
 IDIUse=3 WtCom= 9.32D-01 WtEn= 6.76D-02
 Coeff-Com: -0.285D+00 0.128D+01
 Coeff-En:   0.845D-01 0.915D+00
 Coeff:     -0.260D+00 0.126D+01
 Gap=    -0.254 Goal=   None    Shift=    0.000
 RMSDP=1.65D-03 MaxDP=3.02D-01 DE=-4.91D-01 OVMax= 5.89D-01

 Cycle   3  Pass 1  IDiag  1:
 RMSU=  1.63D-03    CP:  9.64D-01  1.11D+00
 E= -3004.66764709787     Delta-E=        1.504387491110 Rises=F Damp=F
 DIIS: error= 4.28D-02 at cycle   3 NSaved=   3.
 NSaved= 3 IEnMin= 2 EnMin= -3006.17203458898     IErMin= 2 ErrMin= 6.76D-03
 ErrMax= 4.28D-02  0.00D+00 EMaxC= 1.00D-01 BMatC= 1.82D+00 BMatP= 2.59D-01
 IDIUse=2 WtCom= 0.00D+00 WtEn= 1.00D+00
 Coeff-En:   0.000D+00 0.733D+00 0.267D+00
 Coeff:      0.000D+00 0.733D+00 0.267D+00
 Gap=    -0.047 Goal=   None    Shift=    0.000
 RMSDP=2.17D-03 MaxDP=4.65D-01 DE= 1.50D+00 OVMax= 7.78D-01

 Cycle   4  Pass 1  IDiag  1:
 RMSU=  1.15D-03    CP:  9.70D-01  1.90D+00 -1.59D-02
 E= -3004.90898957009     Delta-E=       -0.241342472220 Rises=F Damp=F
 DIIS: error= 4.02D-02 at cycle   4 NSaved=   4.
 NSaved= 4 IEnMin= 2 EnMin= -3006.17203458898     IErMin= 2 ErrMin= 6.76D-03
 ErrMax= 4.02D-02  0.00D+00 EMaxC= 1.00D-01 BMatC= 1.42D+00 BMatP= 2.59D-01
 IDIUse=2 WtCom= 0.00D+00 WtEn= 1.00D+00
 EnCoef did     1 forward-backward iterations
 Coeff-En:   0.130D+00 0.000D+00 0.414D+00 0.455D+00
 Coeff:      0.130D+00 0.000D+00 0.414D+00 0.455D+00
 Gap=     0.058 Goal=   None    Shift=    0.000
 RMSDP=1.54D-03 MaxDP=3.50D-01 DE=-2.41D-01 OVMax= 7.68D-01

 Cycle   5  Pass 1  IDiag  1:
 RMSU=  7.75D-04    CP:  9.80D-01  1.24D+00  1.29D-01  3.08D-02
 E= -3006.98397360484     Delta-E=       -2.074984034753 Rises=F Damp=F
 DIIS: error= 1.60D-02 at cycle   5 NSaved=   5.
 NSaved= 5 IEnMin= 5 EnMin= -3006.98397360484     IErMin= 2 ErrMin= 6.76D-03
 ErrMax= 1.60D-02  0.00D+00 EMaxC= 1.00D-01 BMatC= 3.48D-01 BMatP= 2.59D-01
 IDIUse=2 WtCom= 0.00D+00 WtEn= 1.00D+00
 EnCoef did     8 forward-backward iterations
 Coeff-En:   0.000D+00 0.000D+00 0.139D+00 0.214D+00 0.647D+00
 Coeff:      0.000D+00 0.000D+00 0.139D+00 0.214D+00 0.647D+00
 Gap=     0.183 Goal=   None    Shift=    0.000
 RMSDP=1.54D-03 MaxDP=3.26D-01 DE=-2.07D+00 OVMax= 6.53D-01

 Cycle   6  Pass 1  IDiag  1:
 RMSU=  1.07D-03    CP:  9.73D-01  8.07D-01  3.20D-01  3.74D-01 -1.46D-01
 E= -3006.22247949539     Delta-E=        0.761494109445 Rises=F Damp=F
 DIIS: error= 2.89D-02 at cycle   6 NSaved=   6.
 NSaved= 6 IEnMin= 5 EnMin= -3006.98397360484     IErMin= 2 ErrMin= 6.76D-03
 ErrMax= 2.89D-02  0.00D+00 EMaxC= 1.00D-01 BMatC= 1.02D+00 BMatP= 2.59D-01
 IDIUse=2 WtCom= 0.00D+00 WtEn= 1.00D+00
 EnCoef did     3 forward-backward iterations
 Coeff-En:   0.000D+00 0.000D+00 0.000D+00 0.264D-01 0.667D+00 0.307D+00
 Coeff:      0.000D+00 0.000D+00 0.000D+00 0.264D-01 0.667D+00 0.307D+00
 Gap=     0.071 Goal=   None    Shift=    0.000
 RMSDP=1.06D-03 MaxDP=1.35D-01 DE= 7.61D-01 OVMax= 6.20D-01

 Cycle   7  Pass 1  IDiag  1:
 RMSU=  6.55D-04    CP:  9.75D-01  1.18D+00  2.05D-01  1.68D-01  4.26D-01
                    CP:  5.04D-01
 E= -3007.21176458658     Delta-E=       -0.989285091187 Rises=F Damp=F
 DIIS: error= 1.14D-02 at cycle   7 NSaved=   7.
 NSaved= 7 IEnMin= 7 EnMin= -3007.21176458658     IErMin= 2 ErrMin= 6.76D-03
 ErrMax= 1.14D-02  0.00D+00 EMaxC= 1.00D-01 BMatC= 1.63D-01 BMatP= 2.59D-01
 IDIUse=3 WtCom= 8.86D-01 WtEn= 1.14D-01
 EnCoef did     4 forward-backward iterations
 Coeff-Com: -0.127D-01 0.452D-01 0.363D-01 0.351D-01 0.421D+00 0.170D+00
 Coeff-Com:  0.306D+00
 Coeff-En:   0.000D+00 0.000D+00 0.000D+00 0.000D+00 0.350D+00 0.624D-01
 Coeff-En:   0.588D+00
 Coeff:     -0.113D-01 0.400D-01 0.321D-01 0.311D-01 0.413D+00 0.157D+00
 Coeff:      0.338D+00
 Gap=     0.081 Goal=   None    Shift=    0.000
 RMSDP=5.98D-04 MaxDP=9.72D-02 DE=-9.89D-01 OVMax= 2.87D-01

 Cycle   8  Pass 1  IDiag  1:
 RMSU=  3.59D-04    CP:  9.77D-01  1.14D+00  1.86D-01  1.90D-01  4.14D-01
                    CP:  4.24D-01  2.86D-01
 E= -3007.29807410742     Delta-E=       -0.086309520835 Rises=F Damp=F
 DIIS: error= 7.44D-03 at cycle   8 NSaved=   8.
 NSaved= 8 IEnMin= 8 EnMin= -3007.29807410742     IErMin= 2 ErrMin= 6.76D-03
 ErrMax= 7.44D-03  0.00D+00 EMaxC= 1.00D-01 BMatC= 5.37D-02 BMatP= 1.63D-01
 IDIUse=3 WtCom= 9.26D-01 WtEn= 7.44D-02
 EnCoef did     3 forward-backward iterations
 Coeff-Com:  0.159D-01 0.703D-02 0.124D-01-0.161D-02 0.220D+00 0.316D-01
 Coeff-Com:  0.348D+00 0.367D+00
 Coeff-En:   0.000D+00 0.000D+00 0.000D+00 0.000D+00 0.116D+00 0.000D+00
 Coeff-En:   0.323D+00 0.561D+00
 Coeff:      0.147D-01 0.650D-02 0.115D-01-0.149D-02 0.213D+00 0.292D-01
 Coeff:      0.346D+00 0.381D+00
 Gap=     0.037 Goal=   None    Shift=    0.000
 RMSDP=4.14D-04 MaxDP=4.51D-02 DE=-8.63D-02 OVMax= 3.16D-01

 Cycle   9  Pass 1  IDiag  1:
 RMSU=  1.90D-04    CP:  9.78D-01  1.13D+00  1.95D-01  1.13D-01  5.64D-01
                    CP:  3.54D-01  5.69D-01  2.42D-01
 E= -3007.35438993697     Delta-E=       -0.056315829555 Rises=F Damp=F
 DIIS: error= 3.28D-03 at cycle   9 NSaved=   9.
 NSaved= 9 IEnMin= 9 EnMin= -3007.35438993697     IErMin= 9 ErrMin= 3.28D-03
 ErrMax= 3.28D-03  0.00D+00 EMaxC= 1.00D-01 BMatC= 1.47D-02 BMatP= 5.37D-02
 IDIUse=3 WtCom= 9.67D-01 WtEn= 3.28D-02
 Coeff-Com:  0.205D-01-0.110D-01 0.264D-02-0.408D-02 0.960D-01-0.118D-01
 Coeff-Com:  0.233D+00 0.354D+00 0.320D+00
 Coeff-En:   0.000D+00 0.000D+00 0.000D+00 0.000D+00 0.000D+00 0.000D+00
 Coeff-En:   0.000D+00 0.284D+00 0.716D+00
 Coeff:      0.198D-01-0.107D-01 0.255D-02-0.395D-02 0.929D-01-0.114D-01
 Coeff:      0.225D+00 0.352D+00 0.333D+00
 Gap=     0.044 Goal=   None    Shift=    0.000
 RMSDP=1.91D-04 MaxDP=2.14D-02 DE=-5.63D-02 OVMax= 1.23D-01

 Cycle  10  Pass 1  IDiag  1:
 RMSU=  7.72D-05    CP:  9.78D-01  1.13D+00  1.87D-01  1.30D-01  5.52D-01
                    CP:  3.63D-01  5.29D-01  5.13D-01  2.61D-01
 E= -3007.37256723105     Delta-E=       -0.018177294081 Rises=F Damp=F
 DIIS: error= 1.40D-03 at cycle  10 NSaved=  10.
 NSaved=10 IEnMin=10 EnMin= -3007.37256723105     IErMin=10 ErrMin= 1.40D-03
 ErrMax= 1.40D-03  0.00D+00 EMaxC= 1.00D-01 BMatC= 2.30D-03 BMatP= 1.47D-02
 IDIUse=3 WtCom= 9.86D-01 WtEn= 1.40D-02
 Coeff-Com:  0.198D-01-0.241D-01 0.968D-03 0.138D-02 0.472D-01-0.128D-01
 Coeff-Com:  0.130D+00 0.228D+00 0.275D+00 0.335D+00
 Coeff-En:   0.000D+00 0.000D+00 0.000D+00 0.000D+00 0.000D+00 0.000D+00
 Coeff-En:   0.000D+00 0.000D+00 0.169D+00 0.831D+00
 Coeff:      0.196D-01-0.237D-01 0.955D-03 0.137D-02 0.465D-01-0.126D-01
 Coeff:      0.128D+00 0.224D+00 0.273D+00 0.342D+00
 Gap=     0.045 Goal=   None    Shift=    0.000
 RMSDP=7.90D-05 MaxDP=9.89D-03 DE=-1.82D-02 OVMax= 6.15D-02

 Cycle  11  Pass 1  IDiag  1:
 RMSU=  3.88D-05    CP:  9.78D-01  1.14D+00  1.82D-01  1.35D-01  5.38D-01
                    CP:  3.61D-01  5.27D-01  4.72D-01  4.65D-01  3.26D-01
 E= -3007.37491943113     Delta-E=       -0.002352200074 Rises=F Damp=F
 DIIS: error= 6.15D-04 at cycle  11 NSaved=  11.
 NSaved=11 IEnMin=11 EnMin= -3007.37491943113     IErMin=11 ErrMin= 6.15D-04
 ErrMax= 6.15D-04  0.00D+00 EMaxC= 1.00D-01 BMatC= 4.84D-04 BMatP= 2.30D-03
 IDIUse=3 WtCom= 9.94D-01 WtEn= 6.15D-03
 Coeff-Com:  0.113D-01-0.177D-01 0.534D-03 0.103D-02 0.117D-01-0.676D-02
 Coeff-Com:  0.423D-01 0.879D-01 0.134D+00 0.304D+00 0.432D+00
 Coeff-En:   0.000D+00 0.000D+00 0.000D+00 0.000D+00 0.000D+00 0.000D+00
 Coeff-En:   0.000D+00 0.000D+00 0.000D+00 0.248D+00 0.752D+00
 Coeff:      0.113D-01-0.176D-01 0.530D-03 0.103D-02 0.117D-01-0.672D-02
 Coeff:      0.421D-01 0.874D-01 0.133D+00 0.303D+00 0.434D+00
 Gap=     0.045 Goal=   None    Shift=    0.000
 RMSDP=3.57D-05 MaxDP=3.80D-03 DE=-2.35D-03 OVMax= 2.49D-02

 Cycle  12  Pass 1  IDiag  1:
 RMSU=  1.55D-05    CP:  9.78D-01  1.14D+00  1.86D-01  1.31D-01  5.45D-01
                    CP:  3.60D-01  5.30D-01  4.80D-01  4.23D-01  5.55D-01
                    CP:  4.06D-01
 E= -3007.37544314865     Delta-E=       -0.000523717526 Rises=F Damp=F
 DIIS: error= 2.04D-04 at cycle  12 NSaved=  12.
 NSaved=12 IEnMin=12 EnMin= -3007.37544314865     IErMin=12 ErrMin= 2.04D-04
 ErrMax= 2.04D-04  0.00D+00 EMaxC= 1.00D-01 BMatC= 9.57D-05 BMatP= 4.84D-04
 IDIUse=3 WtCom= 9.98D-01 WtEn= 2.04D-03
 Coeff-Com:  0.364D-02-0.677D-02 0.157D-03 0.336D-03 0.620D-03-0.769D-03
 Coeff-Com:  0.437D-02 0.207D-01 0.446D-01 0.164D+00 0.353D+00 0.416D+00
 Coeff-En:   0.000D+00 0.000D+00 0.000D+00 0.000D+00 0.000D+00 0.000D+00
 Coeff-En:   0.000D+00 0.000D+00 0.000D+00 0.000D+00 0.211D+00 0.789D+00
 Coeff:      0.363D-02-0.675D-02 0.157D-03 0.335D-03 0.618D-03-0.768D-03
 Coeff:      0.436D-02 0.206D-01 0.445D-01 0.164D+00 0.353D+00 0.417D+00
 Gap=     0.044 Goal=   None    Shift=    0.000
 RMSDP=1.37D-05 MaxDP=1.50D-03 DE=-5.24D-04 OVMax= 6.68D-03

 Cycle  13  Pass 1  IDiag  1:
 RMSU=  5.65D-06    CP:  9.78D-01  1.14D+00  1.85D-01  1.32D-01  5.41D-01
                    CP:  3.62D-01  5.28D-01  4.80D-01  4.28D-01  5.09D-01
                    CP:  5.63D-01  3.93D-01
 E= -3007.37555152845     Delta-E=       -0.000108379798 Rises=F Damp=F
 DIIS: error= 6.61D-05 at cycle  13 NSaved=  13.
 NSaved=13 IEnMin=13 EnMin= -3007.37555152845     IErMin=13 ErrMin= 6.61D-05
 ErrMax= 6.61D-05  0.00D+00 EMaxC= 1.00D-01 BMatC= 1.31D-05 BMatP= 9.57D-05
 IDIUse=1 WtCom= 1.00D+00 WtEn= 0.00D+00
 Coeff-Com:  0.122D-02-0.243D-02 0.175D-03-0.259D-04-0.772D-03 0.212D-03
 Coeff-Com: -0.161D-02 0.656D-02 0.186D-01 0.893D-01 0.221D+00 0.316D+00
 Coeff-Com:  0.351D+00
 Coeff:      0.122D-02-0.243D-02 0.175D-03-0.259D-04-0.772D-03 0.212D-03
 Coeff:     -0.161D-02 0.656D-02 0.186D-01 0.893D-01 0.221D+00 0.316D+00
 Coeff:      0.351D+00
 Gap=     0.044 Goal=   None    Shift=    0.000
 RMSDP=4.21D-06 MaxDP=6.23D-04 DE=-1.08D-04 OVMax= 1.22D-03

 Cycle  14  Pass 1  IDiag  1:
 RMSU=  2.08D-06    CP:  9.78D-01  1.14D+00  1.85D-01  1.32D-01  5.42D-01
                    CP:  3.62D-01  5.26D-01  4.82D-01  4.31D-01  5.16D-01
                    CP:  5.59D-01  4.90D-01  4.80D-01
 E= -3007.37556434927     Delta-E=       -0.000012820818 Rises=F Damp=F
 DIIS: error= 2.81D-05 at cycle  14 NSaved=  14.
 NSaved=14 IEnMin=14 EnMin= -3007.37556434927     IErMin=14 ErrMin= 2.81D-05
 ErrMax= 2.81D-05  0.00D+00 EMaxC= 1.00D-01 BMatC= 1.30D-06 BMatP= 1.31D-05
 IDIUse=1 WtCom= 1.00D+00 WtEn= 0.00D+00
 Coeff-Com:  0.347D-03-0.806D-03 0.177D-03-0.115D-03-0.496D-03 0.267D-03
 Coeff-Com: -0.191D-02 0.148D-02 0.539D-02 0.370D-01 0.104D+00 0.161D+00
 Coeff-Com:  0.242D+00 0.452D+00
 Coeff:      0.347D-03-0.806D-03 0.177D-03-0.115D-03-0.496D-03 0.267D-03
 Coeff:     -0.191D-02 0.148D-02 0.539D-02 0.370D-01 0.104D+00 0.161D+00
 Coeff:      0.242D+00 0.452D+00
 Gap=     0.044 Goal=   None    Shift=    0.000
 RMSDP=1.29D-06 MaxDP=2.38D-04 DE=-1.28D-05 OVMax= 3.67D-04

 Cycle  15  Pass 1  IDiag  1:
 RMSU=  8.81D-07    CP:  9.78D-01  1.14D+00  1.85D-01  1.32D-01  5.42D-01
                    CP:  3.61D-01  5.26D-01  4.81D-01  4.30D-01  5.18D-01
                    CP:  5.63D-01  4.80D-01  5.13D-01  6.10D-01
 E= -3007.37556540982     Delta-E=       -0.000001060556 Rises=F Damp=F
 DIIS: error= 1.07D-05 at cycle  15 NSaved=  15.
 NSaved=15 IEnMin=15 EnMin= -3007.37556540982     IErMin=15 ErrMin= 1.07D-05
 ErrMax= 1.07D-05  0.00D+00 EMaxC= 1.00D-01 BMatC= 2.07D-07 BMatP= 1.30D-06
 IDIUse=1 WtCom= 1.00D+00 WtEn= 0.00D+00
 Coeff-Com:  0.108D-03-0.322D-03 0.112D-03-0.659D-04-0.164D-03 0.868D-04
 Coeff-Com: -0.103D-02-0.228D-05-0.347D-04 0.804D-02 0.290D-01 0.460D-01
 Coeff-Com:  0.859D-01 0.287D+00 0.545D+00
 Coeff:      0.108D-03-0.322D-03 0.112D-03-0.659D-04-0.164D-03 0.868D-04
 Coeff:     -0.103D-02-0.228D-05-0.347D-04 0.804D-02 0.290D-01 0.460D-01
 Coeff:      0.859D-01 0.287D+00 0.545D+00
 Gap=     0.044 Goal=   None    Shift=    0.000
 RMSDP=5.38D-07 MaxDP=8.22D-05 DE=-1.06D-06 OVMax= 2.18D-04

 Cycle  16  Pass 1  IDiag  1:
 RMSU=  3.87D-07    CP:  9.78D-01  1.14D+00  1.85D-01  1.32D-01  5.42D-01
                    CP:  3.61D-01  5.26D-01  4.81D-01  4.30D-01  5.18D-01
                    CP:  5.65D-01  4.83D-01  5.02D-01  6.44D-01  6.81D-01
 E= -3007.37556554839     Delta-E=       -0.000000138563 Rises=F Damp=F
 DIIS: error= 7.15D-06 at cycle  16 NSaved=  16.
 NSaved=16 IEnMin=16 EnMin= -3007.37556554839     IErMin=16 ErrMin= 7.15D-06
 ErrMax= 7.15D-06  0.00D+00 EMaxC= 1.00D-01 BMatC= 6.86D-08 BMatP= 2.07D-07
 IDIUse=1 WtCom= 1.00D+00 WtEn= 0.00D+00
 Coeff-Com:  0.460D-04-0.169D-03 0.543D-04-0.291D-04-0.242D-04 0.453D-05
 Coeff-Com: -0.422D-03-0.260D-03-0.127D-02-0.171D-02 0.342D-03-0.639D-03
 Coeff-Com:  0.956D-02 0.109D+00 0.416D+00 0.469D+00
 Coeff:      0.460D-04-0.169D-03 0.543D-04-0.291D-04-0.242D-04 0.453D-05
 Coeff:     -0.422D-03-0.260D-03-0.127D-02-0.171D-02 0.342D-03-0.639D-03
 Coeff:      0.956D-02 0.109D+00 0.416D+00 0.469D+00
 Gap=     0.044 Goal=   None    Shift=    0.000
 RMSDP=3.06D-07 MaxDP=3.51D-05 DE=-1.39D-07 OVMax= 9.15D-05

 Cycle  17  Pass 1  IDiag  1:
 RMSU=  1.77D-07    CP:  9.78D-01  1.14D+00  1.85D-01  1.32D-01  5.42D-01
                    CP:  3.61D-01  5.26D-01  4.82D-01  4.30D-01  5.18D-01
                    CP:  5.65D-01  4.84D-01  5.14D-01  6.70D-01  7.74D-01
                    CP:  5.00D-01
 E= -3007.37556560829     Delta-E=       -0.000000059899 Rises=F Damp=F
 DIIS: error= 2.41D-06 at cycle  17 NSaved=  17.
 NSaved=17 IEnMin=17 EnMin= -3007.37556560829     IErMin=17 ErrMin= 2.41D-06
 ErrMax= 2.41D-06  0.00D+00 EMaxC= 1.00D-01 BMatC= 1.37D-08 BMatP= 6.86D-08
 IDIUse=1 WtCom= 1.00D+00 WtEn= 0.00D+00
 Coeff-Com:  0.145D-04-0.662D-04 0.190D-04-0.110D-04 0.741D-05-0.790D-05
 Coeff-Com: -0.116D-03-0.167D-03-0.954D-03-0.313D-02-0.621D-02-0.119D-01
 Coeff-Com: -0.141D-01 0.816D-02 0.179D+00 0.335D+00 0.515D+00
 Coeff:      0.145D-04-0.662D-04 0.190D-04-0.110D-04 0.741D-05-0.790D-05
 Coeff:     -0.116D-03-0.167D-03-0.954D-03-0.313D-02-0.621D-02-0.119D-01
 Coeff:     -0.141D-01 0.816D-02 0.179D+00 0.335D+00 0.515D+00
 Gap=     0.044 Goal=   None    Shift=    0.000
 RMSDP=1.44D-07 MaxDP=1.34D-05 DE=-5.99D-08 OVMax= 4.21D-05

 Cycle  18  Pass 1  IDiag  1:
 RMSU=  8.70D-08    CP:  9.78D-01  1.14D+00  1.85D-01  1.32D-01  5.42D-01
                    CP:  3.61D-01  5.26D-01  4.82D-01  4.30D-01  5.18D-01
                    CP:  5.66D-01  4.84D-01  5.15D-01  6.81D-01  7.75D-01
                    CP:  6.17D-01  5.70D-01
 E= -3007.37556562045     Delta-E=       -0.000000012162 Rises=F Damp=F
 DIIS: error= 1.36D-06 at cycle  18 NSaved=  18.
 NSaved=18 IEnMin=18 EnMin= -3007.37556562045     IErMin=18 ErrMin= 1.36D-06
 ErrMax= 1.36D-06  0.00D+00 EMaxC= 1.00D-01 BMatC= 3.03D-09 BMatP= 1.37D-08
 IDIUse=1 WtCom= 1.00D+00 WtEn= 0.00D+00
 Coeff-Com:  0.317D-05-0.175D-04 0.532D-05-0.433D-05 0.592D-05-0.566D-05
 Coeff-Com: -0.648D-05-0.579D-04-0.442D-03-0.195D-02-0.452D-02-0.888D-02
 Coeff-Com: -0.130D-01-0.204D-01 0.419D-01 0.145D+00 0.388D+00 0.475D+00
 Coeff:      0.317D-05-0.175D-04 0.532D-05-0.433D-05 0.592D-05-0.566D-05
 Coeff:     -0.648D-05-0.579D-04-0.442D-03-0.195D-02-0.452D-02-0.888D-02
 Coeff:     -0.130D-01-0.204D-01 0.419D-01 0.145D+00 0.388D+00 0.475D+00
 Gap=     0.044 Goal=   None    Shift=    0.000
 RMSDP=7.55D-08 MaxDP=1.21D-05 DE=-1.22D-08 OVMax= 2.15D-05

 Cycle  19  Pass 1  IDiag  1:
 RMSU=  3.70D-08    CP:  9.78D-01  1.14D+00  1.85D-01  1.32D-01  5.42D-01
                    CP:  3.61D-01  5.26D-01  4.82D-01  4.30D-01  5.18D-01
                    CP:  5.66D-01  4.83D-01  5.16D-01  6.83D-01  8.05D-01
                    CP:  6.24D-01  6.74D-01  5.11D-01
 E= -3007.37556562313     Delta-E=       -0.000000002685 Rises=F Damp=F
 DIIS: error= 7.47D-07 at cycle  19 NSaved=  19.
 NSaved=19 IEnMin=19 EnMin= -3007.37556562313     IErMin=19 ErrMin= 7.47D-07
 ErrMax= 7.47D-07  0.00D+00 EMaxC= 1.00D-01 BMatC= 6.15D-10 BMatP= 3.03D-09
 IDIUse=1 WtCom= 1.00D+00 WtEn= 0.00D+00
 Coeff-Com:  0.131D-05-0.630D-05 0.141D-05-0.801D-06 0.163D-05-0.417D-05
 Coeff-Com:  0.102D-04-0.280D-04-0.207D-03-0.109D-02-0.270D-02-0.529D-02
 Coeff-Com: -0.839D-02-0.185D-01 0.241D-02 0.573D-01 0.221D+00 0.371D+00
 Coeff-Com:  0.385D+00
 Coeff:      0.131D-05-0.630D-05 0.141D-05-0.801D-06 0.163D-05-0.417D-05
 Coeff:      0.102D-04-0.280D-04-0.207D-03-0.109D-02-0.270D-02-0.529D-02
 Coeff:     -0.839D-02-0.185D-01 0.241D-02 0.573D-01 0.221D+00 0.371D+00
 Coeff:      0.385D+00
 Gap=     0.044 Goal=   None    Shift=    0.000
 RMSDP=2.87D-08 MaxDP=4.07D-06 DE=-2.68D-09 OVMax= 6.33D-06

 Cycle  20  Pass 1  IDiag  1:
 RMSU=  1.51D-08    CP:  9.78D-01  1.14D+00  1.85D-01  1.32D-01  5.42D-01
                    CP:  3.61D-01  5.26D-01  4.82D-01  4.30D-01  5.18D-01
                    CP:  5.66D-01  4.83D-01  5.16D-01  6.84D-01  8.08D-01
                    CP:  6.28D-01  6.73D-01  5.95D-01  4.85D-01
 E= -3007.37556562360     Delta-E=       -0.000000000471 Rises=F Damp=F
 DIIS: error= 2.89D-07 at cycle  20 NSaved=  20.
 NSaved=20 IEnMin=20 EnMin= -3007.37556562360     IErMin=20 ErrMin= 2.89D-07
 ErrMax= 2.89D-07  0.00D+00 EMaxC= 1.00D-01 BMatC= 5.79D-11 BMatP= 6.15D-10
 IDIUse=1 WtCom= 1.00D+00 WtEn= 0.00D+00
 Coeff-Com:  0.105D-05-0.285D-05 0.164D-06-0.112D-06 0.244D-06-0.150D-05
 Coeff-Com:  0.700D-05-0.629D-05-0.502D-04-0.328D-03-0.879D-03-0.176D-02
 Coeff-Com: -0.318D-02-0.851D-02-0.637D-02 0.116D-01 0.752D-01 0.161D+00
 Coeff-Com:  0.265D+00 0.508D+00
 Coeff:      0.105D-05-0.285D-05 0.164D-06-0.112D-06 0.244D-06-0.150D-05
 Coeff:      0.700D-05-0.629D-05-0.502D-04-0.328D-03-0.879D-03-0.176D-02
 Coeff:     -0.318D-02-0.851D-02-0.637D-02 0.116D-01 0.752D-01 0.161D+00
 Coeff:      0.265D+00 0.508D+00
 Gap=     0.044 Goal=   None    Shift=    0.000
 RMSDP=1.01D-08 MaxDP=1.57D-06 DE=-4.71D-10 OVMax= 2.23D-06

 Cycle  21  Pass 1  IDiag  1:
 Restarting incremental Fock formation.
 E= -3007.37556562366     Delta-E=       -0.000000000058 Rises=F Damp=F
 DIIS: error= 1.32D-07 at cycle  21 NSaved=  20.
 NSaved=20 IEnMin=20 EnMin= -3007.37556562366     IErMin=20 ErrMin= 1.32D-07
 ErrMax= 1.32D-07  0.00D+00 EMaxC= 1.00D-01 BMatC= 1.35D-11 BMatP= 5.79D-11
 IDIUse=1 WtCom= 1.00D+00 WtEn= 0.00D+00
 Coeff-Com:  0.435D-06-0.121D-05 0.733D-08 0.802D-07-0.446D-06 0.328D-05
 Coeff-Com: -0.283D-05-0.139D-04-0.116D-03-0.334D-03-0.676D-03-0.139D-02
 Coeff-Com: -0.419D-02-0.532D-02 0.170D-02 0.303D-01 0.772D-01 0.149D+00
 Coeff-Com:  0.376D+00 0.378D+00
 Coeff:      0.435D-06-0.121D-05 0.733D-08 0.802D-07-0.446D-06 0.328D-05
 Coeff:     -0.283D-05-0.139D-04-0.116D-03-0.334D-03-0.676D-03-0.139D-02
 Coeff:     -0.419D-02-0.532D-02 0.170D-02 0.303D-01 0.772D-01 0.149D+00
 Coeff:      0.376D+00 0.378D+00
 Gap=     0.044 Goal=   None    Shift=    0.000
 RMSDP=3.90D-09 MaxDP=4.68D-07 DE=-5.82D-11 OVMax= 1.28D-06

 SCF Done:  E(RB-LYP) =  -3007.37556562     A.U. after   21 cycles
            NFock= 21  Conv=0.39D-08     -V/T= 2.0099
 KE= 2.977905190613D+03 PE=-2.571169336868D+04 EE= 1.036820944903D+04
 Leave Link  502 at Fri Apr 29 02:28:08 2022, MaxMem= 10066329600 cpu:            5528.2 elap:             231.2
 (Enter /sw/apps/gaussian-16.0/g16/l801.exe)
 DoSCS=F DFT=T ScalE2(SS,OS)=  1.000000  1.000000
 ExpMin= 3.36D-02 ExpMax= 4.95D+03 ExpMxC= 7.45D+02 IAcc=3 IRadAn=         5 AccDes= 0.00D+00
 HarFok:  IExCor=  205 AccDes= 0.00D+00 IRadAn=         5 IDoV=-2 UseB2=F ITyADJ=14
 ICtDFT= 12500011 ScaDFX=  1.000000  1.000000  1.000000  1.000000
 GSVD:  LWork=       -5460 too small for GESVD, short by       25550 words or       25550 for optimal perf.
 Largest valence mixing into a core orbital is  1.58D-04
 Largest core mixing into a valence orbital is  4.94D-05
 Range of M.O.s used for correlation:    71  1298
 NBasis=  1298 NAE=   246 NBE=   246 NFC=    70 NFV=     0
 NROrb=   1228 NOA=   176 NOB=   176 NVA=  1052 NVB=  1052

 **** Warning!!: The smallest alpha delta epsilon is  0.44480815D-01

 Leave Link  801 at Fri Apr 29 02:28:08 2022, MaxMem= 10066329600 cpu:               6.2 elap:               0.3
 (Enter /sw/apps/gaussian-16.0/g16/l914.exe)
 RHF ground state
 Two-electron integrals replicated using symmetry.
 MDV= 10066329600 DFT=T DoStab=F Mixed=F DoRPA=T DoScal=T NonHer=F
 Making orbital integer symmetry assigments:
 Orbital symmetries:
       Occupied  (A) (A) (A) (A) (A) (A) (A) (A) (A) (A) (A) (A)
                 (A) (A) (A) (A) (A) (A) (A) (A) (A) (A) (A) (A)
                 (A) (A) (A) (A) (A) (A) (A) (A) (A) (A) (A) (A)
                 (A) (A) (A) (A) (A) (A) (A) (A) (A) (A) (A) (A)
                 (A) (A) (A) (A) (A) (A) (A) (A) (A) (A) (A) (A)
                 (A) (A) (A) (A) (A) (A) (A) (A) (A) (A) (A) (A)
                 (A) (A) (A) (A) (A) (A) (A) (A) (A) (A) (A) (A)
                 (A) (A) (A) (A) (A) (A) (A) (A) (A) (A) (A) (A)
                 (A) (A) (A) (A) (A) (A) (A) (A) (A) (A) (A) (A)
                 (A) (A) (A) (A) (A) (A) (A) (A) (A) (A) (A) (A)
                 (A) (A) (A) (A) (A) (A) (A) (A) (A) (A) (A) (A)
                 (A) (A) (A) (A) (A) (A) (A) (A) (A) (A) (A) (A)
                 (A) (A) (A) (A) (A) (A) (A) (A) (A) (A) (A) (A)
                 (A) (A) (A) (A) (A) (A) (A) (A) (A) (A) (A) (A)
                 (A) (A) (A) (A) (A) (A) (A) (A) (A) (A) (A) (A)
                 (A) (A) (A) (A) (A) (A) (A) (A) (A) (A) (A) (A)
                 (A) (A) (A) (A) (A) (A) (A) (A) (A) (A) (A) (A)
                 (A) (A) (A) (A) (A) (A) (A) (A) (A) (A) (A) (A)
                 (A) (A) (A) (A) (A) (A) (A) (A) (A) (A) (A) (A)
                 (A) (A) (A) (A) (A) (A) (A) (A) (A) (A) (A) (A)
                 (A) (A) (A) (A) (A) (A)
       Virtual   (A) (A) (A) (A) (A) (A) (A) (A) (A) (A) (A) (A)
                 (A) (A) (A) (A) (A) (A) (A) (A) (A) (A) (A) (A)
                 (A) (A) (A) (A) (A) (A) (A) (A) (A) (A) (A) (A)
                 (A) (A) (A) (A) (A) (A) (A) (A) (A) (A) (A) (A)
                 (A) (A) (A) (A) (A) (A) (A) (A) (A) (A) (A) (A)
                 (A) (A) (A) (A) (A) (A) (A) (A) (A) (A) (A) (A)
                 (A) (A) (A) (A) (A) (A) (A) (A) (A) (A) (A) (A)
                 (A) (A) (A) (A) (A) (A) (A) (A) (A) (A) (A) (A)
                 (A) (A) (A) (A) (A) (A) (A) (A) (A) (A) (A) (A)
                 (A) (A) (A) (A) (A) (A) (A) (A) (A) (A) (A) (A)
                 (A) (A) (A) (A) (A) (A) (A) (A) (A) (A) (A) (A)
                 (A) (A) (A) (A) (A) (A) (A) (A) (A) (A) (A) (A)
                 (A) (A) (A) (A) (A) (A) (A) (A) (A) (A) (A) (A)
                 (A) (A) (A) (A) (A) (A) (A) (A) (A) (A) (A) (A)
                 (A) (A) (A) (A) (A) (A) (A) (A) (A) (A) (A) (A)
                 (A) (A) (A) (A) (A) (A) (A) (A) (A) (A) (A) (A)
                 (A) (A) (A) (A) (A) (A) (A) (A) (A) (A) (A) (A)
                 (A) (A) (A) (A) (A) (A) (A) (A) (A) (A) (A) (A)
                 (A) (A) (A) (A) (A) (A) (A) (A) (A) (A) (A) (A)
                 (A) (A) (A) (A) (A) (A) (A) (A) (A) (A) (A) (A)
                 (A) (A) (A) (A) (A) (A) (A) (A) (A) (A) (A) (A)
                 (A) (A) (A) (A) (A) (A) (A) (A) (A) (A) (A) (A)
                 (A) (A) (A) (A) (A) (A) (A) (A) (A) (A) (A) (A)
                 (A) (A) (A) (A) (A) (A) (A) (A) (A) (A) (A) (A)
                 (A) (A) (A) (A) (A) (A) (A) (A) (A) (A) (A) (A)
                 (A) (A) (A) (A) (A) (A) (A) (A) (A) (A) (A) (A)
                 (A) (A) (A) (A) (A) (A) (A) (A) (A) (A) (A) (A)
                 (A) (A) (A) (A) (A) (A) (A) (A) (A) (A) (A) (A)
                 (A) (A) (A) (A) (A) (A) (A) (A) (A) (A) (A) (A)
                 (A) (A) (A) (A) (A) (A) (A) (A) (A) (A) (A) (A)
                 (A) (A) (A) (A) (A) (A) (A) (A) (A) (A) (A) (A)
                 (A) (A) (A) (A) (A) (A) (A) (A) (A) (A) (A) (A)
                 (A) (A) (A) (A) (A) (A) (A) (A) (A) (A) (A) (A)
                 (A) (A) (A) (A) (A) (A) (A) (A) (A) (A) (A) (A)
                 (A) (A) (A) (A) (A) (A) (A) (A) (A) (A) (A) (A)
                 (A) (A) (A) (A) (A) (A) (A) (A) (A) (A) (A) (A)
                 (A) (A) (A) (A) (A) (A) (A) (A) (A) (A) (A) (A)
                 (A) (A) (A) (A) (A) (A) (A) (A) (A) (A) (A) (A)
                 (A) (A) (A) (A) (A) (A) (A) (A) (A) (A) (A) (A)
                 (A) (A) (A) (A) (A) (A) (A) (A) (A) (A) (A) (A)
                 (A) (A) (A) (A) (A) (A) (A) (A) (A) (A) (A) (A)
                 (A) (A) (A) (A) (A) (A) (A) (A) (A) (A) (A) (A)
                 (A) (A) (A) (A) (A) (A) (A) (A) (A) (A) (A) (A)
                 (A) (A) (A) (A) (A) (A) (A) (A) (A) (A) (A) (A)
                 (A) (A) (A) (A) (A) (A) (A) (A) (A) (A) (A) (A)
                 (A) (A) (A) (A) (A) (A) (A) (A) (A) (A) (A) (A)
                 (A) (A) (A) (A) (A) (A) (A) (A) (A) (A) (A) (A)
                 (A) (A) (A) (A) (A) (A) (A) (A) (A) (A) (A) (A)
                 (A) (A) (A) (A) (A) (A) (A) (A) (A) (A) (A) (A)
                 (A) (A) (A) (A) (A) (A) (A) (A) (A) (A) (A) (A)
                 (A) (A) (A) (A) (A) (A) (A) (A) (A) (A) (A) (A)
                 (A) (A) (A) (A) (A) (A) (A) (A) (A) (A) (A) (A)
                 (A) (A) (A) (A) (A) (A) (A) (A) (A) (A) (A) (A)
                 (A) (A) (A) (A) (A) (A) (A) (A) (A) (A) (A) (A)
                 (A) (A) (A) (A) (A) (A) (A) (A) (A) (A) (A) (A)
                 (A) (A) (A) (A) (A) (A) (A) (A) (A) (A) (A) (A)
                 (A) (A) (A) (A) (A) (A) (A) (A) (A) (A) (A) (A)
                 (A) (A) (A) (A) (A) (A) (A) (A) (A) (A) (A) (A)
                 (A) (A) (A) (A) (A) (A) (A) (A) (A) (A) (A) (A)
                 (A) (A) (A) (A) (A) (A) (A) (A) (A) (A) (A) (A)
                 (A) (A) (A) (A) (A) (A) (A) (A) (A) (A) (A) (A)
                 (A) (A) (A) (A) (A) (A) (A) (A) (A) (A) (A) (A)
                 (A) (A) (A) (A) (A) (A) (A) (A) (A) (A) (A) (A)
                 (A) (A) (A) (A) (A) (A) (A) (A) (A) (A) (A) (A)
                 (A) (A) (A) (A) (A) (A) (A) (A) (A) (A) (A) (A)
                 (A) (A) (A) (A) (A) (A) (A) (A) (A) (A) (A) (A)
                 (A) (A) (A) (A) (A) (A) (A) (A) (A) (A) (A) (A)
                 (A) (A) (A) (A) (A) (A) (A) (A) (A) (A) (A) (A)
                 (A) (A) (A) (A) (A) (A) (A) (A) (A) (A) (A) (A)
                 (A) (A) (A) (A) (A) (A) (A) (A) (A) (A) (A) (A)
                 (A) (A) (A) (A) (A) (A) (A) (A) (A) (A) (A) (A)
                 (A) (A) (A) (A) (A) (A) (A) (A) (A) (A) (A) (A)
                 (A) (A) (A) (A) (A) (A) (A) (A) (A) (A) (A) (A)
                 (A) (A) (A) (A) (A) (A) (A) (A) (A) (A) (A) (A)
                 (A) (A) (A) (A) (A) (A) (A) (A) (A) (A) (A) (A)
                 (A) (A) (A) (A) (A) (A) (A) (A) (A) (A) (A) (A)
                 (A) (A) (A) (A) (A) (A) (A) (A) (A) (A) (A) (A)
                 (A) (A) (A) (A) (A) (A) (A) (A) (A) (A) (A) (A)
                 (A) (A) (A) (A) (A) (A) (A) (A) (A) (A) (A) (A)
                 (A) (A) (A) (A) (A) (A) (A) (A) (A) (A) (A) (A)
                 (A) (A) (A) (A) (A) (A) (A) (A) (A) (A) (A) (A)
                 (A) (A) (A) (A) (A) (A) (A) (A) (A) (A) (A) (A)
                 (A) (A) (A) (A) (A) (A) (A) (A) (A) (A) (A) (A)
                 (A) (A) (A) (A) (A) (A) (A) (A) (A) (A) (A) (A)
                 (A) (A) (A) (A) (A) (A) (A) (A) (A) (A) (A) (A)
                 (A) (A) (A) (A) (A) (A) (A) (A) (A) (A) (A) (A)
                 (A) (A) (A) (A) (A) (A) (A) (A) (A) (A) (A) (A)
                 (A) (A) (A) (A) (A) (A) (A) (A)
    20 initial guesses have been made.
 Convergence on wavefunction:    0.001000000000000
 Davidson Disk Diagonalization:  ConvIn= 1.00D-03 SkipCon=T Conv= 1.00D-03.
 Max sub-space:  2000 roots to seek:    20 dimension of matrix:       370304
 Iteration     1 Dimension    20 NMult     0 NNew     20
 CISAX will form    20 AO SS matrices at one time.
 NMat=    20 NSing=    20 JSym2X= 0.
 FoFJK:  IHMeth= 1 ICntrl=     500 DoSepK=F KAlg= 0 I1Cent=           0 FoldK=F
 IRaf= 510000000 NMat=      20 IRICut=       1 DoRegI=T DoRafI=F ISym2E= 0 IDoP0=0 IntGTp=1.
 FoFCou: FMM=T IPFlag=           0 FMFlag=      100000 FMFlg1=        2001
         NFxFlg=           0 DoJE=F BraDBF=F KetDBF=F FulRan=T
         wScrn=  0.000000 ICntrl=       500 IOpCl=  0 I1Cent=           0 NGrid=           0
         NMat0=   20 NMatS0=     20 NMatT0=    0 NMatD0=   20 NMtDS0=    0 NMtDT0=    0
 Symmetry not used in FoFCou.
 FMM levels:  10  Number of levels for PrismC:   9
 New state      1 was old state      3
 New state      2 was old state      4
 New state      3 was old state      1
 New state      4 was old state      2
 New state      5 was old state      6
 Excitation Energies [eV] at current iteration:
 Root      1 :     1.938564858110856
 Root      2 :     1.947566597995559
 Root      3 :     2.160734981848610
 Root      4 :     2.317466680130181
 Root      5 :     2.376971385239470
 Root      6 :     2.750321445544339
 Root      7 :     2.791122333992206
 Root      8 :     2.883451736692362
 Root      9 :     2.983456041866803
 Root     10 :     3.077141575921801
 Root     11 :     3.205986886012372
 Root     12 :     3.234781442909626
 Root     13 :     3.250150750591730
 Root     14 :     3.307022860398232
 Root     15 :     3.310610137253982
 Root     16 :     3.485437124749069
 Root     17 :     3.941928443876087
 Root     18 :     4.048805322913545
 Root     19 :     4.356846848370309
 Root     20 :     4.407243048547173
 Iteration     2 Dimension    40 NMult    20 NNew     20
 CISAX will form    20 AO SS matrices at one time.
 NMat=    20 NSing=    20 JSym2X= 0.
 Root      1 not converged, maximum delta is    0.439525116099371
 New state      2 was old state      3
 Root      2 not converged, maximum delta is    0.492015520843748
 New state      3 was old state      2
 Root      3 not converged, maximum delta is    0.167327529573584
 Root      4 not converged, maximum delta is    0.103611821218302
 Root      5 not converged, maximum delta is    0.056073831755144
 Excitation Energies [eV] at current iteration:
 Root      1 :     1.913531465417521   Change is   -0.025033392693335
 Root      2 :     1.929923065113789   Change is   -0.230811916734821
 Root      3 :     1.939677367156834   Change is   -0.007889230838726
 Root      4 :     2.082096497450486   Change is   -0.235370182679695
 Root      5 :     2.376038978083097   Change is   -0.000932407156373
 Root      6 :     2.560526428629166   Change is   -0.322925308063196
 Root      7 :     2.707127022074380   Change is   -0.370014553847420
 Root      8 :     2.757306745238604   Change is    0.006985299694265
 Root      9 :     2.791406964508413   Change is    0.000284630516207
 Root     10 :     2.881208983651069   Change is   -0.102247058215733
 Root     11 :     2.997928990721307   Change is   -0.208057895291065
 Root     12 :     3.196458858700593   Change is   -0.288978266048476
 Root     13 :     3.234779138913131   Change is   -0.000002303996495
 Root     14 :     3.236165828631668   Change is   -0.013984921960061
 Root     15 :     3.259977180210078   Change is   -0.050632957043905
 Root     16 :     3.298961917159952   Change is   -0.008060943238280
 Root     17 :     3.511177538777865   Change is   -0.430750905098222
 Root     18 :     3.657470892826542   Change is   -0.391334430087004
 Root     19 :     3.946675131570914   Change is   -0.410171716799395
 Root     20 :     4.036467013717001   Change is   -0.370776034830172
 Iteration     3 Dimension    45 NMult    40 NNew      5
 CISAX will form     5 AO SS matrices at one time.
 NMat=     5 NSing=     5 JSym2X= 0.
 Root      1 not converged, maximum delta is    0.307107580542175
 Root      2 not converged, maximum delta is    0.320997394502589
 Root      3 not converged, maximum delta is    0.137262595236287
 Root      4 not converged, maximum delta is    0.061789097634020
 Root      5 not converged, maximum delta is    0.001641366668460
 Excitation Energies [eV] at current iteration:
 Root      1 :     1.873834435876226   Change is   -0.039697029541295
 Root      2 :     1.916623382464298   Change is   -0.013299682649491
 Root      3 :     1.936192853922164   Change is   -0.003484513234670
 Root      4 :     2.041935347029285   Change is   -0.040161150421200
 Root      5 :     2.375979433017617   Change is   -0.000059545065480
 Iteration     4 Dimension    50 NMult    45 NNew      5
 CISAX will form     5 AO SS matrices at one time.
 NMat=     5 NSing=     5 JSym2X= 0.
 Root      1 not converged, maximum delta is    0.025227149082917
 Root      2 not converged, maximum delta is    0.046724181010333
 Root      3 not converged, maximum delta is    0.045161689449623
 Root      4 not converged, maximum delta is    0.039697804635704
 Root      5 has converged.
 Excitation Energies [eV] at current iteration:
 Root      1 :     1.857528605689979   Change is   -0.016305830186247
 Root      2 :     1.912381980390862   Change is   -0.004241402073435
 Root      3 :     1.934865489673487   Change is   -0.001327364248676
 Root      4 :     2.025718121364595   Change is   -0.016217225664690
 Root      5 :     2.375960213314110   Change is   -0.000019219703508
 Iteration     5 Dimension    54 NMult    50 NNew      4
 CISAX will form     4 AO SS matrices at one time.
 NMat=     4 NSing=     4 JSym2X= 0.
 Root      1 not converged, maximum delta is    0.003932802325960
 Root      2 not converged, maximum delta is    0.014098098942351
 Root      3 not converged, maximum delta is    0.012140734171196
 Root      4 not converged, maximum delta is    0.013439985567611
 Root      5 has converged.
 Excitation Energies [eV] at current iteration:
 Root      1 :     1.852542357291018   Change is   -0.004986248398961
 Root      2 :     1.910870468445790   Change is   -0.001511511945073
 Root      3 :     1.934432389996998   Change is   -0.000433099676489
 Root      4 :     2.020834877338948   Change is   -0.004883244025647
 Root      5 :     2.375958057449421   Change is   -0.000002155864689
 Iteration     6 Dimension    58 NMult    54 NNew      4
 CISAX will form     4 AO SS matrices at one time.
 NMat=     4 NSing=     4 JSym2X= 0.
 Root      1 not converged, maximum delta is    0.001949890350973
 Root      2 not converged, maximum delta is    0.005696141521369
 Root      3 not converged, maximum delta is    0.004459306763338
 Root      4 not converged, maximum delta is    0.005606433972384
 Root      5 has converged.
 Excitation Energies [eV] at current iteration:
 Root      1 :     1.850324654858457   Change is   -0.002217702432560
 Root      2 :     1.910101081539229   Change is   -0.000769386906560
 Root      3 :     1.934234399793463   Change is   -0.000197990203534
 Root      4 :     2.018934162120031   Change is   -0.001900715218917
 Root      5 :     2.375957179957215   Change is   -0.000000877492206
 Iteration     7 Dimension    62 NMult    58 NNew      4
 CISAX will form     4 AO SS matrices at one time.
 NMat=     4 NSing=     4 JSym2X= 0.
 Root      1 not converged, maximum delta is    0.001379727730963
 Root      2 not converged, maximum delta is    0.002174092043806
 Root      3 not converged, maximum delta is    0.001709727686182
 Root      4 not converged, maximum delta is    0.002645392773319
 Root      5 has converged.
 Excitation Energies [eV] at current iteration:
 Root      1 :     1.849354887769847   Change is   -0.000969767088610
 Root      2 :     1.909757851747647   Change is   -0.000343229791582
 Root      3 :     1.934138191091789   Change is   -0.000096208701675
 Root      4 :     2.018194141799747   Change is   -0.000740020320284
 Root      5 :     2.375957030756634   Change is   -0.000000149200581
 Iteration     8 Dimension    66 NMult    62 NNew      4
 CISAX will form     4 AO SS matrices at one time.
 NMat=     4 NSing=     4 JSym2X= 0.
 Root      1 not converged, maximum delta is    0.001000398747990
 Root      2 not converged, maximum delta is    0.001005967278525
 Root      3 has converged.
 Root      4 not converged, maximum delta is    0.001553406061452
 Root      5 has converged.
 Excitation Energies [eV] at current iteration:
 Root      1 :     1.848942465868503   Change is   -0.000412421901343
 Root      2 :     1.909600851723310   Change is   -0.000157000024337
 Root      3 :     1.934096114806776   Change is   -0.000042076285012
 Root      4 :     2.017872333402210   Change is   -0.000321808397537
 Root      5 :     2.375956865057187   Change is   -0.000000165699447
 Iteration     9 Dimension    69 NMult    66 NNew      3
 CISAX will form     3 AO SS matrices at one time.
 NMat=     3 NSing=     3 JSym2X= 0.
 Root      1 has converged.
 Root      2 has converged.
 Root      3 has converged.
 Root      4 has converged.
 Root      5 has converged.
 Excitation Energies [eV] at current iteration:
 Root      1 :     1.848763211507781   Change is   -0.000179254360722
 Root      2 :     1.909528840467579   Change is   -0.000072011255731
 Root      3 :     1.934088724416029   Change is   -0.000007390390747
 Root      4 :     2.017723403565890   Change is   -0.000148929836320
[...]
 Alpha virt. eigenvalues --    1.09662   1.11590   1.11643   1.11964   1.12015
 Alpha virt. eigenvalues --    1.12463   1.12850   1.13121   1.13586   1.14062
 Alpha virt. eigenvalues --    1.14363   1.14564   1.14698   1.15490   1.16068
 Alpha virt. eigenvalues --    1.16494   1.16702   1.17482   1.17959   1.18799
 Alpha virt. eigenvalues --    1.19243   1.19864   1.20814   1.21030   1.21327
 Alpha virt. eigenvalues --    1.21941   1.22258   1.22564   1.23292   1.24296
 Alpha virt. eigenvalues --    1.24620   1.25306   1.25398   1.25645   1.25976
 Alpha virt. eigenvalues --    1.26195   1.26737   1.27110   1.27758   1.27991
 Alpha virt. eigenvalues --    1.28536   1.28887   1.29255   1.30338   1.30879
 Alpha virt. eigenvalues --    1.30945   1.31525   1.31681   1.32090   1.32450
 Alpha virt. eigenvalues --    1.32699   1.33127   1.33657   1.33692   1.34114
 Alpha virt. eigenvalues --    1.34417   1.34669   1.35270   1.35328   1.35456
 Alpha virt. eigenvalues --    1.35618   1.36377   1.37014   1.37332   1.37442
 Alpha virt. eigenvalues --    1.37933   1.38052   1.38519   1.38608   1.39495
 Alpha virt. eigenvalues --    1.40085   1.41689   1.41855   1.42586   1.42731
 Alpha virt. eigenvalues --    1.43119   1.43223   1.43336   1.43740   1.43812
 Alpha virt. eigenvalues --    1.44175   1.44700   1.44874   1.45132   1.45147
 Alpha virt. eigenvalues --    1.46190   1.46213   1.46433   1.46772   1.47028
 Alpha virt. eigenvalues --    1.47220   1.48009   1.48025   1.48307   1.48552
 Alpha virt. eigenvalues --    1.49017   1.49110   1.49415   1.49753   1.49863
 Alpha virt. eigenvalues --    1.50036   1.50309   1.50457   1.50612   1.51197
 Alpha virt. eigenvalues --    1.51463   1.51970   1.52078   1.52231   1.52642
 Alpha virt. eigenvalues --    1.52677   1.52971   1.53424   1.53922   1.54209
 Alpha virt. eigenvalues --    1.54439   1.54764   1.55480   1.55647   1.56523
 Alpha virt. eigenvalues --    1.56709   1.57684   1.58330   1.58779   1.59152
 Alpha virt. eigenvalues --    1.59564   1.59881   1.60130   1.60246   1.60771
 Alpha virt. eigenvalues --    1.60872   1.61995   1.62352   1.62435   1.62933
 Alpha virt. eigenvalues --    1.63109   1.63455   1.63862   1.64304   1.64743
 Alpha virt. eigenvalues --    1.64936   1.64970   1.65251   1.65466   1.65756
 Alpha virt. eigenvalues --    1.66539   1.66648   1.67228   1.67567   1.67904
 Alpha virt. eigenvalues --    1.68061   1.68159   1.68419   1.68599   1.68646
 Alpha virt. eigenvalues --    1.68968   1.69099   1.69532   1.69657   1.69739
 Alpha virt. eigenvalues --    1.69975   1.70068   1.70387   1.70526   1.70531
 Alpha virt. eigenvalues --    1.70667   1.70866   1.71136   1.71292   1.71434
 Alpha virt. eigenvalues --    1.71664   1.71853   1.72064   1.72177   1.72301
 Alpha virt. eigenvalues --    1.72624   1.72807   1.72975   1.73179   1.73646
 Alpha virt. eigenvalues --    1.73778   1.73848   1.73952   1.74042   1.74464
 Alpha virt. eigenvalues --    1.74596   1.74809   1.75077   1.75195   1.75317
 Alpha virt. eigenvalues --    1.75433   1.75672   1.75820   1.75922   1.76347
 Alpha virt. eigenvalues --    1.76604   1.76977   1.77104   1.77277   1.77317
 Alpha virt. eigenvalues --    1.77587   1.77689   1.77891   1.77986   1.78160
 Alpha virt. eigenvalues --    1.78381   1.78425   1.78515   1.79099   1.79434
 Alpha virt. eigenvalues --    1.79469   1.79875   1.79976   1.80353   1.80412
 Alpha virt. eigenvalues --    1.80717   1.81166   1.81292   1.81674   1.81958
 Alpha virt. eigenvalues --    1.82265   1.82466   1.82623   1.82901   1.83007
 Alpha virt. eigenvalues --    1.83155   1.83374   1.83525   1.83883   1.83979
 Alpha virt. eigenvalues --    1.84111   1.84569   1.84847   1.85098   1.85222
 Alpha virt. eigenvalues --    1.85469   1.85644   1.85999   1.86153   1.86238
 Alpha virt. eigenvalues --    1.86683   1.86875   1.87251   1.87438   1.87784
 Alpha virt. eigenvalues --    1.87875   1.87935   1.88202   1.88608   1.88935
 Alpha virt. eigenvalues --    1.89276   1.89667   1.89896   1.90796   1.90931
 Alpha virt. eigenvalues --    1.91348   1.91693   1.92152   1.92695   1.92961
 Alpha virt. eigenvalues --    1.92985   1.93042   1.93305   1.93461   1.93989
 Alpha virt. eigenvalues --    1.94472   1.94599   1.94890   1.95495   1.95609
 Alpha virt. eigenvalues --    1.95650   1.95879   1.96306   1.96868   1.96955
 Alpha virt. eigenvalues --    1.97185   1.97255   1.97558   1.97647   1.98405
 Alpha virt. eigenvalues --    1.98598   1.98777   1.99275   1.99646   1.99741
 Alpha virt. eigenvalues --    2.00092   2.00572   2.00904   2.01120   2.01508
 Alpha virt. eigenvalues --    2.01889   2.02061   2.02376   2.02479   2.02976
 Alpha virt. eigenvalues --    2.03233   2.03646   2.03995   2.04169   2.04661
 Alpha virt. eigenvalues --    2.04831   2.04915   2.05221   2.05590   2.05680
 Alpha virt. eigenvalues --    2.06019   2.06153   2.06589   2.06968   2.07282
 Alpha virt. eigenvalues --    2.07499   2.08118   2.08148   2.08615   2.09115
 Alpha virt. eigenvalues --    2.09598   2.09644   2.10232   2.10906   2.11192
 Alpha virt. eigenvalues --    2.11447   2.11784   2.12489   2.13091   2.13515
 Alpha virt. eigenvalues --    2.14297   2.14607   2.14852   2.15463   2.16010
 Alpha virt. eigenvalues --    2.16606   2.16667   2.16717   2.16973   2.17050
 Alpha virt. eigenvalues --    2.17494   2.17734   2.17999   2.18387   2.18535
 Alpha virt. eigenvalues --    2.18772   2.19362   2.19627   2.20209   2.20953
 Alpha virt. eigenvalues --    2.21935   2.22178   2.22355   2.22800   2.23229
 Alpha virt. eigenvalues --    2.23360   2.23697   2.23936   2.24344   2.24910
 Alpha virt. eigenvalues --    2.25245   2.25820   2.25910   2.25994   2.26400
 Alpha virt. eigenvalues --    2.26594   2.27269   2.27565   2.27630   2.28242
 Alpha virt. eigenvalues --    2.28661   2.28697   2.29129   2.29579   2.29930
 Alpha virt. eigenvalues --    2.30316   2.30535   2.30626   2.31171   2.31354
 Alpha virt. eigenvalues --    2.31905   2.32325   2.32397   2.33305   2.33469
 Alpha virt. eigenvalues --    2.33931   2.34208   2.34282   2.34544   2.35384
 Alpha virt. eigenvalues --    2.35592   2.35731   2.35923   2.36283   2.36870
 Alpha virt. eigenvalues --    2.37395   2.37869   2.37896   2.38406   2.38623
 Alpha virt. eigenvalues --    2.38705   2.38868   2.39901   2.40247   2.41398
 Alpha virt. eigenvalues --    2.41496   2.42025   2.42379   2.43206   2.43394
 Alpha virt. eigenvalues --    2.43551   2.44138   2.44606   2.44771   2.45232
 Alpha virt. eigenvalues --    2.46299   2.46411   2.46616   2.47556   2.47687
 Alpha virt. eigenvalues --    2.48601   2.49275   2.49927   2.50295   2.50442
 Alpha virt. eigenvalues --    2.50851   2.50951   2.51166   2.51754   2.52014
 Alpha virt. eigenvalues --    2.52105   2.52154   2.52939   2.53666   2.53706
 Alpha virt. eigenvalues --    2.53855   2.54345   2.54500   2.54524   2.55444
 Alpha virt. eigenvalues --    2.55548   2.55938   2.56515   2.56752   2.56984
 Alpha virt. eigenvalues --    2.57357   2.57795   2.58156   2.58318   2.58887
 Alpha virt. eigenvalues --    2.60000   2.60241   2.61051   2.61357   2.61680
 Alpha virt. eigenvalues --    2.62310   2.62608   2.62866   2.62997   2.63680
 Alpha virt. eigenvalues --    2.64201   2.64489   2.64632   2.64969   2.65051
 Alpha virt. eigenvalues --    2.65816   2.66497   2.66528   2.66837   2.67165
 Alpha virt. eigenvalues --    2.67708   2.67893   2.68246   2.68626   2.68780
 Alpha virt. eigenvalues --    2.69508   2.69995   2.70175   2.70427   2.71544
 Alpha virt. eigenvalues --    2.71697   2.71939   2.72533   2.72829   2.73487
 Alpha virt. eigenvalues --    2.74324   2.74481   2.75099   2.75506   2.76047
 Alpha virt. eigenvalues --    2.77333   2.77581   2.78613   2.79351   2.80218
 Alpha virt. eigenvalues --    2.80316   2.80674   2.80814   2.81225   2.81420
 Alpha virt. eigenvalues --    2.82005   2.82147   2.82202   2.82494   2.82892
 Alpha virt. eigenvalues --    2.83473   2.83487   2.83552   2.84111   2.84415
 Alpha virt. eigenvalues --    2.84794   2.85023   2.85163   2.85368   2.85765
 Alpha virt. eigenvalues --    2.86023   2.86455   2.86912   2.87144   2.87665
 Alpha virt. eigenvalues --    2.87817   2.88167   2.88231   2.88405   2.88429
 Alpha virt. eigenvalues --    2.88558   2.89187   2.89288   2.89719   2.89806
 Alpha virt. eigenvalues --    2.89943   2.90038   2.90418   2.91018   2.91343
 Alpha virt. eigenvalues --    2.91745   2.91976   2.92354   2.92588   2.92811
 Alpha virt. eigenvalues --    2.92888   2.93171   2.94261   2.94317   2.94622
 Alpha virt. eigenvalues --    2.94704   2.95602   2.95833   2.96158   2.97199
 Alpha virt. eigenvalues --    2.97336   2.97709   2.97856   2.98418   2.98820
 Alpha virt. eigenvalues --    2.99150   3.00437   3.00996   3.02355   3.02614
 Alpha virt. eigenvalues --    3.04031   3.04190   3.04335   3.05050   3.06172
 Alpha virt. eigenvalues --    3.06453   3.06618   3.07676   3.08078   3.08694
 Alpha virt. eigenvalues --    3.09311   3.10265   3.11626   3.13736   3.15947
 Alpha virt. eigenvalues --    3.16085   3.16671   3.25478   3.27440   3.29250
 Alpha virt. eigenvalues --    3.30310   3.34203   3.36245   3.41536   3.42315
 Alpha virt. eigenvalues --    3.46201   3.50223   3.52611   3.53312   3.53409
 Alpha virt. eigenvalues --    3.55827   3.57571
          Condensed to atoms (all electrons):
 Mulliken charges:
               1
     1  Mg   0.690354
     2  C    0.044324
     3  C   -0.052211
     4  C   -0.070345
     5  C   -0.097738
     6  N   -0.177867
     7  C   -0.123354
     8  C    0.084239
     9  C   -0.106190
    10  C    0.040634
    11  C    0.135083
    12  C    0.147028
    13  C    0.157392
    14  C    0.032898
    15  O   -0.176868
    16  O   -0.301520
    17  N   -0.230514
    18  C    0.100827
    19  C   -0.126508
    20  C    0.028365
    21  C    0.073472
    22  C    0.153648
    23  C   -0.050914
    24  O   -0.161283
    25  C    0.109863
    26  N   -0.198951
    27  C    0.039028
    28  C   -0.002112
    29  C    0.021829
    30  C    0.000029
    31  C    0.161155
    32  C    0.080726
    33  C    0.041156
    34  N   -0.278796
    35  C    0.168710
    36  C   -0.180354
    37  C    0.114683
    38  C    0.057200
    39  C    0.183998
    40  C   -0.078758
    41  O   -0.154549
    42  C    0.065846
    43  C    0.124887
    44  O   -0.196067
    45  O   -0.255929
    46  C    0.210811
    47  C    0.315523
    48  C   -0.059203
    49  C   -0.164965
    50  C    0.121818
    51  C    0.165453
    52  C    0.067319
    53  C    0.052947
    54  C   -0.013110
    55  C    0.079573
    56  C    0.040455
    57  C    0.068352
    58  C    0.135985
    59  C   -0.060993
    60  C    0.120234
    61  C    0.052742
    62  C    0.070682
    63  C    0.068015
    64  C   -0.118843
    65  C    0.119854
    66  C    0.122510
    67  H   -0.058893
    68  H   -0.040628
    69  H   -0.073573
    70  H   -0.021437
    71  H   -0.017713
    72  H    0.002281
    73  H   -0.010288
    74  H   -0.011530
    75  H   -0.013639
    76  H   -0.011518
    77  H    0.002024
    78  H   -0.010882
    79  H   -0.024728
    80  H    0.010157
    81  H   -0.013076
    82  H    0.006183
    83  H   -0.002957
    84  H    0.020664
    85  H   -0.019823
    86  H   -0.023456
    87  H   -0.007183
    88  H   -0.010381
    89  H   -0.001333
    90  H   -0.016906
    91  H   -0.016867
    92  H    0.005148
    93  H   -0.013397
    94  H   -0.000992
    95  H   -0.015950
    96  H    0.001841
    97  H    0.015014
    98  H    0.002162
    99  H    0.014809
   100  H    0.018243
   101  H    0.016486
   102  H   -0.021290
   103  H    0.011958
   104  H   -0.042981
   105  H    0.011860
   106  H   -0.005510
   107  H   -0.010978
   108  H   -0.044366
   109  H   -0.016387
   110  H   -0.020698
   111  H   -0.023158
   112  H   -0.030001
   113  H   -0.019360
   114  H   -0.040069
   115  H   -0.001655
   116  H   -0.002568
   117  H   -0.016205
   118  H   -0.050469
   119  H   -0.052524
   120  H   -0.025388
   121  H   -0.018187
   122  H   -0.041793
   123  H   -0.033375
   124  H   -0.042988
   125  H   -0.020706
   126  H   -0.027306
   127  H   -0.011447
   128  H   -0.028024
   129  H   -0.030262
   130  H   -0.024293
   131  H   -0.041724
   132  H   -0.032222
   133  H   -0.030234
   134  H   -0.030942
   135  H   -0.011459
   136  H   -0.027739
   137  H   -0.014328
   138  H   -0.016558
   139  H   -0.010935
   140  H   -0.015256
 Sum of Mulliken charges =  -0.00000
 Mulliken charges with hydrogens summed into heavy atoms:
               1
     1  Mg   0.690354
     2  C    0.044324
     3  C   -0.111103
     4  C   -0.110973
     5  C   -0.171311
     6  N   -0.177867
     7  C   -0.123354
     8  C    0.062802
     9  C   -0.123903
    10  C    0.040634
    11  C    0.115546
    12  C    0.121870
    13  C    0.148534
    14  C    0.032898
    15  O   -0.176868
    16  O   -0.301520
    17  N   -0.230514
    18  C    0.100827
    19  C   -0.126508
    20  C    0.028365
    21  C    0.073472
    22  C    0.126001
    23  C   -0.050914
    24  O   -0.161283
    25  C    0.133753
    26  N   -0.198951
    27  C    0.039028
    28  C   -0.021935
    29  C   -0.001627
    30  C    0.000029
    31  C    0.142259
    32  C    0.046953
    33  C    0.031915
    34  N   -0.278796
    35  C    0.168710
    36  C   -0.180354
    37  C    0.114683
    38  C    0.057200
    39  C    0.184903
    40  C   -0.078758
    41  O   -0.154549
    42  C    0.068008
    43  C    0.124887
    44  O   -0.196067
    45  O   -0.255929
    46  C    0.260348
    47  C    0.306191
    48  C   -0.102184
    49  C   -0.164965
    50  C    0.117190
    51  C    0.104699
    52  C    0.023463
    53  C    0.003586
    54  C   -0.053178
    55  C    0.059145
    56  C   -0.062538
    57  C    0.024777
    58  C    0.060817
    59  C   -0.103981
    60  C    0.060775
    61  C   -0.005544
    62  C    0.004665
    63  C    0.005560
    64  C   -0.149785
    65  C    0.066328
    66  C    0.079761
 Electronic spatial extent (au):  <R**2>=         140282.6956
 Charge=             -0.0000 electrons
 Dipole moment (field-independent basis, Debye):
    X=             -2.8962    Y=              3.3237    Z=              0.5995  Tot=              4.4491
 Quadrupole moment (field-independent basis, Debye-Ang):
   XX=           -382.4187   YY=           -428.4983   ZZ=           -410.2397
   XY=              0.6722   XZ=             26.8298   YZ=              5.1754
 Traceless Quadrupole moment (field-independent basis, Debye-Ang):
   XX=             24.6335   YY=            -21.4461   ZZ=             -3.1875
   XY=              0.6722   XZ=             26.8298   YZ=              5.1754
 Octapole moment (field-independent basis, Debye-Ang**2):
  XXX=            253.3393  YYY=            111.8949  ZZZ=            -25.7991  XYY=           -178.6552
  XXY=           -299.9004  XXZ=            192.1374  XZZ=             33.1917  YZZ=              3.5782
  YYZ=            -45.0083  XYZ=            -21.9682
 Hexadecapole moment (field-independent basis, Debye-Ang**3):
 XXXX=        -166711.3888 YYYY=         -20931.7614 ZZZZ=          -6189.8710 XXXY=          -2591.0832
 XXXZ=           1736.6425 YYYX=            480.1686 YYYZ=            104.3653 ZZZX=            261.7258
 ZZZY=             42.9645 XXYY=         -33299.3961 XXZZ=         -29391.1318 YYZZ=          -4378.1594
 XXYZ=           -222.4949 YYXZ=             97.9892 ZZXY=            216.8332
 N-N= 9.358203163412D+03 E-N=-2.571169337562D+04  KE= 2.977905190613D+03
 Leave Link  601 at Fri Apr 29 02:36:18 2022, MaxMem= 10066329600 cpu:               9.6 elap:               0.5
 (Enter /sw/apps/gaussian-16.0/g16/l9999.exe)
 1\1\GINC-BP1-COMPUTE159\SP\RBLYP TD-FC\def2SVP\C55H74Mg1N4O6\OF15641\2
 9-Apr-2022\0\\#p blyp/Def2SVP td=(nstates=5)\\step_1801_chromophore_25
  TDDFT with blyp functional\\0,1\Mg,0,-2.479,34.491,26.742\C,0,-3.817,
 32.887,29.506\C,0,-1.027,36.836,28.812\C,0,-1.558,36.307,24.046\C,0,-3
 .928,32.189,24.678\N,0,-2.532,34.86,28.953\C,0,-2.944,33.931,29.828\C,
 0,-2.436,34.293,31.257\C,0,-1.618,35.686,31.037\C,0,-1.775,35.852,29.4
 84\C,0,-2.011,36.966,31.843\C,0,-1.61,33.185,32.09\C,0,-2.256,32.567,3
 3.31\C,0,-1.364,32.287,34.47\O,0,-0.882,31.206,34.699\O,0,-1.363,33.40
 7,35.289\N,0,-1.455,36.32,26.51\C,0,-0.84,37.075,27.443\C,0,-0.177,38.
 164,26.806\C,0,-0.295,37.984,25.368\C,0,-1.166,36.843,25.311\C,0,0.692
 ,39.123,27.551\C,0,0.267,38.846,24.211\O,0,0.104,38.651,23.011\C,0,1.1
 36,40.109,24.499\N,0,-2.822,34.353,24.637\C,0,-2.323,35.199,23.715\C,0
 ,-2.358,34.634,22.269\C,0,-2.998,33.228,22.507\C,0,-3.232,33.221,24.03
 1\C,0,-3.088,35.315,21.126\C,0,-2.192,32.028,21.919\C,0,-0.774,31.792,
 22.522\N,0,-3.673,32.852,26.964\C,0,-4.192,31.976,26.034\C,0,-4.847,30
 .907,26.69\C,0,-4.783,31.196,28.092\C,0,-4.086,32.43,28.173\C,0,-5.503
 ,29.726,26.127\C,0,-5.1,30.83,29.469\O,0,-5.778,29.857,29.839\C,0,-4.5
 03,31.921,30.444\C,0,-5.668,32.554,31.219\O,0,-6.537,33.352,30.835\O,0
 ,-5.535,32.16,32.506\C,0,-6.528,32.754,33.441\C,0,-0.632,33.118,36.575
 \C,0,-1.322,34.004,37.592\C,0,-1.896,33.639,38.747\C,0,-2.255,32.182,3
 9.059\C,0,-2.323,34.627,39.766\C,0,-1.474,35.822,40.184\C,0,-1.199,35.
 903,41.775\C,0,0.096,36.641,42.208\C,0,1.303,35.824,42.73\C,0,-0.312,3
 7.688,43.303\C,0,-1.08,37.235,44.594\C,0,-0.344,37.528,45.932\C,0,0.29
 ,36.345,46.681\C,0,-0.291,36.171,48.079\C,0,1.84,36.625,46.826\C,0,2.7
 11,35.392,46.943\C,0,4.237,35.73,46.878\C,0,4.883,34.95,45.635\C,0,6.3
 75,34.68,45.895\C,0,4.664,35.686,44.312\H,0,-0.367,37.427,29.45\H,0,-0
 .992,36.724,23.211\H,0,-4.224,31.388,23.998\H,0,-3.351,34.709,31.677\H
 ,0,-0.617,35.469,31.41\H,0,-2.843,36.791,32.526\H,0,-2.264,37.75,31.12
 9\H,0,-1.105,37.342,32.318\H,0,-0.64,33.608,32.35\H,0,-1.377,32.381,31
 .392\H,0,-2.747,31.614,33.114\H,0,-3.079,33.158,33.711\H,0,0.832,40.09
 7,27.083\H,0,1.667,38.707,27.804\H,0,0.182,39.341,28.489\H,0,0.706,40.
 763,25.257\H,0,1.117,40.776,23.637\H,0,2.084,39.671,24.812\H,0,-1.335,
 34.41,21.966\H,0,-4.02,33.161,22.134\H,0,-3.641,36.129,21.596\H,0,-3.7
 96,34.609,20.693\H,0,-2.408,35.695,20.363\H,0,-1.985,32.178,20.859\H,0
 ,-2.765,31.116,22.088\H,0,-0.335,32.69,22.959\H,0,-0.077,31.503,21.735
 \H,0,-0.837,30.957,23.22\H,0,-4.935,29.213,25.35\H,0,-6.392,30.08,25.6
 05\H,0,-5.696,29.022,26.936\H,0,-3.905,31.369,31.168\H,0,-6.355,33.776
 ,33.777\H,0,-6.689,32.075,34.278\H,0,-7.506,32.857,32.97\H,0,0.355,33.
 512,36.331\H,0,-0.46,32.087,36.887\H,0,-1.15,35.078,37.529\H,0,-1.528,
 31.7,39.712\H,0,-2.404,31.577,38.165\H,0,-3.269,32.124,39.453\H,0,-2.6
 95,34.142,40.668\H,0,-3.273,34.99,39.373\H,0,-1.856,36.804,39.906\H,0,
 -0.529,35.687,39.659\H,0,-1.149,34.933,42.268\H,0,-2.128,36.342,42.139
 \H,0,0.393,37.131,41.281\H,0,1.631,36.115,43.727\H,0,2.138,36.083,42.0
 79\H,0,1.229,34.742,42.837\H,0,-0.847,38.504,42.818\H,0,0.536,38.269,4
 3.668\H,0,-1.01,36.161,44.42\H,0,-2.069,37.692,44.57\H,0,-1.132,38.008
 ,46.512\H,0,0.463,38.229,45.719\H,0,0.11,35.418,46.135\H,0,0.436,35.74
 2,48.769\H,0,-1.069,35.407,48.103\H,0,-0.705,37.144,48.343\H,0,2.002,3
 7.391,47.584\H,0,2.19,37.05,45.885\H,0,2.519,34.618,46.199\H,0,2.564,3
 4.967,47.936\H,0,4.513,35.448,47.894\H,0,4.427,36.799,46.776\H,0,4.32,
 34.021,45.716\H,0,6.703,35.242,46.769\H,0,7.049,34.947,45.081\H,0,6.46
 2,33.598,46.003\H,0,3.698,35.418,43.885\H,0,5.472,35.511,43.601\H,0,4.
 624,36.746,44.56\\Version=ES64L-G16RevA.03\State=1-A\HF=-3007.3755656\
 RMSD=3.900e-09\PG=C01 [X(C55H74Mg1N4O6)]\\@


 ACCORDING TO HEN3RY, LIFE IS MUCH LIKE A SEWER........
 YOU GET OUT OF IT JUST WHAT YOU PUT INTO IT...........
                         TOM LEHRER - (THE 3 IS SILENT)
 Job cpu time:       0 days  4 hours 51 minutes 11.9 seconds.
 Elapsed time:       0 days  0 hours 12 minutes 11.1 seconds.
 File lengths (MBytes):  RWF=   8019 Int=      0 D2E=      0 Chk=    390 Scr=      1
 Normal termination of Gaussian 16 at Fri Apr 29 02:36:18 2022.
