 Entering Gaussian System, Link 0=g16
 Initial command:
 /sw/apps/gaussian-16.0/g16/l1.exe "/tmp/Gau-33408.inp" -scrdir="/tmp/"
 Entering Link 1 = /sw/apps/gaussian-16.0/g16/l1.exe PID=     33409.
  
 Copyright (c) 1988,1990,1992,1993,1995,1998,2003,2009,2016,
            Gaussian, Inc.  All Rights Reserved.
  
 This is part of the Gaussian(R) 16 program.  It is based on
 the Gaussian(R) 09 system (copyright 2009, Gaussian, Inc.),
 the Gaussian(R) 03 system (copyright 2003, Gaussian, Inc.),
 the Gaussian(R) 98 system (copyright 1998, Gaussian, Inc.),
 the Gaussian(R) 94 system (copyright 1995, Gaussian, Inc.),
 the Gaussian 92(TM) system (copyright 1992, Gaussian, Inc.),
 the Gaussian 90(TM) system (copyright 1990, Gaussian, Inc.),
 the Gaussian 88(TM) system (copyright 1988, Gaussian, Inc.),
 the Gaussian 86(TM) system (copyright 1986, Carnegie Mellon
 University), and the Gaussian 82(TM) system (copyright 1983,
 Carnegie Mellon University). Gaussian is a federally registered
 trademark of Gaussian, Inc.
  
 This software contains proprietary and confidential information,
 including trade secrets, belonging to Gaussian, Inc.
  
 This software is provided under written license and may be
 used, copied, transmitted, or stored only in accord with that
 written license.
  
 The following legend is applicable only to US Government
 contracts under FAR:
  
                    RESTRICTED RIGHTS LEGEND
  
 Use, reproduction and disclosure by the US Government is
 subject to restrictions as set forth in subparagraphs (a)
 and (c) of the Commercial Computer Software - Restricted
 Rights clause in FAR 52.227-19.
  
 Gaussian, Inc.
 340 Quinnipiac St., Bldg. 40, Wallingford CT 06492
  
  
 ---------------------------------------------------------------
 Warning -- This program may not be used in any manner that
 competes with the business of Gaussian, Inc. or will provide
 assistance to any competitor of Gaussian, Inc.  The licensee
 of this program is prohibited from giving any competitor of
 Gaussian, Inc. access to this program.  By using this program,
 the user acknowledges that Gaussian, Inc. is engaged in the
 business of creating and licensing software in the field of
 computational chemistry and represents and warrants to the
 licensee that it is not a competitor of Gaussian, Inc. and that
 it will not use this program in any manner prohibited above.
 ---------------------------------------------------------------
  

 Cite this work as:
 Gaussian 16, Revision A.03,
 M. J. Frisch, G. W. Trucks, H. B. Schlegel, G. E. Scuseria, 
 M. A. Robb, J. R. Cheeseman, G. Scalmani, V. Barone, 
 G. A. Petersson, H. Nakatsuji, X. Li, M. Caricato, A. V. Marenich, 
 J. Bloino, B. G. Janesko, R. Gomperts, B. Mennucci, H. P. Hratchian, 
 J. V. Ortiz, A. F. Izmaylov, J. L. Sonnenberg, D. Williams-Young, 
 F. Ding, F. Lipparini, F. Egidi, J. Goings, B. Peng, A. Petrone, 
 T. Henderson, D. Ranasinghe, V. G. Zakrzewski, J. Gao, N. Rega, 
 G. Zheng, W. Liang, M. Hada, M. Ehara, K. Toyota, R. Fukuda, 
 J. Hasegawa, M. Ishida, T. Nakajima, Y. Honda, O. Kitao, H. Nakai, 
 T. Vreven, K. Throssell, J. A. Montgomery, Jr., J. E. Peralta, 
 F. Ogliaro, M. J. Bearpark, J. J. Heyd, E. N. Brothers, K. N. Kudin, 
 V. N. Staroverov, T. A. Keith, R. Kobayashi, J. Normand, 
 K. Raghavachari, A. P. Rendell, J. C. Burant, S. S. Iyengar, 
 J. Tomasi, M. Cossi, J. M. Millam, M. Klene, C. Adamo, R. Cammi, 
 J. W. Ochterski, R. L. Martin, K. Morokuma, O. Farkas, 
 J. B. Foresman, and D. J. Fox, Gaussian, Inc., Wallingford CT, 2016.
 
 ******************************************
 Gaussian 16:  ES64L-G16RevA.03 25-Dec-2016
                29-Apr-2022 
 ******************************************
 %nproc=24
 Will use up to   24 processors via shared memory.
 %mem=75GB
 --------------------------------
 #p wB97XD/Def2SVP td=(nstates=5)
 --------------------------------
 1/38=1,172=1/1;
 2/12=2,17=6,18=5,40=1/2;
 3/5=43,7=101,11=9,25=1,30=1,74=-58/1,2,3,8;
 4//1;
 5/5=2,38=5/2;
 8/6=1,10=1,108=5/1;
 9/41=5,42=1,70=2/14;
 6/7=2,8=2,9=2,10=2/1;
 99/5=1,9=1/99;
 Leave Link    1 at Fri Apr 29 01:58:39 2022, MaxMem= 10066329600 cpu:               1.8 elap:               0.1
 (Enter /sw/apps/gaussian-16.0/g16/l101.exe)
 -----------------------------------------------------
 step_1801_chromophore_25 TDDFT with wB97XD functional
 -----------------------------------------------------
 Symbolic Z-matrix:
 Charge =  0 Multiplicity = 1
 Mg                   -2.479     34.491    26.742 
 C                    -3.817     32.887    29.506 
 C                    -1.027     36.836    28.812 
 C                    -1.558     36.307    24.046 
 C                    -3.928     32.189    24.678 
 N                    -2.532     34.86     28.953 
 C                    -2.944     33.931    29.828 
 C                    -2.436     34.293    31.257 
 C                    -1.618     35.686    31.037 
 C                    -1.775     35.852    29.484 
 C                    -2.011     36.966    31.843 
 C                    -1.61      33.185    32.09 
 C                    -2.256     32.567    33.31 
 C                    -1.364     32.287    34.47 
 O                    -0.882     31.206    34.699 
 O                    -1.363     33.407    35.289 
 N                    -1.455     36.32     26.51 
 C                    -0.84      37.075    27.443 
 C                    -0.177     38.164    26.806 
 C                    -0.295     37.984    25.368 
 C                    -1.166     36.843    25.311 
 C                     0.692     39.123    27.551 
 C                     0.267     38.846    24.211 
 O                     0.104     38.651    23.011 
 C                     1.136     40.109    24.499 
 N                    -2.822     34.353    24.637 
 C                    -2.323     35.199    23.715 
 C                    -2.358     34.634    22.269 
 C                    -2.998     33.228    22.507 
 C                    -3.232     33.221    24.031 
 C                    -3.088     35.315    21.126 
 C                    -2.192     32.028    21.919 
 C                    -0.774     31.792    22.522 
 N                    -3.673     32.852    26.964 
 C                    -4.192     31.976    26.034 
 C                    -4.847     30.907    26.69 
 C                    -4.783     31.196    28.092 
 C                    -4.086     32.43     28.173 
 C                    -5.503     29.726    26.127 
 C                    -5.1       30.83     29.469 
 O                    -5.778     29.857    29.839 
 C                    -4.503     31.921    30.444 
 C                    -5.668     32.554    31.219 
 O                    -6.537     33.352    30.835 
 O                    -5.535     32.16     32.506 
 C                    -6.528     32.754    33.441 
 C                    -0.632     33.118    36.575 
 C                    -1.322     34.004    37.592 
 C                    -1.896     33.639    38.747 
 C                    -2.255     32.182    39.059 
 C                    -2.323     34.627    39.766 
 C                    -1.474     35.822    40.184 
 C                    -1.199     35.903    41.775 
 C                     0.096     36.641    42.208 
 C                     1.303     35.824    42.73 
 C                    -0.312     37.688    43.303 
 C                    -1.08      37.235    44.594 
 C                    -0.344     37.528    45.932 
 C                     0.29      36.345    46.681 
 C                    -0.291     36.171    48.079 
 C                     1.84      36.625    46.826 
 C                     2.711     35.392    46.943 
 C                     4.237     35.73     46.878 
 C                     4.883     34.95     45.635 
 C                     6.375     34.68     45.895 
 C                     4.664     35.686    44.312 
 H                    -0.367     37.427    29.45 
 H                    -0.992     36.724    23.211 
 H                    -4.224     31.388    23.998 
 H                    -3.351     34.709    31.677 
 H                    -0.617     35.469    31.41 
 H                    -2.843     36.791    32.526 
 H                    -2.264     37.75     31.129 
 H                    -1.105     37.342    32.318 
 H                    -0.64      33.608    32.35 
 H                    -1.377     32.381    31.392 
 H                    -2.747     31.614    33.114 
 H                    -3.079     33.158    33.711 
 H                     0.832     40.097    27.083 
 H                     1.667     38.707    27.804 
 H                     0.182     39.341    28.489 
 H                     0.706     40.763    25.257 
 H                     1.117     40.776    23.637 
 H                     2.084     39.671    24.812 
 H                    -1.335     34.41     21.966 
 H                    -4.02      33.161    22.134 
 H                    -3.641     36.129    21.596 
 H                    -3.796     34.609    20.693 
 H                    -2.408     35.695    20.363 
 H                    -1.985     32.178    20.859 
 H                    -2.765     31.116    22.088 
 H                    -0.335     32.69     22.959 
 H                    -0.077     31.503    21.735 
 H                    -0.837     30.957    23.22 
 H                    -4.935     29.213    25.35 
 H                    -6.392     30.08     25.605 
 H                    -5.696     29.022    26.936 
 H                    -3.905     31.369    31.168 
 H                    -6.355     33.776    33.777 
 H                    -6.689     32.075    34.278 
 H                    -7.506     32.857    32.97 
 H                     0.355     33.512    36.331 
 H                    -0.46      32.087    36.887 
 H                    -1.15      35.078    37.529 
 H                    -1.528     31.7      39.712 
 H                    -2.404     31.577    38.165 
 H                    -3.269     32.124    39.453 
 H                    -2.695     34.142    40.668 
 H                    -3.273     34.99     39.373 
 H                    -1.856     36.804    39.906 
 H                    -0.529     35.687    39.659 
 H                    -1.149     34.933    42.268 
 H                    -2.128     36.342    42.139 
 H                     0.393     37.131    41.281 
 H                     1.631     36.115    43.727 
 H                     2.138     36.083    42.079 
 H                     1.229     34.742    42.837 
 H                    -0.847     38.504    42.818 
 H                     0.536     38.269    43.668 
 H                    -1.01      36.161    44.42 
 H                    -2.069     37.692    44.57 
 H                    -1.132     38.008    46.512 
 H                     0.463     38.229    45.719 
 H                     0.11      35.418    46.135 
 H                     0.436     35.742    48.769 
 H                    -1.069     35.407    48.103 
 H                    -0.705     37.144    48.343 
 H                     2.002     37.391    47.584 
 H                     2.19      37.05     45.885 
 H                     2.519     34.618    46.199 
 H                     2.564     34.967    47.936 
 H                     4.513     35.448    47.894 
 H                     4.427     36.799    46.776 
 H                     4.32      34.021    45.716 
 H                     6.703     35.242    46.769 
 H                     7.049     34.947    45.081 
 H                     6.462     33.598    46.003 
 H                     3.698     35.418    43.885 
 H                     5.472     35.511    43.601 
 H                     4.624     36.746    44.56 
 
 ITRead=  0  0  0  0  0  0  0  0  0  0  0  0  0  0  0  0  0  0  0  0
 ITRead=  0  0  0  0  0  0  0  0  0  0  0  0  0  0  0  0  0  0  0  0
 ITRead=  0  0  0  0  0  0  0  0  0  0  0  0  0  0  0  0  0  0  0  0
 ITRead=  0  0  0  0  0  0  0  0  0  0  0  0  0  0  0  0  0  0  0  0
 ITRead=  0  0  0  0  0  0  0  0  0  0  0  0  0  0  0  0  0  0  0  0
 ITRead=  0  0  0  0  0  0  0  0  0  0  0  0  0  0  0  0  0  0  0  0
 ITRead=  0  0  0  0  0  0  0  0  0  0  0  0  0  0  0  0  0  0  0  0
 MicOpt= -1 -1 -1 -1 -1 -1 -1 -1 -1 -1 -1 -1 -1 -1 -1 -1 -1 -1 -1 -1
 MicOpt= -1 -1 -1 -1 -1 -1 -1 -1 -1 -1 -1 -1 -1 -1 -1 -1 -1 -1 -1 -1
 MicOpt= -1 -1 -1 -1 -1 -1 -1 -1 -1 -1 -1 -1 -1 -1 -1 -1 -1 -1 -1 -1
 MicOpt= -1 -1 -1 -1 -1 -1 -1 -1 -1 -1 -1 -1 -1 -1 -1 -1 -1 -1 -1 -1
 MicOpt= -1 -1 -1 -1 -1 -1 -1 -1 -1 -1 -1 -1 -1 -1 -1 -1 -1 -1 -1 -1
 MicOpt= -1 -1 -1 -1 -1 -1 -1 -1 -1 -1 -1 -1 -1 -1 -1 -1 -1 -1 -1 -1
 MicOpt= -1 -1 -1 -1 -1 -1 -1 -1 -1 -1 -1 -1 -1 -1 -1 -1 -1 -1 -1 -1
 NAtoms=    140 NQM=      140 NQMF=       0 NMMI=      0 NMMIF=      0
                NMic=       0 NMicF=      0.
                    Isotopes and Nuclear Properties:
 (Nuclear quadrupole moments (NQMom) in fm**2, nuclear magnetic moments (NMagM)
  in nuclear magnetons)

  Atom         1           2           3           4           5           6           7           8           9          10
 IAtWgt=          24          12          12          12          12          14          12          12          12          12
 AtmWgt=  23.9850450  12.0000000  12.0000000  12.0000000  12.0000000  14.0030740  12.0000000  12.0000000  12.0000000  12.0000000
 NucSpn=           0           0           0           0           0           2           0           0           0           0
 AtZEff=  -0.0000000  -0.0000000  -0.0000000  -0.0000000  -0.0000000  -0.0000000  -0.0000000  -0.0000000  -0.0000000  -0.0000000
 NQMom=    0.0000000   0.0000000   0.0000000   0.0000000   0.0000000   2.0440000   0.0000000   0.0000000   0.0000000   0.0000000
 NMagM=    0.0000000   0.0000000   0.0000000   0.0000000   0.0000000   0.4037610   0.0000000   0.0000000   0.0000000   0.0000000
 AtZNuc=  12.0000000   6.0000000   6.0000000   6.0000000   6.0000000   7.0000000   6.0000000   6.0000000   6.0000000   6.0000000

  Atom        11          12          13          14          15          16          17          18          19          20
 IAtWgt=          12          12          12          12          16          16          14          12          12          12
 AtmWgt=  12.0000000  12.0000000  12.0000000  12.0000000  15.9949146  15.9949146  14.0030740  12.0000000  12.0000000  12.0000000
 NucSpn=           0           0           0           0           0           0           2           0           0           0
 AtZEff=  -0.0000000  -0.0000000  -0.0000000  -0.0000000  -0.0000000  -0.0000000  -0.0000000  -0.0000000  -0.0000000  -0.0000000
 NQMom=    0.0000000   0.0000000   0.0000000   0.0000000   0.0000000   0.0000000   2.0440000   0.0000000   0.0000000   0.0000000
 NMagM=    0.0000000   0.0000000   0.0000000   0.0000000   0.0000000   0.0000000   0.4037610   0.0000000   0.0000000   0.0000000
 AtZNuc=   6.0000000   6.0000000   6.0000000   6.0000000   8.0000000   8.0000000   7.0000000   6.0000000   6.0000000   6.0000000

  Atom        21          22          23          24          25          26          27          28          29          30
 IAtWgt=          12          12          12          16          12          14          12          12          12          12
 AtmWgt=  12.0000000  12.0000000  12.0000000  15.9949146  12.0000000  14.0030740  12.0000000  12.0000000  12.0000000  12.0000000
 NucSpn=           0           0           0           0           0           2           0           0           0           0
 AtZEff=  -0.0000000  -0.0000000  -0.0000000  -0.0000000  -0.0000000  -0.0000000  -0.0000000  -0.0000000  -0.0000000  -0.0000000
 NQMom=    0.0000000   0.0000000   0.0000000   0.0000000   0.0000000   2.0440000   0.0000000   0.0000000   0.0000000   0.0000000
 NMagM=    0.0000000   0.0000000   0.0000000   0.0000000   0.0000000   0.4037610   0.0000000   0.0000000   0.0000000   0.0000000
 AtZNuc=   6.0000000   6.0000000   6.0000000   8.0000000   6.0000000   7.0000000   6.0000000   6.0000000   6.0000000   6.0000000

  Atom        31          32          33          34          35          36          37          38          39          40
 IAtWgt=          12          12          12          14          12          12          12          12          12          12
 AtmWgt=  12.0000000  12.0000000  12.0000000  14.0030740  12.0000000  12.0000000  12.0000000  12.0000000  12.0000000  12.0000000
 NucSpn=           0           0           0           2           0           0           0           0           0           0
 AtZEff=  -0.0000000  -0.0000000  -0.0000000  -0.0000000  -0.0000000  -0.0000000  -0.0000000  -0.0000000  -0.0000000  -0.0000000
 NQMom=    0.0000000   0.0000000   0.0000000   2.0440000   0.0000000   0.0000000   0.0000000   0.0000000   0.0000000   0.0000000
 NMagM=    0.0000000   0.0000000   0.0000000   0.4037610   0.0000000   0.0000000   0.0000000   0.0000000   0.0000000   0.0000000
 AtZNuc=   6.0000000   6.0000000   6.0000000   7.0000000   6.0000000   6.0000000   6.0000000   6.0000000   6.0000000   6.0000000

  Atom        41          42          43          44          45          46          47          48          49          50
 IAtWgt=          16          12          12          16          16          12          12          12          12          12
 AtmWgt=  15.9949146  12.0000000  12.0000000  15.9949146  15.9949146  12.0000000  12.0000000  12.0000000  12.0000000  12.0000000
 NucSpn=           0           0           0           0           0           0           0           0           0           0
 AtZEff=  -0.0000000  -0.0000000  -0.0000000  -0.0000000  -0.0000000  -0.0000000  -0.0000000  -0.0000000  -0.0000000  -0.0000000
 NQMom=    0.0000000   0.0000000   0.0000000   0.0000000   0.0000000   0.0000000   0.0000000   0.0000000   0.0000000   0.0000000
 NMagM=    0.0000000   0.0000000   0.0000000   0.0000000   0.0000000   0.0000000   0.0000000   0.0000000   0.0000000   0.0000000
 AtZNuc=   8.0000000   6.0000000   6.0000000   8.0000000   8.0000000   6.0000000   6.0000000   6.0000000   6.0000000   6.0000000

  Atom        51          52          53          54          55          56          57          58          59          60
 IAtWgt=          12          12          12          12          12          12          12          12          12          12
 AtmWgt=  12.0000000  12.0000000  12.0000000  12.0000000  12.0000000  12.0000000  12.0000000  12.0000000  12.0000000  12.0000000
 NucSpn=           0           0           0           0           0           0           0           0           0           0
 AtZEff=  -0.0000000  -0.0000000  -0.0000000  -0.0000000  -0.0000000  -0.0000000  -0.0000000  -0.0000000  -0.0000000  -0.0000000
 NQMom=    0.0000000   0.0000000   0.0000000   0.0000000   0.0000000   0.0000000   0.0000000   0.0000000   0.0000000   0.0000000
 NMagM=    0.0000000   0.0000000   0.0000000   0.0000000   0.0000000   0.0000000   0.0000000   0.0000000   0.0000000   0.0000000
 AtZNuc=   6.0000000   6.0000000   6.0000000   6.0000000   6.0000000   6.0000000   6.0000000   6.0000000   6.0000000   6.0000000

  Atom        61          62          63          64          65          66          67          68          69          70
 IAtWgt=          12          12          12          12          12          12           1           1           1           1
 AtmWgt=  12.0000000  12.0000000  12.0000000  12.0000000  12.0000000  12.0000000   1.0078250   1.0078250   1.0078250   1.0078250
 NucSpn=           0           0           0           0           0           0           1           1           1           1
 AtZEff=  -0.0000000  -0.0000000  -0.0000000  -0.0000000  -0.0000000  -0.0000000  -0.0000000  -0.0000000  -0.0000000  -0.0000000
 NQMom=    0.0000000   0.0000000   0.0000000   0.0000000   0.0000000   0.0000000   0.0000000   0.0000000   0.0000000   0.0000000
 NMagM=    0.0000000   0.0000000   0.0000000   0.0000000   0.0000000   0.0000000   2.7928460   2.7928460   2.7928460   2.7928460
 AtZNuc=   6.0000000   6.0000000   6.0000000   6.0000000   6.0000000   6.0000000   1.0000000   1.0000000   1.0000000   1.0000000

  Atom        71          72          73          74          75          76          77          78          79          80
 IAtWgt=           1           1           1           1           1           1           1           1           1           1
 AtmWgt=   1.0078250   1.0078250   1.0078250   1.0078250   1.0078250   1.0078250   1.0078250   1.0078250   1.0078250   1.0078250
 NucSpn=           1           1           1           1           1           1           1           1           1           1
 AtZEff=  -0.0000000  -0.0000000  -0.0000000  -0.0000000  -0.0000000  -0.0000000  -0.0000000  -0.0000000  -0.0000000  -0.0000000
 NQMom=    0.0000000   0.0000000   0.0000000   0.0000000   0.0000000   0.0000000   0.0000000   0.0000000   0.0000000   0.0000000
 NMagM=    2.7928460   2.7928460   2.7928460   2.7928460   2.7928460   2.7928460   2.7928460   2.7928460   2.7928460   2.7928460
 AtZNuc=   1.0000000   1.0000000   1.0000000   1.0000000   1.0000000   1.0000000   1.0000000   1.0000000   1.0000000   1.0000000

  Atom        81          82          83          84          85          86          87          88          89          90
 IAtWgt=           1           1           1           1           1           1           1           1           1           1
 AtmWgt=   1.0078250   1.0078250   1.0078250   1.0078250   1.0078250   1.0078250   1.0078250   1.0078250   1.0078250   1.0078250
 NucSpn=           1           1           1           1           1           1           1           1           1           1
 AtZEff=  -0.0000000  -0.0000000  -0.0000000  -0.0000000  -0.0000000  -0.0000000  -0.0000000  -0.0000000  -0.0000000  -0.0000000
 NQMom=    0.0000000   0.0000000   0.0000000   0.0000000   0.0000000   0.0000000   0.0000000   0.0000000   0.0000000   0.0000000
 NMagM=    2.7928460   2.7928460   2.7928460   2.7928460   2.7928460   2.7928460   2.7928460   2.7928460   2.7928460   2.7928460
 AtZNuc=   1.0000000   1.0000000   1.0000000   1.0000000   1.0000000   1.0000000   1.0000000   1.0000000   1.0000000   1.0000000

  Atom        91          92          93          94          95          96          97          98          99         100
 IAtWgt=           1           1           1           1           1           1           1           1           1           1
 AtmWgt=   1.0078250   1.0078250   1.0078250   1.0078250   1.0078250   1.0078250   1.0078250   1.0078250   1.0078250   1.0078250
 NucSpn=           1           1           1           1           1           1           1           1           1           1
 AtZEff=  -0.0000000  -0.0000000  -0.0000000  -0.0000000  -0.0000000  -0.0000000  -0.0000000  -0.0000000  -0.0000000  -0.0000000
 NQMom=    0.0000000   0.0000000   0.0000000   0.0000000   0.0000000   0.0000000   0.0000000   0.0000000   0.0000000   0.0000000
 NMagM=    2.7928460   2.7928460   2.7928460   2.7928460   2.7928460   2.7928460   2.7928460   2.7928460   2.7928460   2.7928460
 AtZNuc=   1.0000000   1.0000000   1.0000000   1.0000000   1.0000000   1.0000000   1.0000000   1.0000000   1.0000000   1.0000000

  Atom       101         102         103         104         105         106         107         108         109         110
 IAtWgt=           1           1           1           1           1           1           1           1           1           1
 AtmWgt=   1.0078250   1.0078250   1.0078250   1.0078250   1.0078250   1.0078250   1.0078250   1.0078250   1.0078250   1.0078250
 NucSpn=           1           1           1           1           1           1           1           1           1           1
 AtZEff=  -0.0000000  -0.0000000  -0.0000000  -0.0000000  -0.0000000  -0.0000000  -0.0000000  -0.0000000  -0.0000000  -0.0000000
 NQMom=    0.0000000   0.0000000   0.0000000   0.0000000   0.0000000   0.0000000   0.0000000   0.0000000   0.0000000   0.0000000
 NMagM=    2.7928460   2.7928460   2.7928460   2.7928460   2.7928460   2.7928460   2.7928460   2.7928460   2.7928460   2.7928460
 AtZNuc=   1.0000000   1.0000000   1.0000000   1.0000000   1.0000000   1.0000000   1.0000000   1.0000000   1.0000000   1.0000000

  Atom       111         112         113         114         115         116         117         118         119         120
 IAtWgt=           1           1           1           1           1           1           1           1           1           1
 AtmWgt=   1.0078250   1.0078250   1.0078250   1.0078250   1.0078250   1.0078250   1.0078250   1.0078250   1.0078250   1.0078250
 NucSpn=           1           1           1           1           1           1           1           1           1           1
 AtZEff=  -0.0000000  -0.0000000  -0.0000000  -0.0000000  -0.0000000  -0.0000000  -0.0000000  -0.0000000  -0.0000000  -0.0000000
 NQMom=    0.0000000   0.0000000   0.0000000   0.0000000   0.0000000   0.0000000   0.0000000   0.0000000   0.0000000   0.0000000
 NMagM=    2.7928460   2.7928460   2.7928460   2.7928460   2.7928460   2.7928460   2.7928460   2.7928460   2.7928460   2.7928460
 AtZNuc=   1.0000000   1.0000000   1.0000000   1.0000000   1.0000000   1.0000000   1.0000000   1.0000000   1.0000000   1.0000000

  Atom       121         122         123         124         125         126         127         128         129         130
 IAtWgt=           1           1           1           1           1           1           1           1           1           1
 AtmWgt=   1.0078250   1.0078250   1.0078250   1.0078250   1.0078250   1.0078250   1.0078250   1.0078250   1.0078250   1.0078250
 NucSpn=           1           1           1           1           1           1           1           1           1           1
 AtZEff=  -0.0000000  -0.0000000  -0.0000000  -0.0000000  -0.0000000  -0.0000000  -0.0000000  -0.0000000  -0.0000000  -0.0000000
 NQMom=    0.0000000   0.0000000   0.0000000   0.0000000   0.0000000   0.0000000   0.0000000   0.0000000   0.0000000   0.0000000
 NMagM=    2.7928460   2.7928460   2.7928460   2.7928460   2.7928460   2.7928460   2.7928460   2.7928460   2.7928460   2.7928460
 AtZNuc=   1.0000000   1.0000000   1.0000000   1.0000000   1.0000000   1.0000000   1.0000000   1.0000000   1.0000000   1.0000000

  Atom       131         132         133         134         135         136         137         138         139         140
 IAtWgt=           1           1           1           1           1           1           1           1           1           1
 AtmWgt=   1.0078250   1.0078250   1.0078250   1.0078250   1.0078250   1.0078250   1.0078250   1.0078250   1.0078250   1.0078250
 NucSpn=           1           1           1           1           1           1           1           1           1           1
 AtZEff=  -0.0000000  -0.0000000  -0.0000000  -0.0000000  -0.0000000  -0.0000000  -0.0000000  -0.0000000  -0.0000000  -0.0000000
 NQMom=    0.0000000   0.0000000   0.0000000   0.0000000   0.0000000   0.0000000   0.0000000   0.0000000   0.0000000   0.0000000
 NMagM=    2.7928460   2.7928460   2.7928460   2.7928460   2.7928460   2.7928460   2.7928460   2.7928460   2.7928460   2.7928460
 AtZNuc=   1.0000000   1.0000000   1.0000000   1.0000000   1.0000000   1.0000000   1.0000000   1.0000000   1.0000000   1.0000000
 Leave Link  101 at Fri Apr 29 01:58:39 2022, MaxMem= 10066329600 cpu:               3.4 elap:               0.2
 (Enter /sw/apps/gaussian-16.0/g16/l202.exe)
 Stoichiometry    C55H74MgN4O6
 Framework group  C1[X(C55H74MgN4O6)]
 Deg. of freedom   414
 Full point group                 C1      NOp   1
 Largest Abelian subgroup         C1      NOp   1
 Largest concise Abelian subgroup C1      NOp   1
                         Standard orientation:                         
 ---------------------------------------------------------------------
 Center     Atomic      Atomic             Coordinates (Angstroms)
 Number     Number       Type             X           Y           Z
 ---------------------------------------------------------------------
      1         12           0        6.139640    0.387263   -0.007125
      2          6           0        3.798801   -2.161889   -0.165399
      3          6           0        3.676664    2.687569   -0.738268
      4          6           0        8.480127    2.805736   -0.303141
      5          6           0        8.593292   -1.880645    0.696497
      6          7           0        3.960703    0.226443   -0.510972
      7          6           0        3.245568   -0.881540   -0.267324
      8          6           0        1.724520   -0.538946   -0.281223
      9          6           0        1.689180    1.058135   -0.606882
     10          6           0        3.228697    1.355063   -0.682609
     11          6           0        0.890386    1.593353   -1.838935
     12          6           0        0.823830   -0.957660    0.990494
     13          6           0       -0.204720   -2.053291    0.819267
     14          6           0       -1.493560   -1.880680    1.546426
     15          8           0       -1.738448   -2.397209    2.607819
     16          8           0       -2.370338   -1.206308    0.708784
     17          7           0        6.047219    2.441179   -0.476729
     18          6           0        4.964867    3.230865   -0.630515
     19          6           0        5.387940    4.578211   -0.822685
     20          6           0        6.830469    4.626644   -0.646806
     21          6           0        7.130368    3.229039   -0.503518
     22          6           0        4.427050    5.717831   -0.911135
     23          6           0        7.797237    5.834585   -0.708238
     24          8           0        9.016446    5.799817   -0.578183
     25          6           0        7.263432    7.278846   -0.958111
     26          7           0        8.275706    0.438301    0.041177
     27          6           0        9.025628    1.551026   -0.078236
     28          6           0       10.485705    1.373334    0.419726
     29          6           0       10.469982   -0.119623    0.882234
     30          6           0        9.023601   -0.551598    0.567973
     31          6           0       11.699893    1.597825   -0.462578
     32          6           0       10.970410   -0.364133    2.340029
     33          6           0       10.122530    0.285940    3.475165
     34          7           0        6.261928   -1.637285    0.210795
     35          6           0        7.330920   -2.453122    0.516251
     36          6           0        6.886369   -3.783968    0.698857
     37          6           0        5.482212   -3.781549    0.413275
     38          6           0        5.186145   -2.434362    0.077778
     39          6           0        7.642858   -4.978999    1.075277
     40          6           0        4.219717   -4.504681    0.295972
     41          8           0        4.053173   -5.729027    0.424626
     42          6           0        3.077275   -3.488183   -0.102619
     43          6           0        2.500849   -3.928313   -1.456339
     44          8           0        2.990976   -3.845436   -2.593145
     45          8           0        1.241593   -4.360351   -1.217779
     46          6           0        0.477983   -4.744800   -2.435239
     47          6           0       -3.750894   -1.168591    1.312373
     48          6           0       -4.672688   -1.154863    0.110086
     49          6           0       -5.668380   -2.006213   -0.173681
     50          6           0       -5.807304   -3.365292    0.521069
     51          6           0       -6.649638   -1.745428   -1.253477
     52          6           0       -7.302313   -0.387422   -1.484529
     53          6           0       -8.918273   -0.432725   -1.493764
     54          6           0       -9.641075    0.880632   -1.091510
     55          6           0      -10.330181    0.981030    0.291196
     56          6           0      -10.704338    1.183493   -2.204814
     57          6           0      -11.789900    0.115910   -2.583677
     58          6           0      -13.261199    0.573972   -2.375724
     59          6           0      -14.037638   -0.010698   -1.185031
     60          6           0      -15.282629   -0.770276   -1.626935
     61          6           0      -14.497057    1.186183   -0.258567
     62          6           0      -14.697129    0.833793    1.200341
     63          6           0      -14.950212    2.095053    2.090463
     64          6           0      -13.805770    2.170605    3.210869
     65          6           0      -14.329855    2.905846    4.456389
     66          6           0      -12.517537    2.803185    2.681449
     67          1           0        2.885389    3.439536   -0.719435
     68          1           0        9.160617    3.632565   -0.091583
     69          1           0        9.369549   -2.539928    1.089420
     70          1           0        1.461935   -0.910264   -1.271098
     71          1           0        1.145573    1.489554    0.233705
     72          1           0        0.393807    0.796409   -2.393578
     73          1           0        1.585773    2.129601   -2.484952
     74          1           0        0.225627    2.378553   -1.479222
     75          1           0        0.354074   -0.057462    1.385972
     76          1           0        1.515942   -1.268569    1.772943
     77          1           0        0.145454   -3.038735    1.125836
     78          1           0       -0.478126   -2.232586   -0.220210
     79          1           0        4.793168    6.607224   -1.423227
     80          1           0        4.019223    6.007899    0.056970
     81          1           0        3.592518    5.374521   -1.522005
     82          1           0        6.560572    7.339755   -1.788447
     83          1           0        8.066417    7.909555   -1.339838
     84          1           0        6.803540    7.524312   -0.000633
     85          1           0       10.600109    1.935253    1.346911
     86          1           0       11.036606   -0.772894    0.218702
     87          1           0       11.291999    1.746819   -1.462943
     88          1           0       12.307412    0.693341   -0.458476
     89          1           0       12.290395    2.459493   -0.149842
     90          1           0       11.958201    0.071700    2.492567
     91          1           0       10.976326   -1.438813    2.523498
     92          1           0        9.550122    1.153744    3.144470
     93          1           0       10.777936    0.672951    4.255784
     94          1           0        9.507124   -0.492291    3.926861
     95          1           0        8.328300   -4.842590    1.912584
     96          1           0        8.301593   -5.209798    0.238067
     97          1           0        6.935093   -5.766514    1.332638
     98          1           0        2.290104   -3.629726    0.636847
     99          1           0        0.047440   -3.942703   -3.034057
    100          1           0       -0.265031   -5.498007   -2.174204
    101          1           0        1.120711   -5.227067   -3.172296
    102          1           0       -3.728588   -0.188127    1.788959
    103          1           0       -4.020624   -1.866917    2.105769
    104          1           0       -4.715901   -0.243799   -0.485837
    105          1           0       -6.554510   -3.358122    1.314098
    106          1           0       -4.862974   -3.746098    0.909256
    107          1           0       -5.993694   -4.144214   -0.217399
    108          1           0       -7.428572   -2.506704   -1.284034
    109          1           0       -6.106034   -2.032812   -2.153822
    110          1           0       -7.022117    0.131022   -2.401174
    111          1           0       -6.961486    0.228282   -0.652892
    112          1           0       -9.345755   -1.198913   -0.848270
    113          1           0       -9.124874   -0.786346   -2.503976
    114          1           0       -8.823545    1.600807   -1.116594
    115          1           0      -11.388875    1.230861    0.236194
    116          1           0       -9.871118    1.835747    0.788013
    117          1           0      -10.348398    0.120565    0.959715
    118          1           0      -10.180917    1.516969   -3.100431
    119          1           0      -11.263923    2.100515   -2.015541
    120          1           0      -11.561316   -0.593769   -1.788216
    121          1           0      -11.606296   -0.194365   -3.612057
    122          1           0      -13.709175    0.304249   -3.331921
    123          1           0      -13.255051    1.655604   -2.241358
    124          1           0      -13.406508   -0.710146   -0.635221
    125          1           0      -16.069597   -0.730910   -0.873409
    126          1           0      -15.105134   -1.845140   -1.679082
    127          1           0      -15.526268   -0.376599   -2.613586
    128          1           0      -15.321507    1.717856   -0.733088
    129          1           0      -13.671695    1.896047   -0.199613
    130          1           0      -13.880068    0.274051    1.657043
    131          1           0      -15.612526    0.247898    1.284350
    132          1           0      -15.979211    1.887544    2.383817
    133          1           0      -14.958381    3.021264    1.514849
    134          1           0      -13.714497    1.105812    3.421712
    135          1           0      -15.286237    3.376267    4.229799
    136          1           0      -13.680721    3.689931    4.846257
    137          1           0      -14.380084    2.150916    5.242210
    138          1           0      -11.895417    2.049107    2.200157
    139          1           0      -11.965544    3.332973    3.458391
    140          1           0      -12.823413    3.509039    1.910143
 ---------------------------------------------------------------------
 Rotational constants (GHZ):           0.0529487           0.0081017           0.0074388
 Leave Link  202 at Fri Apr 29 01:58:39 2022, MaxMem= 10066329600 cpu:               0.2 elap:               0.0
 (Enter /sw/apps/gaussian-16.0/g16/l301.exe)
 Standard basis: def2SVP (5D, 7F)
 Ernie: Thresh=  0.10000D-02 Tol=  0.10000D-05 Strict=F.
 There are  1364 symmetry adapted cartesian basis functions of A   symmetry.
 There are  1298 symmetry adapted basis functions of A   symmetry.
  1298 basis functions,  2180 primitive gaussians,  1364 cartesian basis functions
   246 alpha electrons      246 beta electrons
       nuclear repulsion energy      9358.2031634124 Hartrees.
 IExCor= 4639 DFT=T Ex+Corr=wB97XD ExCW=0 ScaHFX=  1.000000
 ScaDFX=  1.000000  1.000000  1.000000  1.000000 ScalE2=  1.000000  1.000000
 IRadAn=      5 IRanWt=     -1 IRanGd=            0 ICorTp=0 IEmpDi=121
 HFx  wShort=  0.000000 wLong=  0.200000 cFull=  0.222036 cShort=  0.000000 cLong=  0.777964
 DFx  wShort=  0.000000 wLong=  0.200000 cFull=  0.000000 cShort=  0.000000 cLong=  1.000000
 NAtoms=  140 NActive=  140 NUniq=  140 SFac= 1.00D+00 NAtFMM=   60 NAOKFM=T Big=T
 Integral buffers will be    131072 words long.
 Raffenetti 1 integral format.
 Two-electron integral symmetry is turned on.
 R6Disp:  Grimme-D2 Dispersion energy=       -0.1347605451 Hartrees.
 Nuclear repulsion after empirical dispersion term =     9358.0684028673 Hartrees.
 Leave Link  301 at Fri Apr 29 01:58:39 2022, MaxMem= 10066329600 cpu:               1.4 elap:               0.1
 (Enter /sw/apps/gaussian-16.0/g16/l302.exe)
 NPDir=0 NMtPBC=     1 NCelOv=     1 NCel=       1 NClECP=     1 NCelD=      1
         NCelK=      1 NCelE2=     1 NClLst=     1 CellRange=     0.0.
 One-electron integrals computed using PRISM.
 One-electron integral symmetry used in STVInt
   1 Symmetry operations used in ECPInt.
 ECPInt:  NShTT=  192510 NPrTT=  683786 LenC2=   90355 LenP2D=  200761.
 LDataN:  DoStor=T MaxTD1= 4 Len=   56
 NBasis=  1298 RedAO= T EigKep=  3.12D-04  NBF=  1298
 NBsUse=  1298 1.00D-06 EigRej= -1.00D+00 NBFU=  1298
 Precomputing XC quadrature grid using
 IXCGrd= 4 IRadAn=           5 IRanWt=          -1 IRanGd=           0 AccXCQ= 0.00D+00.
 Generated NRdTot=       0 NPtTot=           0 NUsed=           0 NTot=          32
 NSgBfM=   972   948   964   967   972 MxSgAt=   140 MxSgA2=   140.
 Leave Link  302 at Fri Apr 29 01:58:43 2022, MaxMem= 10066329600 cpu:              92.1 elap:               3.9
 (Enter /sw/apps/gaussian-16.0/g16/l303.exe)
 DipDrv:  MaxL=1.
 Leave Link  303 at Fri Apr 29 01:58:43 2022, MaxMem= 10066329600 cpu:               5.7 elap:               0.3
 (Enter /sw/apps/gaussian-16.0/g16/l308.exe)
 Leave Link  308 at Fri Apr 29 01:58:44 2022, MaxMem= 10066329600 cpu:              13.0 elap:               0.6
 (Enter /sw/apps/gaussian-16.0/g16/l401.exe)
 ExpMin= 3.36D-02 ExpMax= 4.95D+03 ExpMxC= 7.45D+02 IAcc=3 IRadAn=         5 AccDes= 0.00D+00
 Harris functional with IExCor= 4639 and IRadAn=       5 diagonalized for initial guess.
 HarFok:  IExCor= 4639 AccDes= 0.00D+00 IRadAn=         5 IDoV= 1 UseB2=F ITyADJ=14
 ICtDFT=  3500011 ScaDFX=  1.000000  1.000000  1.000000  1.000000
 FoFCou: FMM=F IPFlag=           0 FMFlag=      100000 FMFlg1=        2001
         NFxFlg=           0 DoJE=T BraDBF=F KetDBF=T FulRan=T
         wScrn=  0.000000 ICntrl=       500 IOpCl=  0 I1Cent=   200000004 NGrid=           0
         NMat0=    1 NMatS0=      1 NMatT0=    0 NMatD0=    1 NMtDS0=    0 NMtDT0=    0
 Petite list used in FoFCou.
 Harris En= -2878.00784912953    
 JPrj=0 DoOrth=F DoCkMO=F.
 Leave Link  401 at Fri Apr 29 01:58:50 2022, MaxMem= 10066329600 cpu:             143.4 elap:               6.0
 (Enter /sw/apps/gaussian-16.0/g16/l502.exe)
 Integral symmetry usage will be decided dynamically.
 Closed shell SCF:
 Using DIIS extrapolation, IDIIS=  1040.
 NGot= 10066329600 LenX= 10062561258 LenY= 10060699398
 Requested convergence on RMS density matrix=1.00D-08 within 128 cycles.
 Requested convergence on MAX density matrix=1.00D-06.
 Requested convergence on             energy=1.00D-06.
 No special actions if energy rises.
 Fock matrices will be formed incrementally for  20 cycles.

 Cycle   1  Pass 1  IDiag  1:
 FoFJK:  IHMeth= 1 ICntrl=       0 DoSepK=T KAlg= 0 I1Cent=           0 FoldK=F
 IRaf=         1 NMat=       1 IRICut=       1 DoRegI=T DoRafI=F ISym2E= 0 IDoP0=0 IntGTp=1.
 FoFCou: FMM=T IPFlag=           0 FMFlag=      100000 FMFlg1=        2001
         NFxFlg=           0 DoJE=T BraDBF=F KetDBF=F FulRan=T
         wScrn=  0.000000 ICntrl=       500 IOpCl=  0 I1Cent=           0 NGrid=           0
         NMat0=    1 NMatS0=      1 NMatT0=    0 NMatD0=    1 NMtDS0=    0 NMtDT0=    0
 Symmetry not used in FoFCou.
 FMM levels:  10  Number of levels for PrismC:   9
 E= -3007.19248103432    
 DIIS: error= 3.46D-02 at cycle   1 NSaved=   1.
 NSaved= 1 IEnMin= 1 EnMin= -3007.19248103432     IErMin= 1 ErrMin= 3.46D-02
 ErrMax= 3.46D-02  0.00D+00 EMaxC= 1.00D-01 BMatC= 1.49D+00 BMatP= 1.49D+00
 IDIUse=3 WtCom= 6.54D-01 WtEn= 3.46D-01
 Coeff-Com:  0.100D+01
 Coeff-En:   0.100D+01
 Coeff:      0.100D+01
 Gap=     0.158 Goal=   None    Shift=    0.000
 GapD=    0.158 DampG=1.000 DampE=0.500 DampFc=0.5000 IDamp=-1.
 Damping current iteration by 5.00D-01
 RMSDP=1.50D-03 MaxDP=1.68D-01              OVMax= 1.60D-01

 Cycle   2  Pass 1  IDiag  1:
 RMSU=  7.41D-04    CP:  9.88D-01
 E= -3007.51319329307     Delta-E=       -0.320712258754 Rises=F Damp=T
 DIIS: error= 1.42D-02 at cycle   2 NSaved=   2.
 NSaved= 2 IEnMin= 2 EnMin= -3007.51319329307     IErMin= 2 ErrMin= 1.42D-02
 ErrMax= 1.42D-02  0.00D+00 EMaxC= 1.00D-01 BMatC= 2.89D-01 BMatP= 1.49D+00
 IDIUse=3 WtCom= 8.58D-01 WtEn= 1.42D-01
 Coeff-Com: -0.351D+00 0.135D+01
 Coeff-En:   0.000D+00 0.100D+01
 Coeff:     -0.301D+00 0.130D+01
 Gap=     0.177 Goal=   None    Shift=    0.000
 RMSDP=6.84D-04 MaxDP=9.43D-02 DE=-3.21D-01 OVMax= 1.42D-01

 Cycle   3  Pass 1  IDiag  1:
 RMSU=  6.34D-04    CP:  9.80D-01  1.33D+00
 E= -3007.74906847991     Delta-E=       -0.235875186836 Rises=F Damp=F
 DIIS: error= 1.21D-02 at cycle   3 NSaved=   3.
 NSaved= 3 IEnMin= 3 EnMin= -3007.74906847991     IErMin= 3 ErrMin= 1.21D-02
 ErrMax= 1.21D-02  0.00D+00 EMaxC= 1.00D-01 BMatC= 1.37D-01 BMatP= 2.89D-01
 IDIUse=3 WtCom= 8.79D-01 WtEn= 1.21D-01
 Coeff-Com: -0.308D+00 0.685D+00 0.623D+00
 Coeff-En:   0.000D+00 0.000D+00 0.100D+01
 Coeff:     -0.271D+00 0.602D+00 0.669D+00
 Gap=     0.163 Goal=   None    Shift=    0.000
 RMSDP=3.90D-04 MaxDP=4.57D-02 DE=-2.36D-01 OVMax= 7.94D-02

 Cycle   4  Pass 1  IDiag  1:
 RMSU=  2.10D-04    CP:  9.77D-01  1.61D+00  5.93D-01
 E= -3007.84923353125     Delta-E=       -0.100165051341 Rises=F Damp=F
 DIIS: error= 4.35D-03 at cycle   4 NSaved=   4.
 NSaved= 4 IEnMin= 4 EnMin= -3007.84923353125     IErMin= 4 ErrMin= 4.35D-03
 ErrMax= 4.35D-03  0.00D+00 EMaxC= 1.00D-01 BMatC= 1.96D-02 BMatP= 1.37D-01
 IDIUse=3 WtCom= 9.57D-01 WtEn= 4.35D-02
 Coeff-Com: -0.116D+00 0.233D+00 0.367D+00 0.516D+00
 Coeff-En:   0.000D+00 0.000D+00 0.884D-01 0.912D+00
 Coeff:     -0.111D+00 0.223D+00 0.355D+00 0.534D+00
 Gap=     0.160 Goal=   None    Shift=    0.000
 RMSDP=1.18D-04 MaxDP=1.60D-02 DE=-1.00D-01 OVMax= 1.91D-02

 Cycle   5  Pass 1  IDiag  1:
 RMSU=  5.85D-05    CP:  9.77D-01  1.58D+00  7.10D-01  6.74D-01
 E= -3007.86513126179     Delta-E=       -0.015897730535 Rises=F Damp=F
 DIIS: error= 6.00D-04 at cycle   5 NSaved=   5.
 NSaved= 5 IEnMin= 5 EnMin= -3007.86513126179     IErMin= 5 ErrMin= 6.00D-04
 ErrMax= 6.00D-04  0.00D+00 EMaxC= 1.00D-01 BMatC= 4.31D-04 BMatP= 1.96D-02
 IDIUse=3 WtCom= 9.94D-01 WtEn= 6.00D-03
 Coeff-Com: -0.303D-01 0.578D-01 0.120D+00 0.230D+00 0.623D+00
 Coeff-En:   0.000D+00 0.000D+00 0.000D+00 0.000D+00 0.100D+01
 Coeff:     -0.302D-01 0.574D-01 0.119D+00 0.228D+00 0.626D+00
 Gap=     0.160 Goal=   None    Shift=    0.000
 RMSDP=2.29D-05 MaxDP=3.19D-03 DE=-1.59D-02 OVMax= 4.11D-03

 Cycle   6  Pass 1  IDiag  1:
 RMSU=  2.01D-05    CP:  9.77D-01  1.58D+00  7.14D-01  7.17D-01  9.18D-01
 E= -3007.86547523688     Delta-E=       -0.000343975098 Rises=F Damp=F
 DIIS: error= 2.24D-04 at cycle   6 NSaved=   6.
 NSaved= 6 IEnMin= 6 EnMin= -3007.86547523688     IErMin= 6 ErrMin= 2.24D-04
 ErrMax= 2.24D-04  0.00D+00 EMaxC= 1.00D-01 BMatC= 6.48D-05 BMatP= 4.31D-04
 IDIUse=3 WtCom= 9.98D-01 WtEn= 2.24D-03
 Coeff-Com:  0.992D-02-0.213D-01-0.168D-01-0.233D-02 0.282D+00 0.749D+00
 Coeff-En:   0.000D+00 0.000D+00 0.000D+00 0.000D+00 0.000D+00 0.100D+01
 Coeff:      0.990D-02-0.213D-01-0.168D-01-0.232D-02 0.281D+00 0.750D+00
 Gap=     0.161 Goal=   None    Shift=    0.000
 RMSDP=1.20D-05 MaxDP=2.52D-03 DE=-3.44D-04 OVMax= 3.69D-03

 Cycle   7  Pass 1  IDiag  1:
 RMSU=  8.24D-06    CP:  9.77D-01  1.59D+00  7.19D-01  7.38D-01  1.03D+00
                    CP:  9.68D-01
 E= -3007.86555362914     Delta-E=       -0.000078392259 Rises=F Damp=F
 DIIS: error= 6.00D-05 at cycle   7 NSaved=   7.
 NSaved= 7 IEnMin= 7 EnMin= -3007.86555362914     IErMin= 7 ErrMin= 6.00D-05
 ErrMax= 6.00D-05  0.00D+00 EMaxC= 1.00D-01 BMatC= 5.66D-06 BMatP= 6.48D-05
 IDIUse=1 WtCom= 1.00D+00 WtEn= 0.00D+00
 Coeff-Com:  0.621D-02-0.125D-01-0.158D-01-0.227D-01 0.377D-01 0.260D+00
 Coeff-Com:  0.747D+00
 Coeff:      0.621D-02-0.125D-01-0.158D-01-0.227D-01 0.377D-01 0.260D+00
 Coeff:      0.747D+00
 Gap=     0.161 Goal=   None    Shift=    0.000
 RMSDP=5.08D-06 MaxDP=9.99D-04 DE=-7.84D-05 OVMax= 1.88D-03

 Cycle   8  Pass 1  IDiag  1:
 RMSU=  3.36D-06    CP:  9.77D-01  1.59D+00  7.21D-01  7.41D-01  1.06D+00
                    CP:  1.10D+00  1.11D+00
 E= -3007.86556581903     Delta-E=       -0.000012189883 Rises=F Damp=F
 DIIS: error= 3.22D-05 at cycle   8 NSaved=   8.
 NSaved= 8 IEnMin= 8 EnMin= -3007.86556581903     IErMin= 8 ErrMin= 3.22D-05
 ErrMax= 3.22D-05  0.00D+00 EMaxC= 1.00D-01 BMatC= 1.70D-06 BMatP= 5.66D-06
 IDIUse=1 WtCom= 1.00D+00 WtEn= 0.00D+00
 Coeff-Com:  0.126D-02-0.228D-02-0.456D-02-0.112D-01-0.343D-01-0.164D-01
 Coeff-Com:  0.365D+00 0.703D+00
 Coeff:      0.126D-02-0.228D-02-0.456D-02-0.112D-01-0.343D-01-0.164D-01
 Coeff:      0.365D+00 0.703D+00
 Gap=     0.161 Goal=   None    Shift=    0.000
 RMSDP=2.88D-06 MaxDP=5.30D-04 DE=-1.22D-05 OVMax= 1.38D-03

 Cycle   9  Pass 1  IDiag  1:
 RMSU=  1.65D-06    CP:  9.77D-01  1.59D+00  7.21D-01  7.44D-01  1.07D+00
                    CP:  1.15D+00  1.32D+00  1.23D+00
 E= -3007.86557068621     Delta-E=       -0.000004867185 Rises=F Damp=F
 DIIS: error= 1.57D-05 at cycle   9 NSaved=   9.
 NSaved= 9 IEnMin= 9 EnMin= -3007.86557068621     IErMin= 9 ErrMin= 1.57D-05
 ErrMax= 1.57D-05  0.00D+00 EMaxC= 1.00D-01 BMatC= 2.94D-07 BMatP= 1.70D-06
 IDIUse=1 WtCom= 1.00D+00 WtEn= 0.00D+00
 Coeff-Com: -0.951D-03 0.197D-02 0.217D-02 0.151D-02-0.167D-01-0.634D-01
 Coeff-Com: -0.368D-01 0.161D+00 0.951D+00
 Coeff:     -0.951D-03 0.197D-02 0.217D-02 0.151D-02-0.167D-01-0.634D-01
 Coeff:     -0.368D-01 0.161D+00 0.951D+00
 Gap=     0.161 Goal=   None    Shift=    0.000
 RMSDP=2.25D-06 MaxDP=3.38D-04 DE=-4.87D-06 OVMax= 1.30D-03

 Cycle  10  Pass 1  IDiag  1:
 RMSU=  8.81D-07    CP:  9.77D-01  1.59D+00  7.22D-01  7.45D-01  1.08D+00
                    CP:  1.18D+00  1.45D+00  1.61D+00  1.52D+00
 E= -3007.86557301150     Delta-E=       -0.000002325287 Rises=F Damp=F
 DIIS: error= 8.51D-06 at cycle  10 NSaved=  10.
 NSaved=10 IEnMin=10 EnMin= -3007.86557301150     IErMin=10 ErrMin= 8.51D-06
 ErrMax= 8.51D-06  0.00D+00 EMaxC= 1.00D-01 BMatC= 1.36D-07 BMatP= 2.94D-07
 IDIUse=1 WtCom= 1.00D+00 WtEn= 0.00D+00
 Coeff-Com: -0.873D-03 0.170D-02 0.265D-02 0.477D-02 0.592D-02-0.240D-01
 Coeff-Com: -0.139D+00-0.218D+00 0.394D+00 0.972D+00
 Coeff:     -0.873D-03 0.170D-02 0.265D-02 0.477D-02 0.592D-02-0.240D-01
 Coeff:     -0.139D+00-0.218D+00 0.394D+00 0.972D+00
 Gap=     0.161 Goal=   None    Shift=    0.000
 RMSDP=2.01D-06 MaxDP=3.09D-04 DE=-2.33D-06 OVMax= 1.14D-03

 Cycle  11  Pass 1  IDiag  1:
 RMSU=  4.96D-07    CP:  9.77D-01  1.59D+00  7.22D-01  7.46D-01  1.09D+00
                    CP:  1.20D+00  1.57D+00  1.94D+00  2.18D+00  1.56D+00
 E= -3007.86557426266     Delta-E=       -0.000001251165 Rises=F Damp=F
 DIIS: error= 6.07D-06 at cycle  11 NSaved=  11.
 NSaved=11 IEnMin=11 EnMin= -3007.86557426266     IErMin=11 ErrMin= 6.07D-06
 ErrMax= 6.07D-06  0.00D+00 EMaxC= 1.00D-01 BMatC= 4.62D-08 BMatP= 1.36D-07
 IDIUse=1 WtCom= 1.00D+00 WtEn= 0.00D+00
 Coeff-Com: -0.615D-04 0.886D-04 0.438D-03 0.160D-02 0.786D-02 0.857D-02
 Coeff-Com: -0.413D-01-0.151D+00-0.106D+00 0.436D+00 0.844D+00
 Coeff:     -0.615D-04 0.886D-04 0.438D-03 0.160D-02 0.786D-02 0.857D-02
 Coeff:     -0.413D-01-0.151D+00-0.106D+00 0.436D+00 0.844D+00
 Gap=     0.161 Goal=   None    Shift=    0.000
 RMSDP=1.07D-06 MaxDP=8.36D-05 DE=-1.25D-06 OVMax= 6.91D-04

 Cycle  12  Pass 1  IDiag  1:
 RMSU=  2.84D-07    CP:  9.77D-01  1.59D+00  7.22D-01  7.46D-01  1.09D+00
                    CP:  1.20D+00  1.61D+00  2.10D+00  2.52D+00  2.12D+00
                    CP:  1.38D+00
 E= -3007.86557465331     Delta-E=       -0.000000390652 Rises=F Damp=F
 DIIS: error= 2.88D-06 at cycle  12 NSaved=  12.
 NSaved=12 IEnMin=12 EnMin= -3007.86557465331     IErMin=12 ErrMin= 2.88D-06
 ErrMax= 2.88D-06  0.00D+00 EMaxC= 1.00D-01 BMatC= 1.58D-08 BMatP= 4.62D-08
 IDIUse=1 WtCom= 1.00D+00 WtEn= 0.00D+00
 Coeff-Com:  0.354D-03-0.702D-03-0.980D-03-0.139D-02 0.168D-03 0.133D-01
 Coeff-Com:  0.502D-01 0.342D-01-0.234D+00-0.299D+00 0.329D+00 0.111D+01
 Coeff:      0.354D-03-0.702D-03-0.980D-03-0.139D-02 0.168D-03 0.133D-01
 Coeff:      0.502D-01 0.342D-01-0.234D+00-0.299D+00 0.329D+00 0.111D+01
 Gap=     0.161 Goal=   None    Shift=    0.000
 RMSDP=9.84D-07 MaxDP=7.80D-05 DE=-3.91D-07 OVMax= 6.11D-04

 Cycle  13  Pass 1  IDiag  1:
 RMSU=  1.53D-07    CP:  9.77D-01  1.59D+00  7.22D-01  7.46D-01  1.09D+00
                    CP:  1.21D+00  1.65D+00  2.23D+00  2.84D+00  2.63D+00
                    CP:  2.07D+00  1.53D+00
 E= -3007.86557482042     Delta-E=       -0.000000167105 Rises=F Damp=F
 DIIS: error= 1.39D-06 at cycle  13 NSaved=  13.
 NSaved=13 IEnMin=13 EnMin= -3007.86557482042     IErMin=13 ErrMin= 1.39D-06
 ErrMax= 1.39D-06  0.00D+00 EMaxC= 1.00D-01 BMatC= 2.73D-09 BMatP= 1.58D-08
 IDIUse=1 WtCom= 1.00D+00 WtEn= 0.00D+00
 Coeff-Com:  0.165D-03-0.322D-03-0.509D-03-0.899D-03-0.153D-02 0.336D-02
 Coeff-Com:  0.302D-01 0.442D-01-0.649D-01-0.201D+00-0.373D-01 0.437D+00
 Coeff-Com:  0.791D+00
 Coeff:      0.165D-03-0.322D-03-0.509D-03-0.899D-03-0.153D-02 0.336D-02
 Coeff:      0.302D-01 0.442D-01-0.649D-01-0.201D+00-0.373D-01 0.437D+00
 Coeff:      0.791D+00
 Gap=     0.161 Goal=   None    Shift=    0.000
 RMSDP=2.38D-07 MaxDP=1.91D-05 DE=-1.67D-07 OVMax= 1.59D-04

 Cycle  14  Pass 1  IDiag  1:
 RMSU=  7.70D-08    CP:  9.77D-01  1.59D+00  7.22D-01  7.46D-01  1.09D+00
                    CP:  1.21D+00  1.66D+00  2.25D+00  2.90D+00  2.78D+00
                    CP:  2.27D+00  1.83D+00  1.20D+00
 E= -3007.86557483667     Delta-E=       -0.000000016249 Rises=F Damp=F
 DIIS: error= 7.54D-07 at cycle  14 NSaved=  14.
 NSaved=14 IEnMin=14 EnMin= -3007.86557483667     IErMin=14 ErrMin= 7.54D-07
 ErrMax= 7.54D-07  0.00D+00 EMaxC= 1.00D-01 BMatC= 6.20D-10 BMatP= 2.73D-09
 IDIUse=1 WtCom= 1.00D+00 WtEn= 0.00D+00
 Coeff-Com: -0.274D-04 0.565D-04 0.640D-04 0.467D-04-0.433D-03-0.189D-02
 Coeff-Com: -0.184D-02 0.295D-02 0.278D-01 0.365D-02-0.709D-01-0.124D+00
 Coeff-Com:  0.231D+00 0.933D+00
 Coeff:     -0.274D-04 0.565D-04 0.640D-04 0.467D-04-0.433D-03-0.189D-02
 Coeff:     -0.184D-02 0.295D-02 0.278D-01 0.365D-02-0.709D-01-0.124D+00
 Coeff:      0.231D+00 0.933D+00
 Gap=     0.161 Goal=   None    Shift=    0.000
 RMSDP=1.32D-07 MaxDP=1.00D-05 DE=-1.62D-08 OVMax= 8.70D-05

 Cycle  15  Pass 1  IDiag  1:
 RMSU=  4.25D-08    CP:  9.77D-01  1.59D+00  7.22D-01  7.46D-01  1.09D+00
                    CP:  1.21D+00  1.66D+00  2.26D+00  2.93D+00  2.84D+00
                    CP:  2.37D+00  1.99D+00  1.52D+00  1.37D+00
 E= -3007.86557484114     Delta-E=       -0.000000004471 Rises=F Damp=F
 DIIS: error= 3.77D-07 at cycle  15 NSaved=  15.
 NSaved=15 IEnMin=15 EnMin= -3007.86557484114     IErMin=15 ErrMin= 3.77D-07
 ErrMax= 3.77D-07  0.00D+00 EMaxC= 1.00D-01 BMatC= 2.17D-10 BMatP= 6.20D-10
 IDIUse=1 WtCom= 1.00D+00 WtEn= 0.00D+00
 Coeff-Com: -0.505D-04 0.100D-03 0.149D-03 0.226D-03 0.145D-03-0.166D-02
 Coeff-Com: -0.761D-02-0.948D-02 0.291D-01 0.493D-01-0.170D-01-0.163D+00
 Coeff-Com: -0.687D-01 0.407D+00 0.782D+00
 Coeff:     -0.505D-04 0.100D-03 0.149D-03 0.226D-03 0.145D-03-0.166D-02
 Coeff:     -0.761D-02-0.948D-02 0.291D-01 0.493D-01-0.170D-01-0.163D+00
 Coeff:     -0.687D-01 0.407D+00 0.782D+00
 Gap=     0.161 Goal=   None    Shift=    0.000
 RMSDP=5.25D-08 MaxDP=3.68D-06 DE=-4.47D-09 OVMax= 3.57D-05

 Cycle  16  Pass 1  IDiag  1:
 RMSU=  2.31D-08    CP:  9.77D-01  1.59D+00  7.22D-01  7.46D-01  1.09D+00
                    CP:  1.21D+00  1.66D+00  2.26D+00  2.93D+00  2.85D+00
                    CP:  2.39D+00  2.04D+00  1.68D+00  1.76D+00  1.36D+00
 E= -3007.86557484247     Delta-E=       -0.000000001333 Rises=F Damp=F
 DIIS: error= 3.08D-07 at cycle  16 NSaved=  16.
 NSaved=16 IEnMin=16 EnMin= -3007.86557484247     IErMin=16 ErrMin= 3.08D-07
 ErrMax= 3.08D-07  0.00D+00 EMaxC= 1.00D-01 BMatC= 7.50D-11 BMatP= 2.17D-10
 IDIUse=1 WtCom= 1.00D+00 WtEn= 0.00D+00
 Coeff-Com: -0.729D-05 0.135D-04 0.280D-04 0.542D-04 0.204D-03 0.120D-03
 Coeff-Com: -0.184D-02-0.460D-02 0.827D-03 0.139D-01 0.205D-01-0.222D-01
 Coeff-Com: -0.938D-01-0.189D+00 0.264D+00 0.101D+01
 Coeff:     -0.729D-05 0.135D-04 0.280D-04 0.542D-04 0.204D-03 0.120D-03
 Coeff:     -0.184D-02-0.460D-02 0.827D-03 0.139D-01 0.205D-01-0.222D-01
 Coeff:     -0.938D-01-0.189D+00 0.264D+00 0.101D+01
 Gap=     0.161 Goal=   None    Shift=    0.000
 RMSDP=4.96D-08 MaxDP=3.91D-06 DE=-1.33D-09 OVMax= 3.32D-05

 Cycle  17  Pass 1  IDiag  1:
 RMSU=  1.33D-08    CP:  9.77D-01  1.59D+00  7.22D-01  7.46D-01  1.09D+00
                    CP:  1.21D+00  1.66D+00  2.26D+00  2.93D+00  2.86D+00
                    CP:  2.41D+00  2.08D+00  1.81D+00  2.06D+00  2.02D+00
                    CP:  1.55D+00
 E= -3007.86557484350     Delta-E=       -0.000000001024 Rises=F Damp=F
 DIIS: error= 1.43D-07 at cycle  17 NSaved=  17.
 NSaved=17 IEnMin=17 EnMin= -3007.86557484350     IErMin=17 ErrMin= 1.43D-07
 ErrMax= 1.43D-07  0.00D+00 EMaxC= 1.00D-01 BMatC= 3.18D-11 BMatP= 7.50D-11
 IDIUse=1 WtCom= 1.00D+00 WtEn= 0.00D+00
 Coeff-Com:  0.202D-04-0.403D-04-0.575D-04-0.854D-04 0.196D-04 0.818D-03
 Coeff-Com:  0.289D-02 0.260D-02-0.129D-01-0.177D-01 0.192D-01 0.649D-01
 Coeff-Com:  0.222D-02-0.276D+00-0.279D+00 0.404D+00 0.109D+01
 Coeff:      0.202D-04-0.403D-04-0.575D-04-0.854D-04 0.196D-04 0.818D-03
 Coeff:      0.289D-02 0.260D-02-0.129D-01-0.177D-01 0.192D-01 0.649D-01
 Coeff:      0.222D-02-0.276D+00-0.279D+00 0.404D+00 0.109D+01
 Gap=     0.161 Goal=   None    Shift=    0.000
 RMSDP=4.19D-08 MaxDP=3.25D-06 DE=-1.02D-09 OVMax= 2.85D-05

 Cycle  18  Pass 1  IDiag  1:
 RMSU=  7.43D-09    CP:  9.77D-01  1.59D+00  7.22D-01  7.46D-01  1.09D+00
                    CP:  1.21D+00  1.66D+00  2.26D+00  2.93D+00  2.86D+00
                    CP:  2.42D+00  2.10D+00  1.90D+00  2.34D+00  2.58D+00
                    CP:  2.37D+00  1.49D+00
 E= -3007.86557484389     Delta-E=       -0.000000000393 Rises=F Damp=F
 DIIS: error= 8.12D-08 at cycle  18 NSaved=  18.
 NSaved=18 IEnMin=18 EnMin= -3007.86557484389     IErMin=18 ErrMin= 8.12D-08
 ErrMax= 8.12D-08  0.00D+00 EMaxC= 1.00D-01 BMatC= 9.00D-12 BMatP= 3.18D-11
 IDIUse=1 WtCom= 1.00D+00 WtEn= 0.00D+00
 Coeff-Com:  0.117D-04-0.230D-04-0.369D-04-0.591D-04-0.586D-04 0.339D-03
 Coeff-Com:  0.195D-02 0.282D-02-0.668D-02-0.137D-01 0.276D-02 0.359D-01
 Coeff-Com:  0.346D-01-0.652D-01-0.212D+00-0.136D+00 0.490D+00 0.865D+00
 Coeff:      0.117D-04-0.230D-04-0.369D-04-0.591D-04-0.586D-04 0.339D-03
 Coeff:      0.195D-02 0.282D-02-0.668D-02-0.137D-01 0.276D-02 0.359D-01
 Coeff:      0.346D-01-0.652D-01-0.212D+00-0.136D+00 0.490D+00 0.865D+00
 Gap=     0.161 Goal=   None    Shift=    0.000
 RMSDP=2.07D-08 MaxDP=2.22D-06 DE=-3.93D-10 OVMax= 1.38D-05

 Cycle  19  Pass 1  IDiag  1:
 RMSU=  4.03D-09    CP:  9.77D-01  1.59D+00  7.22D-01  7.46D-01  1.09D+00
                    CP:  1.21D+00  1.66D+00  2.26D+00  2.94D+00  2.86D+00
                    CP:  2.43D+00  2.11D+00  1.94D+00  2.44D+00  2.86D+00
                    CP:  2.74D+00  1.98D+00  1.23D+00
 E= -3007.86557484391     Delta-E=       -0.000000000022 Rises=F Damp=F
 DIIS: error= 3.04D-08 at cycle  19 NSaved=  19.
 NSaved=19 IEnMin=19 EnMin= -3007.86557484391     IErMin=19 ErrMin= 3.04D-08
 ErrMax= 3.04D-08  0.00D+00 EMaxC= 1.00D-01 BMatC= 2.29D-12 BMatP= 9.00D-12
 IDIUse=1 WtCom= 1.00D+00 WtEn= 0.00D+00
 Coeff-Com: -0.515D-06 0.122D-05-0.273D-06-0.160D-05-0.306D-04-0.815D-04
 Coeff-Com:  0.273D-04 0.613D-03 0.751D-03-0.948D-03-0.374D-02-0.256D-02
 Coeff-Com:  0.146D-01 0.465D-01-0.178D-01-0.177D+00-0.791D-01 0.389D+00
 Coeff-Com:  0.829D+00
 Coeff:     -0.515D-06 0.122D-05-0.273D-06-0.160D-05-0.306D-04-0.815D-04
 Coeff:      0.273D-04 0.613D-03 0.751D-03-0.948D-03-0.374D-02-0.256D-02
 Coeff:      0.146D-01 0.465D-01-0.178D-01-0.177D+00-0.791D-01 0.389D+00
 Coeff:      0.829D+00
 Gap=     0.161 Goal=   None    Shift=    0.000
 RMSDP=8.17D-09 MaxDP=6.15D-07 DE=-2.18D-11 OVMax= 5.38D-06

 SCF Done:  E(RwB97XD) =  -3007.86557484     A.U. after   19 cycles
            NFock= 19  Conv=0.82D-08     -V/T= 2.0108
 KE= 2.975684534123D+03 PE=-2.570847865180D+04 EE= 1.036686013997D+04
 Leave Link  502 at Fri Apr 29 02:05:43 2022, MaxMem= 10066329600 cpu:            9499.6 elap:             412.9
 (Enter /sw/apps/gaussian-16.0/g16/l801.exe)
 DoSCS=F DFT=T ScalE2(SS,OS)=  1.000000  1.000000
 ExpMin= 3.36D-02 ExpMax= 4.95D+03 ExpMxC= 7.45D+02 IAcc=3 IRadAn=         5 AccDes= 0.00D+00
 HarFok:  IExCor=  205 AccDes= 0.00D+00 IRadAn=         5 IDoV=-2 UseB2=F ITyADJ=14
 ICtDFT= 12500011 ScaDFX=  1.000000  1.000000  1.000000  1.000000
 GSVD:  LWork=       -5460 too small for GESVD, short by       25550 words or       25550 for optimal perf.
 Largest valence mixing into a core orbital is  1.59D-04
 Largest core mixing into a valence orbital is  5.54D-05
 Range of M.O.s used for correlation:    71  1298
 NBasis=  1298 NAE=   246 NBE=   246 NFC=    70 NFV=     0
 NROrb=   1228 NOA=   176 NOB=   176 NVA=  1052 NVB=  1052
 Leave Link  801 at Fri Apr 29 02:05:43 2022, MaxMem= 10066329600 cpu:               6.0 elap:               0.3
 (Enter /sw/apps/gaussian-16.0/g16/l914.exe)
 RHF ground state
 Two-electron integrals replicated using symmetry.
 MDV= 10066329600 DFT=T DoStab=F Mixed=T DoRPA=T DoScal=F NonHer=T
 Making orbital integer symmetry assigments:
 Orbital symmetries:
       Occupied  (A) (A) (A) (A) (A) (A) (A) (A) (A) (A) (A) (A)
                 (A) (A) (A) (A) (A) (A) (A) (A) (A) (A) (A) (A)
                 (A) (A) (A) (A) (A) (A) (A) (A) (A) (A) (A) (A)
                 (A) (A) (A) (A) (A) (A) (A) (A) (A) (A) (A) (A)
                 (A) (A) (A) (A) (A) (A) (A) (A) (A) (A) (A) (A)
                 (A) (A) (A) (A) (A) (A) (A) (A) (A) (A) (A) (A)
                 (A) (A) (A) (A) (A) (A) (A) (A) (A) (A) (A) (A)
                 (A) (A) (A) (A) (A) (A) (A) (A) (A) (A) (A) (A)
                 (A) (A) (A) (A) (A) (A) (A) (A) (A) (A) (A) (A)
                 (A) (A) (A) (A) (A) (A) (A) (A) (A) (A) (A) (A)
                 (A) (A) (A) (A) (A) (A) (A) (A) (A) (A) (A) (A)
                 (A) (A) (A) (A) (A) (A) (A) (A) (A) (A) (A) (A)
                 (A) (A) (A) (A) (A) (A) (A) (A) (A) (A) (A) (A)
                 (A) (A) (A) (A) (A) (A) (A) (A) (A) (A) (A) (A)
                 (A) (A) (A) (A) (A) (A) (A) (A) (A) (A) (A) (A)
                 (A) (A) (A) (A) (A) (A) (A) (A) (A) (A) (A) (A)
                 (A) (A) (A) (A) (A) (A) (A) (A) (A) (A) (A) (A)
                 (A) (A) (A) (A) (A) (A) (A) (A) (A) (A) (A) (A)
                 (A) (A) (A) (A) (A) (A) (A) (A) (A) (A) (A) (A)
                 (A) (A) (A) (A) (A) (A) (A) (A) (A) (A) (A) (A)
                 (A) (A) (A) (A) (A) (A)
       Virtual   (A) (A) (A) (A) (A) (A) (A) (A) (A) (A) (A) (A)
                 (A) (A) (A) (A) (A) (A) (A) (A) (A) (A) (A) (A)
                 (A) (A) (A) (A) (A) (A) (A) (A) (A) (A) (A) (A)
                 (A) (A) (A) (A) (A) (A) (A) (A) (A) (A) (A) (A)
                 (A) (A) (A) (A) (A) (A) (A) (A) (A) (A) (A) (A)
                 (A) (A) (A) (A) (A) (A) (A) (A) (A) (A) (A) (A)
                 (A) (A) (A) (A) (A) (A) (A) (A) (A) (A) (A) (A)
                 (A) (A) (A) (A) (A) (A) (A) (A) (A) (A) (A) (A)
                 (A) (A) (A) (A) (A) (A) (A) (A) (A) (A) (A) (A)
                 (A) (A) (A) (A) (A) (A) (A) (A) (A) (A) (A) (A)
                 (A) (A) (A) (A) (A) (A) (A) (A) (A) (A) (A) (A)
                 (A) (A) (A) (A) (A) (A) (A) (A) (A) (A) (A) (A)
                 (A) (A) (A) (A) (A) (A) (A) (A) (A) (A) (A) (A)
                 (A) (A) (A) (A) (A) (A) (A) (A) (A) (A) (A) (A)
                 (A) (A) (A) (A) (A) (A) (A) (A) (A) (A) (A) (A)
                 (A) (A) (A) (A) (A) (A) (A) (A) (A) (A) (A) (A)
                 (A) (A) (A) (A) (A) (A) (A) (A) (A) (A) (A) (A)
                 (A) (A) (A) (A) (A) (A) (A) (A) (A) (A) (A) (A)
                 (A) (A) (A) (A) (A) (A) (A) (A) (A) (A) (A) (A)
                 (A) (A) (A) (A) (A) (A) (A) (A) (A) (A) (A) (A)
                 (A) (A) (A) (A) (A) (A) (A) (A) (A) (A) (A) (A)
                 (A) (A) (A) (A) (A) (A) (A) (A) (A) (A) (A) (A)
                 (A) (A) (A) (A) (A) (A) (A) (A) (A) (A) (A) (A)
                 (A) (A) (A) (A) (A) (A) (A) (A) (A) (A) (A) (A)
                 (A) (A) (A) (A) (A) (A) (A) (A) (A) (A) (A) (A)
                 (A) (A) (A) (A) (A) (A) (A) (A) (A) (A) (A) (A)
                 (A) (A) (A) (A) (A) (A) (A) (A) (A) (A) (A) (A)
                 (A) (A) (A) (A) (A) (A) (A) (A) (A) (A) (A) (A)
                 (A) (A) (A) (A) (A) (A) (A) (A) (A) (A) (A) (A)
                 (A) (A) (A) (A) (A) (A) (A) (A) (A) (A) (A) (A)
                 (A) (A) (A) (A) (A) (A) (A) (A) (A) (A) (A) (A)
                 (A) (A) (A) (A) (A) (A) (A) (A) (A) (A) (A) (A)
                 (A) (A) (A) (A) (A) (A) (A) (A) (A) (A) (A) (A)
                 (A) (A) (A) (A) (A) (A) (A) (A) (A) (A) (A) (A)
                 (A) (A) (A) (A) (A) (A) (A) (A) (A) (A) (A) (A)
                 (A) (A) (A) (A) (A) (A) (A) (A) (A) (A) (A) (A)
                 (A) (A) (A) (A) (A) (A) (A) (A) (A) (A) (A) (A)
                 (A) (A) (A) (A) (A) (A) (A) (A) (A) (A) (A) (A)
                 (A) (A) (A) (A) (A) (A) (A) (A) (A) (A) (A) (A)
                 (A) (A) (A) (A) (A) (A) (A) (A) (A) (A) (A) (A)
                 (A) (A) (A) (A) (A) (A) (A) (A) (A) (A) (A) (A)
                 (A) (A) (A) (A) (A) (A) (A) (A) (A) (A) (A) (A)
                 (A) (A) (A) (A) (A) (A) (A) (A) (A) (A) (A) (A)
                 (A) (A) (A) (A) (A) (A) (A) (A) (A) (A) (A) (A)
                 (A) (A) (A) (A) (A) (A) (A) (A) (A) (A) (A) (A)
                 (A) (A) (A) (A) (A) (A) (A) (A) (A) (A) (A) (A)
                 (A) (A) (A) (A) (A) (A) (A) (A) (A) (A) (A) (A)
                 (A) (A) (A) (A) (A) (A) (A) (A) (A) (A) (A) (A)
                 (A) (A) (A) (A) (A) (A) (A) (A) (A) (A) (A) (A)
                 (A) (A) (A) (A) (A) (A) (A) (A) (A) (A) (A) (A)
                 (A) (A) (A) (A) (A) (A) (A) (A) (A) (A) (A) (A)
                 (A) (A) (A) (A) (A) (A) (A) (A) (A) (A) (A) (A)
                 (A) (A) (A) (A) (A) (A) (A) (A) (A) (A) (A) (A)
                 (A) (A) (A) (A) (A) (A) (A) (A) (A) (A) (A) (A)
                 (A) (A) (A) (A) (A) (A) (A) (A) (A) (A) (A) (A)
                 (A) (A) (A) (A) (A) (A) (A) (A) (A) (A) (A) (A)
                 (A) (A) (A) (A) (A) (A) (A) (A) (A) (A) (A) (A)
                 (A) (A) (A) (A) (A) (A) (A) (A) (A) (A) (A) (A)
                 (A) (A) (A) (A) (A) (A) (A) (A) (A) (A) (A) (A)
                 (A) (A) (A) (A) (A) (A) (A) (A) (A) (A) (A) (A)
                 (A) (A) (A) (A) (A) (A) (A) (A) (A) (A) (A) (A)
                 (A) (A) (A) (A) (A) (A) (A) (A) (A) (A) (A) (A)
                 (A) (A) (A) (A) (A) (A) (A) (A) (A) (A) (A) (A)
                 (A) (A) (A) (A) (A) (A) (A) (A) (A) (A) (A) (A)
                 (A) (A) (A) (A) (A) (A) (A) (A) (A) (A) (A) (A)
                 (A) (A) (A) (A) (A) (A) (A) (A) (A) (A) (A) (A)
                 (A) (A) (A) (A) (A) (A) (A) (A) (A) (A) (A) (A)
                 (A) (A) (A) (A) (A) (A) (A) (A) (A) (A) (A) (A)
                 (A) (A) (A) (A) (A) (A) (A) (A) (A) (A) (A) (A)
                 (A) (A) (A) (A) (A) (A) (A) (A) (A) (A) (A) (A)
                 (A) (A) (A) (A) (A) (A) (A) (A) (A) (A) (A) (A)
                 (A) (A) (A) (A) (A) (A) (A) (A) (A) (A) (A) (A)
                 (A) (A) (A) (A) (A) (A) (A) (A) (A) (A) (A) (A)
                 (A) (A) (A) (A) (A) (A) (A) (A) (A) (A) (A) (A)
                 (A) (A) (A) (A) (A) (A) (A) (A) (A) (A) (A) (A)
                 (A) (A) (A) (A) (A) (A) (A) (A) (A) (A) (A) (A)
                 (A) (A) (A) (A) (A) (A) (A) (A) (A) (A) (A) (A)
                 (A) (A) (A) (A) (A) (A) (A) (A) (A) (A) (A) (A)
                 (A) (A) (A) (A) (A) (A) (A) (A) (A) (A) (A) (A)
                 (A) (A) (A) (A) (A) (A) (A) (A) (A) (A) (A) (A)
                 (A) (A) (A) (A) (A) (A) (A) (A) (A) (A) (A) (A)
                 (A) (A) (A) (A) (A) (A) (A) (A) (A) (A) (A) (A)
                 (A) (A) (A) (A) (A) (A) (A) (A) (A) (A) (A) (A)
                 (A) (A) (A) (A) (A) (A) (A) (A) (A) (A) (A) (A)
                 (A) (A) (A) (A) (A) (A) (A) (A) (A) (A) (A) (A)
                 (A) (A) (A) (A) (A) (A) (A) (A) (A) (A) (A) (A)
                 (A) (A) (A) (A) (A) (A) (A) (A) (A) (A) (A) (A)
                 (A) (A) (A) (A) (A) (A) (A) (A)
    20 initial guesses have been made.
 Convergence on wavefunction:    0.001000000000000
 Davidson Disk Diagonalization:  ConvIn= 1.00D-03 SkipCon=T Conv= 1.00D-03.
 Max sub-space:  2000 roots to seek:    20 dimension of matrix:       370304
 Iteration     1 Dimension    20 NMult     0 NNew     20
 CISAX will form    20 AO SS matrices at one time.
 NMat=    20 NSing=    20 JSym2X= 0.
 FoFJK:  IHMeth= 1 ICntrl=       0 DoSepK=T KAlg= 0 I1Cent=           0 FoldK=F
 IRaf=         1 NMat=      40 IRICut=       1 DoRegI=T DoRafI=F ISym2E= 0 IDoP0=3 IntGTp=3.
 FoFCou: FMM=T IPFlag=           0 FMFlag=      100000 FMFlg1=        2001
         NFxFlg=           0 DoJE=F BraDBF=F KetDBF=F FulRan=T
         wScrn=  0.000000 ICntrl=       500 IOpCl=  0 I1Cent=           0 NGrid=           0
         NMat0=   20 NMatS0=     20 NMatT0=    0 NMatD0=   20 NMtDS0=    0 NMtDT0=    0
 Symmetry not used in FoFCou.
 FMM levels:  10  Number of levels for PrismC:   9
 New state      3 was old state      4
 New state      4 was old state      6
 New state      5 was old state      7
 Excitation Energies [eV] at current iteration:
 Root      1 :     2.223292472279442
 Root      2 :     2.594833019838263
 Root      3 :     3.748063702873074
 Root      4 :     3.971325039056937
 Root      5 :     4.140536238344418
 Root      6 :     4.333576224044430
 Root      7 :     4.403958750667618
 Root      8 :     4.507774271309407
 Root      9 :     4.603005813134827
 Root     10 :     4.608066929557427
 Root     11 :     4.697167197611319
 Root     12 :     4.851173254293476
 Root     13 :     4.955057290138337
 Root     14 :     5.178229248256595
 Root     15 :     5.250550630476201
 Root     16 :     5.441186307973366
 Root     17 :     5.499020241520822
 Root     18 :     6.063174451363250
 Root     19 :     6.664165130475464
 Root     20 :     7.059573990507893
 Iteration     2 Dimension    30 NMult    20 NNew     10
 CISAX will form    10 AO SS matrices at one time.
 NMat=    10 NSing=    10 JSym2X= 0.
 Root      1 not converged, maximum delta is    0.078516848746665
 Root      2 not converged, maximum delta is    0.070108336707678
 Root      3 not converged, maximum delta is    0.052481112230614
 Root      4 not converged, maximum delta is    0.050403639663601
 Root      5 not converged, maximum delta is    0.201476066568829
 Excitation Energies [eV] at current iteration:
 Root      1 :     1.729510341701599   Change is   -0.493782130577843
 Root      2 :     2.156679959609667   Change is   -0.438153060228596
 Root      3 :     3.367654545959020   Change is   -0.380409156914054
 Root      4 :     3.558458743295966   Change is   -0.412866295760971
 Root      5 :     3.666571752489566   Change is   -0.473964485854852
 Iteration     3 Dimension    40 NMult    30 NNew     10
 CISAX will form    10 AO SS matrices at one time.
 NMat=    10 NSing=    10 JSym2X= 0.
 Root      1 not converged, maximum delta is    0.017252305019120
 Root      2 not converged, maximum delta is    0.014296680750138
 Root      3 not converged, maximum delta is    0.047917592256138
 New state      4 was old state      5
 Root      4 not converged, maximum delta is    0.263794404077427
 New state      5 was old state      4
 Root      5 not converged, maximum delta is    0.271954241998395
 Excitation Energies [eV] at current iteration:
 Root      1 :     1.692164342135122   Change is   -0.037345999566477
 Root      2 :     2.133630206151707   Change is   -0.023049753457961
 Root      3 :     3.349382127594005   Change is   -0.018272418365014
 Root      4 :     3.490812826161523   Change is   -0.175758926328043
 Root      5 :     3.546180436934218   Change is   -0.012278306361748
 Iteration     4 Dimension    50 NMult    40 NNew     10
 CISAX will form    10 AO SS matrices at one time.
 NMat=    10 NSing=    10 JSym2X= 0.
 Root      1 not converged, maximum delta is    0.003817967374910
 Root      2 not converged, maximum delta is    0.003340993193503
 Root      3 not converged, maximum delta is    0.016626516692584
 Root      4 not converged, maximum delta is    0.038941254163302
 Root      5 not converged, maximum delta is    0.043229272504670
 Excitation Energies [eV] at current iteration:
 Root      1 :     1.687985334771246   Change is   -0.004179007363876
 Root      2 :     2.130862893486964   Change is   -0.002767312664743
 Root      3 :     3.345313461809152   Change is   -0.004068665784853
 Root      4 :     3.468525197711154   Change is   -0.022287628450369
 Root      5 :     3.538226321355469   Change is   -0.007954115578749
 Iteration     5 Dimension    60 NMult    50 NNew     10
 CISAX will form    10 AO SS matrices at one time.
 NMat=    10 NSing=    10 JSym2X= 0.
 Root      1 not converged, maximum delta is    0.001467673130141
 Root      2 not converged, maximum delta is    0.001499088686276
 Root      3 not converged, maximum delta is    0.003541092496361
 Root      4 not converged, maximum delta is    0.010398149447687
 Root      5 not converged, maximum delta is    0.030730789022073
 Excitation Energies [eV] at current iteration:
 Root      1 :     1.687574898972555   Change is   -0.000410435798692
 Root      2 :     2.130584850312298   Change is   -0.000278043174666
 Root      3 :     3.344755952559142   Change is   -0.000557509250011
 Root      4 :     3.465933449858596   Change is   -0.002591747852558
 Root      5 :     3.535109685656138   Change is   -0.003116635699331
 Iteration     6 Dimension    70 NMult    60 NNew     10
 CISAX will form    10 AO SS matrices at one time.
 NMat=    10 NSing=    10 JSym2X= 0.
 Root      1 has converged.
 Root      2 has converged.
 Root      3 not converged, maximum delta is    0.002342565709698
 Root      4 not converged, maximum delta is    0.006146098696677
 Root      5 not converged, maximum delta is    0.045780916883928
 Excitation Energies [eV] at current iteration:
 Root      1 :     1.687539247784242   Change is   -0.000035651188312
 Root      2 :     2.130553082603424   Change is   -0.000031767708874
 Root      3 :     3.344671072257129   Change is   -0.000084880302013
 Root      4 :     3.465451439328916   Change is   -0.000482010529680
 Root      5 :     3.532234731495626   Change is   -0.002874954160512
 Iteration     7 Dimension    76 NMult    70 NNew      6
 CISAX will form     6 AO SS matrices at one time.
 NMat=     6 NSing=     6 JSym2X= 0.
 Root      1 has converged.
 Root      2 has converged.
 Root      3 has converged.
 Root      4 not converged, maximum delta is    0.001220756257520
 Root      5 not converged, maximum delta is    0.018130674614673
 Excitation Energies [eV] at current iteration:
 Root      1 :     1.687539097559206   Change is   -0.000000150225036
 Root      2 :     2.130552773814855   Change is   -0.000000308788569
 Root      3 :     3.344658234363151   Change is   -0.000012837893978
 Root      4 :     3.465398209451763   Change is   -0.000053229877154
 Root      5 :     3.531271774613441   Change is   -0.000962956882185
 Iteration     8 Dimension    80 NMult    76 NNew      4
 CISAX will form     4 AO SS matrices at one time.
 NMat=     4 NSing=     4 JSym2X= 0.
 Root      1 has converged.
 Root      2 has converged.
 Root      3 has converged.
 Root      4 has converged.
 Root      5 not converged, maximum delta is    0.003141844056638
 Excitation Energies [eV] at current iteration:
 Root      1 :     1.687539047610443   Change is   -0.000000049948763
 Root      2 :     2.130552694814597   Change is   -0.000000079000258
 Root      3 :     3.344657554421087   Change is   -0.000000679942064
 Root      4 :     3.465390647334287   Change is   -0.000007562117476
 Root      5 :     3.531120397148962   Change is   -0.000151377464479
 Iteration     9 Dimension    82 NMult    80 NNew      2
 CISAX will form     2 AO SS matrices at one time.
 NMat=     2 NSing=     2 JSym2X= 0.
 Root      1 has converged.
 Root      2 has converged.
 Root      3 has converged.
 Root      4 has converged.
 Root      5 has converged.
 Excitation Energies [eV] at current iteration:
 Root      1 :     1.687539026157091   Change is   -0.000000021453351
 Root      2 :     2.130552652859588   Change is   -0.000000041955009
 Root      3 :     3.344657363377946   Change is   -0.000000191043141
 Root      4 :     3.465390454953657   Change is   -0.000000192380630
 Root      5 :     3.531098026698455   Change is   -0.000022370450507
 Convergence achieved on expansion vectors.
 ***********************************************************************
 Excited states from <AA,BB:AA,BB> singles matrix:
 ***********************************************************************
 
 1PDM for each excited state written to RWF  633
 Ground to excited state transition densities written to RWF  633
 Ground to excited state transition electric dipole moments (Au):
       state          X           Y           Z        Dip. S.      Osc.
         1         0.2219     -2.9759      0.5267      9.1827      0.3796
         2         1.6450      0.3934      0.2125      2.9061      0.1517
         3        -0.1163      0.0461     -0.0219      0.0161      0.0013
         4        -0.1011     -0.1138      0.0199      0.0236      0.0020
         5         0.7304      0.1764      0.0504      0.5672      0.0491
 Ground to excited state transition velocity dipole moments (Au):
       state          X           Y           Z        Dip. S.      Osc.
         1        -0.0120      0.1791     -0.0320      0.0333      0.3575
         2        -0.1212     -0.0302     -0.0156      0.0158      0.1349
         3         0.0170     -0.0072      0.0045      0.0004      0.0020
         4         0.0123      0.0134      0.0014      0.0003      0.0018
         5        -0.0916     -0.0246     -0.0077      0.0091      0.0465
 Ground to excited state transition magnetic dipole moments (Au):
       state          X           Y           Z
         1         0.0612      0.4330      2.2041
         2         0.0451      0.1829     -0.2921
         3        -0.2232     -0.0862      0.8589
         4        -0.0504     -0.7804     -0.2401
         5         0.3080      0.2829     -0.5305
 Ground to excited state transition velocity quadrupole moments (Au):
       state          XX          YY          ZZ          XY          XZ          YZ
         1        -0.3350      0.3195     -0.0188      2.0835     -0.4332     -0.0829
         2        -2.5923      0.0649      0.0074     -0.3244     -0.1545      0.0462
         3         0.3244     -0.0952      0.0175     -0.4873      0.0464     -0.0734
         4         0.2798      0.0814      0.0276      0.2497      0.0548     -0.0077
         5        -1.8654      0.2023     -0.0283     -0.1816     -0.1354     -0.0331
 <0|del|b> * <b|rxdel|0> + <0|del|b> * <b|delr+rdel|0>
 Rotatory Strengths (R) in cgs (10**-40 erg-esu-cm/Gauss)
       state          XX          YY          ZZ    R(velocity)    E-M Angle
         1       102.3967    -20.5227    -10.0776     23.9321       89.12
         2        -2.6536    -52.2720     -3.2688    -19.3981       98.47
         3         7.5117      2.7724     -6.4993      1.2616       87.77
         4       -31.1452     -3.8567    -28.5513    -21.1844      139.92
         5       -13.1624    -61.3112    -95.0307    -56.5015      118.94
 1/2[<0|r|b>*<b|rxdel|0> + (<0|rxdel|b>*<b|r|0>)*]
 Rotatory Strengths (R) in cgs (10**-40 erg-esu-cm/Gauss)
       state          XX          YY          ZZ     R(length)
         1        -9.6064    911.2069   -820.9690     26.8772
         2       -52.4906    -50.8805     43.8860    -19.8284
         3       -18.3557      2.8095     13.3144     -0.7439
         4        -3.6027    -62.7822      3.3841    -21.0003
         5      -159.1132    -35.2943     18.9083    -58.4997
  1/2[<0|del|b>*<b|r|0> + (<0|r|b>*<b|del|0>)*] (Au)
       state          X           Y           Z        Dip. S.   Osc.(frdel)
         1        -0.0027     -0.5331     -0.0169      0.5526      0.3684
         2        -0.1994     -0.0119     -0.0033      0.2146      0.1430
         3        -0.0020     -0.0003     -0.0001      0.0024      0.0016
         4        -0.0012     -0.0015      0.0000      0.0027      0.0018
[...]
 Alpha virt. eigenvalues --    1.23499   1.25195   1.25274   1.25459   1.25810
 Alpha virt. eigenvalues --    1.26042   1.26637   1.26735   1.27308   1.27622
 Alpha virt. eigenvalues --    1.28037   1.28231   1.28411   1.28888   1.29394
 Alpha virt. eigenvalues --    1.30204   1.30460   1.30973   1.31671   1.32111
 Alpha virt. eigenvalues --    1.32821   1.33372   1.34451   1.34776   1.34960
 Alpha virt. eigenvalues --    1.35460   1.35954   1.36430   1.37004   1.37867
 Alpha virt. eigenvalues --    1.38255   1.38834   1.39100   1.39432   1.39634
 Alpha virt. eigenvalues --    1.39887   1.40169   1.40627   1.41246   1.41616
 Alpha virt. eigenvalues --    1.42299   1.42601   1.43017   1.44144   1.44539
 Alpha virt. eigenvalues --    1.44742   1.45069   1.45333   1.45921   1.45974
 Alpha virt. eigenvalues --    1.46234   1.46732   1.47315   1.47517   1.47864
 Alpha virt. eigenvalues --    1.48089   1.48311   1.48711   1.49205   1.49315
 Alpha virt. eigenvalues --    1.49432   1.49742   1.50702   1.51279   1.51395
 Alpha virt. eigenvalues --    1.51649   1.51870   1.52349   1.52497   1.53360
 Alpha virt. eigenvalues --    1.54120   1.55527   1.55578   1.56395   1.56543
 Alpha virt. eigenvalues --    1.57047   1.57126   1.57218   1.57531   1.57842
 Alpha virt. eigenvalues --    1.57887   1.58570   1.58851   1.59038   1.59163
 Alpha virt. eigenvalues --    1.60113   1.60316   1.60360   1.60903   1.60913
 Alpha virt. eigenvalues --    1.61106   1.61901   1.62091   1.62227   1.62741
 Alpha virt. eigenvalues --    1.63069   1.63137   1.63552   1.63821   1.63996
 Alpha virt. eigenvalues --    1.64234   1.64336   1.64534   1.64770   1.65452
 Alpha virt. eigenvalues --    1.65505   1.65994   1.66116   1.66234   1.66561
 Alpha virt. eigenvalues --    1.66828   1.66909   1.67714   1.68088   1.68232
 Alpha virt. eigenvalues --    1.68542   1.68742   1.69765   1.69823   1.70459
 Alpha virt. eigenvalues --    1.70674   1.71918   1.72542   1.72666   1.73106
 Alpha virt. eigenvalues --    1.73555   1.73850   1.74436   1.74553   1.75023
 Alpha virt. eigenvalues --    1.75170   1.76327   1.76838   1.76870   1.77260
 Alpha virt. eigenvalues --    1.77336   1.77793   1.78202   1.78314   1.78634
 Alpha virt. eigenvalues --    1.79204   1.79587   1.79725   1.79807   1.80011
 Alpha virt. eigenvalues --    1.80823   1.81408   1.81641   1.81773   1.82187
 Alpha virt. eigenvalues --    1.82363   1.82519   1.82874   1.83032   1.83071
 Alpha virt. eigenvalues --    1.83248   1.83761   1.83977   1.84075   1.84219
 Alpha virt. eigenvalues --    1.84348   1.84722   1.84885   1.84976   1.85176
 Alpha virt. eigenvalues --    1.85341   1.85468   1.85565   1.85653   1.85946
 Alpha virt. eigenvalues --    1.86005   1.86399   1.86534   1.86640   1.87000
 Alpha virt. eigenvalues --    1.87201   1.87448   1.87575   1.87910   1.87938
 Alpha virt. eigenvalues --    1.88226   1.88350   1.88519   1.88557   1.88981
 Alpha virt. eigenvalues --    1.89052   1.89380   1.89631   1.89724   1.90008
 Alpha virt. eigenvalues --    1.90010   1.90303   1.90387   1.90691   1.91118
 Alpha virt. eigenvalues --    1.91190   1.91553   1.91747   1.91794   1.92013
 Alpha virt. eigenvalues --    1.92242   1.92421   1.92520   1.92700   1.92830
 Alpha virt. eigenvalues --    1.92885   1.93082   1.93389   1.93684   1.94142
 Alpha virt. eigenvalues --    1.94352   1.94536   1.94932   1.95097   1.95181
 Alpha virt. eigenvalues --    1.95363   1.95679   1.96195   1.96298   1.96550
 Alpha virt. eigenvalues --    1.97084   1.97178   1.97289   1.97497   1.97646
 Alpha virt. eigenvalues --    1.97984   1.98062   1.98219   1.98597   1.98735
 Alpha virt. eigenvalues --    1.98877   1.99428   1.99558   1.99897   2.00051
 Alpha virt. eigenvalues --    2.00253   2.00506   2.00691   2.00927   2.01286
 Alpha virt. eigenvalues --    2.01410   2.01809   2.02105   2.02365   2.02593
 Alpha virt. eigenvalues --    2.02651   2.02854   2.03029   2.03516   2.03911
 Alpha virt. eigenvalues --    2.04286   2.04463   2.04638   2.05685   2.05862
 Alpha virt. eigenvalues --    2.06068   2.06433   2.06841   2.07391   2.07636
 Alpha virt. eigenvalues --    2.07936   2.08003   2.08207   2.08484   2.08936
 Alpha virt. eigenvalues --    2.09194   2.09713   2.09772   2.10365   2.10443
 Alpha virt. eigenvalues --    2.10735   2.10780   2.11317   2.11898   2.11954
 Alpha virt. eigenvalues --    2.12072   2.12215   2.12521   2.12674   2.13086
 Alpha virt. eigenvalues --    2.13603   2.13812   2.14171   2.14784   2.14827
 Alpha virt. eigenvalues --    2.15259   2.15607   2.15657   2.16174   2.16423
 Alpha virt. eigenvalues --    2.16727   2.17193   2.17342   2.17442   2.18314
 Alpha virt. eigenvalues --    2.18530   2.18552   2.18968   2.19504   2.19665
 Alpha virt. eigenvalues --    2.19796   2.20001   2.20541   2.20596   2.20660
 Alpha virt. eigenvalues --    2.20948   2.21344   2.21781   2.21948   2.22232
 Alpha virt. eigenvalues --    2.22654   2.23288   2.23324   2.23630   2.24364
 Alpha virt. eigenvalues --    2.24554   2.24801   2.25428   2.26190   2.26418
 Alpha virt. eigenvalues --    2.26529   2.26767   2.27870   2.28165   2.28762
 Alpha virt. eigenvalues --    2.29512   2.29912   2.30084   2.30551   2.31344
 Alpha virt. eigenvalues --    2.31701   2.31772   2.31923   2.32058   2.32172
 Alpha virt. eigenvalues --    2.32841   2.32899   2.33142   2.33607   2.33859
 Alpha virt. eigenvalues --    2.34255   2.34517   2.34815   2.35593   2.36067
 Alpha virt. eigenvalues --    2.37332   2.37392   2.37580   2.38135   2.38472
 Alpha virt. eigenvalues --    2.38662   2.38803   2.39030   2.39598   2.39951
 Alpha virt. eigenvalues --    2.40344   2.41065   2.41396   2.41485   2.41553
 Alpha virt. eigenvalues --    2.42134   2.42517   2.42770   2.43176   2.43483
 Alpha virt. eigenvalues --    2.43868   2.44244   2.44690   2.44805   2.45273
 Alpha virt. eigenvalues --    2.45611   2.45948   2.46239   2.46593   2.46838
 Alpha virt. eigenvalues --    2.47253   2.47912   2.48178   2.48813   2.49097
 Alpha virt. eigenvalues --    2.49324   2.49529   2.49719   2.49927   2.50770
 Alpha virt. eigenvalues --    2.51026   2.51448   2.51554   2.51839   2.52200
 Alpha virt. eigenvalues --    2.52679   2.53523   2.53565   2.53729   2.54266
 Alpha virt. eigenvalues --    2.54424   2.54531   2.55624   2.55685   2.57015
 Alpha virt. eigenvalues --    2.57195   2.57874   2.58316   2.58679   2.59030
 Alpha virt. eigenvalues --    2.59313   2.59806   2.60212   2.60700   2.60854
 Alpha virt. eigenvalues --    2.62052   2.62350   2.62678   2.63148   2.63959
 Alpha virt. eigenvalues --    2.64269   2.64917   2.65507   2.65995   2.66183
 Alpha virt. eigenvalues --    2.66630   2.66731   2.67067   2.67359   2.67808
 Alpha virt. eigenvalues --    2.67941   2.68160   2.68655   2.69280   2.69463
 Alpha virt. eigenvalues --    2.69671   2.69900   2.70473   2.71049   2.71421
 Alpha virt. eigenvalues --    2.71753   2.71867   2.72369   2.72575   2.72947
 Alpha virt. eigenvalues --    2.73491   2.73977   2.74241   2.74466   2.74728
 Alpha virt. eigenvalues --    2.76045   2.76383   2.76992   2.77522   2.77633
 Alpha virt. eigenvalues --    2.78316   2.78663   2.78945   2.79170   2.79672
 Alpha virt. eigenvalues --    2.80174   2.80658   2.80738   2.80981   2.81111
 Alpha virt. eigenvalues --    2.82198   2.82444   2.82868   2.82926   2.83323
 Alpha virt. eigenvalues --    2.83915   2.84057   2.84505   2.85021   2.85280
 Alpha virt. eigenvalues --    2.85510   2.86136   2.86394   2.86538   2.87527
 Alpha virt. eigenvalues --    2.87990   2.88212   2.88727   2.89406   2.89758
 Alpha virt. eigenvalues --    2.90719   2.90935   2.91378   2.92110   2.92599
 Alpha virt. eigenvalues --    2.93782   2.93946   2.95236   2.96138   2.96709
 Alpha virt. eigenvalues --    2.96980   2.97105   2.97590   2.97603   2.98183
 Alpha virt. eigenvalues --    2.98389   2.98535   2.98900   2.99175   2.99323
 Alpha virt. eigenvalues --    2.99984   3.00137   3.00385   3.00665   3.01308
 Alpha virt. eigenvalues --    3.01470   3.01689   3.01858   3.02243   3.02434
 Alpha virt. eigenvalues --    3.02673   3.03015   3.03419   3.03697   3.04302
 Alpha virt. eigenvalues --    3.04460   3.04840   3.05068   3.05083   3.05231
 Alpha virt. eigenvalues --    3.05293   3.05809   3.06098   3.06299   3.06633
 Alpha virt. eigenvalues --    3.06672   3.06816   3.07139   3.07688   3.08224
 Alpha virt. eigenvalues --    3.08450   3.08596   3.09205   3.09298   3.09481
 Alpha virt. eigenvalues --    3.09739   3.09759   3.10900   3.11131   3.11234
 Alpha virt. eigenvalues --    3.11621   3.12423   3.12568   3.12703   3.13835
 Alpha virt. eigenvalues --    3.14036   3.14489   3.14590   3.15114   3.15670
 Alpha virt. eigenvalues --    3.15704   3.17324   3.17533   3.19287   3.19549
 Alpha virt. eigenvalues --    3.20805   3.21013   3.21158   3.21698   3.23072
 Alpha virt. eigenvalues --    3.23153   3.23346   3.24398   3.24806   3.25458
 Alpha virt. eigenvalues --    3.26271   3.26963   3.28523   3.30503   3.32778
 Alpha virt. eigenvalues --    3.32911   3.33435   3.42713   3.44784   3.46128
 Alpha virt. eigenvalues --    3.47190   3.51176   3.53296   3.58635   3.59464
 Alpha virt. eigenvalues --    3.63387   3.67767   3.70346   3.71048   3.71273
 Alpha virt. eigenvalues --    3.73573   3.75384
          Condensed to atoms (all electrons):
 Mulliken charges:
               1
     1  Mg   0.963159
     2  C   -0.002655
     3  C   -0.075798
     4  C   -0.080171
     5  C   -0.103147
     6  N   -0.324129
     7  C   -0.024341
     8  C   -0.027254
     9  C   -0.173266
    10  C    0.076176
    11  C    0.025000
    12  C    0.045330
    13  C    0.024784
    14  C    0.177598
    15  O   -0.250171
    16  O   -0.389967
    17  N   -0.405197
    18  C    0.126104
    19  C   -0.155664
    20  C   -0.076493
    21  C    0.113935
    22  C    0.050927
    23  C    0.065901
    24  O   -0.234061
    25  C   -0.023815
    26  N   -0.343083
    27  C    0.075505
    28  C   -0.109374
    29  C   -0.078234
    30  C    0.044354
    31  C    0.053549
    32  C   -0.018779
    33  C   -0.073817
    34  N   -0.461871
    35  C    0.177462
    36  C   -0.187902
    37  C   -0.009428
    38  C    0.129310
    39  C    0.082224
    40  C    0.099572
    41  O   -0.227371
    42  C   -0.079683
    43  C    0.284021
    44  O   -0.264768
    45  O   -0.350144
    46  C    0.130844
    47  C    0.239791
    48  C   -0.103625
    49  C   -0.211227
    50  C    0.007664
    51  C    0.058253
    52  C   -0.034985
    53  C   -0.031430
    54  C   -0.131617
    55  C   -0.015007
    56  C   -0.038635
    57  C   -0.033852
    58  C    0.044939
    59  C   -0.178783
    60  C    0.019061
    61  C   -0.031375
    62  C   -0.023094
    63  C   -0.022656
    64  C   -0.237906
    65  C    0.010922
    66  C    0.018779
    67  H   -0.000608
    68  H    0.026333
    69  H   -0.011465
    70  H    0.038333
    71  H    0.039687
    72  H    0.048860
    73  H    0.036941
    74  H    0.034254
    75  H    0.041313
    76  H    0.045513
    77  H    0.058225
    78  H    0.048661
    79  H    0.024975
    80  H    0.060124
    81  H    0.034526
    82  H    0.051029
    83  H    0.056445
    84  H    0.068102
    85  H    0.039346
    86  H    0.038712
    87  H    0.041355
    88  H    0.034386
    89  H    0.045917
    90  H    0.036626
    91  H    0.034136
    92  H    0.043871
    93  H    0.034724
    94  H    0.044250
    95  H    0.032533
    96  H    0.052391
    97  H    0.066885
    98  H    0.073038
    99  H    0.054168
   100  H    0.060773
   101  H    0.059800
   102  H    0.035997
   103  H    0.065895
   104  H    0.016536
   105  H    0.059675
   106  H    0.040135
   107  H    0.036120
   108  H    0.011701
   109  H    0.040868
   110  H    0.033342
   111  H    0.025051
   112  H    0.016855
   113  H    0.032221
   114  H    0.021684
   115  H    0.019408
   116  H    0.041887
   117  H    0.029661
   118  H    0.005595
   119  H   -0.001502
   120  H    0.017616
   121  H    0.036588
   122  H    0.013792
   123  H    0.016720
   124  H    0.012675
   125  H    0.023570
   126  H    0.021945
   127  H    0.031085
   128  H    0.026419
   129  H    0.005784
   130  H    0.020218
   131  H    0.010547
   132  H    0.023500
   133  H    0.018891
   134  H    0.025518
   135  H    0.033436
   136  H    0.018292
   137  H    0.031781
   138  H    0.023208
   139  H    0.036701
   140  H    0.026039
 Sum of Mulliken charges =  -0.00000
 Mulliken charges with hydrogens summed into heavy atoms:
               1
     1  Mg   0.963159
     2  C   -0.002655
     3  C   -0.076406
     4  C   -0.053838
     5  C   -0.114612
     6  N   -0.324129
     7  C   -0.024341
     8  C    0.011079
     9  C   -0.133578
    10  C    0.076176
    11  C    0.145055
    12  C    0.132155
    13  C    0.131670
    14  C    0.177598
    15  O   -0.250171
    16  O   -0.389967
    17  N   -0.405197
    18  C    0.126104
    19  C   -0.155664
    20  C   -0.076493
    21  C    0.113935
    22  C    0.170553
    23  C    0.065901
    24  O   -0.234061
    25  C    0.151761
    26  N   -0.343083
    27  C    0.075505
    28  C   -0.070028
    29  C   -0.039522
    30  C    0.044354
    31  C    0.175207
    32  C    0.051983
    33  C    0.049028
    34  N   -0.461871
    35  C    0.177462
    36  C   -0.187902
    37  C   -0.009428
    38  C    0.129310
    39  C    0.234034
    40  C    0.099572
    41  O   -0.227371
    42  C   -0.006645
    43  C    0.284021
    44  O   -0.264768
    45  O   -0.350144
    46  C    0.305583
    47  C    0.341683
    48  C   -0.087089
    49  C   -0.211227
    50  C    0.143593
    51  C    0.110822
    52  C    0.023408
    53  C    0.017647
    54  C   -0.109932
    55  C    0.075949
    56  C   -0.034542
    57  C    0.020352
    58  C    0.075451
    59  C   -0.166108
    60  C    0.095662
    61  C    0.000828
    62  C    0.007672
    63  C    0.019735
    64  C   -0.212387
    65  C    0.094431
    66  C    0.104726
 Electronic spatial extent (au):  <R**2>=         140269.2923
 Charge=             -0.0000 electrons
 Dipole moment (field-independent basis, Debye):
    X=             -3.0811    Y=              3.7490    Z=              0.6950  Tot=              4.9022
 Quadrupole moment (field-independent basis, Debye-Ang):
   XX=           -375.6064   YY=           -419.9095   ZZ=           -407.6129
   XY=              2.0308   XZ=             29.3103   YZ=              4.4714
 Traceless Quadrupole moment (field-independent basis, Debye-Ang):
   XX=             25.4365   YY=            -18.8665   ZZ=             -6.5700
   XY=              2.0308   XZ=             29.3103   YZ=              4.4714
 Octapole moment (field-independent basis, Debye-Ang**2):
  XXX=            237.0349  YYY=            152.0358  ZZZ=            -26.2422  XYY=           -169.8509
  XXY=           -302.8042  XXZ=            212.0749  XZZ=             12.8599  YZZ=              6.3284
  YYZ=            -51.6771  XYZ=            -32.8634
 Hexadecapole moment (field-independent basis, Debye-Ang**3):
 XXXX=        -163531.8540 YYYY=         -20466.7765 ZZZZ=          -6094.6166 XXXY=          -2715.1881
 XXXZ=           1940.5348 YYYX=            660.5890 YYYZ=             59.8830 ZZZX=            303.8086
 ZZZY=             63.9721 XXYY=         -32724.3091 XXZZ=         -29029.7378 YYZZ=          -4320.8980
 XXYZ=           -271.7233 YYXZ=             76.3013 ZZXY=            206.1065
 N-N= 9.358068402867D+03 E-N=-2.570847865781D+04  KE= 2.975684534123D+03
 Leave Link  601 at Fri Apr 29 02:24:06 2022, MaxMem= 10066329600 cpu:              10.4 elap:               0.5
 (Enter /sw/apps/gaussian-16.0/g16/l9999.exe)
 1\1\GINC-BP1-COMPUTE159\SP\RwB97XD TD-FC\def2SVP\C55H74Mg1N4O6\OF15641
 \29-Apr-2022\0\\#p wB97XD/Def2SVP td=(nstates=5)\\step_1801_chromophor
 e_25 TDDFT with wB97XD functional\\0,1\Mg,0,-2.479,34.491,26.742\C,0,-
 3.817,32.887,29.506\C,0,-1.027,36.836,28.812\C,0,-1.558,36.307,24.046\
 C,0,-3.928,32.189,24.678\N,0,-2.532,34.86,28.953\C,0,-2.944,33.931,29.
 828\C,0,-2.436,34.293,31.257\C,0,-1.618,35.686,31.037\C,0,-1.775,35.85
 2,29.484\C,0,-2.011,36.966,31.843\C,0,-1.61,33.185,32.09\C,0,-2.256,32
 .567,33.31\C,0,-1.364,32.287,34.47\O,0,-0.882,31.206,34.699\O,0,-1.363
 ,33.407,35.289\N,0,-1.455,36.32,26.51\C,0,-0.84,37.075,27.443\C,0,-0.1
 77,38.164,26.806\C,0,-0.295,37.984,25.368\C,0,-1.166,36.843,25.311\C,0
 ,0.692,39.123,27.551\C,0,0.267,38.846,24.211\O,0,0.104,38.651,23.011\C
 ,0,1.136,40.109,24.499\N,0,-2.822,34.353,24.637\C,0,-2.323,35.199,23.7
 15\C,0,-2.358,34.634,22.269\C,0,-2.998,33.228,22.507\C,0,-3.232,33.221
 ,24.031\C,0,-3.088,35.315,21.126\C,0,-2.192,32.028,21.919\C,0,-0.774,3
 1.792,22.522\N,0,-3.673,32.852,26.964\C,0,-4.192,31.976,26.034\C,0,-4.
 847,30.907,26.69\C,0,-4.783,31.196,28.092\C,0,-4.086,32.43,28.173\C,0,
 -5.503,29.726,26.127\C,0,-5.1,30.83,29.469\O,0,-5.778,29.857,29.839\C,
 0,-4.503,31.921,30.444\C,0,-5.668,32.554,31.219\O,0,-6.537,33.352,30.8
 35\O,0,-5.535,32.16,32.506\C,0,-6.528,32.754,33.441\C,0,-0.632,33.118,
 36.575\C,0,-1.322,34.004,37.592\C,0,-1.896,33.639,38.747\C,0,-2.255,32
 .182,39.059\C,0,-2.323,34.627,39.766\C,0,-1.474,35.822,40.184\C,0,-1.1
 99,35.903,41.775\C,0,0.096,36.641,42.208\C,0,1.303,35.824,42.73\C,0,-0
 .312,37.688,43.303\C,0,-1.08,37.235,44.594\C,0,-0.344,37.528,45.932\C,
 0,0.29,36.345,46.681\C,0,-0.291,36.171,48.079\C,0,1.84,36.625,46.826\C
 ,0,2.711,35.392,46.943\C,0,4.237,35.73,46.878\C,0,4.883,34.95,45.635\C
 ,0,6.375,34.68,45.895\C,0,4.664,35.686,44.312\H,0,-0.367,37.427,29.45\
 H,0,-0.992,36.724,23.211\H,0,-4.224,31.388,23.998\H,0,-3.351,34.709,31
 .677\H,0,-0.617,35.469,31.41\H,0,-2.843,36.791,32.526\H,0,-2.264,37.75
 ,31.129\H,0,-1.105,37.342,32.318\H,0,-0.64,33.608,32.35\H,0,-1.377,32.
 381,31.392\H,0,-2.747,31.614,33.114\H,0,-3.079,33.158,33.711\H,0,0.832
 ,40.097,27.083\H,0,1.667,38.707,27.804\H,0,0.182,39.341,28.489\H,0,0.7
 06,40.763,25.257\H,0,1.117,40.776,23.637\H,0,2.084,39.671,24.812\H,0,-
 1.335,34.41,21.966\H,0,-4.02,33.161,22.134\H,0,-3.641,36.129,21.596\H,
 0,-3.796,34.609,20.693\H,0,-2.408,35.695,20.363\H,0,-1.985,32.178,20.8
 59\H,0,-2.765,31.116,22.088\H,0,-0.335,32.69,22.959\H,0,-0.077,31.503,
 21.735\H,0,-0.837,30.957,23.22\H,0,-4.935,29.213,25.35\H,0,-6.392,30.0
 8,25.605\H,0,-5.696,29.022,26.936\H,0,-3.905,31.369,31.168\H,0,-6.355,
 33.776,33.777\H,0,-6.689,32.075,34.278\H,0,-7.506,32.857,32.97\H,0,0.3
 55,33.512,36.331\H,0,-0.46,32.087,36.887\H,0,-1.15,35.078,37.529\H,0,-
 1.528,31.7,39.712\H,0,-2.404,31.577,38.165\H,0,-3.269,32.124,39.453\H,
 0,-2.695,34.142,40.668\H,0,-3.273,34.99,39.373\H,0,-1.856,36.804,39.90
 6\H,0,-0.529,35.687,39.659\H,0,-1.149,34.933,42.268\H,0,-2.128,36.342,
 42.139\H,0,0.393,37.131,41.281\H,0,1.631,36.115,43.727\H,0,2.138,36.08
 3,42.079\H,0,1.229,34.742,42.837\H,0,-0.847,38.504,42.818\H,0,0.536,38
 .269,43.668\H,0,-1.01,36.161,44.42\H,0,-2.069,37.692,44.57\H,0,-1.132,
 38.008,46.512\H,0,0.463,38.229,45.719\H,0,0.11,35.418,46.135\H,0,0.436
 ,35.742,48.769\H,0,-1.069,35.407,48.103\H,0,-0.705,37.144,48.343\H,0,2
 .002,37.391,47.584\H,0,2.19,37.05,45.885\H,0,2.519,34.618,46.199\H,0,2
 .564,34.967,47.936\H,0,4.513,35.448,47.894\H,0,4.427,36.799,46.776\H,0
 ,4.32,34.021,45.716\H,0,6.703,35.242,46.769\H,0,7.049,34.947,45.081\H,
 0,6.462,33.598,46.003\H,0,3.698,35.418,43.885\H,0,5.472,35.511,43.601\
 H,0,4.624,36.746,44.56\\Version=ES64L-G16RevA.03\State=1-A\HF=-3007.86
 55748\RMSD=8.168e-09\PG=C01 [X(C55H74Mg1N4O6)]\\@


 ERWIN WITH HIS PSI CAN DO
 CALCULATIONS QUITE A FEW.
 BUT ONE THING HAS NOT BEEN SEEN
 JUST WHAT DOES PSI REALLY MEAN.
 -- WALTER HUCKEL, TRANS. BY FELIX BLOCH
 Job cpu time:       0 days  9 hours 59 minutes 53.6 seconds.
 Elapsed time:       0 days  0 hours 25 minutes 27.3 seconds.
 File lengths (MBytes):  RWF=   8929 Int=      0 D2E=      0 Chk=    390 Scr=      1
 Normal termination of Gaussian 16 at Fri Apr 29 02:24:07 2022.
