 Entering Gaussian System, Link 0=g16
 Initial command:
 /sw/apps/gaussian-16.0/g16/l1.exe "/tmp/Gau-253046.inp" -scrdir="/tmp/"
 Entering Link 1 = /sw/apps/gaussian-16.0/g16/l1.exe PID=    253047.
  
 Copyright (c) 1988,1990,1992,1993,1995,1998,2003,2009,2016,
            Gaussian, Inc.  All Rights Reserved.
  
 This is part of the Gaussian(R) 16 program.  It is based on
 the Gaussian(R) 09 system (copyright 2009, Gaussian, Inc.),
 the Gaussian(R) 03 system (copyright 2003, Gaussian, Inc.),
 the Gaussian(R) 98 system (copyright 1998, Gaussian, Inc.),
 the Gaussian(R) 94 system (copyright 1995, Gaussian, Inc.),
 the Gaussian 92(TM) system (copyright 1992, Gaussian, Inc.),
 the Gaussian 90(TM) system (copyright 1990, Gaussian, Inc.),
 the Gaussian 88(TM) system (copyright 1988, Gaussian, Inc.),
 the Gaussian 86(TM) system (copyright 1986, Carnegie Mellon
 University), and the Gaussian 82(TM) system (copyright 1983,
 Carnegie Mellon University). Gaussian is a federally registered
 trademark of Gaussian, Inc.
  
 This software contains proprietary and confidential information,
 including trade secrets, belonging to Gaussian, Inc.
  
 This software is provided under written license and may be
 used, copied, transmitted, or stored only in accord with that
 written license.
  
 The following legend is applicable only to US Government
 contracts under FAR:
  
                    RESTRICTED RIGHTS LEGEND
  
 Use, reproduction and disclosure by the US Government is
 subject to restrictions as set forth in subparagraphs (a)
 and (c) of the Commercial Computer Software - Restricted
 Rights clause in FAR 52.227-19.
  
 Gaussian, Inc.
 340 Quinnipiac St., Bldg. 40, Wallingford CT 06492
  
  
 ---------------------------------------------------------------
 Warning -- This program may not be used in any manner that
 competes with the business of Gaussian, Inc. or will provide
 assistance to any competitor of Gaussian, Inc.  The licensee
 of this program is prohibited from giving any competitor of
 Gaussian, Inc. access to this program.  By using this program,
 the user acknowledges that Gaussian, Inc. is engaged in the
 business of creating and licensing software in the field of
 computational chemistry and represents and warrants to the
 licensee that it is not a competitor of Gaussian, Inc. and that
 it will not use this program in any manner prohibited above.
 ---------------------------------------------------------------
  

 Cite this work as:
 Gaussian 16, Revision A.03,
 M. J. Frisch, G. W. Trucks, H. B. Schlegel, G. E. Scuseria, 
 M. A. Robb, J. R. Cheeseman, G. Scalmani, V. Barone, 
 G. A. Petersson, H. Nakatsuji, X. Li, M. Caricato, A. V. Marenich, 
 J. Bloino, B. G. Janesko, R. Gomperts, B. Mennucci, H. P. Hratchian, 
 J. V. Ortiz, A. F. Izmaylov, J. L. Sonnenberg, D. Williams-Young, 
 F. Ding, F. Lipparini, F. Egidi, J. Goings, B. Peng, A. Petrone, 
 T. Henderson, D. Ranasinghe, V. G. Zakrzewski, J. Gao, N. Rega, 
 G. Zheng, W. Liang, M. Hada, M. Ehara, K. Toyota, R. Fukuda, 
 J. Hasegawa, M. Ishida, T. Nakajima, Y. Honda, O. Kitao, H. Nakai, 
 T. Vreven, K. Throssell, J. A. Montgomery, Jr., J. E. Peralta, 
 F. Ogliaro, M. J. Bearpark, J. J. Heyd, E. N. Brothers, K. N. Kudin, 
 V. N. Staroverov, T. A. Keith, R. Kobayashi, J. Normand, 
 K. Raghavachari, A. P. Rendell, J. C. Burant, S. S. Iyengar, 
 J. Tomasi, M. Cossi, J. M. Millam, M. Klene, C. Adamo, R. Cammi, 
 J. W. Ochterski, R. L. Martin, K. Morokuma, O. Farkas, 
 J. B. Foresman, and D. J. Fox, Gaussian, Inc., Wallingford CT, 2016.
 
 ******************************************
 Gaussian 16:  ES64L-G16RevA.03 25-Dec-2016
                 4-May-2022 
 ******************************************
 %nproc=24
 Will use up to   24 processors via shared memory.
 %mem=75GB
 --------------------------------
 #p wB97XD/Def2SVP td=(nstates=5)
 --------------------------------
 1/38=1,172=1/1;
 2/12=2,17=6,18=5,40=1/2;
 3/5=43,7=101,11=9,25=1,30=1,74=-58/1,2,3,8;
 4//1;
 5/5=2,38=5/2;
 8/6=1,10=1,108=5/1;
 9/41=5,42=1,70=2/14;
 6/7=2,8=2,9=2,10=2/1;
 99/5=1,9=1/99;
 Leave Link    1 at Wed May  4 10:15:59 2022, MaxMem= 10066329600 cpu:               1.1 elap:               0.1
 (Enter /sw/apps/gaussian-16.0/g16/l101.exe)
 -----------------------------------------------------
 step_1601_chromophore_27 TDDFT with wB97XD functional
 -----------------------------------------------------
 Symbolic Z-matrix:
 Charge =  0 Multiplicity = 1
 Mg                   -6.303     24.525    26.538 
 C                    -4.552     26.417    28.899 
 C                    -7.075     22.286    29.066 
 C                    -7.882     22.657    24.269 
 C                    -4.986     26.572    23.999 
 N                    -5.95      24.4      28.794 
 C                    -5.371     25.41     29.505 
 C                    -5.54      25.058    31.014 
 C                    -5.962     23.528    30.997 
 C                    -6.412     23.356    29.497 
 C                    -4.8       22.447    31.395 
 C                    -6.642     26.034    31.677 
 C                    -6.364     26.329    33.088 
 C                    -6.945     25.794    34.381 
 O                    -7.81      26.367    35.049 
 O                    -6.36      24.616    34.695 
 N                    -7.302     22.746    26.65 
 C                    -7.522     21.999    27.757 
 C                    -8.25      20.84     27.449 
 C                    -8.614     20.926    26.083 
 C                    -7.981     22.148    25.563 
 C                    -8.688     19.751    28.462 
 C                    -9.525     19.937    25.273 
 O                    -9.735     20.201    24.071 
 C                    -10.279    18.783    25.909 
 N                    -6.522     24.648    24.539 
 C                    -7.231     23.82     23.793 
 C                    -7.487     24.312    22.296 
 C                    -6.42      25.467    22.276 
 C                    -5.866     25.579    23.669 
 C                    -7.397     23.225    21.12 
 C                    -6.888     26.853    21.67 
 C                    -5.968     27.481    20.54 
 N                    -4.987     26.134    26.379 
 C                    -4.614     26.856    25.304 
 C                    -3.86      27.978    25.733 
 C                    -3.775     27.905    27.124 
 C                    -4.515     26.721    27.497 
 C                    -3.336     28.973    24.788 
 C                    -3.239     28.565    28.386 
 O                    -2.603     29.581    28.635 
 C                    -3.738     27.565    29.536 
 C                    -2.537     27.176    30.335 
 O                    -1.678     26.386    29.952 
 O                    -2.638     27.712    31.539 
 C                    -1.679     27.329    32.596 
 C                    -6.677     24.106    36.044 
 C                    -8.005     23.257    36.122 
 C                    -8.329     22.333    36.958 
 C                    -7.676     22.07     38.261 
 C                    -9.487     21.353    36.446 
 C                    -10.925    21.866    36.641 
 C                    -11.714    20.946    37.497 
 C                    -12.831    20.266    36.709 
 C                    -14.115    21.098    36.567 
 C                    -13.084    18.865    37.196 
 C                    -12.02     17.789    36.728 
 C                    -11.626    16.763    37.856 
 C                    -10.097    16.646    37.833 
 C                    -9.374     17.781    38.581 
 C                    -9.639     15.211    38.158 
 C                    -8.396     14.763    37.332 
 C                    -7.054     15.293    37.894 
 C                    -5.96      14.36     38.232 
 C                    -6.086     13.86     39.731 
 C                    -4.555     14.933    37.941 
 H                    -7.329     21.704    29.954 
 H                    -8.37      22.087    23.475 
 H                    -4.718     27.238    23.176 
 H                    -4.618     25.332    31.527 
 H                    -6.883     23.331    31.546 
 H                    -4.713     21.686    30.62 
 H                    -5.066     21.861    32.275 
 H                    -3.826     22.872    31.639 
 H                    -7.572     25.473    31.581 
 H                    -6.795     26.931    31.078 
 H                    -6.382     27.418    33.14 
 H                    -5.306     26.195    33.313 
 H                    -9.573     19.997    29.049 
 H                    -7.854     19.473    29.105 
 H                    -8.967     18.893    27.85 
 H                    -10.711    19.07     26.867 
 H                    -9.59      17.959    26.094 
 H                    -11.171    18.504    25.346 
 H                    -8.406     24.875    22.131 
 H                    -5.621     25.092    21.636 
 H                    -7.593     22.182    21.368 
 H                    -6.44      23.267    20.599 
 H                    -8.216     23.483    20.449 
 H                    -7.006     27.624    22.431 
 H                    -7.853     26.856    21.161 
 H                    -5.662     28.511    20.725 
 H                    -6.555     27.44     19.623 
 H                    -5.101     26.839    20.388 
 H                    -4.132     29.309    24.123 
 H                    -2.564     28.6      24.114 
 H                    -2.88      29.859    25.23 
 H                    -4.444     28.151    30.125 
 H                    -0.69      27.192    32.16 
 H                    -2.065     26.431    33.078 
 H                    -1.549     28.206    33.23 
 H                    -6.589     24.834    36.851 
 H                    -5.941     23.334    36.27 
 H                    -8.534     23.321    35.171 
 H                    -7.265     21.067    38.144 
 H                    -8.347     21.994    39.117 
 H                    -6.937     22.851    38.438 
 H                    -9.3       20.394    36.93 
 H                    -9.318     21.165    35.385 
 H                    -11.462    21.843    35.693 
 H                    -11.052    22.894    36.98 
 H                    -12.152    21.695    38.156 
 H                    -11.153    20.191    38.048 
 H                    -12.585    20.08     35.663 
 H                    -14.09     22.114    36.961 
 H                    -14.975    20.649    37.064 
 H                    -14.45     21.17     35.532 
 H                    -14.033    18.501    36.802 
 H                    -13.051    18.844    38.285 
 H                    -11.198    18.254    36.183 
 H                    -12.453    17.115    35.988 
 H                    -12.027    15.782    37.6 
 H                    -11.984    16.986    38.861 
 H                    -9.796     16.89     36.814 
 H                    -8.762     18.272    37.823 
 H                    -8.755     17.54     39.445 
 H                    -10.104    18.515    38.921 
 H                    -10.432    14.473    38.044 
 H                    -9.4       15.179    39.221 
 H                    -8.579     15.071    36.302 
 H                    -8.266     13.68     37.345 
 H                    -7.351     15.852    38.781 
 H                    -6.675     16.047    37.203 
 H                    -6.112     13.454    37.647 
 H                    -5.084     13.645    40.101 
 H                    -6.672     12.961    39.923 
 H                    -6.478     14.657    40.364 
 H                    -4.595     16.022    37.954 
 H                    -4.327     14.551    36.946 
 H                    -3.663     14.814    38.556 
 
 ITRead=  0  0  0  0  0  0  0  0  0  0  0  0  0  0  0  0  0  0  0  0
 ITRead=  0  0  0  0  0  0  0  0  0  0  0  0  0  0  0  0  0  0  0  0
 ITRead=  0  0  0  0  0  0  0  0  0  0  0  0  0  0  0  0  0  0  0  0
 ITRead=  0  0  0  0  0  0  0  0  0  0  0  0  0  0  0  0  0  0  0  0
 ITRead=  0  0  0  0  0  0  0  0  0  0  0  0  0  0  0  0  0  0  0  0
 ITRead=  0  0  0  0  0  0  0  0  0  0  0  0  0  0  0  0  0  0  0  0
 ITRead=  0  0  0  0  0  0  0  0  0  0  0  0  0  0  0  0  0  0  0  0
 MicOpt= -1 -1 -1 -1 -1 -1 -1 -1 -1 -1 -1 -1 -1 -1 -1 -1 -1 -1 -1 -1
 MicOpt= -1 -1 -1 -1 -1 -1 -1 -1 -1 -1 -1 -1 -1 -1 -1 -1 -1 -1 -1 -1
 MicOpt= -1 -1 -1 -1 -1 -1 -1 -1 -1 -1 -1 -1 -1 -1 -1 -1 -1 -1 -1 -1
 MicOpt= -1 -1 -1 -1 -1 -1 -1 -1 -1 -1 -1 -1 -1 -1 -1 -1 -1 -1 -1 -1
 MicOpt= -1 -1 -1 -1 -1 -1 -1 -1 -1 -1 -1 -1 -1 -1 -1 -1 -1 -1 -1 -1
 MicOpt= -1 -1 -1 -1 -1 -1 -1 -1 -1 -1 -1 -1 -1 -1 -1 -1 -1 -1 -1 -1
 MicOpt= -1 -1 -1 -1 -1 -1 -1 -1 -1 -1 -1 -1 -1 -1 -1 -1 -1 -1 -1 -1
 NAtoms=    140 NQM=      140 NQMF=       0 NMMI=      0 NMMIF=      0
                NMic=       0 NMicF=      0.
                    Isotopes and Nuclear Properties:
 (Nuclear quadrupole moments (NQMom) in fm**2, nuclear magnetic moments (NMagM)
  in nuclear magnetons)

  Atom         1           2           3           4           5           6           7           8           9          10
 IAtWgt=          24          12          12          12          12          14          12          12          12          12
 AtmWgt=  23.9850450  12.0000000  12.0000000  12.0000000  12.0000000  14.0030740  12.0000000  12.0000000  12.0000000  12.0000000
 NucSpn=           0           0           0           0           0           2           0           0           0           0
 AtZEff=  -0.0000000  -0.0000000  -0.0000000  -0.0000000  -0.0000000  -0.0000000  -0.0000000  -0.0000000  -0.0000000  -0.0000000
 NQMom=    0.0000000   0.0000000   0.0000000   0.0000000   0.0000000   2.0440000   0.0000000   0.0000000   0.0000000   0.0000000
 NMagM=    0.0000000   0.0000000   0.0000000   0.0000000   0.0000000   0.4037610   0.0000000   0.0000000   0.0000000   0.0000000
 AtZNuc=  12.0000000   6.0000000   6.0000000   6.0000000   6.0000000   7.0000000   6.0000000   6.0000000   6.0000000   6.0000000

  Atom        11          12          13          14          15          16          17          18          19          20
 IAtWgt=          12          12          12          12          16          16          14          12          12          12
 AtmWgt=  12.0000000  12.0000000  12.0000000  12.0000000  15.9949146  15.9949146  14.0030740  12.0000000  12.0000000  12.0000000
 NucSpn=           0           0           0           0           0           0           2           0           0           0
 AtZEff=  -0.0000000  -0.0000000  -0.0000000  -0.0000000  -0.0000000  -0.0000000  -0.0000000  -0.0000000  -0.0000000  -0.0000000
 NQMom=    0.0000000   0.0000000   0.0000000   0.0000000   0.0000000   0.0000000   2.0440000   0.0000000   0.0000000   0.0000000
 NMagM=    0.0000000   0.0000000   0.0000000   0.0000000   0.0000000   0.0000000   0.4037610   0.0000000   0.0000000   0.0000000
 AtZNuc=   6.0000000   6.0000000   6.0000000   6.0000000   8.0000000   8.0000000   7.0000000   6.0000000   6.0000000   6.0000000

  Atom        21          22          23          24          25          26          27          28          29          30
 IAtWgt=          12          12          12          16          12          14          12          12          12          12
 AtmWgt=  12.0000000  12.0000000  12.0000000  15.9949146  12.0000000  14.0030740  12.0000000  12.0000000  12.0000000  12.0000000
 NucSpn=           0           0           0           0           0           2           0           0           0           0
 AtZEff=  -0.0000000  -0.0000000  -0.0000000  -0.0000000  -0.0000000  -0.0000000  -0.0000000  -0.0000000  -0.0000000  -0.0000000
 NQMom=    0.0000000   0.0000000   0.0000000   0.0000000   0.0000000   2.0440000   0.0000000   0.0000000   0.0000000   0.0000000
 NMagM=    0.0000000   0.0000000   0.0000000   0.0000000   0.0000000   0.4037610   0.0000000   0.0000000   0.0000000   0.0000000
 AtZNuc=   6.0000000   6.0000000   6.0000000   8.0000000   6.0000000   7.0000000   6.0000000   6.0000000   6.0000000   6.0000000

  Atom        31          32          33          34          35          36          37          38          39          40
 IAtWgt=          12          12          12          14          12          12          12          12          12          12
 AtmWgt=  12.0000000  12.0000000  12.0000000  14.0030740  12.0000000  12.0000000  12.0000000  12.0000000  12.0000000  12.0000000
 NucSpn=           0           0           0           2           0           0           0           0           0           0
 AtZEff=  -0.0000000  -0.0000000  -0.0000000  -0.0000000  -0.0000000  -0.0000000  -0.0000000  -0.0000000  -0.0000000  -0.0000000
 NQMom=    0.0000000   0.0000000   0.0000000   2.0440000   0.0000000   0.0000000   0.0000000   0.0000000   0.0000000   0.0000000
 NMagM=    0.0000000   0.0000000   0.0000000   0.4037610   0.0000000   0.0000000   0.0000000   0.0000000   0.0000000   0.0000000
 AtZNuc=   6.0000000   6.0000000   6.0000000   7.0000000   6.0000000   6.0000000   6.0000000   6.0000000   6.0000000   6.0000000

  Atom        41          42          43          44          45          46          47          48          49          50
 IAtWgt=          16          12          12          16          16          12          12          12          12          12
 AtmWgt=  15.9949146  12.0000000  12.0000000  15.9949146  15.9949146  12.0000000  12.0000000  12.0000000  12.0000000  12.0000000
 NucSpn=           0           0           0           0           0           0           0           0           0           0
 AtZEff=  -0.0000000  -0.0000000  -0.0000000  -0.0000000  -0.0000000  -0.0000000  -0.0000000  -0.0000000  -0.0000000  -0.0000000
 NQMom=    0.0000000   0.0000000   0.0000000   0.0000000   0.0000000   0.0000000   0.0000000   0.0000000   0.0000000   0.0000000
 NMagM=    0.0000000   0.0000000   0.0000000   0.0000000   0.0000000   0.0000000   0.0000000   0.0000000   0.0000000   0.0000000
 AtZNuc=   8.0000000   6.0000000   6.0000000   8.0000000   8.0000000   6.0000000   6.0000000   6.0000000   6.0000000   6.0000000

  Atom        51          52          53          54          55          56          57          58          59          60
 IAtWgt=          12          12          12          12          12          12          12          12          12          12
 AtmWgt=  12.0000000  12.0000000  12.0000000  12.0000000  12.0000000  12.0000000  12.0000000  12.0000000  12.0000000  12.0000000
 NucSpn=           0           0           0           0           0           0           0           0           0           0
 AtZEff=  -0.0000000  -0.0000000  -0.0000000  -0.0000000  -0.0000000  -0.0000000  -0.0000000  -0.0000000  -0.0000000  -0.0000000
 NQMom=    0.0000000   0.0000000   0.0000000   0.0000000   0.0000000   0.0000000   0.0000000   0.0000000   0.0000000   0.0000000
 NMagM=    0.0000000   0.0000000   0.0000000   0.0000000   0.0000000   0.0000000   0.0000000   0.0000000   0.0000000   0.0000000
 AtZNuc=   6.0000000   6.0000000   6.0000000   6.0000000   6.0000000   6.0000000   6.0000000   6.0000000   6.0000000   6.0000000

  Atom        61          62          63          64          65          66          67          68          69          70
 IAtWgt=          12          12          12          12          12          12           1           1           1           1
 AtmWgt=  12.0000000  12.0000000  12.0000000  12.0000000  12.0000000  12.0000000   1.0078250   1.0078250   1.0078250   1.0078250
 NucSpn=           0           0           0           0           0           0           1           1           1           1
 AtZEff=  -0.0000000  -0.0000000  -0.0000000  -0.0000000  -0.0000000  -0.0000000  -0.0000000  -0.0000000  -0.0000000  -0.0000000
 NQMom=    0.0000000   0.0000000   0.0000000   0.0000000   0.0000000   0.0000000   0.0000000   0.0000000   0.0000000   0.0000000
 NMagM=    0.0000000   0.0000000   0.0000000   0.0000000   0.0000000   0.0000000   2.7928460   2.7928460   2.7928460   2.7928460
 AtZNuc=   6.0000000   6.0000000   6.0000000   6.0000000   6.0000000   6.0000000   1.0000000   1.0000000   1.0000000   1.0000000

  Atom        71          72          73          74          75          76          77          78          79          80
 IAtWgt=           1           1           1           1           1           1           1           1           1           1
 AtmWgt=   1.0078250   1.0078250   1.0078250   1.0078250   1.0078250   1.0078250   1.0078250   1.0078250   1.0078250   1.0078250
 NucSpn=           1           1           1           1           1           1           1           1           1           1
 AtZEff=  -0.0000000  -0.0000000  -0.0000000  -0.0000000  -0.0000000  -0.0000000  -0.0000000  -0.0000000  -0.0000000  -0.0000000
 NQMom=    0.0000000   0.0000000   0.0000000   0.0000000   0.0000000   0.0000000   0.0000000   0.0000000   0.0000000   0.0000000
 NMagM=    2.7928460   2.7928460   2.7928460   2.7928460   2.7928460   2.7928460   2.7928460   2.7928460   2.7928460   2.7928460
 AtZNuc=   1.0000000   1.0000000   1.0000000   1.0000000   1.0000000   1.0000000   1.0000000   1.0000000   1.0000000   1.0000000

  Atom        81          82          83          84          85          86          87          88          89          90
 IAtWgt=           1           1           1           1           1           1           1           1           1           1
 AtmWgt=   1.0078250   1.0078250   1.0078250   1.0078250   1.0078250   1.0078250   1.0078250   1.0078250   1.0078250   1.0078250
 NucSpn=           1           1           1           1           1           1           1           1           1           1
 AtZEff=  -0.0000000  -0.0000000  -0.0000000  -0.0000000  -0.0000000  -0.0000000  -0.0000000  -0.0000000  -0.0000000  -0.0000000
 NQMom=    0.0000000   0.0000000   0.0000000   0.0000000   0.0000000   0.0000000   0.0000000   0.0000000   0.0000000   0.0000000
 NMagM=    2.7928460   2.7928460   2.7928460   2.7928460   2.7928460   2.7928460   2.7928460   2.7928460   2.7928460   2.7928460
 AtZNuc=   1.0000000   1.0000000   1.0000000   1.0000000   1.0000000   1.0000000   1.0000000   1.0000000   1.0000000   1.0000000

  Atom        91          92          93          94          95          96          97          98          99         100
 IAtWgt=           1           1           1           1           1           1           1           1           1           1
 AtmWgt=   1.0078250   1.0078250   1.0078250   1.0078250   1.0078250   1.0078250   1.0078250   1.0078250   1.0078250   1.0078250
 NucSpn=           1           1           1           1           1           1           1           1           1           1
 AtZEff=  -0.0000000  -0.0000000  -0.0000000  -0.0000000  -0.0000000  -0.0000000  -0.0000000  -0.0000000  -0.0000000  -0.0000000
 NQMom=    0.0000000   0.0000000   0.0000000   0.0000000   0.0000000   0.0000000   0.0000000   0.0000000   0.0000000   0.0000000
 NMagM=    2.7928460   2.7928460   2.7928460   2.7928460   2.7928460   2.7928460   2.7928460   2.7928460   2.7928460   2.7928460
 AtZNuc=   1.0000000   1.0000000   1.0000000   1.0000000   1.0000000   1.0000000   1.0000000   1.0000000   1.0000000   1.0000000

  Atom       101         102         103         104         105         106         107         108         109         110
 IAtWgt=           1           1           1           1           1           1           1           1           1           1
 AtmWgt=   1.0078250   1.0078250   1.0078250   1.0078250   1.0078250   1.0078250   1.0078250   1.0078250   1.0078250   1.0078250
 NucSpn=           1           1           1           1           1           1           1           1           1           1
 AtZEff=  -0.0000000  -0.0000000  -0.0000000  -0.0000000  -0.0000000  -0.0000000  -0.0000000  -0.0000000  -0.0000000  -0.0000000
 NQMom=    0.0000000   0.0000000   0.0000000   0.0000000   0.0000000   0.0000000   0.0000000   0.0000000   0.0000000   0.0000000
 NMagM=    2.7928460   2.7928460   2.7928460   2.7928460   2.7928460   2.7928460   2.7928460   2.7928460   2.7928460   2.7928460
 AtZNuc=   1.0000000   1.0000000   1.0000000   1.0000000   1.0000000   1.0000000   1.0000000   1.0000000   1.0000000   1.0000000

  Atom       111         112         113         114         115         116         117         118         119         120
 IAtWgt=           1           1           1           1           1           1           1           1           1           1
 AtmWgt=   1.0078250   1.0078250   1.0078250   1.0078250   1.0078250   1.0078250   1.0078250   1.0078250   1.0078250   1.0078250
 NucSpn=           1           1           1           1           1           1           1           1           1           1
 AtZEff=  -0.0000000  -0.0000000  -0.0000000  -0.0000000  -0.0000000  -0.0000000  -0.0000000  -0.0000000  -0.0000000  -0.0000000
 NQMom=    0.0000000   0.0000000   0.0000000   0.0000000   0.0000000   0.0000000   0.0000000   0.0000000   0.0000000   0.0000000
 NMagM=    2.7928460   2.7928460   2.7928460   2.7928460   2.7928460   2.7928460   2.7928460   2.7928460   2.7928460   2.7928460
 AtZNuc=   1.0000000   1.0000000   1.0000000   1.0000000   1.0000000   1.0000000   1.0000000   1.0000000   1.0000000   1.0000000

  Atom       121         122         123         124         125         126         127         128         129         130
 IAtWgt=           1           1           1           1           1           1           1           1           1           1
 AtmWgt=   1.0078250   1.0078250   1.0078250   1.0078250   1.0078250   1.0078250   1.0078250   1.0078250   1.0078250   1.0078250
 NucSpn=           1           1           1           1           1           1           1           1           1           1
 AtZEff=  -0.0000000  -0.0000000  -0.0000000  -0.0000000  -0.0000000  -0.0000000  -0.0000000  -0.0000000  -0.0000000  -0.0000000
 NQMom=    0.0000000   0.0000000   0.0000000   0.0000000   0.0000000   0.0000000   0.0000000   0.0000000   0.0000000   0.0000000
 NMagM=    2.7928460   2.7928460   2.7928460   2.7928460   2.7928460   2.7928460   2.7928460   2.7928460   2.7928460   2.7928460
 AtZNuc=   1.0000000   1.0000000   1.0000000   1.0000000   1.0000000   1.0000000   1.0000000   1.0000000   1.0000000   1.0000000

  Atom       131         132         133         134         135         136         137         138         139         140
 IAtWgt=           1           1           1           1           1           1           1           1           1           1
 AtmWgt=   1.0078250   1.0078250   1.0078250   1.0078250   1.0078250   1.0078250   1.0078250   1.0078250   1.0078250   1.0078250
 NucSpn=           1           1           1           1           1           1           1           1           1           1
 AtZEff=  -0.0000000  -0.0000000  -0.0000000  -0.0000000  -0.0000000  -0.0000000  -0.0000000  -0.0000000  -0.0000000  -0.0000000
 NQMom=    0.0000000   0.0000000   0.0000000   0.0000000   0.0000000   0.0000000   0.0000000   0.0000000   0.0000000   0.0000000
 NMagM=    2.7928460   2.7928460   2.7928460   2.7928460   2.7928460   2.7928460   2.7928460   2.7928460   2.7928460   2.7928460
 AtZNuc=   1.0000000   1.0000000   1.0000000   1.0000000   1.0000000   1.0000000   1.0000000   1.0000000   1.0000000   1.0000000
 Leave Link  101 at Wed May  4 10:15:59 2022, MaxMem= 10066329600 cpu:               4.2 elap:               0.2
 (Enter /sw/apps/gaussian-16.0/g16/l202.exe)
 Stoichiometry    C55H74MgN4O6
 Framework group  C1[X(C55H74MgN4O6)]
 Deg. of freedom   414
 Full point group                 C1      NOp   1
 Largest Abelian subgroup         C1      NOp   1
 Largest concise Abelian subgroup C1      NOp   1
                         Standard orientation:                         
 ---------------------------------------------------------------------
 Center     Atomic      Atomic             Coordinates (Angstroms)
 Number     Number       Type             X           Y           Z
 ---------------------------------------------------------------------
      1         12           0       -4.530730    0.892773    0.123756
      2          6           0       -4.001405   -2.559079    0.280346
      3          6           0       -1.110341    1.322463    0.464623
      4          6           0       -5.039055    4.189930    0.086551
      5          6           0       -7.993955    0.318121    0.340707
      6          7           0       -2.702202   -0.474612    0.252251
      7          6           0       -2.783236   -1.827624    0.098452
      8          6           0       -1.322296   -2.361610   -0.001845
      9          6           0       -0.441408   -1.139549    0.498034
     10          6           0       -1.472570    0.045300    0.375882
     11          6           0        0.160432   -1.247569    2.015706
     12          6           0       -1.014359   -2.812741   -1.521123
     13          6           0       -0.077806   -3.940513   -1.600032
     14          6           0        1.401362   -4.024508   -1.917274
     15          8           0        1.864027   -4.335684   -3.018132
     16          8           0        2.125496   -3.729266   -0.814111
     17          7           0       -3.274219    2.497388    0.271316
     18          6           0       -1.926092    2.473324    0.388927
     19          6           0       -1.401057    3.772300    0.460541
     20          6           0       -2.476846    4.669735    0.252849
     21          6           0       -3.690294    3.843915    0.153158
     22          6           0        0.100221    4.134906    0.596977
     23          6           0       -2.406744    6.233174    0.130846
     24          8           0       -3.477778    6.844021   -0.064997
     25          6           0       -1.103789    7.010699    0.080947
     26          7           0       -6.180206    2.048828    0.080634
     27          6           0       -6.190288    3.368715    0.029861
     28          6           0       -7.609985    4.020163   -0.299808
     29          6           0       -8.484769    2.736473   -0.055252
     30          6           0       -7.535720    1.598254    0.197085
     31          6           0       -8.033909    5.345826    0.497407
     32          6           0       -9.584586    2.410515   -1.146769
     33          6           0      -11.061037    2.170113   -0.617635
     34          7           0       -5.815274   -0.735245    0.337119
     35          6           0       -7.161606   -0.790487    0.356493
     36          6           0       -7.574619   -2.146617    0.314381
     37          6           0       -6.416883   -2.925087    0.281725
     38          6           0       -5.317505   -1.987044    0.287098
     39          6           0       -8.992503   -2.529781    0.294043
     40          6           0       -5.854435   -4.338045    0.229353
     41          8           0       -6.331378   -5.463826    0.166939
     42          6           0       -4.271955   -4.079693    0.251999
     43          6           0       -3.708875   -4.884797    1.377553
     44          8           0       -3.824062   -4.589396    2.564204
     45          8           0       -2.974180   -5.861075    0.873352
     46          6           0       -2.143494   -6.692569    1.769005
     47          6           0        3.573145   -3.995009   -0.932781
     48          6           0        4.400923   -2.811264   -1.568390
     49          6           0        5.643811   -2.514524   -1.410835
     50          6           0        6.688911   -3.407585   -0.859838
     51          6           0        6.013992   -0.999413   -1.772652
     52          6           0        6.259815   -0.714533   -3.265118
     53          6           0        7.630654   -0.195795   -3.496131
     54          6           0        7.609237    1.258108   -3.961685
     55          6           0        7.375994    1.446399   -5.468732
     56          6           0        8.795398    2.026562   -3.445468
     57          6           0        8.708408    2.452460   -1.922333
     58          6           0       10.068102    2.287195   -1.145019
     59          6           0        9.736182    1.600919    0.185738
     60          6           0        9.585623    0.072465    0.077944
     61          6           0       10.633356    2.122100    1.325063
     62          6           0        9.884074    2.248905    2.685404
     63          6           0        9.742796    0.905973    3.443219
     64          6           0       10.235463    0.769640    4.828954
     65          6           0       11.754280    0.316053    4.847145
     66          6           0        9.357012   -0.153156    5.702915
     67          1           0       -0.018885    1.331245    0.485368
     68          1           0       -5.276005    5.256372    0.080558
     69          1           0       -9.078994    0.210833    0.278340
     70          1           0       -1.268664   -3.296859    0.555615
     71          1           0        0.335795   -0.852854   -0.210635
     72          1           0       -0.102599   -0.358845    2.588681
     73          1           0        1.250330   -1.225586    2.029572
     74          1           0       -0.097380   -2.156313    2.560274
     75          1           0       -0.575552   -1.920874   -1.969296
     76          1           0       -1.932365   -2.983313   -2.082362
     77          1           0       -0.594279   -4.671304   -2.223048
     78          1           0       -0.082463   -4.516383   -0.674669
     79          1           0        0.670556    4.092861   -0.331064
     80          1           0        0.567604    3.531337    1.373860
     81          1           0        0.110486    5.180827    0.904373
     82          1           0       -0.361108    6.503282   -0.533635
     83          1           0       -0.694038    7.094792    1.087404
     84          1           0       -1.203168    7.962139   -0.443801
     85          1           0       -7.812078    4.211799   -1.353938
     86          1           0       -9.010802    2.936156    0.878580
     87          1           0       -7.242926    5.986279    0.887195
     88          1           0       -8.716740    5.126257    1.318738
     89          1           0       -8.517570    5.970599   -0.253124
     90          1           0       -9.330636    1.538870   -1.749456
     91          1           0       -9.767768    3.184561   -1.893503
     92          1           0      -11.517077    1.238611   -0.953930
     93          1           0      -11.648405    3.010798   -0.985585
     94          1           0      -11.065324    2.234845    0.469907
     95          1           0       -9.517226   -1.970953   -0.481272
     96          1           0       -9.540857   -2.298569    1.207957
     97          1           0       -9.199920   -3.588064    0.134944
     98          1           0       -3.919654   -4.435535   -0.716512
     99          1           0       -2.671811   -6.859406    2.707106
    100          1           0       -1.189219   -6.182081    1.897401
    101          1           0       -2.109142   -7.687694    1.325687
    102          1           0        3.836735   -4.968978   -1.346159
    103          1           0        3.978126   -3.991769    0.079511
    104          1           0        3.717168   -2.049380   -1.943023
    105          1           0        7.011550   -2.895673    0.047062
    106          1           0        7.594180   -3.499471   -1.460503
    107          1           0        6.249358   -4.391728   -0.699634
    108          1           0        6.861464   -0.740894   -1.137148
    109          1           0        5.199877   -0.365218   -1.419611
    110          1           0        5.625494    0.106493   -3.598515
    111          1           0        6.036904   -1.511780   -3.974020
    112          1           0        7.890530   -0.833349   -4.340592
    113          1           0        8.336125   -0.297823   -2.671359
    114          1           0        6.787573    1.843497   -3.547661
    115          1           0        7.167256    0.548923   -6.051039
    116          1           0        8.226049    1.895872   -5.982143
    117          1           0        6.571810    2.151941   -5.678809
    118          1           0        8.892524    2.967253   -3.987685
    119          1           0        9.691268    1.410530   -3.518768
    120          1           0        7.819995    2.038841   -1.444237
    121          1           0        8.556119    3.528475   -1.830869
    122          1           0       10.463772    3.274874   -0.907044
    123          1           0       10.864362    1.757551   -1.667861
    124          1           0        8.700713    1.862606    0.404421
    125          1           0        8.560391   -0.131702    0.390041
    126          1           0       10.267631   -0.570592    0.633893
    127          1           0        9.663004   -0.227621   -0.966669
    128          1           0       11.115517    3.070112    1.089940
    129          1           0       11.463261    1.423390    1.430777
    130          1           0        8.924729    2.720524    2.469800
    131          1           0       10.423381    2.882381    3.390964
    132          1           0       10.253515    0.192545    2.796964
    133          1           0        8.693349    0.610653    3.410277
    134          1           0       10.261677    1.767267    5.265095
    135          1           0       11.924132   -0.260174    5.756124
    136          1           0       12.520118    1.091882    4.840685
    137          1           0       11.956756   -0.361523    4.016810
    138          1           0        8.813932   -0.850834    5.065736
    139          1           0        8.682993    0.540560    6.205300
    140          1           0        9.704985   -0.874143    6.442606
 ---------------------------------------------------------------------
 Rotational constants (GHZ):           0.0379707           0.0126831           0.0109096
 Leave Link  202 at Wed May  4 10:15:59 2022, MaxMem= 10066329600 cpu:               0.2 elap:               0.0
 (Enter /sw/apps/gaussian-16.0/g16/l301.exe)
 Standard basis: def2SVP (5D, 7F)
 Ernie: Thresh=  0.10000D-02 Tol=  0.10000D-05 Strict=F.
 There are  1364 symmetry adapted cartesian basis functions of A   symmetry.
 There are  1298 symmetry adapted basis functions of A   symmetry.
  1298 basis functions,  2180 primitive gaussians,  1364 cartesian basis functions
   246 alpha electrons      246 beta electrons
       nuclear repulsion energy      9703.7302039326 Hartrees.
 IExCor= 4639 DFT=T Ex+Corr=wB97XD ExCW=0 ScaHFX=  1.000000
 ScaDFX=  1.000000  1.000000  1.000000  1.000000 ScalE2=  1.000000  1.000000
 IRadAn=      5 IRanWt=     -1 IRanGd=            0 ICorTp=0 IEmpDi=121
 HFx  wShort=  0.000000 wLong=  0.200000 cFull=  0.222036 cShort=  0.000000 cLong=  0.777964
 DFx  wShort=  0.000000 wLong=  0.200000 cFull=  0.000000 cShort=  0.000000 cLong=  1.000000
 NAtoms=  140 NActive=  140 NUniq=  140 SFac= 1.00D+00 NAtFMM=   60 NAOKFM=T Big=T
 Integral buffers will be    131072 words long.
 Raffenetti 1 integral format.
 Two-electron integral symmetry is turned on.
 R6Disp:  Grimme-D2 Dispersion energy=       -0.1339243287 Hartrees.
 Nuclear repulsion after empirical dispersion term =     9703.5962796040 Hartrees.
 Leave Link  301 at Wed May  4 10:15:59 2022, MaxMem= 10066329600 cpu:               1.7 elap:               0.1
 (Enter /sw/apps/gaussian-16.0/g16/l302.exe)
 NPDir=0 NMtPBC=     1 NCelOv=     1 NCel=       1 NClECP=     1 NCelD=      1
         NCelK=      1 NCelE2=     1 NClLst=     1 CellRange=     0.0.
 One-electron integrals computed using PRISM.
 One-electron integral symmetry used in STVInt
   1 Symmetry operations used in ECPInt.
 ECPInt:  NShTT=  192510 NPrTT=  683786 LenC2=   99775 LenP2D=  215385.
 LDataN:  DoStor=T MaxTD1= 4 Len=   56
 NBasis=  1298 RedAO= T EigKep=  3.50D-04  NBF=  1298
 NBsUse=  1298 1.00D-06 EigRej= -1.00D+00 NBFU=  1298
 Precomputing XC quadrature grid using
 IXCGrd= 4 IRadAn=           5 IRanWt=          -1 IRanGd=           0 AccXCQ= 0.00D+00.
 Generated NRdTot=       0 NPtTot=           0 NUsed=           0 NTot=          32
 NSgBfM=  1205  1205  1205  1205  1205 MxSgAt=   140 MxSgA2=   140.
 Leave Link  302 at Wed May  4 10:16:03 2022, MaxMem= 10066329600 cpu:              84.7 elap:               3.6
 (Enter /sw/apps/gaussian-16.0/g16/l303.exe)
 DipDrv:  MaxL=1.
 Leave Link  303 at Wed May  4 10:16:03 2022, MaxMem= 10066329600 cpu:               7.9 elap:               0.4
 (Enter /sw/apps/gaussian-16.0/g16/l308.exe)
 Leave Link  308 at Wed May  4 10:16:03 2022, MaxMem= 10066329600 cpu:              10.3 elap:               0.5
 (Enter /sw/apps/gaussian-16.0/g16/l401.exe)
 ExpMin= 3.36D-02 ExpMax= 4.95D+03 ExpMxC= 7.45D+02 IAcc=3 IRadAn=         5 AccDes= 0.00D+00
 Harris functional with IExCor= 4639 and IRadAn=       5 diagonalized for initial guess.
 HarFok:  IExCor= 4639 AccDes= 0.00D+00 IRadAn=         5 IDoV= 1 UseB2=F ITyADJ=14
 ICtDFT=  3500011 ScaDFX=  1.000000  1.000000  1.000000  1.000000
 FoFCou: FMM=F IPFlag=           0 FMFlag=      100000 FMFlg1=        2001
         NFxFlg=           0 DoJE=T BraDBF=F KetDBF=T FulRan=T
         wScrn=  0.000000 ICntrl=       500 IOpCl=  0 I1Cent=   200000004 NGrid=           0
         NMat0=    1 NMatS0=      1 NMatT0=    0 NMatD0=    1 NMtDS0=    0 NMtDT0=    0
 Petite list used in FoFCou.
 Harris En= -2877.97898902192    
 JPrj=0 DoOrth=F DoCkMO=F.
 Leave Link  401 at Wed May  4 10:16:10 2022, MaxMem= 10066329600 cpu:             146.5 elap:               6.1
 (Enter /sw/apps/gaussian-16.0/g16/l502.exe)
 Integral symmetry usage will be decided dynamically.
 Closed shell SCF:
 Using DIIS extrapolation, IDIIS=  1040.
 NGot= 10066329600 LenX= 10062561258 LenY= 10060699398
 Requested convergence on RMS density matrix=1.00D-08 within 128 cycles.
 Requested convergence on MAX density matrix=1.00D-06.
 Requested convergence on             energy=1.00D-06.
 No special actions if energy rises.
 Fock matrices will be formed incrementally for  20 cycles.

 Cycle   1  Pass 1  IDiag  1:
 FoFJK:  IHMeth= 1 ICntrl=       0 DoSepK=T KAlg= 0 I1Cent=           0 FoldK=F
 IRaf=         1 NMat=       1 IRICut=       1 DoRegI=T DoRafI=F ISym2E= 0 IDoP0=0 IntGTp=1.
 FoFCou: FMM=T IPFlag=           0 FMFlag=      100000 FMFlg1=        2001
         NFxFlg=           0 DoJE=T BraDBF=F KetDBF=F FulRan=T
         wScrn=  0.000000 ICntrl=       500 IOpCl=  0 I1Cent=           0 NGrid=           0
         NMat0=    1 NMatS0=      1 NMatT0=    0 NMatD0=    1 NMtDS0=    0 NMtDT0=    0
 Symmetry not used in FoFCou.
 FMM levels:  10  Number of levels for PrismC:   9
 E= -3007.15618213069    
 DIIS: error= 2.06D-02 at cycle   1 NSaved=   1.
 NSaved= 1 IEnMin= 1 EnMin= -3007.15618213069     IErMin= 1 ErrMin= 2.06D-02
 ErrMax= 2.06D-02  0.00D+00 EMaxC= 1.00D-01 BMatC= 1.49D+00 BMatP= 1.49D+00
 IDIUse=3 WtCom= 7.94D-01 WtEn= 2.06D-01
 Coeff-Com:  0.100D+01
 Coeff-En:   0.100D+01
 Coeff:      0.100D+01
 Gap=     0.156 Goal=   None    Shift=    0.000
 GapD=    0.156 DampG=1.000 DampE=0.500 DampFc=0.5000 IDamp=-1.
 Damping current iteration by 5.00D-01
 RMSDP=1.50D-03 MaxDP=1.68D-01              OVMax= 1.54D-01

 Cycle   2  Pass 1  IDiag  1:
 RMSU=  7.42D-04    CP:  9.88D-01
 E= -3007.47867875180     Delta-E=       -0.322496621116 Rises=F Damp=T
 DIIS: error= 1.08D-02 at cycle   2 NSaved=   2.
 NSaved= 2 IEnMin= 2 EnMin= -3007.47867875180     IErMin= 2 ErrMin= 1.08D-02
 ErrMax= 1.08D-02  0.00D+00 EMaxC= 1.00D-01 BMatC= 2.90D-01 BMatP= 1.49D+00
 IDIUse=3 WtCom= 8.92D-01 WtEn= 1.08D-01
 Coeff-Com: -0.347D+00 0.135D+01
 Coeff-En:   0.000D+00 0.100D+01
 Coeff:     -0.309D+00 0.131D+01
 Gap=     0.175 Goal=   None    Shift=    0.000
 RMSDP=6.95D-04 MaxDP=7.82D-02 DE=-3.22D-01 OVMax= 1.41D-01

 Cycle   3  Pass 1  IDiag  1:
 RMSU=  6.53D-04    CP:  9.80D-01  1.31D+00
 E= -3007.71165353726     Delta-E=       -0.232974785453 Rises=F Damp=F
 DIIS: error= 1.66D-02 at cycle   3 NSaved=   3.
 NSaved= 3 IEnMin= 3 EnMin= -3007.71165353726     IErMin= 2 ErrMin= 1.08D-02
 ErrMax= 1.66D-02  0.00D+00 EMaxC= 1.00D-01 BMatC= 1.44D-01 BMatP= 2.90D-01
 IDIUse=3 WtCom= 8.34D-01 WtEn= 1.66D-01
 Coeff-Com: -0.312D+00 0.692D+00 0.620D+00
 Coeff-En:   0.000D+00 0.000D+00 0.100D+01
 Coeff:     -0.260D+00 0.577D+00 0.683D+00
 Gap=     0.162 Goal=   None    Shift=    0.000
 RMSDP=4.23D-04 MaxDP=4.75D-02 DE=-2.33D-01 OVMax= 8.21D-02

 Cycle   4  Pass 1  IDiag  1:
 RMSU=  2.13D-04    CP:  9.77D-01  1.62D+00  5.65D-01
 E= -3007.81381598309     Delta-E=       -0.102162445837 Rises=F Damp=F
 DIIS: error= 6.20D-03 at cycle   4 NSaved=   4.
 NSaved= 4 IEnMin= 4 EnMin= -3007.81381598309     IErMin= 4 ErrMin= 6.20D-03
 ErrMax= 6.20D-03  0.00D+00 EMaxC= 1.00D-01 BMatC= 2.53D-02 BMatP= 1.44D-01
 IDIUse=3 WtCom= 9.38D-01 WtEn= 6.20D-02
 Coeff-Com: -0.114D+00 0.229D+00 0.383D+00 0.502D+00
 Coeff-En:   0.000D+00 0.000D+00 0.131D+00 0.869D+00
 Coeff:     -0.107D+00 0.215D+00 0.367D+00 0.525D+00
 Gap=     0.158 Goal=   None    Shift=    0.000
 RMSDP=1.37D-04 MaxDP=1.79D-02 DE=-1.02D-01 OVMax= 2.37D-02

 Cycle   5  Pass 1  IDiag  1:
 RMSU=  6.03D-05    CP:  9.77D-01  1.57D+00  7.06D-01  6.55D-01
 E= -3007.83451901890     Delta-E=       -0.020703035803 Rises=F Damp=F
 DIIS: error= 7.74D-04 at cycle   5 NSaved=   5.
 NSaved= 5 IEnMin= 5 EnMin= -3007.83451901890     IErMin= 5 ErrMin= 7.74D-04
 ErrMax= 7.74D-04  0.00D+00 EMaxC= 1.00D-01 BMatC= 4.69D-04 BMatP= 2.53D-02
 IDIUse=3 WtCom= 9.92D-01 WtEn= 7.74D-03
 Coeff-Com: -0.267D-01 0.504D-01 0.119D+00 0.225D+00 0.632D+00
 Coeff-En:   0.000D+00 0.000D+00 0.000D+00 0.000D+00 0.100D+01
 Coeff:     -0.265D-01 0.500D-01 0.118D+00 0.223D+00 0.635D+00
 Gap=     0.158 Goal=   None    Shift=    0.000
 RMSDP=2.36D-05 MaxDP=3.73D-03 DE=-2.07D-02 OVMax= 4.71D-03

 Cycle   6  Pass 1  IDiag  1:
 RMSU=  2.01D-05    CP:  9.77D-01  1.57D+00  7.08D-01  7.04D-01  9.15D-01
 E= -3007.83490254884     Delta-E=       -0.000383529941 Rises=F Damp=F
 DIIS: error= 2.34D-04 at cycle   6 NSaved=   6.
 NSaved= 6 IEnMin= 6 EnMin= -3007.83490254884     IErMin= 6 ErrMin= 2.34D-04
 ErrMax= 2.34D-04  0.00D+00 EMaxC= 1.00D-01 BMatC= 6.41D-05 BMatP= 4.69D-04
 IDIUse=3 WtCom= 9.98D-01 WtEn= 2.34D-03
 Coeff-Com:  0.100D-01-0.215D-01-0.173D-01 0.179D-02 0.283D+00 0.744D+00
 Coeff-En:   0.000D+00 0.000D+00 0.000D+00 0.000D+00 0.000D+00 0.100D+01
 Coeff:      0.100D-01-0.215D-01-0.173D-01 0.179D-02 0.282D+00 0.744D+00
 Gap=     0.158 Goal=   None    Shift=    0.000
 RMSDP=1.17D-05 MaxDP=1.18D-03 DE=-3.84D-04 OVMax= 4.15D-03

 Cycle   7  Pass 1  IDiag  1:
 RMSU=  8.20D-06    CP:  9.77D-01  1.58D+00  7.13D-01  7.22D-01  1.02D+00
                    CP:  9.79D-01
 E= -3007.83498412837     Delta-E=       -0.000081579528 Rises=F Damp=F
 DIIS: error= 6.85D-05 at cycle   7 NSaved=   7.
 NSaved= 7 IEnMin= 7 EnMin= -3007.83498412837     IErMin= 7 ErrMin= 6.85D-05
 ErrMax= 6.85D-05  0.00D+00 EMaxC= 1.00D-01 BMatC= 6.35D-06 BMatP= 6.41D-05
 IDIUse=1 WtCom= 1.00D+00 WtEn= 0.00D+00
 Coeff-Com:  0.616D-02-0.125D-01-0.167D-01-0.213D-01 0.424D-01 0.272D+00
 Coeff-Com:  0.730D+00
 Coeff:      0.616D-02-0.125D-01-0.167D-01-0.213D-01 0.424D-01 0.272D+00
 Coeff:      0.730D+00
 Gap=     0.158 Goal=   None    Shift=    0.000
 RMSDP=5.04D-06 MaxDP=4.76D-04 DE=-8.16D-05 OVMax= 2.44D-03

 Cycle   8  Pass 1  IDiag  1:
 RMSU=  3.34D-06    CP:  9.77D-01  1.58D+00  7.15D-01  7.25D-01  1.05D+00
                    CP:  1.11D+00  1.13D+00
 E= -3007.83499939278     Delta-E=       -0.000015264417 Rises=F Damp=F
 DIIS: error= 3.57D-05 at cycle   8 NSaved=   8.
 NSaved= 8 IEnMin= 8 EnMin= -3007.83499939278     IErMin= 8 ErrMin= 3.57D-05
 ErrMax= 3.57D-05  0.00D+00 EMaxC= 1.00D-01 BMatC= 1.81D-06 BMatP= 6.35D-06
 IDIUse=1 WtCom= 1.00D+00 WtEn= 0.00D+00
 Coeff-Com:  0.973D-03-0.170D-02-0.443D-02-0.110D-01-0.367D-01-0.255D-01
 Coeff-Com:  0.334D+00 0.745D+00
 Coeff:      0.973D-03-0.170D-02-0.443D-02-0.110D-01-0.367D-01-0.255D-01
 Coeff:      0.334D+00 0.745D+00
 Gap=     0.158 Goal=   None    Shift=    0.000
 RMSDP=3.28D-06 MaxDP=2.82D-04 DE=-1.53D-05 OVMax= 1.98D-03

 Cycle   9  Pass 1  IDiag  1:
 RMSU=  1.74D-06    CP:  9.77D-01  1.58D+00  7.15D-01  7.27D-01  1.06D+00
                    CP:  1.17D+00  1.37D+00  1.35D+00
 E= -3007.83500653755     Delta-E=       -0.000007144765 Rises=F Damp=F
 DIIS: error= 3.02D-05 at cycle   9 NSaved=   9.
 NSaved= 9 IEnMin= 9 EnMin= -3007.83500653755     IErMin= 9 ErrMin= 3.02D-05
 ErrMax= 3.02D-05  0.00D+00 EMaxC= 1.00D-01 BMatC= 3.97D-07 BMatP= 1.81D-06
 IDIUse=1 WtCom= 1.00D+00 WtEn= 0.00D+00
 Coeff-Com: -0.137D-02 0.279D-02 0.354D-02 0.344D-02-0.157D-01-0.771D-01
 Coeff-Com: -0.111D+00 0.113D+00 0.108D+01
 Coeff:     -0.137D-02 0.279D-02 0.354D-02 0.344D-02-0.157D-01-0.771D-01
 Coeff:     -0.111D+00 0.113D+00 0.108D+01
 Gap=     0.158 Goal=   None    Shift=    0.000
 RMSDP=3.10D-06 MaxDP=2.49D-04 DE=-7.14D-06 OVMax= 2.17D-03

 Cycle  10  Pass 1  IDiag  1:
 RMSU=  1.07D-06    CP:  9.77D-01  1.58D+00  7.15D-01  7.28D-01  1.07D+00
                    CP:  1.22D+00  1.56D+00  1.89D+00  1.70D+00
 E= -3007.83501079864     Delta-E=       -0.000004261094 Rises=F Damp=F
 DIIS: error= 1.79D-05 at cycle  10 NSaved=  10.
 NSaved=10 IEnMin=10 EnMin= -3007.83501079864     IErMin=10 ErrMin= 1.79D-05
 ErrMax= 1.79D-05  0.00D+00 EMaxC= 1.00D-01 BMatC= 1.88D-07 BMatP= 3.97D-07
 IDIUse=1 WtCom= 1.00D+00 WtEn= 0.00D+00
 Coeff-Com: -0.926D-03 0.178D-02 0.314D-02 0.575D-02 0.864D-02-0.236D-01
 Coeff-Com: -0.171D+00-0.269D+00 0.438D+00 0.101D+01
 Coeff:     -0.926D-03 0.178D-02 0.314D-02 0.575D-02 0.864D-02-0.236D-01
 Coeff:     -0.171D+00-0.269D+00 0.438D+00 0.101D+01
 Gap=     0.158 Goal=   None    Shift=    0.000
 RMSDP=2.62D-06 MaxDP=2.09D-04 DE=-4.26D-06 OVMax= 1.80D-03

 Cycle  11  Pass 1  IDiag  1:
 RMSU=  6.03D-07    CP:  9.77D-01  1.58D+00  7.15D-01  7.28D-01  1.07D+00
                    CP:  1.25D+00  1.71D+00  2.35D+00  2.47D+00  1.56D+00
 E= -3007.83501288728     Delta-E=       -0.000002088635 Rises=F Damp=F
 DIIS: error= 1.20D-05 at cycle  11 NSaved=  11.
 NSaved=11 IEnMin=11 EnMin= -3007.83501288728     IErMin=11 ErrMin= 1.20D-05
 ErrMax= 1.20D-05  0.00D+00 EMaxC= 1.00D-01 BMatC= 6.46D-08 BMatP= 1.88D-07
 IDIUse=1 WtCom= 1.00D+00 WtEn= 0.00D+00
 Coeff-Com:  0.626D-05-0.528D-04 0.352D-03 0.176D-02 0.932D-02 0.130D-01
 Coeff-Com: -0.412D-01-0.163D+00-0.115D+00 0.454D+00 0.840D+00
 Coeff:      0.626D-05-0.528D-04 0.352D-03 0.176D-02 0.932D-02 0.130D-01
 Coeff:     -0.412D-01-0.163D+00-0.115D+00 0.454D+00 0.840D+00
 Gap=     0.158 Goal=   None    Shift=    0.000
 RMSDP=1.36D-06 MaxDP=1.06D-04 DE=-2.09D-06 OVMax= 9.96D-04

 Cycle  12  Pass 1  IDiag  1:
 RMSU=  3.65D-07    CP:  9.77D-01  1.58D+00  7.15D-01  7.28D-01  1.08D+00
                    CP:  1.26D+00  1.77D+00  2.56D+00  2.87D+00  2.15D+00
                    CP:  1.30D+00
 E= -3007.83501346132     Delta-E=       -0.000000574042 Rises=F Damp=F
 DIIS: error= 4.82D-06 at cycle  12 NSaved=  12.
 NSaved=12 IEnMin=12 EnMin= -3007.83501346132     IErMin=12 ErrMin= 4.82D-06
 ErrMax= 4.82D-06  0.00D+00 EMaxC= 1.00D-01 BMatC= 2.37D-08 BMatP= 6.46D-08
 IDIUse=1 WtCom= 1.00D+00 WtEn= 0.00D+00
 Coeff-Com:  0.398D-03-0.790D-03-0.119D-02-0.153D-02 0.618D-03 0.163D-01
 Coeff-Com:  0.565D-01 0.376D-01-0.259D+00-0.259D+00 0.412D+00 0.999D+00
 Coeff:      0.398D-03-0.790D-03-0.119D-02-0.153D-02 0.618D-03 0.163D-01
 Coeff:      0.565D-01 0.376D-01-0.259D+00-0.259D+00 0.412D+00 0.999D+00
 Gap=     0.158 Goal=   None    Shift=    0.000
 RMSDP=1.12D-06 MaxDP=8.42D-05 DE=-5.74D-07 OVMax= 7.73D-04

 Cycle  13  Pass 1  IDiag  1:
 RMSU=  4.04D-07    CP:  9.77D-01  1.58D+00  7.15D-01  7.29D-01  1.08D+00
                    CP:  1.27D+00  1.82D+00  2.72D+00  3.00D+00  2.60D+00
                    CP:  1.93D+00  1.36D+00
 E= -3007.83501368191     Delta-E=       -0.000000220591 Rises=F Damp=F
 DIIS: error= 2.66D-06 at cycle  13 NSaved=  13.
 NSaved=13 IEnMin=13 EnMin= -3007.83501368191     IErMin=13 ErrMin= 2.66D-06
 ErrMax= 2.66D-06  0.00D+00 EMaxC= 1.00D-01 BMatC= 4.56D-09 BMatP= 2.37D-08
 IDIUse=1 WtCom= 1.00D+00 WtEn= 0.00D+00
 Coeff-Com:  0.172D-03-0.335D-03-0.585D-03-0.975D-03-0.158D-02 0.386D-02
 Coeff-Com:  0.322D-01 0.487D-01-0.758D-01-0.199D+00 0.516D-02 0.435D+00
 Coeff-Com:  0.753D+00
 Coeff:      0.172D-03-0.335D-03-0.585D-03-0.975D-03-0.158D-02 0.386D-02
 Coeff:      0.322D-01 0.487D-01-0.758D-01-0.199D+00 0.516D-02 0.435D+00
 Coeff:      0.753D+00
 Gap=     0.158 Goal=   None    Shift=    0.000
 RMSDP=2.72D-07 MaxDP=3.06D-05 DE=-2.21D-07 OVMax= 1.98D-04

 Cycle  14  Pass 1  IDiag  1:
 RMSU=  1.00D-07    CP:  9.77D-01  1.58D+00  7.15D-01  7.29D-01  1.08D+00
                    CP:  1.27D+00  1.82D+00  2.75D+00  3.00D+00  2.74D+00
                    CP:  2.09D+00  1.67D+00  1.25D+00
 E= -3007.83501370470     Delta-E=       -0.000000022792 Rises=F Damp=F
 DIIS: error= 1.39D-06 at cycle  14 NSaved=  14.
 NSaved=14 IEnMin=14 EnMin= -3007.83501370470     IErMin=14 ErrMin= 1.39D-06
 ErrMax= 1.39D-06  0.00D+00 EMaxC= 1.00D-01 BMatC= 9.88D-10 BMatP= 4.56D-09
 IDIUse=1 WtCom= 1.00D+00 WtEn= 0.00D+00
 Coeff-Com: -0.296D-04 0.616D-04 0.636D-04 0.195D-04-0.624D-03-0.232D-02
 Coeff-Com: -0.213D-02 0.634D-02 0.311D-01-0.172D-01-0.835D-01-0.796D-01
 Coeff-Com:  0.232D+00 0.916D+00
 Coeff:     -0.296D-04 0.616D-04 0.636D-04 0.195D-04-0.624D-03-0.232D-02
 Coeff:     -0.213D-02 0.634D-02 0.311D-01-0.172D-01-0.835D-01-0.796D-01
 Coeff:      0.232D+00 0.916D+00
 Gap=     0.158 Goal=   None    Shift=    0.000
 RMSDP=1.68D-07 MaxDP=1.31D-05 DE=-2.28D-08 OVMax= 1.10D-04

 Cycle  15  Pass 1  IDiag  1:
 RMSU=  6.43D-08    CP:  9.77D-01  1.58D+00  7.15D-01  7.29D-01  1.08D+00
                    CP:  1.27D+00  1.83D+00  2.76D+00  3.00D+00  2.80D+00
                    CP:  2.20D+00  1.82D+00  1.46D+00  1.26D+00
 E= -3007.83501371247     Delta-E=       -0.000000007767 Rises=F Damp=F
 DIIS: error= 7.08D-07 at cycle  15 NSaved=  15.
 NSaved=15 IEnMin=15 EnMin= -3007.83501371247     IErMin=15 ErrMin= 7.08D-07
 ErrMax= 7.08D-07  0.00D+00 EMaxC= 1.00D-01 BMatC= 4.41D-10 BMatP= 9.88D-10
 IDIUse=1 WtCom= 1.00D+00 WtEn= 0.00D+00
 Coeff-Com: -0.699D-04 0.138D-03 0.218D-03 0.314D-03 0.155D-03-0.243D-02
 Coeff-Com: -0.111D-01-0.116D-01 0.425D-01 0.500D-01-0.352D-01-0.171D+00
 Coeff-Com: -0.118D+00 0.467D+00 0.789D+00
 Coeff:     -0.699D-04 0.138D-03 0.218D-03 0.314D-03 0.155D-03-0.243D-02
 Coeff:     -0.111D-01-0.116D-01 0.425D-01 0.500D-01-0.352D-01-0.171D+00
 Coeff:     -0.118D+00 0.467D+00 0.789D+00
 Gap=     0.158 Goal=   None    Shift=    0.000
 RMSDP=7.79D-08 MaxDP=6.48D-06 DE=-7.77D-09 OVMax= 5.14D-05

 Cycle  16  Pass 1  IDiag  1:
 RMSU=  3.52D-08    CP:  9.77D-01  1.58D+00  7.15D-01  7.29D-01  1.08D+00
                    CP:  1.27D+00  1.83D+00  2.76D+00  3.00D+00  2.82D+00
                    CP:  2.23D+00  1.90D+00  1.51D+00  1.64D+00  1.56D+00
 E= -3007.83501371535     Delta-E=       -0.000000002887 Rises=F Damp=F
 DIIS: error= 6.64D-07 at cycle  16 NSaved=  16.
 NSaved=16 IEnMin=16 EnMin= -3007.83501371535     IErMin=16 ErrMin= 6.64D-07
 ErrMax= 6.64D-07  0.00D+00 EMaxC= 1.00D-01 BMatC= 1.20D-10 BMatP= 4.41D-10
 IDIUse=1 WtCom= 1.00D+00 WtEn= 0.00D+00
 Coeff-Com: -0.834D-05 0.152D-04 0.345D-04 0.713D-04 0.275D-03 0.231D-03
 Coeff-Com: -0.245D-02-0.529D-02 0.189D-02 0.136D-01 0.230D-01-0.235D-01
 Coeff-Com: -0.118D+00-0.185D+00 0.211D+00 0.108D+01
 Coeff:     -0.834D-05 0.152D-04 0.345D-04 0.713D-04 0.275D-03 0.231D-03
 Coeff:     -0.245D-02-0.529D-02 0.189D-02 0.136D-01 0.230D-01-0.235D-01
 Coeff:     -0.118D+00-0.185D+00 0.211D+00 0.108D+01
 Gap=     0.158 Goal=   None    Shift=    0.000
 RMSDP=6.96D-08 MaxDP=5.66D-06 DE=-2.89D-09 OVMax= 4.40D-05

 Cycle  17  Pass 1  IDiag  1:
 RMSU=  1.71D-08    CP:  9.77D-01  1.58D+00  7.15D-01  7.29D-01  1.08D+00
                    CP:  1.27D+00  1.83D+00  2.76D+00  3.00D+00  2.83D+00
                    CP:  2.26D+00  1.95D+00  1.58D+00  1.92D+00  2.22D+00
                    CP:  1.47D+00
 E= -3007.83501371664     Delta-E=       -0.000000001284 Rises=F Damp=F
 DIIS: error= 2.24D-07 at cycle  17 NSaved=  17.
 NSaved=17 IEnMin=17 EnMin= -3007.83501371664     IErMin=17 ErrMin= 2.24D-07
 ErrMax= 2.24D-07  0.00D+00 EMaxC= 1.00D-01 BMatC= 3.99D-11 BMatP= 1.20D-10
 IDIUse=1 WtCom= 1.00D+00 WtEn= 0.00D+00
 Coeff-Com:  0.218D-04-0.436D-04-0.664D-04-0.877D-04 0.736D-04 0.102D-02
 Coeff-Com:  0.305D-02 0.246D-02-0.146D-01-0.149D-01 0.264D-01 0.562D-01
 Coeff-Com: -0.237D-02-0.251D+00-0.214D+00 0.399D+00 0.101D+01
 Coeff:      0.218D-04-0.436D-04-0.664D-04-0.877D-04 0.736D-04 0.102D-02
 Coeff:      0.305D-02 0.246D-02-0.146D-01-0.149D-01 0.264D-01 0.562D-01
 Coeff:     -0.237D-02-0.251D+00-0.214D+00 0.399D+00 0.101D+01
 Gap=     0.158 Goal=   None    Shift=    0.000
 RMSDP=4.30D-08 MaxDP=3.12D-06 DE=-1.28D-09 OVMax= 2.79D-05

 Cycle  18  Pass 1  IDiag  1:
 RMSU=  1.03D-08    CP:  9.77D-01  1.58D+00  7.15D-01  7.29D-01  1.08D+00
                    CP:  1.27D+00  1.83D+00  2.76D+00  3.00D+00  2.83D+00
                    CP:  2.27D+00  1.98D+00  1.60D+00  2.11D+00  2.67D+00
                    CP:  1.94D+00  1.55D+00
 E= -3007.83501371716     Delta-E=       -0.000000000518 Rises=F Damp=F
 DIIS: error= 1.41D-07 at cycle  18 NSaved=  18.
 NSaved=18 IEnMin=18 EnMin= -3007.83501371716     IErMin=18 ErrMin= 1.41D-07
 ErrMax= 1.41D-07  0.00D+00 EMaxC= 1.00D-01 BMatC= 1.23D-11 BMatP= 3.99D-11
 IDIUse=1 WtCom= 1.00D+00 WtEn= 0.00D+00
 Coeff-Com:  0.118D-04-0.231D-04-0.400D-04-0.600D-04-0.415D-04 0.376D-03
 Coeff-Com:  0.197D-02 0.278D-02-0.697D-02-0.114D-01 0.597D-02 0.309D-01
 Coeff-Com:  0.316D-01-0.616D-01-0.146D+00-0.138D+00 0.479D+00 0.811D+00
 Coeff:      0.118D-04-0.231D-04-0.400D-04-0.600D-04-0.415D-04 0.376D-03
 Coeff:      0.197D-02 0.278D-02-0.697D-02-0.114D-01 0.597D-02 0.309D-01
 Coeff:      0.316D-01-0.616D-01-0.146D+00-0.138D+00 0.479D+00 0.811D+00
 Gap=     0.158 Goal=   None    Shift=    0.000
 RMSDP=1.81D-08 MaxDP=1.43D-06 DE=-5.18D-10 OVMax= 1.13D-05

 Cycle  19  Pass 1  IDiag  1:
 RMSU=  4.03D-09    CP:  9.77D-01  1.58D+00  7.15D-01  7.29D-01  1.08D+00
                    CP:  1.27D+00  1.83D+00  2.76D+00  3.00D+00  2.84D+00
                    CP:  2.27D+00  1.98D+00  1.61D+00  2.18D+00  2.84D+00
                    CP:  2.12D+00  1.98D+00  1.23D+00
 E= -3007.83501371722     Delta-E=       -0.000000000065 Rises=F Damp=F
 DIIS: error= 3.83D-08 at cycle  19 NSaved=  19.
 NSaved=19 IEnMin=19 EnMin= -3007.83501371722     IErMin=19 ErrMin= 3.83D-08
 ErrMax= 3.83D-08  0.00D+00 EMaxC= 1.00D-01 BMatC= 2.26D-12 BMatP= 1.23D-11
 IDIUse=1 WtCom= 1.00D+00 WtEn= 0.00D+00
 Coeff-Com: -0.678D-06 0.154D-05 0.144D-06-0.181D-05-0.329D-04-0.101D-03
 Coeff-Com: -0.108D-04 0.586D-03 0.713D-03-0.105D-02-0.364D-02-0.128D-02
 Coeff-Com:  0.132D-01 0.359D-01-0.211D-02-0.169D+00-0.415D-01 0.321D+00
 Coeff-Com:  0.847D+00
 Coeff:     -0.678D-06 0.154D-05 0.144D-06-0.181D-05-0.329D-04-0.101D-03
 Coeff:     -0.108D-04 0.586D-03 0.713D-03-0.105D-02-0.364D-02-0.128D-02
 Coeff:      0.132D-01 0.359D-01-0.211D-02-0.169D+00-0.415D-01 0.321D+00
 Coeff:      0.847D+00
 Gap=     0.158 Goal=   None    Shift=    0.000
 RMSDP=7.18D-09 MaxDP=6.10D-07 DE=-6.55D-11 OVMax= 4.55D-06

 SCF Done:  E(RwB97XD) =  -3007.83501372     A.U. after   19 cycles
            NFock= 19  Conv=0.72D-08     -V/T= 2.0108
 KE= 2.975798464118D+03 PE=-2.639966791490D+04 EE= 1.071243815747D+04
 Leave Link  502 at Wed May  4 10:23:23 2022, MaxMem= 10066329600 cpu:            9927.8 elap:             433.5
 (Enter /sw/apps/gaussian-16.0/g16/l801.exe)
 DoSCS=F DFT=T ScalE2(SS,OS)=  1.000000  1.000000
 ExpMin= 3.36D-02 ExpMax= 4.95D+03 ExpMxC= 7.45D+02 IAcc=3 IRadAn=         5 AccDes= 0.00D+00
 HarFok:  IExCor=  205 AccDes= 0.00D+00 IRadAn=         5 IDoV=-2 UseB2=F ITyADJ=14
 ICtDFT= 12500011 ScaDFX=  1.000000  1.000000  1.000000  1.000000
 GSVD:  LWork=       -5460 too small for GESVD, short by       25550 words or       25550 for optimal perf.
 Largest valence mixing into a core orbital is  1.73D-04
 Largest core mixing into a valence orbital is  5.86D-05
 Range of M.O.s used for correlation:    71  1298
 NBasis=  1298 NAE=   246 NBE=   246 NFC=    70 NFV=     0
 NROrb=   1228 NOA=   176 NOB=   176 NVA=  1052 NVB=  1052

 **** Warning!!: The largest alpha MO coefficient is  0.10445670D+02

 Leave Link  801 at Wed May  4 10:23:23 2022, MaxMem= 10066329600 cpu:               7.8 elap:               0.4
 (Enter /sw/apps/gaussian-16.0/g16/l914.exe)
 RHF ground state
 Two-electron integrals replicated using symmetry.
 MDV= 10066329600 DFT=T DoStab=F Mixed=T DoRPA=T DoScal=F NonHer=T
 Making orbital integer symmetry assigments:
 Orbital symmetries:
       Occupied  (A) (A) (A) (A) (A) (A) (A) (A) (A) (A) (A) (A)
                 (A) (A) (A) (A) (A) (A) (A) (A) (A) (A) (A) (A)
                 (A) (A) (A) (A) (A) (A) (A) (A) (A) (A) (A) (A)
                 (A) (A) (A) (A) (A) (A) (A) (A) (A) (A) (A) (A)
                 (A) (A) (A) (A) (A) (A) (A) (A) (A) (A) (A) (A)
                 (A) (A) (A) (A) (A) (A) (A) (A) (A) (A) (A) (A)
                 (A) (A) (A) (A) (A) (A) (A) (A) (A) (A) (A) (A)
                 (A) (A) (A) (A) (A) (A) (A) (A) (A) (A) (A) (A)
                 (A) (A) (A) (A) (A) (A) (A) (A) (A) (A) (A) (A)
                 (A) (A) (A) (A) (A) (A) (A) (A) (A) (A) (A) (A)
                 (A) (A) (A) (A) (A) (A) (A) (A) (A) (A) (A) (A)
                 (A) (A) (A) (A) (A) (A) (A) (A) (A) (A) (A) (A)
                 (A) (A) (A) (A) (A) (A) (A) (A) (A) (A) (A) (A)
                 (A) (A) (A) (A) (A) (A) (A) (A) (A) (A) (A) (A)
                 (A) (A) (A) (A) (A) (A) (A) (A) (A) (A) (A) (A)
                 (A) (A) (A) (A) (A) (A) (A) (A) (A) (A) (A) (A)
                 (A) (A) (A) (A) (A) (A) (A) (A) (A) (A) (A) (A)
                 (A) (A) (A) (A) (A) (A) (A) (A) (A) (A) (A) (A)
                 (A) (A) (A) (A) (A) (A) (A) (A) (A) (A) (A) (A)
                 (A) (A) (A) (A) (A) (A) (A) (A) (A) (A) (A) (A)
                 (A) (A) (A) (A) (A) (A)
       Virtual   (A) (A) (A) (A) (A) (A) (A) (A) (A) (A) (A) (A)
                 (A) (A) (A) (A) (A) (A) (A) (A) (A) (A) (A) (A)
                 (A) (A) (A) (A) (A) (A) (A) (A) (A) (A) (A) (A)
                 (A) (A) (A) (A) (A) (A) (A) (A) (A) (A) (A) (A)
                 (A) (A) (A) (A) (A) (A) (A) (A) (A) (A) (A) (A)
                 (A) (A) (A) (A) (A) (A) (A) (A) (A) (A) (A) (A)
                 (A) (A) (A) (A) (A) (A) (A) (A) (A) (A) (A) (A)
                 (A) (A) (A) (A) (A) (A) (A) (A) (A) (A) (A) (A)
                 (A) (A) (A) (A) (A) (A) (A) (A) (A) (A) (A) (A)
                 (A) (A) (A) (A) (A) (A) (A) (A) (A) (A) (A) (A)
                 (A) (A) (A) (A) (A) (A) (A) (A) (A) (A) (A) (A)
                 (A) (A) (A) (A) (A) (A) (A) (A) (A) (A) (A) (A)
                 (A) (A) (A) (A) (A) (A) (A) (A) (A) (A) (A) (A)
                 (A) (A) (A) (A) (A) (A) (A) (A) (A) (A) (A) (A)
                 (A) (A) (A) (A) (A) (A) (A) (A) (A) (A) (A) (A)
                 (A) (A) (A) (A) (A) (A) (A) (A) (A) (A) (A) (A)
                 (A) (A) (A) (A) (A) (A) (A) (A) (A) (A) (A) (A)
                 (A) (A) (A) (A) (A) (A) (A) (A) (A) (A) (A) (A)
                 (A) (A) (A) (A) (A) (A) (A) (A) (A) (A) (A) (A)
                 (A) (A) (A) (A) (A) (A) (A) (A) (A) (A) (A) (A)
                 (A) (A) (A) (A) (A) (A) (A) (A) (A) (A) (A) (A)
                 (A) (A) (A) (A) (A) (A) (A) (A) (A) (A) (A) (A)
                 (A) (A) (A) (A) (A) (A) (A) (A) (A) (A) (A) (A)
                 (A) (A) (A) (A) (A) (A) (A) (A) (A) (A) (A) (A)
                 (A) (A) (A) (A) (A) (A) (A) (A) (A) (A) (A) (A)
                 (A) (A) (A) (A) (A) (A) (A) (A) (A) (A) (A) (A)
                 (A) (A) (A) (A) (A) (A) (A) (A) (A) (A) (A) (A)
                 (A) (A) (A) (A) (A) (A) (A) (A) (A) (A) (A) (A)
                 (A) (A) (A) (A) (A) (A) (A) (A) (A) (A) (A) (A)
                 (A) (A) (A) (A) (A) (A) (A) (A) (A) (A) (A) (A)
                 (A) (A) (A) (A) (A) (A) (A) (A) (A) (A) (A) (A)
                 (A) (A) (A) (A) (A) (A) (A) (A) (A) (A) (A) (A)
                 (A) (A) (A) (A) (A) (A) (A) (A) (A) (A) (A) (A)
                 (A) (A) (A) (A) (A) (A) (A) (A) (A) (A) (A) (A)
                 (A) (A) (A) (A) (A) (A) (A) (A) (A) (A) (A) (A)
                 (A) (A) (A) (A) (A) (A) (A) (A) (A) (A) (A) (A)
                 (A) (A) (A) (A) (A) (A) (A) (A) (A) (A) (A) (A)
                 (A) (A) (A) (A) (A) (A) (A) (A) (A) (A) (A) (A)
                 (A) (A) (A) (A) (A) (A) (A) (A) (A) (A) (A) (A)
                 (A) (A) (A) (A) (A) (A) (A) (A) (A) (A) (A) (A)
                 (A) (A) (A) (A) (A) (A) (A) (A) (A) (A) (A) (A)
                 (A) (A) (A) (A) (A) (A) (A) (A) (A) (A) (A) (A)
                 (A) (A) (A) (A) (A) (A) (A) (A) (A) (A) (A) (A)
                 (A) (A) (A) (A) (A) (A) (A) (A) (A) (A) (A) (A)
                 (A) (A) (A) (A) (A) (A) (A) (A) (A) (A) (A) (A)
                 (A) (A) (A) (A) (A) (A) (A) (A) (A) (A) (A) (A)
                 (A) (A) (A) (A) (A) (A) (A) (A) (A) (A) (A) (A)
                 (A) (A) (A) (A) (A) (A) (A) (A) (A) (A) (A) (A)
                 (A) (A) (A) (A) (A) (A) (A) (A) (A) (A) (A) (A)
                 (A) (A) (A) (A) (A) (A) (A) (A) (A) (A) (A) (A)
                 (A) (A) (A) (A) (A) (A) (A) (A) (A) (A) (A) (A)
                 (A) (A) (A) (A) (A) (A) (A) (A) (A) (A) (A) (A)
                 (A) (A) (A) (A) (A) (A) (A) (A) (A) (A) (A) (A)
                 (A) (A) (A) (A) (A) (A) (A) (A) (A) (A) (A) (A)
                 (A) (A) (A) (A) (A) (A) (A) (A) (A) (A) (A) (A)
                 (A) (A) (A) (A) (A) (A) (A) (A) (A) (A) (A) (A)
                 (A) (A) (A) (A) (A) (A) (A) (A) (A) (A) (A) (A)
                 (A) (A) (A) (A) (A) (A) (A) (A) (A) (A) (A) (A)
                 (A) (A) (A) (A) (A) (A) (A) (A) (A) (A) (A) (A)
                 (A) (A) (A) (A) (A) (A) (A) (A) (A) (A) (A) (A)
                 (A) (A) (A) (A) (A) (A) (A) (A) (A) (A) (A) (A)
                 (A) (A) (A) (A) (A) (A) (A) (A) (A) (A) (A) (A)
                 (A) (A) (A) (A) (A) (A) (A) (A) (A) (A) (A) (A)
                 (A) (A) (A) (A) (A) (A) (A) (A) (A) (A) (A) (A)
                 (A) (A) (A) (A) (A) (A) (A) (A) (A) (A) (A) (A)
                 (A) (A) (A) (A) (A) (A) (A) (A) (A) (A) (A) (A)
                 (A) (A) (A) (A) (A) (A) (A) (A) (A) (A) (A) (A)
                 (A) (A) (A) (A) (A) (A) (A) (A) (A) (A) (A) (A)
                 (A) (A) (A) (A) (A) (A) (A) (A) (A) (A) (A) (A)
                 (A) (A) (A) (A) (A) (A) (A) (A) (A) (A) (A) (A)
                 (A) (A) (A) (A) (A) (A) (A) (A) (A) (A) (A) (A)
                 (A) (A) (A) (A) (A) (A) (A) (A) (A) (A) (A) (A)
                 (A) (A) (A) (A) (A) (A) (A) (A) (A) (A) (A) (A)
                 (A) (A) (A) (A) (A) (A) (A) (A) (A) (A) (A) (A)
                 (A) (A) (A) (A) (A) (A) (A) (A) (A) (A) (A) (A)
                 (A) (A) (A) (A) (A) (A) (A) (A) (A) (A) (A) (A)
                 (A) (A) (A) (A) (A) (A) (A) (A) (A) (A) (A) (A)
                 (A) (A) (A) (A) (A) (A) (A) (A) (A) (A) (A) (A)
                 (A) (A) (A) (A) (A) (A) (A) (A) (A) (A) (A) (A)
                 (A) (A) (A) (A) (A) (A) (A) (A) (A) (A) (A) (A)
                 (A) (A) (A) (A) (A) (A) (A) (A) (A) (A) (A) (A)
                 (A) (A) (A) (A) (A) (A) (A) (A) (A) (A) (A) (A)
                 (A) (A) (A) (A) (A) (A) (A) (A) (A) (A) (A) (A)
                 (A) (A) (A) (A) (A) (A) (A) (A) (A) (A) (A) (A)
                 (A) (A) (A) (A) (A) (A) (A) (A) (A) (A) (A) (A)
                 (A) (A) (A) (A) (A) (A) (A) (A) (A) (A) (A) (A)
                 (A) (A) (A) (A) (A) (A) (A) (A) (A) (A) (A) (A)
                 (A) (A) (A) (A) (A) (A) (A) (A)
    20 initial guesses have been made.
 Convergence on wavefunction:    0.001000000000000
 Davidson Disk Diagonalization:  ConvIn= 1.00D-03 SkipCon=T Conv= 1.00D-03.
 Max sub-space:  2000 roots to seek:    20 dimension of matrix:       370304
 Iteration     1 Dimension    20 NMult     0 NNew     20
 CISAX will form    20 AO SS matrices at one time.
 NMat=    20 NSing=    20 JSym2X= 0.
 FoFJK:  IHMeth= 1 ICntrl=       0 DoSepK=T KAlg= 0 I1Cent=           0 FoldK=F
 IRaf=         1 NMat=      40 IRICut=       1 DoRegI=T DoRafI=F ISym2E= 0 IDoP0=3 IntGTp=3.
 FoFCou: FMM=T IPFlag=           0 FMFlag=      100000 FMFlg1=        2001
         NFxFlg=           0 DoJE=F BraDBF=F KetDBF=F FulRan=T
         wScrn=  0.000000 ICntrl=       500 IOpCl=  0 I1Cent=           0 NGrid=           0
         NMat0=   20 NMatS0=     20 NMatT0=    0 NMatD0=   20 NMtDS0=    0 NMtDT0=    0
 Symmetry not used in FoFCou.
 FMM levels:  10  Number of levels for PrismC:   9
 New state      3 was old state      4
 New state      4 was old state      7
 New state      5 was old state      8
 Excitation Energies [eV] at current iteration:
 Root      1 :     2.198022136708696
 Root      2 :     2.662100416414046
 Root      3 :     3.812326145616196
 Root      4 :     3.992938085756943
 Root      5 :     4.232661525958186
 Root      6 :     4.362262372375896
 Root      7 :     4.370675834579306
 Root      8 :     4.489351023857111
 Root      9 :     4.567500068895963
 Root     10 :     4.627730861820326
 Root     11 :     4.682840909766390
 Root     12 :     4.924997854050808
 Root     13 :     5.062173870942187
 Root     14 :     5.154664345923942
 Root     15 :     5.334278978621326
 Root     16 :     5.424189533139420
 Root     17 :     5.502321456790756
 Root     18 :     5.998975882974359
 Root     19 :     6.061645046288309
 Root     20 :     6.872920938479776
 Iteration     2 Dimension    30 NMult    20 NNew     10
 CISAX will form    10 AO SS matrices at one time.
 NMat=    10 NSing=    10 JSym2X= 0.
 Root      1 not converged, maximum delta is    0.076396992340692
 Root      2 not converged, maximum delta is    0.062612091567584
 Root      3 not converged, maximum delta is    0.099566038014385
 Root      4 not converged, maximum delta is    0.174893265455062
 Root      5 not converged, maximum delta is    0.234822961802929
 Excitation Energies [eV] at current iteration:
 Root      1 :     1.682228050261406   Change is   -0.515794086447290
 Root      2 :     2.248832721207288   Change is   -0.413267695206759
 Root      3 :     3.450273420558147   Change is   -0.362052725058049
 Root      4 :     3.574747755324394   Change is   -0.418190330432548
 Root      5 :     3.828268772254858   Change is   -0.404392753703328
 Iteration     3 Dimension    40 NMult    30 NNew     10
 CISAX will form    10 AO SS matrices at one time.
 NMat=    10 NSing=    10 JSym2X= 0.
 Root      1 not converged, maximum delta is    0.024683365064730
 Root      2 not converged, maximum delta is    0.007064552064667
 Root      3 not converged, maximum delta is    0.040430981222817
 Root      4 not converged, maximum delta is    0.107116634151845
 Root      5 not converged, maximum delta is    0.100197776280730
 Excitation Energies [eV] at current iteration:
 Root      1 :     1.641861395332474   Change is   -0.040366654928932
 Root      2 :     2.230458441767066   Change is   -0.018374279440222
 Root      3 :     3.433823251512197   Change is   -0.016450169045950
 Root      4 :     3.536276211217398   Change is   -0.038471544106996
 Root      5 :     3.722899174174882   Change is   -0.105369598079975
 Iteration     4 Dimension    50 NMult    40 NNew     10
 CISAX will form    10 AO SS matrices at one time.
 NMat=    10 NSing=    10 JSym2X= 0.
 Root      1 not converged, maximum delta is    0.004463878819871
 Root      2 not converged, maximum delta is    0.004185287514790
 Root      3 not converged, maximum delta is    0.014865649635303
 Root      4 not converged, maximum delta is    0.037810475148595
 Root      5 not converged, maximum delta is    0.027638271856632
 Excitation Energies [eV] at current iteration:
 Root      1 :     1.637283425834301   Change is   -0.004577969498172
 Root      2 :     2.227982996687072   Change is   -0.002475445079993
 Root      3 :     3.429815302500218   Change is   -0.004007949011979
 Root      4 :     3.526032244904177   Change is   -0.010243966313221
 Root      5 :     3.699452944703919   Change is   -0.023446229470963
 Iteration     5 Dimension    60 NMult    50 NNew     10
 CISAX will form    10 AO SS matrices at one time.
 NMat=    10 NSing=    10 JSym2X= 0.
 Root      1 not converged, maximum delta is    0.001093059146990
 Root      2 has converged.
 Root      3 not converged, maximum delta is    0.002277614681833
 Root      4 not converged, maximum delta is    0.003565317876779
 Root      5 not converged, maximum delta is    0.074801958878805
 Excitation Energies [eV] at current iteration:
 Root      1 :     1.636867009933776   Change is   -0.000416415900526
 Root      2 :     2.227778705535304   Change is   -0.000204291151769
 Root      3 :     3.429367626210492   Change is   -0.000447676289726
 Root      4 :     3.524907486114726   Change is   -0.001124758789451
 Root      5 :     3.689619150245346   Change is   -0.009833794458573
 Iteration     6 Dimension    68 NMult    60 NNew      8
 CISAX will form     8 AO SS matrices at one time.
 NMat=     8 NSing=     8 JSym2X= 0.
 Root      1 has converged.
 Root      2 has converged.
 Root      3 not converged, maximum delta is    0.001535541881582
 Root      4 not converged, maximum delta is    0.002434994550970
 Root      5 not converged, maximum delta is    0.137049519360567
 Excitation Energies [eV] at current iteration:
 Root      1 :     1.636827659641566   Change is   -0.000039350292210
 Root      2 :     2.227777753536731   Change is   -0.000000951998573
 Root      3 :     3.429300324036077   Change is   -0.000067302174415
 Root      4 :     3.524759816314464   Change is   -0.000147669800261
 Root      5 :     3.671526718730087   Change is   -0.018092431515259
 Iteration     7 Dimension    74 NMult    68 NNew      6
 CISAX will form     6 AO SS matrices at one time.
 NMat=     6 NSing=     6 JSym2X= 0.
 Root      1 has converged.
 Root      2 has converged.
 Root      3 has converged.
 Root      4 has converged.
 Root      5 not converged, maximum delta is    0.056319122931277
 Excitation Energies [eV] at current iteration:
 Root      1 :     1.636827350367453   Change is   -0.000000309274113
 Root      2 :     2.227776526283013   Change is   -0.000001227253719
 Root      3 :     3.429286276355700   Change is   -0.000014047680377
 Root      4 :     3.524736698955012   Change is   -0.000023117359453
 Root      5 :     3.662256163139179   Change is   -0.009270555590908
 Iteration     8 Dimension    76 NMult    74 NNew      2
 CISAX will form     2 AO SS matrices at one time.
 NMat=     2 NSing=     2 JSym2X= 0.
 Root      1 has converged.
 Root      2 has converged.
 Root      3 not converged, maximum delta is    0.001003204519908
 Root      4 has converged.
 Root      5 not converged, maximum delta is    0.056066620445283
 Excitation Energies [eV] at current iteration:
 Root      1 :     1.636827258122295   Change is   -0.000000092245158
 Root      2 :     2.227775917891307   Change is   -0.000000608391705
 Root      3 :     3.429278823674958   Change is   -0.000007452680743
 Root      4 :     3.524735582733089   Change is   -0.000001116221923
 Root      5 :     3.651669658129179   Change is   -0.010586505010000
 Iteration     9 Dimension    80 NMult    76 NNew      4
 CISAX will form     4 AO SS matrices at one time.
 NMat=     4 NSing=     4 JSym2X= 0.
 Root      1 has converged.
 Root      2 has converged.
 Root      3 not converged, maximum delta is    0.001114129894582
 Root      4 has converged.
 Root      5 not converged, maximum delta is    0.161893877289146
 Excitation Energies [eV] at current iteration:
 Root      1 :     1.636827203012032   Change is   -0.000000055110263
 Root      2 :     2.227775536920008   Change is   -0.000000380971300
 Root      3 :     3.429269244398647   Change is   -0.000009579276311
 Root      4 :     3.524733504621810   Change is   -0.000002078111279
 Root      5 :     3.631762545438813   Change is   -0.019907112690366
 Iteration    10 Dimension    84 NMult    80 NNew      4
 CISAX will form     4 AO SS matrices at one time.
 NMat=     4 NSing=     4 JSym2X= 0.
 Root      1 has converged.
 Root      2 has converged.
 Root      3 has converged.
 Root      4 has converged.
 Root      5 not converged, maximum delta is    0.050154599668749
 Excitation Energies [eV] at current iteration:
 Root      1 :     1.636827177472578   Change is   -0.000000025539454
 Root      2 :     2.227775414753490   Change is   -0.000000122166518
 Root      3 :     3.429267580764642   Change is   -0.000001663634005
 Root      4 :     3.524732363753664   Change is   -0.000001140868146
 Root      5 :     3.625296410869645   Change is   -0.006466134569168
 Iteration    11 Dimension    86 NMult    84 NNew      2
 CISAX will form     2 AO SS matrices at one time.
 NMat=     2 NSing=     2 JSym2X= 0.
 Root      1 has converged.
 Root      2 has converged.
 Root      3 has converged.
 Root      4 has converged.
 Root      5 not converged, maximum delta is    0.008258509474551
 Excitation Energies [eV] at current iteration:
 Root      1 :     1.636827149015830   Change is   -0.000000028456748
 Root      2 :     2.227775383525617   Change is   -0.000000031227872
 Root      3 :     3.429267498441473   Change is   -0.000000082323169
 Root      4 :     3.524731609508219   Change is   -0.000000754245445
 Root      5 :     3.624270778475790   Change is   -0.001025632393855
 Iteration    12 Dimension    88 NMult    86 NNew      2
 CISAX will form     2 AO SS matrices at one time.
 NMat=     2 NSing=     2 JSym2X= 0.
 Root      1 has converged.
 Root      2 has converged.
 Root      3 has converged.
 Root      4 has converged.
 Root      5 not converged, maximum delta is    0.002324138057022
 Excitation Energies [eV] at current iteration:
 Root      1 :     1.636827141258830   Change is   -0.000000007757000
 Root      2 :     2.227775348842504   Change is   -0.000000034683114
 Root      3 :     3.429267449216484   Change is   -0.000000049224989
 Root      4 :     3.524731365135867   Change is   -0.000000244372352
 Root      5 :     3.624105121640662   Change is   -0.000165656835128
 Iteration    13 Dimension    90 NMult    88 NNew      2
 CISAX will form     2 AO SS matrices at one time.
 NMat=     2 NSing=     2 JSym2X= 0.
 Root      1 has converged.
 Root      2 has converged.
 Root      3 has converged.
 Root      4 has converged.
 Root      5 has converged.
 Excitation Energies [eV] at current iteration:
 Root      1 :     1.636827134900760   Change is   -0.000000006358069
 Root      2 :     2.227775307546146   Change is   -0.000000041296358
 Root      3 :     3.429267440391384   Change is   -0.000000008825100
 Root      4 :     3.524731282229764   Change is   -0.000000082906104
 Root      5 :     3.624082357630638   Change is   -0.000022764010023
 Convergence achieved on expansion vectors.
 ***********************************************************************
 Excited states from <AA,BB:AA,BB> singles matrix:
 ***********************************************************************
 
 1PDM for each excited state written to RWF  633
 Ground to excited state transition densities written to RWF  633
 Ground to excited state transition electric dipole moments (Au):
       state          X           Y           Z        Dip. S.      Osc.
         1        -1.4460     -2.7506     -0.0002      9.6568      0.3873
         2         1.0918     -0.8055      0.0971      1.8502      0.1010
         3         0.7522     -0.1003      0.0062      0.5759      0.0484
         4         1.9911     -0.5982      0.0250      4.3232      0.3733
         5        -0.2919      0.3098     -0.0373      0.1826      0.0162
 Ground to excited state transition velocity dipole moments (Au):
[...]
 Alpha virt. eigenvalues --    1.23644   1.25018   1.25405   1.25535   1.25769
 Alpha virt. eigenvalues --    1.26206   1.26530   1.27252   1.27433   1.28156
 Alpha virt. eigenvalues --    1.28402   1.28864   1.29319   1.29607   1.30558
 Alpha virt. eigenvalues --    1.30859   1.31190   1.31745   1.31996   1.32177
 Alpha virt. eigenvalues --    1.33287   1.33761   1.34230   1.34969   1.35444
 Alpha virt. eigenvalues --    1.36712   1.36965   1.37378   1.38082   1.38347
 Alpha virt. eigenvalues --    1.39070   1.39112   1.39953   1.40352   1.40611
 Alpha virt. eigenvalues --    1.40751   1.41138   1.41326   1.41653   1.42193
 Alpha virt. eigenvalues --    1.42390   1.42668   1.43052   1.43518   1.43756
 Alpha virt. eigenvalues --    1.43945   1.44655   1.44691   1.44765   1.45534
 Alpha virt. eigenvalues --    1.46027   1.46148   1.46409   1.46871   1.47303
 Alpha virt. eigenvalues --    1.47564   1.47768   1.47870   1.48533   1.49054
 Alpha virt. eigenvalues --    1.49232   1.49710   1.49848   1.50610   1.50815
 Alpha virt. eigenvalues --    1.51165   1.51343   1.52317   1.53002   1.53696
 Alpha virt. eigenvalues --    1.54073   1.54117   1.55286   1.56275   1.56343
 Alpha virt. eigenvalues --    1.56441   1.57059   1.57488   1.58130   1.58613
 Alpha virt. eigenvalues --    1.58843   1.59157   1.59298   1.59384   1.59788
 Alpha virt. eigenvalues --    1.60325   1.60396   1.60961   1.61369   1.61723
 Alpha virt. eigenvalues --    1.61796   1.62238   1.62356   1.62978   1.63031
 Alpha virt. eigenvalues --    1.63189   1.63353   1.63683   1.64034   1.64227
 Alpha virt. eigenvalues --    1.64587   1.64672   1.64757   1.64787   1.64892
 Alpha virt. eigenvalues --    1.65814   1.66138   1.66236   1.66757   1.67019
 Alpha virt. eigenvalues --    1.67520   1.67645   1.68162   1.68282   1.68533
 Alpha virt. eigenvalues --    1.68778   1.69216   1.69598   1.70011   1.70415
 Alpha virt. eigenvalues --    1.70951   1.71226   1.71588   1.71656   1.72435
 Alpha virt. eigenvalues --    1.72830   1.73229   1.73627   1.73939   1.74225
 Alpha virt. eigenvalues --    1.74585   1.75193   1.75662   1.75889   1.76008
 Alpha virt. eigenvalues --    1.76094   1.76761   1.77019   1.77167   1.77697
 Alpha virt. eigenvalues --    1.77907   1.78125   1.78608   1.78727   1.79055
 Alpha virt. eigenvalues --    1.79197   1.79468   1.79852   1.80229   1.80440
 Alpha virt. eigenvalues --    1.80715   1.81457   1.82081   1.82113   1.82749
 Alpha virt. eigenvalues --    1.83022   1.83375   1.83499   1.83589   1.83885
 Alpha virt. eigenvalues --    1.84509   1.84640   1.84861   1.85052   1.85182
 Alpha virt. eigenvalues --    1.85436   1.85636   1.85788   1.86162   1.86270
 Alpha virt. eigenvalues --    1.86322   1.86646   1.86886   1.86946   1.87056
 Alpha virt. eigenvalues --    1.87462   1.87611   1.87685   1.88155   1.88246
 Alpha virt. eigenvalues --    1.88332   1.88625   1.88843   1.88871   1.88984
 Alpha virt. eigenvalues --    1.89240   1.89355   1.89689   1.89790   1.90020
 Alpha virt. eigenvalues --    1.90143   1.90266   1.90896   1.90907   1.90979
 Alpha virt. eigenvalues --    1.91231   1.91452   1.91671   1.92014   1.92368
 Alpha virt. eigenvalues --    1.92462   1.92498   1.92744   1.92987   1.93403
 Alpha virt. eigenvalues --    1.93645   1.93851   1.94047   1.94130   1.94202
 Alpha virt. eigenvalues --    1.94433   1.94563   1.95191   1.95324   1.95457
 Alpha virt. eigenvalues --    1.95599   1.95954   1.96103   1.96738   1.97059
 Alpha virt. eigenvalues --    1.97466   1.97678   1.97977   1.98332   1.98838
 Alpha virt. eigenvalues --    1.99037   1.99187   1.99687   1.99765   1.99944
 Alpha virt. eigenvalues --    2.00529   2.00648   2.00814   2.00983   2.01053
 Alpha virt. eigenvalues --    2.01236   2.01737   2.01857   2.02476   2.02609
 Alpha virt. eigenvalues --    2.02923   2.03017   2.03268   2.03538   2.03803
 Alpha virt. eigenvalues --    2.04112   2.04425   2.04507   2.04681   2.04800
 Alpha virt. eigenvalues --    2.05146   2.05475   2.05667   2.05779   2.05924
 Alpha virt. eigenvalues --    2.06313   2.06737   2.07009   2.07119   2.07222
 Alpha virt. eigenvalues --    2.07508   2.07820   2.08293   2.08801   2.08993
 Alpha virt. eigenvalues --    2.09417   2.09543   2.09839   2.10337   2.10451
 Alpha virt. eigenvalues --    2.10999   2.11100   2.11541   2.11851   2.12140
 Alpha virt. eigenvalues --    2.12403   2.12590   2.13185   2.13468   2.13787
 Alpha virt. eigenvalues --    2.13857   2.14248   2.14345   2.14510   2.14828
 Alpha virt. eigenvalues --    2.14950   2.14980   2.15636   2.16528   2.16600
 Alpha virt. eigenvalues --    2.16837   2.17004   2.17167   2.17488   2.17644
 Alpha virt. eigenvalues --    2.17902   2.18339   2.18502   2.18599   2.18813
 Alpha virt. eigenvalues --    2.19578   2.19977   2.20324   2.20508   2.20629
 Alpha virt. eigenvalues --    2.20874   2.21106   2.21706   2.21812   2.22437
 Alpha virt. eigenvalues --    2.22458   2.22626   2.23084   2.23649   2.23729
 Alpha virt. eigenvalues --    2.24268   2.24512   2.25106   2.25470   2.25881
 Alpha virt. eigenvalues --    2.26578   2.26858   2.27500   2.27958   2.28515
 Alpha virt. eigenvalues --    2.28892   2.29396   2.29675   2.29898   2.30614
 Alpha virt. eigenvalues --    2.31376   2.31871   2.32019   2.32493   2.32938
 Alpha virt. eigenvalues --    2.34005   2.34088   2.34380   2.34617   2.35078
 Alpha virt. eigenvalues --    2.35253   2.35383   2.35797   2.36636   2.36804
 Alpha virt. eigenvalues --    2.36832   2.37034   2.37242   2.37870   2.38119
 Alpha virt. eigenvalues --    2.38231   2.38879   2.39414   2.39586   2.39666
 Alpha virt. eigenvalues --    2.40049   2.40198   2.40938   2.41237   2.41686
 Alpha virt. eigenvalues --    2.42488   2.42646   2.42853   2.42961   2.43733
 Alpha virt. eigenvalues --    2.44116   2.44234   2.45193   2.45510   2.45576
 Alpha virt. eigenvalues --    2.45632   2.45895   2.46227   2.46677   2.47072
 Alpha virt. eigenvalues --    2.47456   2.47543   2.48236   2.49247   2.49309
 Alpha virt. eigenvalues --    2.49775   2.50289   2.50622   2.50729   2.50978
 Alpha virt. eigenvalues --    2.51219   2.51431   2.51881   2.52366   2.52861
 Alpha virt. eigenvalues --    2.53059   2.53673   2.53743   2.54375   2.54515
 Alpha virt. eigenvalues --    2.55288   2.55365   2.55843   2.55988   2.56686
 Alpha virt. eigenvalues --    2.56740   2.57451   2.57992   2.58294   2.58654
 Alpha virt. eigenvalues --    2.58812   2.60044   2.60160   2.60690   2.61091
 Alpha virt. eigenvalues --    2.61436   2.61755   2.61904   2.62753   2.63606
 Alpha virt. eigenvalues --    2.64005   2.64095   2.64542   2.64784   2.65010
 Alpha virt. eigenvalues --    2.65360   2.65881   2.66377   2.66866   2.67337
 Alpha virt. eigenvalues --    2.67661   2.68018   2.68158   2.68266   2.68816
 Alpha virt. eigenvalues --    2.69398   2.70353   2.70774   2.70991   2.71438
 Alpha virt. eigenvalues --    2.71889   2.72079   2.73093   2.73196   2.73360
 Alpha virt. eigenvalues --    2.73898   2.74321   2.74879   2.75531   2.75541
 Alpha virt. eigenvalues --    2.75637   2.76209   2.76353   2.76700   2.76845
 Alpha virt. eigenvalues --    2.77700   2.77933   2.78542   2.79066   2.79327
 Alpha virt. eigenvalues --    2.79538   2.80253   2.80450   2.80472   2.80815
 Alpha virt. eigenvalues --    2.81089   2.81406   2.81510   2.81674   2.81838
 Alpha virt. eigenvalues --    2.82620   2.82738   2.83264   2.83376   2.83476
 Alpha virt. eigenvalues --    2.83883   2.84475   2.85533   2.86148   2.86907
 Alpha virt. eigenvalues --    2.87541   2.88180   2.88299   2.88943   2.89342
 Alpha virt. eigenvalues --    2.89641   2.91595   2.92376   2.92663   2.93204
 Alpha virt. eigenvalues --    2.94155   2.94861   2.94985   2.95343   2.95504
 Alpha virt. eigenvalues --    2.95989   2.96302   2.96580   2.96732   2.98401
 Alpha virt. eigenvalues --    2.98496   2.98866   2.99190   2.99696   2.99931
 Alpha virt. eigenvalues --    3.00386   3.00814   3.00963   3.01048   3.01560
 Alpha virt. eigenvalues --    3.01778   3.02233   3.02595   3.03011   3.03239
 Alpha virt. eigenvalues --    3.03323   3.03678   3.03949   3.04155   3.04539
 Alpha virt. eigenvalues --    3.04622   3.04786   3.04866   3.05727   3.05937
 Alpha virt. eigenvalues --    3.06095   3.06267   3.06725   3.06822   3.06923
 Alpha virt. eigenvalues --    3.07132   3.07267   3.07611   3.07937   3.08025
 Alpha virt. eigenvalues --    3.08140   3.08693   3.09192   3.09572   3.10313
 Alpha virt. eigenvalues --    3.10755   3.10854   3.11673   3.11711   3.12220
 Alpha virt. eigenvalues --    3.12580   3.12761   3.13050   3.13986   3.14800
 Alpha virt. eigenvalues --    3.15310   3.15831   3.16534   3.16751   3.17193
 Alpha virt. eigenvalues --    3.17652   3.18097   3.18552   3.18749   3.19766
 Alpha virt. eigenvalues --    3.19958   3.20234   3.20722   3.21481   3.22324
 Alpha virt. eigenvalues --    3.22367   3.23975   3.24781   3.25367   3.25743
 Alpha virt. eigenvalues --    3.27658   3.30142   3.30788   3.31753   3.32647
 Alpha virt. eigenvalues --    3.34018   3.37993   3.43539   3.45884   3.47916
 Alpha virt. eigenvalues --    3.48403   3.51642   3.52041   3.57121   3.62551
 Alpha virt. eigenvalues --    3.64346   3.68507   3.69172   3.70050   3.72363
 Alpha virt. eigenvalues --    3.73115   3.77850
          Condensed to atoms (all electrons):
 Mulliken charges:
               1
     1  Mg   0.979775
     2  C    0.034623
     3  C   -0.077297
     4  C   -0.079455
     5  C   -0.127677
     6  N   -0.322538
     7  C    0.034740
     8  C   -0.119405
     9  C   -0.052040
    10  C   -0.021719
    11  C    0.010578
    12  C    0.055649
    13  C    0.016081
    14  C    0.207043
    15  O   -0.264293
    16  O   -0.350331
    17  N   -0.486789
    18  C    0.231380
    19  C   -0.189461
    20  C   -0.068970
    21  C    0.161669
    22  C    0.084510
    23  C    0.073525
    24  O   -0.251818
    25  C   -0.017675
    26  N   -0.412863
    27  C    0.092131
    28  C   -0.094934
    29  C   -0.043325
    30  C    0.109341
    31  C   -0.000991
    32  C   -0.057258
    33  C   -0.076115
    34  N   -0.419556
    35  C    0.159893
    36  C   -0.192865
    37  C   -0.069236
    38  C    0.095867
    39  C    0.071952
    40  C    0.187770
    41  O   -0.197399
    42  C   -0.132670
    43  C    0.256799
    44  O   -0.262123
    45  O   -0.342073
    46  C    0.133067
    47  C    0.225555
    48  C   -0.113082
    49  C   -0.217692
    50  C    0.053314
    51  C    0.031216
    52  C    0.007060
    53  C    0.037307
    54  C   -0.197046
    55  C    0.000934
    56  C    0.026662
    57  C   -0.064897
    58  C    0.020933
    59  C   -0.201835
    60  C   -0.009854
    61  C    0.014627
    62  C   -0.019826
    63  C    0.016227
    64  C   -0.186938
    65  C   -0.017742
    66  C   -0.021653
    67  H   -0.010163
    68  H    0.016992
    69  H   -0.000403
    70  H    0.029470
    71  H    0.031341
    72  H    0.039851
    73  H    0.032470
    74  H    0.052579
    75  H    0.026734
    76  H    0.045311
    77  H    0.046339
    78  H    0.027047
    79  H    0.061342
    80  H    0.048698
    81  H    0.010480
    82  H    0.048842
    83  H    0.080195
    84  H    0.060603
    85  H    0.051348
    86  H    0.032724
    87  H    0.057824
    88  H    0.039188
    89  H    0.036163
    90  H    0.041237
    91  H    0.031537
    92  H    0.047104
    93  H    0.037981
    94  H    0.035751
    95  H    0.032638
    96  H    0.042889
    97  H    0.050212
    98  H    0.067543
    99  H    0.066441
   100  H    0.063669
   101  H    0.063208
   102  H    0.064021
   103  H    0.045534
   104  H    0.018193
   105  H    0.042202
   106  H    0.047198
   107  H    0.031548
   108  H   -0.006359
   109  H    0.024492
   110  H    0.014574
   111  H    0.031024
   112  H    0.015144
   113  H    0.004721
   114  H    0.011909
   115  H    0.022906
   116  H    0.020360
   117  H    0.023189
   118  H    0.015958
   119  H    0.015090
   120  H    0.025127
   121  H    0.022270
   122  H    0.015420
   123  H    0.027125
   124  H    0.011758
   125  H    0.040602
   126  H    0.038125
   127  H    0.028530
   128  H    0.013596
   129  H    0.010784
   130  H    0.020039
   131  H    0.013262
   132  H   -0.000791
   133  H    0.009964
   134  H    0.023445
   135  H    0.020851
   136  H    0.034356
   137  H    0.019651
   138  H    0.021961
   139  H    0.037663
   140  H    0.030587
 Sum of Mulliken charges =  -0.00000
 Mulliken charges with hydrogens summed into heavy atoms:
               1
     1  Mg   0.979775
     2  C    0.034623
     3  C   -0.087460
     4  C   -0.062463
     5  C   -0.128080
     6  N   -0.322538
     7  C    0.034740
     8  C   -0.089935
     9  C   -0.020698
    10  C   -0.021719
    11  C    0.135479
    12  C    0.127695
    13  C    0.089467
    14  C    0.207043
    15  O   -0.264293
    16  O   -0.350331
    17  N   -0.486789
    18  C    0.231380
    19  C   -0.189461
    20  C   -0.068970
    21  C    0.161669
    22  C    0.205029
    23  C    0.073525
    24  O   -0.251818
    25  C    0.171965
    26  N   -0.412863
    27  C    0.092131
    28  C   -0.043585
    29  C   -0.010600
    30  C    0.109341
    31  C    0.132184
    32  C    0.015516
    33  C    0.044721
    34  N   -0.419556
    35  C    0.159893
    36  C   -0.192865
    37  C   -0.069236
    38  C    0.095867
    39  C    0.197691
    40  C    0.187770
    41  O   -0.197399
    42  C   -0.065127
    43  C    0.256799
    44  O   -0.262123
    45  O   -0.342073
    46  C    0.326384
    47  C    0.335110
    48  C   -0.094889
    49  C   -0.217692
    50  C    0.174262
    51  C    0.049349
    52  C    0.052658
    53  C    0.057171
    54  C   -0.185137
    55  C    0.067388
    56  C    0.057710
    57  C   -0.017500
    58  C    0.063478
    59  C   -0.190077
    60  C    0.097404
    61  C    0.039007
    62  C    0.013475
    63  C    0.025400
    64  C   -0.163493
    65  C    0.057115
    66  C    0.068557
 Electronic spatial extent (au):  <R**2>=          99823.2830
 Charge=             -0.0000 electrons
 Dipole moment (field-independent basis, Debye):
    X=              4.2968    Y=              3.4813    Z=              0.1045  Tot=              5.5311
 Quadrupole moment (field-independent basis, Debye-Ang):
   XX=           -376.6743   YY=           -413.6125   ZZ=           -417.2477
   XY=            -26.1076   XZ=             19.7127   YZ=             -8.2637
 Traceless Quadrupole moment (field-independent basis, Debye-Ang):
   XX=             25.8372   YY=            -11.1010   ZZ=            -14.7362
   XY=            -26.1076   XZ=             19.7127   YZ=             -8.2637
 Octapole moment (field-independent basis, Debye-Ang**2):
  XXX=           -322.6705  YYY=           -140.3545  ZZZ=             17.8503  XYY=            249.2674
  XXY=            224.4725  XXZ=            -81.7046  XZZ=             -8.2743  YZZ=             45.9615
  YYZ=             79.3054  XYZ=            -53.3168
 Hexadecapole moment (field-independent basis, Debye-Ang**3):
 XXXX=         -96551.5608 YYYY=         -25879.5759 ZZZZ=         -10242.0644 XXXY=          -2412.0747
 XXXZ=            356.1796 YYYX=            -89.7618 YYYZ=           -516.9240 ZZZX=            182.1038
 ZZZY=           -141.8110 XXYY=         -22084.4153 XXZZ=         -18762.8246 YYZZ=          -6153.2331
 XXYZ=             56.1306 YYXZ=            152.9928 ZZXY=            -18.0008
 N-N= 9.703596279604D+03 E-N=-2.639966791921D+04  KE= 2.975798464118D+03
 Leave Link  601 at Wed May  4 10:48:17 2022, MaxMem= 10066329600 cpu:              18.6 elap:               0.9
 (Enter /sw/apps/gaussian-16.0/g16/l9999.exe)
 1\1\GINC-BP1-COMPUTE040\SP\RwB97XD TD-FC\def2SVP\C55H74Mg1N4O6\OF15641
 \04-May-2022\0\\#p wB97XD/Def2SVP td=(nstates=5)\\step_1601_chromophor
 e_27 TDDFT with wB97XD functional\\0,1\Mg,0,-6.303,24.525,26.538\C,0,-
 4.552,26.417,28.899\C,0,-7.075,22.286,29.066\C,0,-7.882,22.657,24.269\
 C,0,-4.986,26.572,23.999\N,0,-5.95,24.4,28.794\C,0,-5.371,25.41,29.505
 \C,0,-5.54,25.058,31.014\C,0,-5.962,23.528,30.997\C,0,-6.412,23.356,29
 .497\C,0,-4.8,22.447,31.395\C,0,-6.642,26.034,31.677\C,0,-6.364,26.329
 ,33.088\C,0,-6.945,25.794,34.381\O,0,-7.81,26.367,35.049\O,0,-6.36,24.
 616,34.695\N,0,-7.302,22.746,26.65\C,0,-7.522,21.999,27.757\C,0,-8.25,
 20.84,27.449\C,0,-8.614,20.926,26.083\C,0,-7.981,22.148,25.563\C,0,-8.
 688,19.751,28.462\C,0,-9.525,19.937,25.273\O,0,-9.735,20.201,24.071\C,
 0,-10.279,18.783,25.909\N,0,-6.522,24.648,24.539\C,0,-7.231,23.82,23.7
 93\C,0,-7.487,24.312,22.296\C,0,-6.42,25.467,22.276\C,0,-5.866,25.579,
 23.669\C,0,-7.397,23.225,21.12\C,0,-6.888,26.853,21.67\C,0,-5.968,27.4
 81,20.54\N,0,-4.987,26.134,26.379\C,0,-4.614,26.856,25.304\C,0,-3.86,2
 7.978,25.733\C,0,-3.775,27.905,27.124\C,0,-4.515,26.721,27.497\C,0,-3.
 336,28.973,24.788\C,0,-3.239,28.565,28.386\O,0,-2.603,29.581,28.635\C,
 0,-3.738,27.565,29.536\C,0,-2.537,27.176,30.335\O,0,-1.678,26.386,29.9
 52\O,0,-2.638,27.712,31.539\C,0,-1.679,27.329,32.596\C,0,-6.677,24.106
 ,36.044\C,0,-8.005,23.257,36.122\C,0,-8.329,22.333,36.958\C,0,-7.676,2
 2.07,38.261\C,0,-9.487,21.353,36.446\C,0,-10.925,21.866,36.641\C,0,-11
 .714,20.946,37.497\C,0,-12.831,20.266,36.709\C,0,-14.115,21.098,36.567
 \C,0,-13.084,18.865,37.196\C,0,-12.02,17.789,36.728\C,0,-11.626,16.763
 ,37.856\C,0,-10.097,16.646,37.833\C,0,-9.374,17.781,38.581\C,0,-9.639,
 15.211,38.158\C,0,-8.396,14.763,37.332\C,0,-7.054,15.293,37.894\C,0,-5
 .96,14.36,38.232\C,0,-6.086,13.86,39.731\C,0,-4.555,14.933,37.941\H,0,
 -7.329,21.704,29.954\H,0,-8.37,22.087,23.475\H,0,-4.718,27.238,23.176\
 H,0,-4.618,25.332,31.527\H,0,-6.883,23.331,31.546\H,0,-4.713,21.686,30
 .62\H,0,-5.066,21.861,32.275\H,0,-3.826,22.872,31.639\H,0,-7.572,25.47
 3,31.581\H,0,-6.795,26.931,31.078\H,0,-6.382,27.418,33.14\H,0,-5.306,2
 6.195,33.313\H,0,-9.573,19.997,29.049\H,0,-7.854,19.473,29.105\H,0,-8.
 967,18.893,27.85\H,0,-10.711,19.07,26.867\H,0,-9.59,17.959,26.094\H,0,
 -11.171,18.504,25.346\H,0,-8.406,24.875,22.131\H,0,-5.621,25.092,21.63
 6\H,0,-7.593,22.182,21.368\H,0,-6.44,23.267,20.599\H,0,-8.216,23.483,2
 0.449\H,0,-7.006,27.624,22.431\H,0,-7.853,26.856,21.161\H,0,-5.662,28.
 511,20.725\H,0,-6.555,27.44,19.623\H,0,-5.101,26.839,20.388\H,0,-4.132
 ,29.309,24.123\H,0,-2.564,28.6,24.114\H,0,-2.88,29.859,25.23\H,0,-4.44
 4,28.151,30.125\H,0,-0.69,27.192,32.16\H,0,-2.065,26.431,33.078\H,0,-1
 .549,28.206,33.23\H,0,-6.589,24.834,36.851\H,0,-5.941,23.334,36.27\H,0
 ,-8.534,23.321,35.171\H,0,-7.265,21.067,38.144\H,0,-8.347,21.994,39.11
 7\H,0,-6.937,22.851,38.438\H,0,-9.3,20.394,36.93\H,0,-9.318,21.165,35.
 385\H,0,-11.462,21.843,35.693\H,0,-11.052,22.894,36.98\H,0,-12.152,21.
 695,38.156\H,0,-11.153,20.191,38.048\H,0,-12.585,20.08,35.663\H,0,-14.
 09,22.114,36.961\H,0,-14.975,20.649,37.064\H,0,-14.45,21.17,35.532\H,0
 ,-14.033,18.501,36.802\H,0,-13.051,18.844,38.285\H,0,-11.198,18.254,36
 .183\H,0,-12.453,17.115,35.988\H,0,-12.027,15.782,37.6\H,0,-11.984,16.
 986,38.861\H,0,-9.796,16.89,36.814\H,0,-8.762,18.272,37.823\H,0,-8.755
 ,17.54,39.445\H,0,-10.104,18.515,38.921\H,0,-10.432,14.473,38.044\H,0,
 -9.4,15.179,39.221\H,0,-8.579,15.071,36.302\H,0,-8.266,13.68,37.345\H,
 0,-7.351,15.852,38.781\H,0,-6.675,16.047,37.203\H,0,-6.112,13.454,37.6
 47\H,0,-5.084,13.645,40.101\H,0,-6.672,12.961,39.923\H,0,-6.478,14.657
 ,40.364\H,0,-4.595,16.022,37.954\H,0,-4.327,14.551,36.946\H,0,-3.663,1
 4.814,38.556\\Version=ES64L-G16RevA.03\State=1-A\HF=-3007.8350137\RMSD
 =7.183e-09\PG=C01 [X(C55H74Mg1N4O6)]\\@


 THERE IS NO SCIENCE WITHOUT FANCY, NOR ART WITHOUT FACTS.
     -- VLADIMIR NABAKOV
 Job cpu time:       0 days 12 hours 40 minutes 41.1 seconds.
 Elapsed time:       0 days  0 hours 32 minutes 18.2 seconds.
 File lengths (MBytes):  RWF=   8929 Int=      0 D2E=      0 Chk=    390 Scr=      1
 Normal termination of Gaussian 16 at Wed May  4 10:48:18 2022.
