 Entering Gaussian System, Link 0=g16
 Initial command:
 /sw/apps/gaussian-16.0/g16/l1.exe "/tmp/Gau-269165.inp" -scrdir="/tmp/"
 Entering Link 1 = /sw/apps/gaussian-16.0/g16/l1.exe PID=    269166.
  
 Copyright (c) 1988,1990,1992,1993,1995,1998,2003,2009,2016,
            Gaussian, Inc.  All Rights Reserved.
  
 This is part of the Gaussian(R) 16 program.  It is based on
 the Gaussian(R) 09 system (copyright 2009, Gaussian, Inc.),
 the Gaussian(R) 03 system (copyright 2003, Gaussian, Inc.),
 the Gaussian(R) 98 system (copyright 1998, Gaussian, Inc.),
 the Gaussian(R) 94 system (copyright 1995, Gaussian, Inc.),
 the Gaussian 92(TM) system (copyright 1992, Gaussian, Inc.),
 the Gaussian 90(TM) system (copyright 1990, Gaussian, Inc.),
 the Gaussian 88(TM) system (copyright 1988, Gaussian, Inc.),
 the Gaussian 86(TM) system (copyright 1986, Carnegie Mellon
 University), and the Gaussian 82(TM) system (copyright 1983,
 Carnegie Mellon University). Gaussian is a federally registered
 trademark of Gaussian, Inc.
  
 This software contains proprietary and confidential information,
 including trade secrets, belonging to Gaussian, Inc.
  
 This software is provided under written license and may be
 used, copied, transmitted, or stored only in accord with that
 written license.
  
 The following legend is applicable only to US Government
 contracts under FAR:
  
                    RESTRICTED RIGHTS LEGEND
  
 Use, reproduction and disclosure by the US Government is
 subject to restrictions as set forth in subparagraphs (a)
 and (c) of the Commercial Computer Software - Restricted
 Rights clause in FAR 52.227-19.
  
 Gaussian, Inc.
 340 Quinnipiac St., Bldg. 40, Wallingford CT 06492
  
  
 ---------------------------------------------------------------
 Warning -- This program may not be used in any manner that
 competes with the business of Gaussian, Inc. or will provide
 assistance to any competitor of Gaussian, Inc.  The licensee
 of this program is prohibited from giving any competitor of
 Gaussian, Inc. access to this program.  By using this program,
 the user acknowledges that Gaussian, Inc. is engaged in the
 business of creating and licensing software in the field of
 computational chemistry and represents and warrants to the
 licensee that it is not a competitor of Gaussian, Inc. and that
 it will not use this program in any manner prohibited above.
 ---------------------------------------------------------------
  

 Cite this work as:
 Gaussian 16, Revision A.03,
 M. J. Frisch, G. W. Trucks, H. B. Schlegel, G. E. Scuseria, 
 M. A. Robb, J. R. Cheeseman, G. Scalmani, V. Barone, 
 G. A. Petersson, H. Nakatsuji, X. Li, M. Caricato, A. V. Marenich, 
 J. Bloino, B. G. Janesko, R. Gomperts, B. Mennucci, H. P. Hratchian, 
 J. V. Ortiz, A. F. Izmaylov, J. L. Sonnenberg, D. Williams-Young, 
 F. Ding, F. Lipparini, F. Egidi, J. Goings, B. Peng, A. Petrone, 
 T. Henderson, D. Ranasinghe, V. G. Zakrzewski, J. Gao, N. Rega, 
 G. Zheng, W. Liang, M. Hada, M. Ehara, K. Toyota, R. Fukuda, 
 J. Hasegawa, M. Ishida, T. Nakajima, Y. Honda, O. Kitao, H. Nakai, 
 T. Vreven, K. Throssell, J. A. Montgomery, Jr., J. E. Peralta, 
 F. Ogliaro, M. J. Bearpark, J. J. Heyd, E. N. Brothers, K. N. Kudin, 
 V. N. Staroverov, T. A. Keith, R. Kobayashi, J. Normand, 
 K. Raghavachari, A. P. Rendell, J. C. Burant, S. S. Iyengar, 
 J. Tomasi, M. Cossi, J. M. Millam, M. Klene, C. Adamo, R. Cammi, 
 J. W. Ochterski, R. L. Martin, K. Morokuma, O. Farkas, 
 J. B. Foresman, and D. J. Fox, Gaussian, Inc., Wallingford CT, 2016.
 
 ******************************************
 Gaussian 16:  ES64L-G16RevA.03 25-Dec-2016
                 4-May-2022 
 ******************************************
 %nproc=24
 Will use up to   24 processors via shared memory.
 %mem=75GB
 ------------------------------
 #p blyp/Def2SVP td=(nstates=5)
 ------------------------------
 1/38=1,172=1/1;
 2/12=2,17=6,18=5,40=1/2;
 3/5=43,7=101,11=9,25=1,30=1,74=402/1,2,3,8;
 4//1;
 5/5=2,38=5/2;
 8/6=1,10=1,108=5/1;
 9/41=5,42=1,70=2/14;
 6/7=2,8=2,9=2,10=2/1;
 99/5=1,9=1/99;
 Leave Link    1 at Wed May  4 18:34:09 2022, MaxMem= 10066329600 cpu:               0.6 elap:               0.0
 (Enter /sw/apps/gaussian-16.0/g16/l101.exe)
 --------------------------------------------------
 step_251_chromophore_24 TDDFT with blyp functional
 --------------------------------------------------
 Symbolic Z-matrix:
 Charge =  0 Multiplicity = 1
 Mg                   -0.437     44.186    24.825 
 C                     1.434     43.801    27.727 
 C                    -3.182     43.128    26.591 
 C                    -2.256     44.31     21.894 
 C                     2.466     44.703    22.966 
 N                    -0.821     43.638    26.941 
 C                     0.041     43.653    27.972 
 C                    -0.601     43.417    29.359 
 C                    -2.064     42.961    28.94 
 C                    -2.049     43.21     27.356 
 C                    -2.282     41.47     29.382 
 C                    -0.536     44.82     30.155 
 C                     0.124     44.79     31.565 
 C                     0.166     43.363    32.222 
 O                     1.156     42.609    32.28 
 O                    -1.082     42.941    32.698 
 N                    -2.405     43.722    24.252 
 C                    -3.412     43.377    25.177 
 C                    -4.692     43.407    24.502 
 C                    -4.45      43.691    23.152 
 C                    -2.978     44.009    23.044 
 C                    -5.959     42.859    25.174 
 C                    -5.472     43.73     21.985 
 O                    -5.197     43.996    20.8 
 C                    -6.957     43.498    22.313 
 N                     0.099     44.393    22.731 
 C                    -0.908     44.467    21.721 
 C                    -0.261     44.514    20.321 
 C                     1.236     44.926    20.706 
 C                     1.266     44.704    22.241 
 C                    -0.474     43.183    19.619 
 C                     1.529     46.446    20.357 
 C                     0.657     47.664    20.816 
 N                     1.536     44.172    25.194 
 C                     2.632     44.38     24.351 
 C                     3.831     44.316    25.122 
 C                     3.427     44.139    26.433 
 C                     2.023     43.949    26.438 
 C                     5.257     44.369    24.613 
 C                     3.897     44.019    27.756 
 O                     5.03      43.965    28.115 
 C                     2.621     43.676    28.631 
 C                     2.82      42.268    29.12 
 O                     2.222     41.307    28.683 
 O                     3.773     42.301    30.059 
 C                     4.377     41.012    30.292 
 C                    -1.179     41.614    33.305 
 C                    -2.334     41.356    34.167 
 C                    -2.495     41.533    35.472 
 C                    -1.598     42.275    36.443 
 C                    -3.797     41.022    36.131 
 C                    -5.039     41.756    35.826 
 C                    -6.116     40.973    35.101 
 C                    -7.548     41.135    35.706 
 C                    -8.145     42.424    35.244 
 C                    -8.444     39.897    35.437 
 C                    -9.091     39.319    36.711 
 C                    -10.575    39.638    36.797 
 C                    -11.162    39.855    38.276 
 C                    -11.859    38.612    38.831 
 C                    -12.038    41.128    38.348 
 C                    -11.369    42.448    37.761 
 C                    -11.806    43.751    38.446 
 C                    -13.271    44.09     38.019 
 C                    -13.322    45.425    37.207 
 C                    -14.277    44.156    39.158 
 H                    -4.077     42.871    27.161 
 H                    -2.791     44.11     20.964 
 H                     3.386     44.852    22.396 
 H                    -0.099     42.677    29.982 
 H                    -2.869     43.574    29.346 
 H                    -2.774     40.836    28.644 
 H                    -2.909     41.649    30.255 
 H                    -1.32      41.107    29.743 
 H                    -1.542     45.239    30.147 
 H                     0.042     45.503    29.532 
 H                    -0.529     45.47     32.111 
 H                     1.139     45.184    31.607 
 H                    -6.353     42.079    24.522 
 H                    -6.719     43.641    25.202 
 H                    -5.721     42.495    26.173 
 H                    -7.068     42.435    22.531 
 H                    -7.491     43.661    21.377 
 H                    -7.303     44.269    23.001 
 H                    -0.72      45.376    19.836 
 H                     1.942     44.368    20.092 
 H                    -1.382     42.671    19.938 
 H                     0.369     42.516    19.798 
 H                    -0.613     43.329    18.548 
 H                     1.659     46.516    19.277 
 H                     2.469     46.628    20.878 
 H                    -0.126     47.821    20.074 
 H                     1.34      48.514    20.838 
 H                     0.276     47.625    21.837 
 H                     5.474     45.3      24.089 
 H                     5.311     43.538    23.91 
 H                     6.032     44.403    25.38 
 H                     2.44      44.276    29.523 
 H                     5.422     41.062    30.597 
 H                     4.252     40.186    29.592 
 H                     3.939     40.474    31.133 
 H                    -0.307     41.188    33.802 
 H                    -1.334     40.913    32.485 
 H                    -2.976     40.592    33.729 
 H                    -2.262     42.993    36.925 
 H                    -0.726     42.747    35.989 
 H                    -1.275     41.534    37.174 
 H                    -3.616     40.855    37.193 
 H                    -4.047     39.976    35.954 
 H                    -4.827     42.606    35.177 
 H                    -5.418     42.056    36.803 
 H                    -5.869     39.933    34.885 
 H                    -6.13      41.328    34.07 
 H                    -7.334     41.221    36.771 
 H                    -8.456     42.928    36.159 
 H                    -9.022     42.275    34.614 
 H                    -7.479     43.111    34.721 
 H                    -7.815     39.101    35.039 
 H                    -9.068     40.117    34.57 
 H                    -8.525     39.801    37.508 
 H                    -8.914     38.243    36.726 
 H                    -11.096    38.837    36.272 
 H                    -10.843    40.474    36.152 
 H                    -10.303    40.177    38.864 
 H                    -12.938    38.761    38.887 
 H                    -11.532    38.597    39.87 
 H                    -11.7      37.652    38.338 
 H                    -12.486    41.294    39.327 
 H                    -12.801    40.762    37.661 
 H                    -11.605    42.525    36.7 
 H                    -10.291    42.31     37.844 
 H                    -11.136    44.583    38.231 
 H                    -11.887    43.697    39.532 
 H                    -13.687    43.243    37.472 
 H                    -13.739    46.254    37.78 
 H                    -14.12     45.259    36.483 
 H                    -12.321    45.693    36.869 
 H                    -15.01     44.951    39.022 
 H                    -13.93     44.337    40.175 
 H                    -14.881    43.251    39.091 
 
 ITRead=  0  0  0  0  0  0  0  0  0  0  0  0  0  0  0  0  0  0  0  0
 ITRead=  0  0  0  0  0  0  0  0  0  0  0  0  0  0  0  0  0  0  0  0
 ITRead=  0  0  0  0  0  0  0  0  0  0  0  0  0  0  0  0  0  0  0  0
 ITRead=  0  0  0  0  0  0  0  0  0  0  0  0  0  0  0  0  0  0  0  0
 ITRead=  0  0  0  0  0  0  0  0  0  0  0  0  0  0  0  0  0  0  0  0
 ITRead=  0  0  0  0  0  0  0  0  0  0  0  0  0  0  0  0  0  0  0  0
 ITRead=  0  0  0  0  0  0  0  0  0  0  0  0  0  0  0  0  0  0  0  0
 MicOpt= -1 -1 -1 -1 -1 -1 -1 -1 -1 -1 -1 -1 -1 -1 -1 -1 -1 -1 -1 -1
 MicOpt= -1 -1 -1 -1 -1 -1 -1 -1 -1 -1 -1 -1 -1 -1 -1 -1 -1 -1 -1 -1
 MicOpt= -1 -1 -1 -1 -1 -1 -1 -1 -1 -1 -1 -1 -1 -1 -1 -1 -1 -1 -1 -1
 MicOpt= -1 -1 -1 -1 -1 -1 -1 -1 -1 -1 -1 -1 -1 -1 -1 -1 -1 -1 -1 -1
 MicOpt= -1 -1 -1 -1 -1 -1 -1 -1 -1 -1 -1 -1 -1 -1 -1 -1 -1 -1 -1 -1
 MicOpt= -1 -1 -1 -1 -1 -1 -1 -1 -1 -1 -1 -1 -1 -1 -1 -1 -1 -1 -1 -1
 MicOpt= -1 -1 -1 -1 -1 -1 -1 -1 -1 -1 -1 -1 -1 -1 -1 -1 -1 -1 -1 -1
 NAtoms=    140 NQM=      140 NQMF=       0 NMMI=      0 NMMIF=      0
                NMic=       0 NMicF=      0.
                    Isotopes and Nuclear Properties:
 (Nuclear quadrupole moments (NQMom) in fm**2, nuclear magnetic moments (NMagM)
  in nuclear magnetons)

  Atom         1           2           3           4           5           6           7           8           9          10
 IAtWgt=          24          12          12          12          12          14          12          12          12          12
 AtmWgt=  23.9850450  12.0000000  12.0000000  12.0000000  12.0000000  14.0030740  12.0000000  12.0000000  12.0000000  12.0000000
 NucSpn=           0           0           0           0           0           2           0           0           0           0
 AtZEff=  -0.0000000  -0.0000000  -0.0000000  -0.0000000  -0.0000000  -0.0000000  -0.0000000  -0.0000000  -0.0000000  -0.0000000
 NQMom=    0.0000000   0.0000000   0.0000000   0.0000000   0.0000000   2.0440000   0.0000000   0.0000000   0.0000000   0.0000000
 NMagM=    0.0000000   0.0000000   0.0000000   0.0000000   0.0000000   0.4037610   0.0000000   0.0000000   0.0000000   0.0000000
 AtZNuc=  12.0000000   6.0000000   6.0000000   6.0000000   6.0000000   7.0000000   6.0000000   6.0000000   6.0000000   6.0000000

  Atom        11          12          13          14          15          16          17          18          19          20
 IAtWgt=          12          12          12          12          16          16          14          12          12          12
 AtmWgt=  12.0000000  12.0000000  12.0000000  12.0000000  15.9949146  15.9949146  14.0030740  12.0000000  12.0000000  12.0000000
 NucSpn=           0           0           0           0           0           0           2           0           0           0
 AtZEff=  -0.0000000  -0.0000000  -0.0000000  -0.0000000  -0.0000000  -0.0000000  -0.0000000  -0.0000000  -0.0000000  -0.0000000
 NQMom=    0.0000000   0.0000000   0.0000000   0.0000000   0.0000000   0.0000000   2.0440000   0.0000000   0.0000000   0.0000000
 NMagM=    0.0000000   0.0000000   0.0000000   0.0000000   0.0000000   0.0000000   0.4037610   0.0000000   0.0000000   0.0000000
 AtZNuc=   6.0000000   6.0000000   6.0000000   6.0000000   8.0000000   8.0000000   7.0000000   6.0000000   6.0000000   6.0000000

  Atom        21          22          23          24          25          26          27          28          29          30
 IAtWgt=          12          12          12          16          12          14          12          12          12          12
 AtmWgt=  12.0000000  12.0000000  12.0000000  15.9949146  12.0000000  14.0030740  12.0000000  12.0000000  12.0000000  12.0000000
 NucSpn=           0           0           0           0           0           2           0           0           0           0
 AtZEff=  -0.0000000  -0.0000000  -0.0000000  -0.0000000  -0.0000000  -0.0000000  -0.0000000  -0.0000000  -0.0000000  -0.0000000
 NQMom=    0.0000000   0.0000000   0.0000000   0.0000000   0.0000000   2.0440000   0.0000000   0.0000000   0.0000000   0.0000000
 NMagM=    0.0000000   0.0000000   0.0000000   0.0000000   0.0000000   0.4037610   0.0000000   0.0000000   0.0000000   0.0000000
 AtZNuc=   6.0000000   6.0000000   6.0000000   8.0000000   6.0000000   7.0000000   6.0000000   6.0000000   6.0000000   6.0000000

  Atom        31          32          33          34          35          36          37          38          39          40
 IAtWgt=          12          12          12          14          12          12          12          12          12          12
 AtmWgt=  12.0000000  12.0000000  12.0000000  14.0030740  12.0000000  12.0000000  12.0000000  12.0000000  12.0000000  12.0000000
 NucSpn=           0           0           0           2           0           0           0           0           0           0
 AtZEff=  -0.0000000  -0.0000000  -0.0000000  -0.0000000  -0.0000000  -0.0000000  -0.0000000  -0.0000000  -0.0000000  -0.0000000
 NQMom=    0.0000000   0.0000000   0.0000000   2.0440000   0.0000000   0.0000000   0.0000000   0.0000000   0.0000000   0.0000000
 NMagM=    0.0000000   0.0000000   0.0000000   0.4037610   0.0000000   0.0000000   0.0000000   0.0000000   0.0000000   0.0000000
 AtZNuc=   6.0000000   6.0000000   6.0000000   7.0000000   6.0000000   6.0000000   6.0000000   6.0000000   6.0000000   6.0000000

  Atom        41          42          43          44          45          46          47          48          49          50
 IAtWgt=          16          12          12          16          16          12          12          12          12          12
 AtmWgt=  15.9949146  12.0000000  12.0000000  15.9949146  15.9949146  12.0000000  12.0000000  12.0000000  12.0000000  12.0000000
 NucSpn=           0           0           0           0           0           0           0           0           0           0
 AtZEff=  -0.0000000  -0.0000000  -0.0000000  -0.0000000  -0.0000000  -0.0000000  -0.0000000  -0.0000000  -0.0000000  -0.0000000
 NQMom=    0.0000000   0.0000000   0.0000000   0.0000000   0.0000000   0.0000000   0.0000000   0.0000000   0.0000000   0.0000000
 NMagM=    0.0000000   0.0000000   0.0000000   0.0000000   0.0000000   0.0000000   0.0000000   0.0000000   0.0000000   0.0000000
 AtZNuc=   8.0000000   6.0000000   6.0000000   8.0000000   8.0000000   6.0000000   6.0000000   6.0000000   6.0000000   6.0000000

  Atom        51          52          53          54          55          56          57          58          59          60
 IAtWgt=          12          12          12          12          12          12          12          12          12          12
 AtmWgt=  12.0000000  12.0000000  12.0000000  12.0000000  12.0000000  12.0000000  12.0000000  12.0000000  12.0000000  12.0000000
 NucSpn=           0           0           0           0           0           0           0           0           0           0
 AtZEff=  -0.0000000  -0.0000000  -0.0000000  -0.0000000  -0.0000000  -0.0000000  -0.0000000  -0.0000000  -0.0000000  -0.0000000
 NQMom=    0.0000000   0.0000000   0.0000000   0.0000000   0.0000000   0.0000000   0.0000000   0.0000000   0.0000000   0.0000000
 NMagM=    0.0000000   0.0000000   0.0000000   0.0000000   0.0000000   0.0000000   0.0000000   0.0000000   0.0000000   0.0000000
 AtZNuc=   6.0000000   6.0000000   6.0000000   6.0000000   6.0000000   6.0000000   6.0000000   6.0000000   6.0000000   6.0000000

  Atom        61          62          63          64          65          66          67          68          69          70
 IAtWgt=          12          12          12          12          12          12           1           1           1           1
 AtmWgt=  12.0000000  12.0000000  12.0000000  12.0000000  12.0000000  12.0000000   1.0078250   1.0078250   1.0078250   1.0078250
 NucSpn=           0           0           0           0           0           0           1           1           1           1
 AtZEff=  -0.0000000  -0.0000000  -0.0000000  -0.0000000  -0.0000000  -0.0000000  -0.0000000  -0.0000000  -0.0000000  -0.0000000
 NQMom=    0.0000000   0.0000000   0.0000000   0.0000000   0.0000000   0.0000000   0.0000000   0.0000000   0.0000000   0.0000000
 NMagM=    0.0000000   0.0000000   0.0000000   0.0000000   0.0000000   0.0000000   2.7928460   2.7928460   2.7928460   2.7928460
 AtZNuc=   6.0000000   6.0000000   6.0000000   6.0000000   6.0000000   6.0000000   1.0000000   1.0000000   1.0000000   1.0000000

  Atom        71          72          73          74          75          76          77          78          79          80
 IAtWgt=           1           1           1           1           1           1           1           1           1           1
 AtmWgt=   1.0078250   1.0078250   1.0078250   1.0078250   1.0078250   1.0078250   1.0078250   1.0078250   1.0078250   1.0078250
 NucSpn=           1           1           1           1           1           1           1           1           1           1
 AtZEff=  -0.0000000  -0.0000000  -0.0000000  -0.0000000  -0.0000000  -0.0000000  -0.0000000  -0.0000000  -0.0000000  -0.0000000
 NQMom=    0.0000000   0.0000000   0.0000000   0.0000000   0.0000000   0.0000000   0.0000000   0.0000000   0.0000000   0.0000000
 NMagM=    2.7928460   2.7928460   2.7928460   2.7928460   2.7928460   2.7928460   2.7928460   2.7928460   2.7928460   2.7928460
 AtZNuc=   1.0000000   1.0000000   1.0000000   1.0000000   1.0000000   1.0000000   1.0000000   1.0000000   1.0000000   1.0000000

  Atom        81          82          83          84          85          86          87          88          89          90
 IAtWgt=           1           1           1           1           1           1           1           1           1           1
 AtmWgt=   1.0078250   1.0078250   1.0078250   1.0078250   1.0078250   1.0078250   1.0078250   1.0078250   1.0078250   1.0078250
 NucSpn=           1           1           1           1           1           1           1           1           1           1
 AtZEff=  -0.0000000  -0.0000000  -0.0000000  -0.0000000  -0.0000000  -0.0000000  -0.0000000  -0.0000000  -0.0000000  -0.0000000
 NQMom=    0.0000000   0.0000000   0.0000000   0.0000000   0.0000000   0.0000000   0.0000000   0.0000000   0.0000000   0.0000000
 NMagM=    2.7928460   2.7928460   2.7928460   2.7928460   2.7928460   2.7928460   2.7928460   2.7928460   2.7928460   2.7928460
 AtZNuc=   1.0000000   1.0000000   1.0000000   1.0000000   1.0000000   1.0000000   1.0000000   1.0000000   1.0000000   1.0000000

  Atom        91          92          93          94          95          96          97          98          99         100
 IAtWgt=           1           1           1           1           1           1           1           1           1           1
 AtmWgt=   1.0078250   1.0078250   1.0078250   1.0078250   1.0078250   1.0078250   1.0078250   1.0078250   1.0078250   1.0078250
 NucSpn=           1           1           1           1           1           1           1           1           1           1
 AtZEff=  -0.0000000  -0.0000000  -0.0000000  -0.0000000  -0.0000000  -0.0000000  -0.0000000  -0.0000000  -0.0000000  -0.0000000
 NQMom=    0.0000000   0.0000000   0.0000000   0.0000000   0.0000000   0.0000000   0.0000000   0.0000000   0.0000000   0.0000000
 NMagM=    2.7928460   2.7928460   2.7928460   2.7928460   2.7928460   2.7928460   2.7928460   2.7928460   2.7928460   2.7928460
 AtZNuc=   1.0000000   1.0000000   1.0000000   1.0000000   1.0000000   1.0000000   1.0000000   1.0000000   1.0000000   1.0000000

  Atom       101         102         103         104         105         106         107         108         109         110
 IAtWgt=           1           1           1           1           1           1           1           1           1           1
 AtmWgt=   1.0078250   1.0078250   1.0078250   1.0078250   1.0078250   1.0078250   1.0078250   1.0078250   1.0078250   1.0078250
 NucSpn=           1           1           1           1           1           1           1           1           1           1
 AtZEff=  -0.0000000  -0.0000000  -0.0000000  -0.0000000  -0.0000000  -0.0000000  -0.0000000  -0.0000000  -0.0000000  -0.0000000
 NQMom=    0.0000000   0.0000000   0.0000000   0.0000000   0.0000000   0.0000000   0.0000000   0.0000000   0.0000000   0.0000000
 NMagM=    2.7928460   2.7928460   2.7928460   2.7928460   2.7928460   2.7928460   2.7928460   2.7928460   2.7928460   2.7928460
 AtZNuc=   1.0000000   1.0000000   1.0000000   1.0000000   1.0000000   1.0000000   1.0000000   1.0000000   1.0000000   1.0000000

  Atom       111         112         113         114         115         116         117         118         119         120
 IAtWgt=           1           1           1           1           1           1           1           1           1           1
 AtmWgt=   1.0078250   1.0078250   1.0078250   1.0078250   1.0078250   1.0078250   1.0078250   1.0078250   1.0078250   1.0078250
 NucSpn=           1           1           1           1           1           1           1           1           1           1
 AtZEff=  -0.0000000  -0.0000000  -0.0000000  -0.0000000  -0.0000000  -0.0000000  -0.0000000  -0.0000000  -0.0000000  -0.0000000
 NQMom=    0.0000000   0.0000000   0.0000000   0.0000000   0.0000000   0.0000000   0.0000000   0.0000000   0.0000000   0.0000000
 NMagM=    2.7928460   2.7928460   2.7928460   2.7928460   2.7928460   2.7928460   2.7928460   2.7928460   2.7928460   2.7928460
 AtZNuc=   1.0000000   1.0000000   1.0000000   1.0000000   1.0000000   1.0000000   1.0000000   1.0000000   1.0000000   1.0000000

  Atom       121         122         123         124         125         126         127         128         129         130
 IAtWgt=           1           1           1           1           1           1           1           1           1           1
 AtmWgt=   1.0078250   1.0078250   1.0078250   1.0078250   1.0078250   1.0078250   1.0078250   1.0078250   1.0078250   1.0078250
 NucSpn=           1           1           1           1           1           1           1           1           1           1
 AtZEff=  -0.0000000  -0.0000000  -0.0000000  -0.0000000  -0.0000000  -0.0000000  -0.0000000  -0.0000000  -0.0000000  -0.0000000
 NQMom=    0.0000000   0.0000000   0.0000000   0.0000000   0.0000000   0.0000000   0.0000000   0.0000000   0.0000000   0.0000000
 NMagM=    2.7928460   2.7928460   2.7928460   2.7928460   2.7928460   2.7928460   2.7928460   2.7928460   2.7928460   2.7928460
 AtZNuc=   1.0000000   1.0000000   1.0000000   1.0000000   1.0000000   1.0000000   1.0000000   1.0000000   1.0000000   1.0000000

  Atom       131         132         133         134         135         136         137         138         139         140
 IAtWgt=           1           1           1           1           1           1           1           1           1           1
 AtmWgt=   1.0078250   1.0078250   1.0078250   1.0078250   1.0078250   1.0078250   1.0078250   1.0078250   1.0078250   1.0078250
 NucSpn=           1           1           1           1           1           1           1           1           1           1
 AtZEff=  -0.0000000  -0.0000000  -0.0000000  -0.0000000  -0.0000000  -0.0000000  -0.0000000  -0.0000000  -0.0000000  -0.0000000
 NQMom=    0.0000000   0.0000000   0.0000000   0.0000000   0.0000000   0.0000000   0.0000000   0.0000000   0.0000000   0.0000000
 NMagM=    2.7928460   2.7928460   2.7928460   2.7928460   2.7928460   2.7928460   2.7928460   2.7928460   2.7928460   2.7928460
 AtZNuc=   1.0000000   1.0000000   1.0000000   1.0000000   1.0000000   1.0000000   1.0000000   1.0000000   1.0000000   1.0000000
 Leave Link  101 at Wed May  4 18:34:09 2022, MaxMem= 10066329600 cpu:               2.7 elap:               0.1
 (Enter /sw/apps/gaussian-16.0/g16/l202.exe)
 Stoichiometry    C55H74MgN4O6
 Framework group  C1[X(C55H74MgN4O6)]
 Deg. of freedom   414
 Full point group                 C1      NOp   1
 Largest Abelian subgroup         C1      NOp   1
 Largest concise Abelian subgroup C1      NOp   1
                         Standard orientation:                         
 ---------------------------------------------------------------------
 Center     Atomic      Atomic             Coordinates (Angstroms)
 Number     Number       Type             X           Y           Z
 ---------------------------------------------------------------------
      1         12           0        5.088948    0.981235    0.239321
      2          6           0        3.929291   -2.284992    0.478954
      3          6           0        1.879830    1.945063   -0.499424
      4          6           0        6.265013    4.187743   -0.260755
      5          6           0        8.388416   -0.126333    0.432658
      6          7           0        3.131516   -0.057408    0.117270
      7          6           0        2.862704   -1.352567    0.355041
      8          6           0        1.358051   -1.708325    0.387937
      9          6           0        0.718896   -0.365875   -0.171685
     10          6           0        1.993504    0.604419   -0.243709
     11          6           0        0.024996   -0.664102   -1.548468
     12          6           0        0.984582   -2.042224    1.922630
     13          6           0        0.291151   -3.410931    2.187949
     14          6           0       -0.400695   -4.034175    0.921987
     15          8           0        0.052085   -4.954337    0.214688
     16          8           0       -1.597442   -3.392232    0.578666
     17          7           0        4.258197    2.813304   -0.368978
     18          6           0        2.872159    3.007011   -0.542403
     19          6           0        2.614740    4.425288   -0.673364
     20          6           0        3.852182    5.081240   -0.659843
     21          6           0        4.885701    4.027959   -0.340455
     22          6           0        1.235893    4.947560   -1.101370
     23          6           0        4.136194    6.591509   -0.875064
     24          8           0        5.263233    7.120206   -0.845574
     25          6           0        2.936507    7.535289   -1.066536
     26          7           0        7.072936    1.839674    0.034737
     27          6           0        7.249423    3.248997   -0.114549
     28          6           0        8.739709    3.582497   -0.335096
     29          6           0        9.419706    2.227481    0.175311
     30          6           0        8.214670    1.254716    0.264902
     31          6           0        8.959890    3.986904   -1.783443
     32          6           0       10.091693    2.414872    1.600572
     33          6           0        9.377725    2.996615    2.868016
     34          7           0        6.011456   -0.798704    0.338711
     35          6           0        7.368535   -1.130632    0.396073
     36          6           0        7.496798   -2.547111    0.511274
     37          6           0        6.205777   -3.037097    0.591553
     38          6           0        5.312557   -1.958187    0.378355
     39          6           0        8.774659   -3.360737    0.490069
     40          6           0        5.450141   -4.216212    0.747535
     41          8           0        5.859055   -5.332707    0.788955
     42          6           0        3.938101   -3.780000    0.560711
     43          6           0        3.475741   -4.424015   -0.717042
     44          8           0        3.307886   -3.823222   -1.757699
     45          8           0        3.336789   -5.733465   -0.478187
     46          6           0        3.338966   -6.527532   -1.682379
     47          6           0       -2.321234   -3.862046   -0.602091
     48          6           0       -3.736548   -3.501822   -0.705821
     49          6           0       -4.822226   -4.131142   -0.275084
     50          6           0       -4.917129   -5.317667    0.663621
     51          6           0       -6.207078   -3.568360   -0.670137
     52          6           0       -6.625765   -2.304275   -0.036783
     53          6           0       -6.838193   -1.128532   -0.970136
     54          6           0       -8.162921   -0.337932   -0.719256
     55          6           0       -7.983104    0.587629    0.439354
     56          6           0       -8.684367    0.359303   -2.003693
     57          6           0      -10.154209    0.027892   -2.328503
     58          6           0      -11.085257    1.191743   -2.028478
     59          6           0      -12.561577    0.800062   -1.532328
     60          6           0      -13.601022    0.846517   -2.653167
     61          6           0      -12.969689    1.624109   -0.288351
     62          6           0      -11.911385    1.629530    0.900973
     63          6           0      -12.521373    1.744453    2.305505
     64          6           0      -13.039775    3.203013    2.523077
     65          6           0      -12.246574    3.913401    3.667783
     66          6           0      -14.531404    3.324624    2.795041
     67          1           0        0.850815    2.274929   -0.655279
     68          1           0        6.629199    5.138842   -0.653063
     69          1           0        9.417047   -0.490840    0.483209
     70          1           0        1.074947   -2.579451   -0.202593
     71          1           0       -0.000929    0.111182    0.493821
     72          1           0        0.203384    0.078267   -2.326755
     73          1           0       -1.011167   -0.666867   -1.211338
     74          1           0        0.282412   -1.689484   -1.812782
     75          1           0        0.434398   -1.185595    2.311405
     76          1           0        1.922209   -2.031374    2.478903
     77          1           0       -0.434268   -3.128361    2.950082
     78          1           0        0.938868   -4.182777    2.602607
     79          1           0        1.386430    5.540970   -2.003558
     80          1           0        0.861613    5.638599   -0.344873
     81          1           0        0.553755    4.111731   -1.253751
     82          1           0        2.544421    7.345720   -2.066609
     83          1           0        3.358824    8.539299   -1.104404
     84          1           0        2.302566    7.503154   -0.180766
     85          1           0        8.959885    4.353956    0.403364
     86          1           0       10.248184    1.960607   -0.479820
     87          1           0        8.080531    4.442010   -2.239486
     88          1           0        9.241230    3.122375   -2.384291
     89          1           0        9.726910    4.757581   -1.857026
     90          1           0       11.019722    2.968130    1.456115
     91          1           0       10.290818    1.386354    1.901679
     92          1           0        9.495812    4.080246    2.858027
     93          1           0        9.903610    2.561720    3.718771
     94          1           0        8.345948    2.681043    3.026046
     95          1           0        9.450025   -3.089962    1.301850
     96          1           0        9.232294   -3.097444   -0.463310
     97          1           0        8.660077   -4.426646    0.692005
     98          1           0        3.222225   -4.088029    1.322986
     99          1           0        3.750919   -7.527905   -1.551615
    100          1           0        3.685144   -6.124065   -2.633839
    101          1           0        2.339214   -6.759300   -2.050278
    102          1           0       -2.233760   -4.906465   -0.902769
    103          1           0       -1.882148   -3.345845   -1.455652
    104          1           0       -3.901942   -2.838509   -1.554564
    105          1           0       -5.594102   -4.982875    1.449983
    106          1           0       -3.960933   -5.669106    1.052804
    107          1           0       -5.394040   -6.112272    0.090098
    108          1           0       -6.944396   -4.369700   -0.618085
    109          1           0       -6.375487   -3.409532   -1.735199
    110          1           0       -5.868267   -1.965944    0.670587
    111          1           0       -7.572805   -2.548302    0.444607
    112          1           0       -6.670443   -1.337807   -2.027174
    113          1           0       -5.995060   -0.451595   -0.828484
    114          1           0       -8.845470   -1.132188   -0.418092
    115          1           0       -8.810592    0.355190    1.109575
    116          1           0       -8.054177    1.636197    0.150072
    117          1           0       -7.068484    0.469742    1.021270
    118          1           0       -8.105415   -0.008891   -2.850397
    119          1           0       -8.362526    1.400930   -1.973743
    120          1           0      -10.355098   -0.829167   -1.685866
    121          1           0      -10.213912   -0.269318   -3.376086
    122          1           0      -11.114269    1.806502   -2.928421
    123          1           0      -10.627490    1.904596   -1.343617
    124          1           0      -12.443767   -0.185287   -1.082310
    125          1           0      -14.284989    1.685197   -2.517581
    126          1           0      -14.208753   -0.035312   -2.453881
    127          1           0      -13.260686    0.883479   -3.688896
    128          1           0      -13.980142    1.414848    0.060786
    129          1           0      -12.958168    2.586850   -0.799322
    130          1           0      -11.221704    2.461258    0.759853
    131          1           0      -11.334290    0.709990    0.803896
    132          1           0      -11.822182    1.459139    3.091047
    133          1           0      -13.421655    1.151139    2.467814
    134          1           0      -12.993973    3.741713    1.575776
    135          1           0      -12.826406    4.014119    4.585993
    136          1           0      -12.198697    4.953514    3.344658
    137          1           0      -11.330928    3.362578    3.882853
    138          1           0      -14.759961    4.094274    3.532068
    139          1           0      -15.081247    2.467229    3.182347
    140          1           0      -14.981896    3.716499    1.882998
 ---------------------------------------------------------------------
 Rotational constants (GHZ):           0.0408956           0.0106267           0.0088947
 Leave Link  202 at Wed May  4 18:34:10 2022, MaxMem= 10066329600 cpu:               0.2 elap:               0.0
 (Enter /sw/apps/gaussian-16.0/g16/l301.exe)
 Standard basis: def2SVP (5D, 7F)
 Ernie: Thresh=  0.10000D-02 Tol=  0.10000D-05 Strict=F.
 There are  1364 symmetry adapted cartesian basis functions of A   symmetry.
 There are  1298 symmetry adapted basis functions of A   symmetry.
  1298 basis functions,  2180 primitive gaussians,  1364 cartesian basis functions
   246 alpha electrons      246 beta electrons
       nuclear repulsion energy      9617.8862502930 Hartrees.
 IExCor=  402 DFT=T Ex=B Corr=LYP ExCW=0 ScaHFX=  0.000000
 ScaDFX=  1.000000  1.000000  1.000000  1.000000 ScalE2=  1.000000  1.000000
 IRadAn=      5 IRanWt=     -1 IRanGd=            0 ICorTp=0 IEmpDi=  4
 NAtoms=  140 NActive=  140 NUniq=  140 SFac= 1.00D+00 NAtFMM=   60 NAOKFM=T Big=T
 Integral buffers will be    131072 words long.
 Regular integral format.
 Two-electron integral symmetry is turned on.
 Leave Link  301 at Wed May  4 18:34:10 2022, MaxMem= 10066329600 cpu:               1.3 elap:               0.1
 (Enter /sw/apps/gaussian-16.0/g16/l302.exe)
 NPDir=0 NMtPBC=     1 NCelOv=     1 NCel=       1 NClECP=     1 NCelD=      1
         NCelK=      1 NCelE2=     1 NClLst=     1 CellRange=     0.0.
 One-electron integrals computed using PRISM.
 One-electron integral symmetry used in STVInt
   1 Symmetry operations used in ECPInt.
 ECPInt:  NShTT=  192510 NPrTT=  683786 LenC2=   94686 LenP2D=  208000.
 LDataN:  DoStor=T MaxTD1= 4 Len=   56
 NBasis=  1298 RedAO= T EigKep=  2.86D-04  NBF=  1298
 NBsUse=  1298 1.00D-06 EigRej= -1.00D+00 NBFU=  1298
 Precomputing XC quadrature grid using
 IXCGrd= 4 IRadAn=           5 IRanWt=          -1 IRanGd=           0 AccXCQ= 0.00D+00.
 Generated NRdTot=       0 NPtTot=           0 NUsed=           0 NTot=          32
 NSgBfM=  1063  1059  1059  1060  1063 MxSgAt=   140 MxSgA2=   140.
 Leave Link  302 at Wed May  4 18:34:13 2022, MaxMem= 10066329600 cpu:              85.2 elap:               3.6
 (Enter /sw/apps/gaussian-16.0/g16/l303.exe)
 DipDrv:  MaxL=1.
 Leave Link  303 at Wed May  4 18:34:13 2022, MaxMem= 10066329600 cpu:               6.6 elap:               0.3
 (Enter /sw/apps/gaussian-16.0/g16/l308.exe)
 Leave Link  308 at Wed May  4 18:34:14 2022, MaxMem= 10066329600 cpu:               9.3 elap:               0.5
 (Enter /sw/apps/gaussian-16.0/g16/l401.exe)
 ExpMin= 3.36D-02 ExpMax= 4.95D+03 ExpMxC= 7.45D+02 IAcc=3 IRadAn=         5 AccDes= 0.00D+00
 Harris functional with IExCor=  402 and IRadAn=       5 diagonalized for initial guess.
 HarFok:  IExCor=  402 AccDes= 0.00D+00 IRadAn=         5 IDoV= 1 UseB2=F ITyADJ=14
 ICtDFT=  3500011 ScaDFX=  1.000000  1.000000  1.000000  1.000000
 FoFCou: FMM=F IPFlag=           0 FMFlag=      100000 FMFlg1=        2001
         NFxFlg=           0 DoJE=T BraDBF=F KetDBF=T FulRan=T
         wScrn=  0.000000 ICntrl=       500 IOpCl=  0 I1Cent=   200000004 NGrid=           0
         NMat0=    1 NMatS0=      1 NMatT0=    0 NMatD0=    1 NMtDS0=    0 NMtDT0=    0
 Petite list used in FoFCou.
 Harris En= -3008.76162515138    
 JPrj=0 DoOrth=F DoCkMO=F.
 Leave Link  401 at Wed May  4 18:34:21 2022, MaxMem= 10066329600 cpu:             162.5 elap:               6.8
 (Enter /sw/apps/gaussian-16.0/g16/l502.exe)
 Integral symmetry usage will be decided dynamically.
 Closed shell SCF:
 Using DIIS extrapolation, IDIIS=  1040.
 NGot= 10066329600 LenX= 10062561258 LenY= 10060699398
 Requested convergence on RMS density matrix=1.00D-08 within 128 cycles.
 Requested convergence on MAX density matrix=1.00D-06.
 Requested convergence on             energy=1.00D-06.
 No special actions if energy rises.
 Fock matrices will be formed incrementally for  20 cycles.

 Cycle   1  Pass 1  IDiag  1:
 FoFJK:  IHMeth= 1 ICntrl=     500 DoSepK=F KAlg= 0 I1Cent=           0 FoldK=F
 IRaf= 520000000 NMat=       1 IRICut=       1 DoRegI=T DoRafI=F ISym2E= 0 IDoP0=0 IntGTp=1.
 FoFCou: FMM=T IPFlag=           0 FMFlag=      100000 FMFlg1=        2001
         NFxFlg=           0 DoJE=T BraDBF=F KetDBF=F FulRan=T
         wScrn=  0.000000 ICntrl=       500 IOpCl=  0 I1Cent=           0 NGrid=           0
         NMat0=    1 NMatS0=      1 NMatT0=    0 NMatD0=    1 NMtDS0=    0 NMtDT0=    0
 Symmetry not used in FoFCou.
 FMM levels:  10  Number of levels for PrismC:   9
 E= -3005.65621563554    
 DIIS: error= 2.40D-02 at cycle   1 NSaved=   1.
 NSaved= 1 IEnMin= 1 EnMin= -3005.65621563554     IErMin= 1 ErrMin= 2.40D-02
 ErrMax= 2.40D-02  0.00D+00 EMaxC= 1.00D-01 BMatC= 1.55D+00 BMatP= 1.55D+00
 IDIUse=3 WtCom= 7.60D-01 WtEn= 2.40D-01
 Coeff-Com:  0.100D+01
 Coeff-En:   0.100D+01
 Coeff:      0.100D+01
 Gap=     0.059 Goal=   None    Shift=    0.000
 GapD=    0.059 DampG=0.500 DampE=0.500 DampFc=0.2500 IDamp=-1.
 Damping current iteration by 2.50D-01
 RMSDP=3.85D-03 MaxDP=7.52D-01              OVMax= 9.37D-01

 Cycle   2  Pass 1  IDiag  1:
 RMSU=  9.57D-04    CP:  9.90D-01
 E= -3006.16587145777     Delta-E=       -0.509655822229 Rises=F Damp=T
 DIIS: error= 8.43D-03 at cycle   2 NSaved=   2.
 NSaved= 2 IEnMin= 2 EnMin= -3006.16587145777     IErMin= 2 ErrMin= 8.43D-03
 ErrMax= 8.43D-03  0.00D+00 EMaxC= 1.00D-01 BMatC= 2.54D-01 BMatP= 1.55D+00
 IDIUse=3 WtCom= 9.16D-01 WtEn= 8.43D-02
 Coeff-Com: -0.310D+00 0.131D+01
 Coeff-En:   0.589D-01 0.941D+00
 Coeff:     -0.279D+00 0.128D+01
 Gap=    -0.201 Goal=   None    Shift=    0.000
 RMSDP=1.59D-03 MaxDP=2.40D-01 DE=-5.10D-01 OVMax= 4.58D-01

 Cycle   3  Pass 1  IDiag  1:
 RMSU=  1.56D-03    CP:  9.66D-01  1.19D+00
 E= -3005.38202463942     Delta-E=        0.783846818358 Rises=F Damp=F
 DIIS: error= 3.85D-02 at cycle   3 NSaved=   3.
 NSaved= 3 IEnMin= 2 EnMin= -3006.16587145777     IErMin= 2 ErrMin= 8.43D-03
 ErrMax= 3.85D-02  0.00D+00 EMaxC= 1.00D-01 BMatC= 1.48D+00 BMatP= 2.54D-01
 IDIUse=2 WtCom= 0.00D+00 WtEn= 1.00D+00
 Coeff-En:   0.000D+00 0.661D+00 0.339D+00
 Coeff:      0.000D+00 0.661D+00 0.339D+00
 Gap=     0.060 Goal=   None    Shift=    0.000
 RMSDP=2.24D-03 MaxDP=4.35D-01 DE= 7.84D-01 OVMax= 7.78D-01

 Cycle   4  Pass 1  IDiag  1:
 RMSU=  1.29D-03    CP:  9.66D-01  1.88D+00 -9.02D-02
 E= -3003.58891009877     Delta-E=        1.793114540644 Rises=F Damp=F
 DIIS: error= 3.93D-02 at cycle   4 NSaved=   4.
 NSaved= 4 IEnMin= 2 EnMin= -3006.16587145777     IErMin= 2 ErrMin= 8.43D-03
 ErrMax= 3.93D-02  0.00D+00 EMaxC= 1.00D-01 BMatC= 2.55D+00 BMatP= 2.54D-01
 IDIUse=2 WtCom= 0.00D+00 WtEn= 1.00D+00
 EnCoef did     1 forward-backward iterations
 Coeff-En:   0.102D+00 0.000D+00 0.534D+00 0.364D+00
 Coeff:      0.102D+00 0.000D+00 0.534D+00 0.364D+00
 Gap=     0.038 Goal=   None    Shift=    0.000
 RMSDP=1.58D-03 MaxDP=3.25D-01 DE= 1.79D+00 OVMax= 7.38D-01

 Cycle   5  Pass 1  IDiag  1:
 RMSU=  7.24D-04    CP:  9.80D-01  1.23D+00  1.01D-01  6.17D-02
 E= -3007.05365337471     Delta-E=       -3.464743275934 Rises=F Damp=F
 DIIS: error= 1.96D-02 at cycle   5 NSaved=   5.
 NSaved= 5 IEnMin= 5 EnMin= -3007.05365337471     IErMin= 2 ErrMin= 8.43D-03
 ErrMax= 1.96D-02  0.00D+00 EMaxC= 1.00D-01 BMatC= 3.41D-01 BMatP= 2.54D-01
 IDIUse=2 WtCom= 0.00D+00 WtEn= 1.00D+00
 EnCoef did     4 forward-backward iterations
 Coeff-En:   0.000D+00 0.000D+00 0.169D+00 0.922D-01 0.739D+00
 Coeff:      0.000D+00 0.000D+00 0.169D+00 0.922D-01 0.739D+00
 Gap=     0.178 Goal=   None    Shift=    0.000
 RMSDP=1.48D-03 MaxDP=1.92D-01 DE=-3.46D+00 OVMax= 5.02D-01

 Cycle   6  Pass 1  IDiag  1:
 RMSU=  1.17D-03    CP:  9.72D-01  1.09D+00  2.57D-01  2.47D-01 -1.44D-01
 E= -3005.99912295189     Delta-E=        1.054530422816 Rises=F Damp=F
 DIIS: error= 4.11D-02 at cycle   6 NSaved=   6.
 NSaved= 6 IEnMin= 5 EnMin= -3007.05365337471     IErMin= 2 ErrMin= 8.43D-03
 ErrMax= 4.11D-02  0.00D+00 EMaxC= 1.00D-01 BMatC= 1.38D+00 BMatP= 2.54D-01
 IDIUse=2 WtCom= 0.00D+00 WtEn= 1.00D+00
 EnCoef did     2 forward-backward iterations
 Coeff-En:   0.000D+00 0.000D+00 0.438D-01 0.000D+00 0.714D+00 0.242D+00
 Coeff:      0.000D+00 0.000D+00 0.438D-01 0.000D+00 0.714D+00 0.242D+00
 Gap=     0.061 Goal=   None    Shift=    0.000
 RMSDP=1.02D-03 MaxDP=1.50D-01 DE= 1.05D+00 OVMax= 3.94D-01

 Cycle   7  Pass 1  IDiag  1:
 RMSU=  4.55D-04    CP:  9.75D-01  1.16D+00  3.21D-01  2.31D-02  4.59D-01
                    CP:  3.74D-01
 E= -3007.19640913406     Delta-E=       -1.197286182174 Rises=F Damp=F
 DIIS: error= 1.42D-02 at cycle   7 NSaved=   7.
 NSaved= 7 IEnMin= 7 EnMin= -3007.19640913406     IErMin= 2 ErrMin= 8.43D-03
 ErrMax= 1.42D-02  0.00D+00 EMaxC= 1.00D-01 BMatC= 1.72D-01 BMatP= 2.54D-01
 IDIUse=3 WtCom= 8.58D-01 WtEn= 1.42D-01
 Coeff-Com: -0.640D-01 0.156D+00-0.702D-02 0.414D-05 0.384D+00 0.758D-01
 Coeff-Com:  0.455D+00
 Coeff-En:   0.000D+00 0.000D+00 0.000D+00 0.000D+00 0.380D+00 0.000D+00
 Coeff-En:   0.620D+00
 Coeff:     -0.549D-01 0.134D+00-0.602D-02 0.356D-05 0.383D+00 0.650D-01
 Coeff:      0.479D+00
 Gap=     0.047 Goal=   None    Shift=    0.000
 RMSDP=5.43D-04 MaxDP=5.02D-02 DE=-1.20D+00 OVMax= 2.68D-01

 Cycle   8  Pass 1  IDiag  1:
 RMSU=  3.50D-04    CP:  9.77D-01  1.17D+00  2.03D-01  9.47D-02  6.36D-01
                    CP:  3.83D-01  2.61D-01
 E= -3007.29942522822     Delta-E=       -0.103016094159 Rises=F Damp=F
 DIIS: error= 5.88D-03 at cycle   8 NSaved=   8.
 NSaved= 8 IEnMin= 8 EnMin= -3007.29942522822     IErMin= 8 ErrMin= 5.88D-03
 ErrMax= 5.88D-03  0.00D+00 EMaxC= 1.00D-01 BMatC= 3.99D-02 BMatP= 1.72D-01
 IDIUse=3 WtCom= 9.41D-01 WtEn= 5.88D-02
 EnCoef did     5 forward-backward iterations
 Coeff-Com: -0.498D-01 0.125D+00-0.184D-01-0.161D-02 0.258D+00 0.203D-01
 Coeff-Com:  0.406D+00 0.261D+00
 Coeff-En:   0.000D+00 0.000D+00 0.000D+00 0.000D+00 0.141D+00 0.000D+00
 Coeff-En:   0.281D+00 0.578D+00
 Coeff:     -0.469D-01 0.118D+00-0.173D-01-0.151D-02 0.251D+00 0.191D-01
 Coeff:      0.398D+00 0.280D+00
 Gap=     0.037 Goal=   None    Shift=    0.000
 RMSDP=3.86D-04 MaxDP=4.52D-02 DE=-1.03D-01 OVMax= 2.66D-01

 Cycle   9  Pass 1  IDiag  1:
 RMSU=  1.49D-04    CP:  9.78D-01  1.18D+00  2.04D-01  3.93D-02  7.32D-01
                    CP:  3.03D-01  5.91D-01  1.64D-01
 E= -3007.34861891858     Delta-E=       -0.049193690360 Rises=F Damp=F
 DIIS: error= 2.75D-03 at cycle   9 NSaved=   9.
 NSaved= 9 IEnMin= 9 EnMin= -3007.34861891858     IErMin= 9 ErrMin= 2.75D-03
 ErrMax= 2.75D-03  0.00D+00 EMaxC= 1.00D-01 BMatC= 8.95D-03 BMatP= 3.99D-02
 IDIUse=3 WtCom= 9.72D-01 WtEn= 2.75D-02
 Coeff-Com: -0.233D-01 0.572D-01-0.129D-01 0.343D-02 0.116D+00-0.397D-02
 Coeff-Com:  0.218D+00 0.272D+00 0.374D+00
 Coeff-En:   0.000D+00 0.000D+00 0.000D+00 0.000D+00 0.000D+00 0.000D+00
 Coeff-En:   0.000D+00 0.266D+00 0.734D+00
 Coeff:     -0.226D-01 0.556D-01-0.126D-01 0.334D-02 0.113D+00-0.386D-02
 Coeff:      0.212D+00 0.272D+00 0.384D+00
 Gap=     0.043 Goal=   None    Shift=    0.000
 RMSDP=1.58D-04 MaxDP=2.04D-02 DE=-4.92D-02 OVMax= 1.19D-01

 Cycle  10  Pass 1  IDiag  1:
 RMSU=  7.06D-05    CP:  9.77D-01  1.19D+00  1.95D-01  6.47D-02  6.97D-01
                    CP:  3.16D-01  5.17D-01  4.11D-01  3.51D-01
 E= -3007.36023987655     Delta-E=       -0.011620957966 Rises=F Damp=F
 DIIS: error= 1.25D-03 at cycle  10 NSaved=  10.
 NSaved=10 IEnMin=10 EnMin= -3007.36023987655     IErMin=10 ErrMin= 1.25D-03
 ErrMax= 1.25D-03  0.00D+00 EMaxC= 1.00D-01 BMatC= 1.67D-03 BMatP= 8.95D-03
 IDIUse=3 WtCom= 9.87D-01 WtEn= 1.25D-02
 Coeff-Com: -0.162D-01 0.373D-01-0.278D-02 0.130D-03 0.289D-01-0.339D-02
 Coeff-Com:  0.620D-01 0.162D+00 0.326D+00 0.406D+00
 Coeff-En:   0.000D+00 0.000D+00 0.000D+00 0.000D+00 0.000D+00 0.000D+00
 Coeff-En:   0.000D+00 0.000D+00 0.164D+00 0.836D+00
 Coeff:     -0.160D-01 0.368D-01-0.275D-02 0.128D-03 0.286D-01-0.335D-02
 Coeff:      0.612D-01 0.160D+00 0.324D+00 0.411D+00
 Gap=     0.043 Goal=   None    Shift=    0.000
 RMSDP=7.80D-05 MaxDP=1.10D-02 DE=-1.16D-02 OVMax= 5.99D-02

 Cycle  11  Pass 1  IDiag  1:
 RMSU=  4.64D-05    CP:  9.77D-01  1.19D+00  1.99D-01  5.38D-02  7.12D-01
                    CP:  3.12D-01  5.14D-01  3.87D-01  5.24D-01  2.48D-01
 E= -3007.36104550842     Delta-E=       -0.000805631871 Rises=F Damp=F
 DIIS: error= 1.30D-03 at cycle  11 NSaved=  11.
 NSaved=11 IEnMin=11 EnMin= -3007.36104550842     IErMin=10 ErrMin= 1.25D-03
 ErrMax= 1.30D-03  0.00D+00 EMaxC= 1.00D-01 BMatC= 8.05D-04 BMatP= 1.67D-03
 IDIUse=3 WtCom= 9.87D-01 WtEn= 1.25D-02
 Coeff-Com: -0.107D-01 0.229D-01 0.234D-03-0.578D-03-0.148D-02-0.559D-03
 Coeff-Com:  0.202D-02 0.838D-01 0.216D+00 0.393D+00 0.295D+00
 Coeff-En:   0.000D+00 0.000D+00 0.000D+00 0.000D+00 0.000D+00 0.000D+00
 Coeff-En:   0.000D+00 0.000D+00 0.000D+00 0.407D+00 0.593D+00
 Coeff:     -0.106D-01 0.226D-01 0.231D-03-0.571D-03-0.146D-02-0.552D-03
 Coeff:      0.199D-02 0.828D-01 0.213D+00 0.393D+00 0.299D+00
 Gap=     0.043 Goal=   None    Shift=    0.000
 RMSDP=4.84D-05 MaxDP=6.06D-03 DE=-8.06D-04 OVMax= 3.80D-02

 Cycle  12  Pass 1  IDiag  1:
 RMSU=  1.76D-05    CP:  9.77D-01  1.19D+00  1.96D-01  5.55D-02  7.09D-01
                    CP:  3.18D-01  5.15D-01  4.08D-01  5.19D-01  5.83D-01
                    CP:  2.09D-01
 E= -3007.36210921228     Delta-E=       -0.001063703863 Rises=F Damp=F
 DIIS: error= 4.68D-04 at cycle  12 NSaved=  12.
 NSaved=12 IEnMin=12 EnMin= -3007.36210921228     IErMin=12 ErrMin= 4.68D-04
 ErrMax= 4.68D-04  0.00D+00 EMaxC= 1.00D-01 BMatC= 1.33D-04 BMatP= 8.05D-04
 IDIUse=3 WtCom= 9.95D-01 WtEn= 4.68D-03
 Coeff-Com: -0.574D-02 0.115D-01 0.595D-03-0.459D-03-0.854D-02 0.861D-03
 Coeff-Com: -0.140D-01 0.352D-01 0.116D+00 0.254D+00 0.271D+00 0.339D+00
 Coeff-En:   0.000D+00 0.000D+00 0.000D+00 0.000D+00 0.000D+00 0.000D+00
 Coeff-En:   0.000D+00 0.000D+00 0.000D+00 0.000D+00 0.184D+00 0.816D+00
 Coeff:     -0.571D-02 0.114D-01 0.592D-03-0.457D-03-0.850D-02 0.857D-03
 Coeff:     -0.139D-01 0.351D-01 0.116D+00 0.253D+00 0.270D+00 0.342D+00
 Gap=     0.043 Goal=   None    Shift=    0.000
 RMSDP=1.68D-05 MaxDP=1.88D-03 DE=-1.06D-03 OVMax= 1.08D-02

 Cycle  13  Pass 1  IDiag  1:
 RMSU=  7.04D-06    CP:  9.77D-01  1.19D+00  1.97D-01  5.58D-02  7.08D-01
                    CP:  3.19D-01  5.13D-01  4.09D-01  5.20D-01  5.34D-01
                    CP:  4.00D-01  3.34D-01
 E= -3007.36226699734     Delta-E=       -0.000157785054 Rises=F Damp=F
 DIIS: error= 1.23D-04 at cycle  13 NSaved=  13.
 NSaved=13 IEnMin=13 EnMin= -3007.36226699734     IErMin=13 ErrMin= 1.23D-04
 ErrMax= 1.23D-04  0.00D+00 EMaxC= 1.00D-01 BMatC= 1.89D-05 BMatP= 1.33D-04
 IDIUse=3 WtCom= 9.99D-01 WtEn= 1.23D-03
 Coeff-Com: -0.204D-02 0.364D-02 0.216D-04-0.634D-04-0.730D-02 0.952D-03
 Coeff-Com: -0.125D-01 0.678D-02 0.426D-01 0.107D+00 0.151D+00 0.279D+00
 Coeff-Com:  0.430D+00
 Coeff-En:   0.000D+00 0.000D+00 0.000D+00 0.000D+00 0.000D+00 0.000D+00
 Coeff-En:   0.000D+00 0.000D+00 0.000D+00 0.000D+00 0.000D+00 0.137D+00
 Coeff-En:   0.863D+00
 Coeff:     -0.203D-02 0.364D-02 0.216D-04-0.633D-04-0.729D-02 0.951D-03
 Coeff:     -0.124D-01 0.677D-02 0.426D-01 0.107D+00 0.151D+00 0.279D+00
 Coeff:      0.431D+00
 Gap=     0.043 Goal=   None    Shift=    0.000
 RMSDP=5.80D-06 MaxDP=6.35D-04 DE=-1.58D-04 OVMax= 2.90D-03

 Cycle  14  Pass 1  IDiag  1:
 RMSU=  2.59D-06    CP:  9.77D-01  1.19D+00  1.96D-01  5.61D-02  7.09D-01
                    CP:  3.19D-01  5.14D-01  4.07D-01  5.29D-01  5.47D-01
                    CP:  3.88D-01  4.67D-01  4.23D-01
 E= -3007.36228621448     Delta-E=       -0.000019217146 Rises=F Damp=F
 DIIS: error= 4.50D-05 at cycle  14 NSaved=  14.
 NSaved=14 IEnMin=14 EnMin= -3007.36228621448     IErMin=14 ErrMin= 4.50D-05
 ErrMax= 4.50D-05  0.00D+00 EMaxC= 1.00D-01 BMatC= 3.64D-06 BMatP= 1.89D-05
 IDIUse=1 WtCom= 1.00D+00 WtEn= 0.00D+00
 Coeff-Com: -0.869D-03 0.144D-02-0.128D-03 0.163D-04-0.497D-02 0.664D-03
 Coeff-Com: -0.844D-02-0.102D-04 0.164D-01 0.452D-01 0.788D-01 0.167D+00
 Coeff-Com:  0.335D+00 0.370D+00
 Coeff:     -0.869D-03 0.144D-02-0.128D-03 0.163D-04-0.497D-02 0.664D-03
 Coeff:     -0.844D-02-0.102D-04 0.164D-01 0.452D-01 0.788D-01 0.167D+00
 Coeff:      0.335D+00 0.370D+00
 Gap=     0.043 Goal=   None    Shift=    0.000
 RMSDP=2.25D-06 MaxDP=2.51D-04 DE=-1.92D-05 OVMax= 8.50D-04

 Cycle  15  Pass 1  IDiag  1:
 RMSU=  1.19D-06    CP:  9.77D-01  1.19D+00  1.96D-01  5.62D-02  7.09D-01
                    CP:  3.20D-01  5.13D-01  4.08D-01  5.32D-01  5.48D-01
                    CP:  3.91D-01  4.52D-01  5.22D-01  4.15D-01
 E= -3007.36228987300     Delta-E=       -0.000003658517 Rises=F Damp=F
 DIIS: error= 2.08D-05 at cycle  15 NSaved=  15.
 NSaved=15 IEnMin=15 EnMin= -3007.36228987300     IErMin=15 ErrMin= 2.08D-05
 ErrMax= 2.08D-05  0.00D+00 EMaxC= 1.00D-01 BMatC= 5.20D-07 BMatP= 3.64D-06
 IDIUse=1 WtCom= 1.00D+00 WtEn= 0.00D+00
 Coeff-Com: -0.296D-03 0.516D-03-0.896D-04 0.214D-04-0.191D-02 0.260D-03
 Coeff-Com: -0.326D-02-0.125D-02 0.179D-02 0.454D-02 0.163D-01 0.416D-01
 Coeff-Com:  0.111D+00 0.246D+00 0.585D+00
 Coeff:     -0.296D-03 0.516D-03-0.896D-04 0.214D-04-0.191D-02 0.260D-03
 Coeff:     -0.326D-02-0.125D-02 0.179D-02 0.454D-02 0.163D-01 0.416D-01
 Coeff:      0.111D+00 0.246D+00 0.585D+00
 Gap=     0.043 Goal=   None    Shift=    0.000
 RMSDP=9.17D-07 MaxDP=9.08D-05 DE=-3.66D-06 OVMax= 3.12D-04

 Cycle  16  Pass 1  IDiag  1:
 RMSU=  5.87D-07    CP:  9.77D-01  1.19D+00  1.96D-01  5.62D-02  7.10D-01
                    CP:  3.20D-01  5.13D-01  4.09D-01  5.33D-01  5.49D-01
                    CP:  3.96D-01  4.61D-01  5.10D-01  5.31D-01  6.22D-01
 E= -3007.36229024048     Delta-E=       -0.000000367476 Rises=F Damp=F
 DIIS: error= 1.01D-05 at cycle  16 NSaved=  16.
 NSaved=16 IEnMin=16 EnMin= -3007.36229024048     IErMin=16 ErrMin= 1.01D-05
 ErrMax= 1.01D-05  0.00D+00 EMaxC= 1.00D-01 BMatC= 1.75D-07 BMatP= 5.20D-07
 IDIUse=1 WtCom= 1.00D+00 WtEn= 0.00D+00
 Coeff-Com: -0.125D-03 0.263D-03-0.139D-04-0.369D-05-0.347D-03 0.575D-04
 Coeff-Com: -0.672D-03-0.497D-03-0.161D-02-0.653D-02-0.638D-02-0.998D-02
 Coeff-Com: -0.357D-02 0.892D-01 0.461D+00 0.479D+00
 Coeff:     -0.125D-03 0.263D-03-0.139D-04-0.369D-05-0.347D-03 0.575D-04
 Coeff:     -0.672D-03-0.497D-03-0.161D-02-0.653D-02-0.638D-02-0.998D-02
 Coeff:     -0.357D-02 0.892D-01 0.461D+00 0.479D+00
 Gap=     0.043 Goal=   None    Shift=    0.000
 RMSDP=5.08D-07 MaxDP=9.06D-05 DE=-3.67D-07 OVMax= 1.90D-04

 Cycle  17  Pass 1  IDiag  1:
 RMSU=  2.64D-07    CP:  9.77D-01  1.19D+00  1.96D-01  5.62D-02  7.09D-01
                    CP:  3.20D-01  5.13D-01  4.09D-01  5.34D-01  5.49D-01
                    CP:  3.95D-01  4.61D-01  5.20D-01  5.11D-01  7.68D-01
                    CP:  5.70D-01
 E= -3007.36229041360     Delta-E=       -0.000000173128 Rises=F Damp=F
 DIIS: error= 2.41D-06 at cycle  17 NSaved=  17.
 NSaved=17 IEnMin=17 EnMin= -3007.36229041360     IErMin=17 ErrMin= 2.41D-06
 ErrMax= 2.41D-06  0.00D+00 EMaxC= 1.00D-01 BMatC= 1.75D-08 BMatP= 1.75D-07
 IDIUse=1 WtCom= 1.00D+00 WtEn= 0.00D+00
 Coeff-Com: -0.555D-04 0.113D-03-0.273D-05-0.288D-05-0.453D-04 0.138D-04
 Coeff-Com: -0.156D-03-0.203D-03-0.115D-02-0.487D-02-0.585D-02-0.111D-01
 Coeff-Com: -0.155D-01 0.319D-01 0.245D+00 0.327D+00 0.435D+00
 Coeff:     -0.555D-04 0.113D-03-0.273D-05-0.288D-05-0.453D-04 0.138D-04
 Coeff:     -0.156D-03-0.203D-03-0.115D-02-0.487D-02-0.585D-02-0.111D-01
 Coeff:     -0.155D-01 0.319D-01 0.245D+00 0.327D+00 0.435D+00
 Gap=     0.043 Goal=   None    Shift=    0.000
 RMSDP=1.57D-07 MaxDP=1.90D-05 DE=-1.73D-07 OVMax= 4.37D-05

 Cycle  18  Pass 1  IDiag  1:
 RMSU=  8.48D-08    CP:  9.77D-01  1.19D+00  1.96D-01  5.62D-02  7.10D-01
                    CP:  3.20D-01  5.13D-01  4.09D-01  5.34D-01  5.49D-01
                    CP:  3.95D-01  4.61D-01  5.19D-01  5.27D-01  7.78D-01
                    CP:  6.22D-01  5.70D-01
 E= -3007.36229042979     Delta-E=       -0.000000016182 Rises=F Damp=F
 DIIS: error= 1.79D-06 at cycle  18 NSaved=  18.
 NSaved=18 IEnMin=18 EnMin= -3007.36229042979     IErMin=18 ErrMin= 1.79D-06
 ErrMax= 1.79D-06  0.00D+00 EMaxC= 1.00D-01 BMatC= 2.41D-09 BMatP= 1.75D-08
 IDIUse=1 WtCom= 1.00D+00 WtEn= 0.00D+00
 Coeff-Com: -0.255D-04 0.475D-04-0.708D-06-0.789D-06 0.110D-04 0.931D-06
 Coeff-Com: -0.275D-04-0.612D-04-0.478D-03-0.232D-02-0.290D-02-0.600D-02
 Coeff-Com: -0.101D-01 0.845D-02 0.993D-01 0.155D+00 0.299D+00 0.460D+00
 Coeff:     -0.255D-04 0.475D-04-0.708D-06-0.789D-06 0.110D-04 0.931D-06
 Coeff:     -0.275D-04-0.612D-04-0.478D-03-0.232D-02-0.290D-02-0.600D-02
 Coeff:     -0.101D-01 0.845D-02 0.993D-01 0.155D+00 0.299D+00 0.460D+00
 Gap=     0.043 Goal=   None    Shift=    0.000
 RMSDP=5.78D-08 MaxDP=7.16D-06 DE=-1.62D-08 OVMax= 1.61D-05

 Cycle  19  Pass 1  IDiag  1:
 RMSU=  3.03D-08    CP:  9.77D-01  1.19D+00  1.96D-01  5.62D-02  7.10D-01
                    CP:  3.20D-01  5.13D-01  4.09D-01  5.35D-01  5.49D-01
                    CP:  3.95D-01  4.61D-01  5.18D-01  5.26D-01  7.90D-01
                    CP:  6.10D-01  5.82D-01  5.07D-01
 E= -3007.36229043180     Delta-E=       -0.000000002014 Rises=F Damp=F
 DIIS: error= 5.39D-07 at cycle  19 NSaved=  19.
 NSaved=19 IEnMin=19 EnMin= -3007.36229043180     IErMin=19 ErrMin= 5.39D-07
 ErrMax= 5.39D-07  0.00D+00 EMaxC= 1.00D-01 BMatC= 3.51D-10 BMatP= 2.41D-09
 IDIUse=1 WtCom= 1.00D+00 WtEn= 0.00D+00
 Coeff-Com: -0.138D-04 0.243D-04-0.238D-06-0.540D-06 0.108D-04-0.340D-06
 Coeff-Com: -0.798D-05-0.239D-04-0.215D-03-0.115D-02-0.147D-02-0.324D-02
 Coeff-Com: -0.593D-02 0.230D-02 0.454D-01 0.773D-01 0.167D+00 0.324D+00
 Coeff-Com:  0.396D+00
 Coeff:     -0.138D-04 0.243D-04-0.238D-06-0.540D-06 0.108D-04-0.340D-06
 Coeff:     -0.798D-05-0.239D-04-0.215D-03-0.115D-02-0.147D-02-0.324D-02
 Coeff:     -0.593D-02 0.230D-02 0.454D-01 0.773D-01 0.167D+00 0.324D+00
 Coeff:      0.396D+00
 Gap=     0.043 Goal=   None    Shift=    0.000
 RMSDP=2.21D-08 MaxDP=3.30D-06 DE=-2.01D-09 OVMax= 6.44D-06

 Cycle  20  Pass 1  IDiag  1:
 RMSU=  1.29D-08    CP:  9.77D-01  1.19D+00  1.96D-01  5.62D-02  7.10D-01
                    CP:  3.20D-01  5.13D-01  4.09D-01  5.35D-01  5.49D-01
                    CP:  3.95D-01  4.61D-01  5.18D-01  5.27D-01  7.88D-01
                    CP:  6.16D-01  5.85D-01  5.64D-01  5.16D-01
 E= -3007.36229043219     Delta-E=       -0.000000000389 Rises=F Damp=F
 DIIS: error= 2.15D-07 at cycle  20 NSaved=  20.
 NSaved=20 IEnMin=20 EnMin= -3007.36229043219     IErMin=20 ErrMin= 2.15D-07
 ErrMax= 2.15D-07  0.00D+00 EMaxC= 1.00D-01 BMatC= 5.57D-11 BMatP= 3.51D-10
 IDIUse=1 WtCom= 1.00D+00 WtEn= 0.00D+00
 Coeff-Com: -0.525D-05 0.842D-05-0.148D-06-0.188D-06 0.567D-05-0.255D-06
 Coeff-Com: -0.108D-05-0.706D-05-0.680D-04-0.416D-03-0.537D-03-0.129D-02
 Coeff-Com: -0.257D-02-0.278D-03 0.136D-01 0.267D-01 0.638D-01 0.148D+00
 Coeff-Com:  0.289D+00 0.463D+00
 Coeff:     -0.525D-05 0.842D-05-0.148D-06-0.188D-06 0.567D-05-0.255D-06
 Coeff:     -0.108D-05-0.706D-05-0.680D-04-0.416D-03-0.537D-03-0.129D-02
 Coeff:     -0.257D-02-0.278D-03 0.136D-01 0.267D-01 0.638D-01 0.148D+00
 Coeff:      0.289D+00 0.463D+00
 Gap=     0.043 Goal=   None    Shift=    0.000
 RMSDP=8.39D-09 MaxDP=9.18D-07 DE=-3.89D-10 OVMax= 2.07D-06

 SCF Done:  E(RB-LYP) =  -3007.36229043     A.U. after   20 cycles
            NFock= 20  Conv=0.84D-08     -V/T= 2.0099
 KE= 2.977852550878D+03 PE=-2.623207839207D+04 EE= 1.062897730047D+04
 Leave Link  502 at Wed May  4 18:39:27 2022, MaxMem= 10066329600 cpu:            7320.8 elap:             305.8
 (Enter /sw/apps/gaussian-16.0/g16/l801.exe)
 DoSCS=F DFT=T ScalE2(SS,OS)=  1.000000  1.000000
 ExpMin= 3.36D-02 ExpMax= 4.95D+03 ExpMxC= 7.45D+02 IAcc=3 IRadAn=         5 AccDes= 0.00D+00
 HarFok:  IExCor=  205 AccDes= 0.00D+00 IRadAn=         5 IDoV=-2 UseB2=F ITyADJ=14
 ICtDFT= 12500011 ScaDFX=  1.000000  1.000000  1.000000  1.000000
 GSVD:  LWork=       -5460 too small for GESVD, short by       25550 words or       25550 for optimal perf.
 Largest valence mixing into a core orbital is  1.80D-04
 Largest core mixing into a valence orbital is  4.82D-05
 Range of M.O.s used for correlation:    71  1298
 NBasis=  1298 NAE=   246 NBE=   246 NFC=    70 NFV=     0
 NROrb=   1228 NOA=   176 NOB=   176 NVA=  1052 NVB=  1052

 **** Warning!!: The smallest alpha delta epsilon is  0.42988762D-01

 Leave Link  801 at Wed May  4 18:39:27 2022, MaxMem= 10066329600 cpu:               6.8 elap:               0.3
 (Enter /sw/apps/gaussian-16.0/g16/l914.exe)
 RHF ground state
 Two-electron integrals replicated using symmetry.
 MDV= 10066329600 DFT=T DoStab=F Mixed=F DoRPA=T DoScal=T NonHer=F
 Making orbital integer symmetry assigments:
 Orbital symmetries:
       Occupied  (A) (A) (A) (A) (A) (A) (A) (A) (A) (A) (A) (A)
                 (A) (A) (A) (A) (A) (A) (A) (A) (A) (A) (A) (A)
                 (A) (A) (A) (A) (A) (A) (A) (A) (A) (A) (A) (A)
                 (A) (A) (A) (A) (A) (A) (A) (A) (A) (A) (A) (A)
                 (A) (A) (A) (A) (A) (A) (A) (A) (A) (A) (A) (A)
                 (A) (A) (A) (A) (A) (A) (A) (A) (A) (A) (A) (A)
                 (A) (A) (A) (A) (A) (A) (A) (A) (A) (A) (A) (A)
                 (A) (A) (A) (A) (A) (A) (A) (A) (A) (A) (A) (A)
                 (A) (A) (A) (A) (A) (A) (A) (A) (A) (A) (A) (A)
                 (A) (A) (A) (A) (A) (A) (A) (A) (A) (A) (A) (A)
                 (A) (A) (A) (A) (A) (A) (A) (A) (A) (A) (A) (A)
                 (A) (A) (A) (A) (A) (A) (A) (A) (A) (A) (A) (A)
                 (A) (A) (A) (A) (A) (A) (A) (A) (A) (A) (A) (A)
                 (A) (A) (A) (A) (A) (A) (A) (A) (A) (A) (A) (A)
                 (A) (A) (A) (A) (A) (A) (A) (A) (A) (A) (A) (A)
                 (A) (A) (A) (A) (A) (A) (A) (A) (A) (A) (A) (A)
                 (A) (A) (A) (A) (A) (A) (A) (A) (A) (A) (A) (A)
                 (A) (A) (A) (A) (A) (A) (A) (A) (A) (A) (A) (A)
                 (A) (A) (A) (A) (A) (A) (A) (A) (A) (A) (A) (A)
                 (A) (A) (A) (A) (A) (A) (A) (A) (A) (A) (A) (A)
                 (A) (A) (A) (A) (A) (A)
       Virtual   (A) (A) (A) (A) (A) (A) (A) (A) (A) (A) (A) (A)
                 (A) (A) (A) (A) (A) (A) (A) (A) (A) (A) (A) (A)
                 (A) (A) (A) (A) (A) (A) (A) (A) (A) (A) (A) (A)
                 (A) (A) (A) (A) (A) (A) (A) (A) (A) (A) (A) (A)
                 (A) (A) (A) (A) (A) (A) (A) (A) (A) (A) (A) (A)
                 (A) (A) (A) (A) (A) (A) (A) (A) (A) (A) (A) (A)
                 (A) (A) (A) (A) (A) (A) (A) (A) (A) (A) (A) (A)
                 (A) (A) (A) (A) (A) (A) (A) (A) (A) (A) (A) (A)
                 (A) (A) (A) (A) (A) (A) (A) (A) (A) (A) (A) (A)
                 (A) (A) (A) (A) (A) (A) (A) (A) (A) (A) (A) (A)
                 (A) (A) (A) (A) (A) (A) (A) (A) (A) (A) (A) (A)
                 (A) (A) (A) (A) (A) (A) (A) (A) (A) (A) (A) (A)
                 (A) (A) (A) (A) (A) (A) (A) (A) (A) (A) (A) (A)
                 (A) (A) (A) (A) (A) (A) (A) (A) (A) (A) (A) (A)
                 (A) (A) (A) (A) (A) (A) (A) (A) (A) (A) (A) (A)
                 (A) (A) (A) (A) (A) (A) (A) (A) (A) (A) (A) (A)
                 (A) (A) (A) (A) (A) (A) (A) (A) (A) (A) (A) (A)
                 (A) (A) (A) (A) (A) (A) (A) (A) (A) (A) (A) (A)
                 (A) (A) (A) (A) (A) (A) (A) (A) (A) (A) (A) (A)
                 (A) (A) (A) (A) (A) (A) (A) (A) (A) (A) (A) (A)
                 (A) (A) (A) (A) (A) (A) (A) (A) (A) (A) (A) (A)
                 (A) (A) (A) (A) (A) (A) (A) (A) (A) (A) (A) (A)
                 (A) (A) (A) (A) (A) (A) (A) (A) (A) (A) (A) (A)
                 (A) (A) (A) (A) (A) (A) (A) (A) (A) (A) (A) (A)
                 (A) (A) (A) (A) (A) (A) (A) (A) (A) (A) (A) (A)
                 (A) (A) (A) (A) (A) (A) (A) (A) (A) (A) (A) (A)
                 (A) (A) (A) (A) (A) (A) (A) (A) (A) (A) (A) (A)
                 (A) (A) (A) (A) (A) (A) (A) (A) (A) (A) (A) (A)
                 (A) (A) (A) (A) (A) (A) (A) (A) (A) (A) (A) (A)
                 (A) (A) (A) (A) (A) (A) (A) (A) (A) (A) (A) (A)
                 (A) (A) (A) (A) (A) (A) (A) (A) (A) (A) (A) (A)
                 (A) (A) (A) (A) (A) (A) (A) (A) (A) (A) (A) (A)
                 (A) (A) (A) (A) (A) (A) (A) (A) (A) (A) (A) (A)
                 (A) (A) (A) (A) (A) (A) (A) (A) (A) (A) (A) (A)
                 (A) (A) (A) (A) (A) (A) (A) (A) (A) (A) (A) (A)
                 (A) (A) (A) (A) (A) (A) (A) (A) (A) (A) (A) (A)
                 (A) (A) (A) (A) (A) (A) (A) (A) (A) (A) (A) (A)
                 (A) (A) (A) (A) (A) (A) (A) (A) (A) (A) (A) (A)
                 (A) (A) (A) (A) (A) (A) (A) (A) (A) (A) (A) (A)
                 (A) (A) (A) (A) (A) (A) (A) (A) (A) (A) (A) (A)
                 (A) (A) (A) (A) (A) (A) (A) (A) (A) (A) (A) (A)
                 (A) (A) (A) (A) (A) (A) (A) (A) (A) (A) (A) (A)
                 (A) (A) (A) (A) (A) (A) (A) (A) (A) (A) (A) (A)
                 (A) (A) (A) (A) (A) (A) (A) (A) (A) (A) (A) (A)
                 (A) (A) (A) (A) (A) (A) (A) (A) (A) (A) (A) (A)
                 (A) (A) (A) (A) (A) (A) (A) (A) (A) (A) (A) (A)
                 (A) (A) (A) (A) (A) (A) (A) (A) (A) (A) (A) (A)
                 (A) (A) (A) (A) (A) (A) (A) (A) (A) (A) (A) (A)
                 (A) (A) (A) (A) (A) (A) (A) (A) (A) (A) (A) (A)
                 (A) (A) (A) (A) (A) (A) (A) (A) (A) (A) (A) (A)
                 (A) (A) (A) (A) (A) (A) (A) (A) (A) (A) (A) (A)
                 (A) (A) (A) (A) (A) (A) (A) (A) (A) (A) (A) (A)
                 (A) (A) (A) (A) (A) (A) (A) (A) (A) (A) (A) (A)
                 (A) (A) (A) (A) (A) (A) (A) (A) (A) (A) (A) (A)
                 (A) (A) (A) (A) (A) (A) (A) (A) (A) (A) (A) (A)
                 (A) (A) (A) (A) (A) (A) (A) (A) (A) (A) (A) (A)
                 (A) (A) (A) (A) (A) (A) (A) (A) (A) (A) (A) (A)
                 (A) (A) (A) (A) (A) (A) (A) (A) (A) (A) (A) (A)
                 (A) (A) (A) (A) (A) (A) (A) (A) (A) (A) (A) (A)
                 (A) (A) (A) (A) (A) (A) (A) (A) (A) (A) (A) (A)
                 (A) (A) (A) (A) (A) (A) (A) (A) (A) (A) (A) (A)
                 (A) (A) (A) (A) (A) (A) (A) (A) (A) (A) (A) (A)
                 (A) (A) (A) (A) (A) (A) (A) (A) (A) (A) (A) (A)
                 (A) (A) (A) (A) (A) (A) (A) (A) (A) (A) (A) (A)
                 (A) (A) (A) (A) (A) (A) (A) (A) (A) (A) (A) (A)
                 (A) (A) (A) (A) (A) (A) (A) (A) (A) (A) (A) (A)
                 (A) (A) (A) (A) (A) (A) (A) (A) (A) (A) (A) (A)
                 (A) (A) (A) (A) (A) (A) (A) (A) (A) (A) (A) (A)
                 (A) (A) (A) (A) (A) (A) (A) (A) (A) (A) (A) (A)
                 (A) (A) (A) (A) (A) (A) (A) (A) (A) (A) (A) (A)
                 (A) (A) (A) (A) (A) (A) (A) (A) (A) (A) (A) (A)
                 (A) (A) (A) (A) (A) (A) (A) (A) (A) (A) (A) (A)
                 (A) (A) (A) (A) (A) (A) (A) (A) (A) (A) (A) (A)
                 (A) (A) (A) (A) (A) (A) (A) (A) (A) (A) (A) (A)
                 (A) (A) (A) (A) (A) (A) (A) (A) (A) (A) (A) (A)
                 (A) (A) (A) (A) (A) (A) (A) (A) (A) (A) (A) (A)
                 (A) (A) (A) (A) (A) (A) (A) (A) (A) (A) (A) (A)
                 (A) (A) (A) (A) (A) (A) (A) (A) (A) (A) (A) (A)
                 (A) (A) (A) (A) (A) (A) (A) (A) (A) (A) (A) (A)
                 (A) (A) (A) (A) (A) (A) (A) (A) (A) (A) (A) (A)
                 (A) (A) (A) (A) (A) (A) (A) (A) (A) (A) (A) (A)
                 (A) (A) (A) (A) (A) (A) (A) (A) (A) (A) (A) (A)
                 (A) (A) (A) (A) (A) (A) (A) (A) (A) (A) (A) (A)
                 (A) (A) (A) (A) (A) (A) (A) (A) (A) (A) (A) (A)
                 (A) (A) (A) (A) (A) (A) (A) (A) (A) (A) (A) (A)
                 (A) (A) (A) (A) (A) (A) (A) (A) (A) (A) (A) (A)
                 (A) (A) (A) (A) (A) (A) (A) (A) (A) (A) (A) (A)
                 (A) (A) (A) (A) (A) (A) (A) (A)
    20 initial guesses have been made.
 Convergence on wavefunction:    0.001000000000000
 Davidson Disk Diagonalization:  ConvIn= 1.00D-03 SkipCon=T Conv= 1.00D-03.
 Max sub-space:  2000 roots to seek:    20 dimension of matrix:       370304
 Iteration     1 Dimension    20 NMult     0 NNew     20
 CISAX will form    20 AO SS matrices at one time.
 NMat=    20 NSing=    20 JSym2X= 0.
 FoFJK:  IHMeth= 1 ICntrl=     500 DoSepK=F KAlg= 0 I1Cent=           0 FoldK=F
 IRaf= 520000000 NMat=      20 IRICut=       1 DoRegI=T DoRafI=F ISym2E= 0 IDoP0=0 IntGTp=1.
 FoFCou: FMM=T IPFlag=           0 FMFlag=      100000 FMFlg1=        2001
         NFxFlg=           0 DoJE=F BraDBF=F KetDBF=F FulRan=T
         wScrn=  0.000000 ICntrl=       500 IOpCl=  0 I1Cent=           0 NGrid=           0
         NMat0=   20 NMatS0=     20 NMatT0=    0 NMatD0=   20 NMtDS0=    0 NMtDT0=    0
 Symmetry not used in FoFCou.
 FMM levels:  10  Number of levels for PrismC:   9
 New state      1 was old state      3
 New state      2 was old state      4
 New state      3 was old state      1
 New state      4 was old state      2
 New state      5 was old state      8
 Excitation Energies [eV] at current iteration:
 Root      1 :     1.941881117884920
 Root      2 :     2.058296443812884
 Root      3 :     2.141559903142842
 Root      4 :     2.371419711156845
 Root      5 :     2.646437413916761
 Root      6 :     2.794618681788954
 Root      7 :     2.897919260974907
 Root      8 :     3.027049106778240
 Root      9 :     3.087407149520009
 Root     10 :     3.096770094672539
 Root     11 :     3.142245534029820
 Root     12 :     3.208001172629182
 Root     13 :     3.262051829550737
 Root     14 :     3.296097927413066
 Root     15 :     3.345396514907055
 Root     16 :     3.431570084326895
 Root     17 :     3.978600401571388
 Root     18 :     4.004041766414699
 Root     19 :     4.284726906949317
 Root     20 :     4.432486139790128
 Iteration     2 Dimension    40 NMult    20 NNew     20
 CISAX will form    20 AO SS matrices at one time.
 NMat=    20 NSing=    20 JSym2X= 0.
 New state      1 was old state      3
 Root      1 not converged, maximum delta is    0.337356176926466
 New state      2 was old state      1
 Root      2 not converged, maximum delta is    0.122786522816883
 New state      3 was old state      2
 Root      3 not converged, maximum delta is    0.356599425507909
 Root      4 not converged, maximum delta is    0.231985983693520
 New state      5 was old state      6
 Root      5 not converged, maximum delta is    0.440750135066267
 Excitation Energies [eV] at current iteration:
 Root      1 :     1.878934394582744   Change is   -0.262625508560098
 Root      2 :     1.938615221281577   Change is   -0.003265896603343
 Root      3 :     2.013677948151702   Change is   -0.044618495661181
 Root      4 :     2.156398768677555   Change is   -0.215020942479290
 Root      5 :     2.626641747599153   Change is   -0.167976934189800
 Root      6 :     2.648846588192811   Change is    0.002409174276051
 Root      7 :     2.772665219165124   Change is   -0.125254041809783
 Root      8 :     2.849496625171362   Change is   -0.292748908858458
 Root      9 :     2.890551732903900   Change is   -0.136497373874340
 Root     10 :     3.019844322051901   Change is   -0.188156850577281
 Root     11 :     3.044759885284888   Change is   -0.042647264235121
 Root     12 :     3.097645010417386   Change is    0.000874915744846
 Root     13 :     3.244325475685247   Change is   -0.017726353865491
 Root     14 :     3.247722578728419   Change is   -0.097673936178636
 Root     15 :     3.260446365639659   Change is   -0.171123718687236
 Root     16 :     3.275860335270286   Change is   -0.020237592142779
 Root     17 :     3.424257198276532   Change is   -0.554343203294856
 Root     18 :     3.627463938703850   Change is   -0.376577827710849
 Root     19 :     3.802680779066730   Change is   -0.482046127882587
 Root     20 :     3.866986502596291
 Iteration     3 Dimension    45 NMult    40 NNew      5
 CISAX will form     5 AO SS matrices at one time.
 NMat=     5 NSing=     5 JSym2X= 0.
 Root      1 not converged, maximum delta is    0.041066638162258
 Root      2 not converged, maximum delta is    0.053066385741321
 Root      3 not converged, maximum delta is    0.079158461235649
 Root      4 not converged, maximum delta is    0.061848972262430
 Root      5 not converged, maximum delta is    0.117298145601105
 Excitation Energies [eV] at current iteration:
 Root      1 :     1.831433857160320   Change is   -0.047500537422425
 Root      2 :     1.936163563388209   Change is   -0.002451657893369
 Root      3 :     1.986940222568053   Change is   -0.026737725583650
 Root      4 :     2.130506101444442   Change is   -0.025892667233113
 Root      5 :     2.605801307670201   Change is   -0.020840439928952
 Iteration     4 Dimension    50 NMult    45 NNew      5
 CISAX will form     5 AO SS matrices at one time.
 NMat=     5 NSing=     5 JSym2X= 0.
 Root      1 not converged, maximum delta is    0.008522079721104
 Root      2 not converged, maximum delta is    0.034006437761868
 Root      3 not converged, maximum delta is    0.038465247724281
 Root      4 not converged, maximum delta is    0.022789387341902
 Root      5 not converged, maximum delta is    0.020970913673167
 Excitation Energies [eV] at current iteration:
 Root      1 :     1.816349384702465   Change is   -0.015084472457855
 Root      2 :     1.935094373750610   Change is   -0.001069189637599
 Root      3 :     1.975932847389595   Change is   -0.011007375178457
 Root      4 :     2.122460604524768   Change is   -0.008045496919674
 Root      5 :     2.597180191806538   Change is   -0.008621115863663
 Iteration     5 Dimension    55 NMult    50 NNew      5
 CISAX will form     5 AO SS matrices at one time.
 NMat=     5 NSing=     5 JSym2X= 0.
 Root      1 not converged, maximum delta is    0.001999008981565
 Root      2 not converged, maximum delta is    0.013841057066531
 Root      3 not converged, maximum delta is    0.016018236967528
 Root      4 not converged, maximum delta is    0.007089894610193
 Root      5 not converged, maximum delta is    0.005623842315317
 Excitation Energies [eV] at current iteration:
 Root      1 :     1.811670705042568   Change is   -0.004678679659897
 Root      2 :     1.934711594777883   Change is   -0.000382778972727
 Root      3 :     1.972318348599039   Change is   -0.003614498790557
 Root      4 :     2.120181531638265   Change is   -0.002279072886503
 Root      5 :     2.594408014940141   Change is   -0.002772176866397
 Iteration     6 Dimension    60 NMult    55 NNew      5
 CISAX will form     5 AO SS matrices at one time.
 NMat=     5 NSing=     5 JSym2X= 0.
 Root      1 not converged, maximum delta is    0.001690083397857
 Root      2 not converged, maximum delta is    0.006675013821853
 Root      3 not converged, maximum delta is    0.007928420593615
 Root      4 not converged, maximum delta is    0.003223500828109
 Root      5 not converged, maximum delta is    0.002150882508403
 Excitation Energies [eV] at current iteration:
 Root      1 :     1.809536878264317   Change is   -0.002133826778251
 Root      2 :     1.934529422771788   Change is   -0.000182172006095
 Root      3 :     1.970721281905412   Change is   -0.001597066693627
 Root      4 :     2.119250195445846   Change is   -0.000931336192419
 Root      5 :     2.593310888074293   Change is   -0.001097126865849
 Iteration     7 Dimension    65 NMult    60 NNew      5
 CISAX will form     5 AO SS matrices at one time.
 NMat=     5 NSing=     5 JSym2X= 0.
 Root      1 not converged, maximum delta is    0.001350034134257
 Root      2 not converged, maximum delta is    0.002669622225867
 Root      3 not converged, maximum delta is    0.003204343377017
 Root      4 not converged, maximum delta is    0.001138102074603
 Root      5 not converged, maximum delta is    0.001019904590435
 Excitation Energies [eV] at current iteration:
 Root      1 :     1.808641013315358   Change is   -0.000895864948958
 Root      2 :     1.934449421763393   Change is   -0.000080001008395
 Root      3 :     1.970105773115053   Change is   -0.000615508790359
 Root      4 :     2.118911299958757   Change is   -0.000338895487089
 Root      5 :     2.592949854141153   Change is   -0.000361033933139
 Iteration     8 Dimension    70 NMult    65 NNew      5
 CISAX will form     5 AO SS matrices at one time.
 NMat=     5 NSing=     5 JSym2X= 0.
 Root      1 has converged.
 Root      2 not converged, maximum delta is    0.001119703324946
 Root      3 not converged, maximum delta is    0.001334452002327
 Root      4 has converged.
 Root      5 has converged.
 Excitation Energies [eV] at current iteration:
 Root      1 :     1.808268710610824   Change is   -0.000372302704535
 Root      2 :     1.934413494666089   Change is   -0.000035927097304
 Root      3 :     1.969861557881477   Change is   -0.000244215233575
 Root      4 :     2.118770922811857   Change is   -0.000140377146901
 Root      5 :     2.592822138641393   Change is   -0.000127715499760
 Iteration     9 Dimension    72 NMult    70 NNew      2
 CISAX will form     2 AO SS matrices at one time.
 NMat=     2 NSing=     2 JSym2X= 0.
 Root      1 has converged.
 Root      2 has converged.
 Root      3 has converged.
 Root      4 has converged.
 Root      5 has converged.
 Excitation Energies [eV] at current iteration:
 Root      1 :     1.808263435928260   Change is   -0.000005274682563
 Root      2 :     1.934397404090658   Change is   -0.000016090575431
 Root      3 :     1.969764143954444   Change is   -0.000097413927033
 Root      4 :     2.118760429294390   Change is   -0.000010493517467
 Root      5 :     2.592821614773662   Change is   -0.000000523867731
 Convergence achieved on expansion vectors.
 ***********************************************************************
 Excited states from <AA,BB:AA,BB> singles matrix:
 ***********************************************************************
 
 1PDM for each excited state written to RWF  633
 Ground to excited state transition densities written to RWF  633
 Ground to excited state transition electric dipole moments (Au):
       state          X           Y           Z        Dip. S.      Osc.
         1        -1.2274      2.1812     -0.4018      6.4257      0.2847
         2         0.1457      0.4645     -0.0671      0.2415      0.0114
[...]
 Alpha virt. eigenvalues --    1.11146   1.11487   1.11679   1.12109   1.12841
 Alpha virt. eigenvalues --    1.13264   1.13901   1.14511   1.14927   1.15282
 Alpha virt. eigenvalues --    1.15314   1.16304   1.16903   1.17087   1.17803
 Alpha virt. eigenvalues --    1.18207   1.18677   1.18816   1.19219   1.19575
 Alpha virt. eigenvalues --    1.20464   1.20572   1.20895   1.21048   1.21184
 Alpha virt. eigenvalues --    1.22095   1.22212   1.22715   1.23566   1.23806
 Alpha virt. eigenvalues --    1.24395   1.25151   1.25333   1.25956   1.26123
 Alpha virt. eigenvalues --    1.26587   1.27318   1.27458   1.27937   1.28045
 Alpha virt. eigenvalues --    1.28469   1.28912   1.29439   1.29722   1.30165
 Alpha virt. eigenvalues --    1.30916   1.31148   1.31301   1.31559   1.32169
 Alpha virt. eigenvalues --    1.32285   1.33134   1.33450   1.33540   1.34288
 Alpha virt. eigenvalues --    1.34399   1.34515   1.35045   1.35426   1.36244
 Alpha virt. eigenvalues --    1.36949   1.37133   1.37652   1.38314   1.38490
 Alpha virt. eigenvalues --    1.38893   1.39496   1.39810   1.39904   1.40226
 Alpha virt. eigenvalues --    1.40760   1.41685   1.42000   1.42272   1.42700
 Alpha virt. eigenvalues --    1.42913   1.43392   1.43659   1.44042   1.44719
 Alpha virt. eigenvalues --    1.44967   1.45231   1.45628   1.45744   1.46473
 Alpha virt. eigenvalues --    1.46527   1.47067   1.47348   1.47516   1.47544
 Alpha virt. eigenvalues --    1.48036   1.48434   1.48591   1.48928   1.49244
 Alpha virt. eigenvalues --    1.49395   1.49494   1.49667   1.49777   1.50137
 Alpha virt. eigenvalues --    1.50250   1.50641   1.50711   1.50921   1.51227
 Alpha virt. eigenvalues --    1.51468   1.51583   1.51964   1.52502   1.52711
 Alpha virt. eigenvalues --    1.53179   1.53403   1.53957   1.54799   1.54881
 Alpha virt. eigenvalues --    1.55325   1.55932   1.56165   1.56529   1.57077
 Alpha virt. eigenvalues --    1.57165   1.57352   1.58209   1.59391   1.59630
 Alpha virt. eigenvalues --    1.59747   1.60072   1.60355   1.60548   1.61094
 Alpha virt. eigenvalues --    1.61322   1.61424   1.61600   1.62011   1.62237
 Alpha virt. eigenvalues --    1.62506   1.63146   1.63817   1.64160   1.64467
 Alpha virt. eigenvalues --    1.64634   1.65079   1.65756   1.65783   1.66142
 Alpha virt. eigenvalues --    1.66388   1.66547   1.66712   1.67109   1.67200
 Alpha virt. eigenvalues --    1.67737   1.67781   1.67909   1.67969   1.68131
 Alpha virt. eigenvalues --    1.68675   1.68803   1.69230   1.69505   1.69623
 Alpha virt. eigenvalues --    1.69809   1.70029   1.70231   1.70320   1.70769
 Alpha virt. eigenvalues --    1.71008   1.71216   1.71385   1.71722   1.71952
 Alpha virt. eigenvalues --    1.72119   1.72301   1.72422   1.72701   1.72884
 Alpha virt. eigenvalues --    1.73257   1.73432   1.73693   1.73736   1.73928
 Alpha virt. eigenvalues --    1.73998   1.74375   1.74438   1.74441   1.74644
 Alpha virt. eigenvalues --    1.74901   1.74969   1.75297   1.75516   1.75635
 Alpha virt. eigenvalues --    1.75839   1.75986   1.76303   1.76463   1.76525
 Alpha virt. eigenvalues --    1.76824   1.76968   1.77222   1.77410   1.77483
 Alpha virt. eigenvalues --    1.77975   1.78079   1.78463   1.78696   1.78809
 Alpha virt. eigenvalues --    1.79098   1.79156   1.79167   1.79650   1.79880
 Alpha virt. eigenvalues --    1.80140   1.80260   1.80699   1.80866   1.81019
 Alpha virt. eigenvalues --    1.81261   1.81396   1.81506   1.81636   1.82011
 Alpha virt. eigenvalues --    1.82225   1.82453   1.82595   1.82711   1.83119
 Alpha virt. eigenvalues --    1.83435   1.83598   1.83769   1.84127   1.84299
 Alpha virt. eigenvalues --    1.84398   1.84675   1.84973   1.85163   1.85429
 Alpha virt. eigenvalues --    1.85594   1.86033   1.86139   1.86321   1.86938
 Alpha virt. eigenvalues --    1.87218   1.87358   1.87541   1.87778   1.88017
 Alpha virt. eigenvalues --    1.88351   1.88746   1.89011   1.89109   1.89504
 Alpha virt. eigenvalues --    1.89587   1.89969   1.90120   1.90651   1.90889
 Alpha virt. eigenvalues --    1.91122   1.91482   1.91764   1.92070   1.92535
 Alpha virt. eigenvalues --    1.92849   1.93051   1.93341   1.93508   1.93815
 Alpha virt. eigenvalues --    1.94536   1.94807   1.95004   1.95467   1.95646
 Alpha virt. eigenvalues --    1.95698   1.96454   1.96823   1.97138   1.97584
 Alpha virt. eigenvalues --    1.97790   1.97881   1.98058   1.98544   1.98720
 Alpha virt. eigenvalues --    1.99072   1.99396   1.99519   1.99778   1.99965
 Alpha virt. eigenvalues --    2.00544   2.00589   2.00964   2.01356   2.01757
 Alpha virt. eigenvalues --    2.02050   2.02081   2.02495   2.02718   2.03282
 Alpha virt. eigenvalues --    2.03383   2.03575   2.03904   2.04342   2.04358
 Alpha virt. eigenvalues --    2.04686   2.05073   2.05172   2.05477   2.05796
 Alpha virt. eigenvalues --    2.06091   2.06428   2.06547   2.06899   2.07387
 Alpha virt. eigenvalues --    2.07523   2.08174   2.08412   2.09027   2.09594
 Alpha virt. eigenvalues --    2.09640   2.10290   2.11177   2.11473   2.11775
 Alpha virt. eigenvalues --    2.12291   2.12372   2.12551   2.12941   2.13552
 Alpha virt. eigenvalues --    2.13639   2.13934   2.14475   2.14604   2.15545
 Alpha virt. eigenvalues --    2.16311   2.16754   2.17039   2.17390   2.17481
 Alpha virt. eigenvalues --    2.17508   2.17932   2.18176   2.18304   2.18569
 Alpha virt. eigenvalues --    2.19296   2.20173   2.20203   2.20608   2.20716
 Alpha virt. eigenvalues --    2.21127   2.21574   2.22144   2.22302   2.22493
 Alpha virt. eigenvalues --    2.23113   2.23773   2.24511   2.24563   2.24974
 Alpha virt. eigenvalues --    2.25111   2.25954   2.26143   2.26545   2.26965
 Alpha virt. eigenvalues --    2.27580   2.27847   2.28480   2.28533   2.28763
 Alpha virt. eigenvalues --    2.29124   2.29413   2.30066   2.30151   2.30285
 Alpha virt. eigenvalues --    2.30662   2.30808   2.31444   2.31773   2.31996
 Alpha virt. eigenvalues --    2.32138   2.32370   2.32887   2.33530   2.34465
 Alpha virt. eigenvalues --    2.34661   2.34794   2.35264   2.35273   2.35359
 Alpha virt. eigenvalues --    2.35593   2.36244   2.36616   2.37048   2.37316
 Alpha virt. eigenvalues --    2.37534   2.37684   2.38414   2.38630   2.38855
 Alpha virt. eigenvalues --    2.39205   2.40197   2.40744   2.41109   2.41571
 Alpha virt. eigenvalues --    2.41947   2.42484   2.42801   2.42923   2.43574
 Alpha virt. eigenvalues --    2.43647   2.44464   2.44602   2.44955   2.45342
 Alpha virt. eigenvalues --    2.45669   2.46481   2.46807   2.46994   2.47216
 Alpha virt. eigenvalues --    2.47629   2.47913   2.48373   2.48999   2.49749
 Alpha virt. eigenvalues --    2.49938   2.50079   2.50245   2.50389   2.51123
 Alpha virt. eigenvalues --    2.51689   2.52372   2.52526   2.52873   2.52998
 Alpha virt. eigenvalues --    2.53818   2.54259   2.54421   2.54685   2.54733
 Alpha virt. eigenvalues --    2.55196   2.55790   2.56008   2.56268   2.56760
 Alpha virt. eigenvalues --    2.57196   2.57562   2.57870   2.59425   2.59758
 Alpha virt. eigenvalues --    2.59991   2.60447   2.60777   2.60963   2.61086
 Alpha virt. eigenvalues --    2.61965   2.62491   2.62968   2.63284   2.63953
 Alpha virt. eigenvalues --    2.63996   2.64201   2.64310   2.64595   2.65114
 Alpha virt. eigenvalues --    2.65420   2.65882   2.66120   2.66493   2.67012
 Alpha virt. eigenvalues --    2.67045   2.67565   2.68152   2.68576   2.69053
 Alpha virt. eigenvalues --    2.69456   2.69931   2.70723   2.71743   2.72132
 Alpha virt. eigenvalues --    2.72506   2.73236   2.74155   2.74414   2.74875
 Alpha virt. eigenvalues --    2.75669   2.76524   2.76849   2.77576   2.77993
 Alpha virt. eigenvalues --    2.78132   2.78350   2.78630   2.79023   2.79267
 Alpha virt. eigenvalues --    2.79599   2.79856   2.79932   2.80410   2.81014
 Alpha virt. eigenvalues --    2.81677   2.82159   2.82428   2.82772   2.82889
 Alpha virt. eigenvalues --    2.83239   2.83536   2.83804   2.83941   2.84359
 Alpha virt. eigenvalues --    2.84391   2.85059   2.85412   2.85708   2.85750
 Alpha virt. eigenvalues --    2.85926   2.86471   2.86543   2.86720   2.87087
 Alpha virt. eigenvalues --    2.87689   2.87930   2.88500   2.88624   2.88782
 Alpha virt. eigenvalues --    2.89502   2.89704   2.90396   2.90463   2.90721
 Alpha virt. eigenvalues --    2.91127   2.91233   2.91577   2.91879   2.92009
 Alpha virt. eigenvalues --    2.92282   2.92723   2.93026   2.93307   2.93477
 Alpha virt. eigenvalues --    2.93587   2.94317   2.94615   2.94948   2.94976
 Alpha virt. eigenvalues --    2.95374   2.95874   2.96889   2.97082   2.97768
 Alpha virt. eigenvalues --    2.98060   2.98410   2.98780   2.99233   2.99776
 Alpha virt. eigenvalues --    3.00142   3.00516   3.01043   3.01557   3.02266
 Alpha virt. eigenvalues --    3.03461   3.04321   3.04459   3.04893   3.05134
 Alpha virt. eigenvalues --    3.05670   3.05985   3.06509   3.07439   3.07999
 Alpha virt. eigenvalues --    3.10968   3.12336   3.13445   3.14766   3.16962
 Alpha virt. eigenvalues --    3.18895   3.19277   3.27135   3.30315   3.30921
 Alpha virt. eigenvalues --    3.31638   3.34904   3.36333   3.39890   3.40601
 Alpha virt. eigenvalues --    3.44849   3.48048   3.50954   3.51340   3.55647
 Alpha virt. eigenvalues --    3.61068   3.62665
          Condensed to atoms (all electrons):
 Mulliken charges:
               1
     1  Mg   0.693770
     2  C    0.011124
     3  C   -0.042423
     4  C   -0.040179
     5  C   -0.096287
     6  N   -0.191480
     7  C   -0.048241
     8  C   -0.043486
     9  C   -0.025033
    10  C    0.036721
    11  C    0.115907
    12  C    0.088921
    13  C    0.176931
    14  C    0.082215
    15  O   -0.208292
    16  O   -0.285740
    17  N   -0.299988
    18  C    0.113402
    19  C   -0.156381
    20  C    0.025180
    21  C    0.088520
    22  C    0.195174
    23  C   -0.075663
    24  O   -0.178676
    25  C    0.132790
    26  N   -0.199143
    27  C   -0.012259
    28  C    0.043148
    29  C    0.035447
    30  C    0.057768
    31  C    0.153240
    32  C    0.033836
    33  C    0.058653
    34  N   -0.305592
    35  C    0.123154
    36  C   -0.177563
    37  C    0.117698
    38  C    0.062808
    39  C    0.177098
    40  C   -0.068581
    41  O   -0.089659
    42  C    0.044820
    43  C    0.101425
    44  O   -0.177450
    45  O   -0.210835
    46  C    0.230901
    47  C    0.339372
    48  C   -0.119382
    49  C   -0.137619
    50  C    0.163118
    51  C    0.107793
    52  C    0.125731
    53  C    0.058510
    54  C   -0.094295
    55  C    0.136549
    56  C    0.107795
    57  C    0.109710
    58  C    0.079167
    59  C   -0.064933
    60  C    0.136253
    61  C    0.049497
    62  C    0.051050
    63  C    0.144454
    64  C   -0.122649
    65  C    0.115190
    66  C    0.093839
    67  H   -0.071370
    68  H   -0.029804
    69  H   -0.059817
    70  H    0.029676
    71  H   -0.017639
    72  H    0.002990
    73  H   -0.006381
    74  H    0.016603
    75  H   -0.020926
    76  H   -0.008679
    77  H   -0.008972
    78  H    0.014758
    79  H   -0.000219
    80  H   -0.008915
    81  H   -0.008030
    82  H    0.013274
    83  H   -0.018833
    84  H    0.015666
    85  H   -0.027280
    86  H   -0.035402
    87  H   -0.001072
    88  H   -0.011158
    89  H   -0.010823
    90  H   -0.015756
    91  H   -0.028900
    92  H    0.006142
    93  H   -0.009966
    94  H    0.000460
    95  H   -0.012524
    96  H    0.008331
    97  H    0.002384
    98  H   -0.016704
    99  H    0.009352
   100  H    0.005173
   101  H   -0.011430
   102  H    0.001338
   103  H   -0.034688
   104  H   -0.033420
   105  H    0.003555
   106  H   -0.000715
   107  H    0.004458
   108  H   -0.055947
   109  H   -0.043200
   110  H   -0.017798
   111  H   -0.029797
   112  H   -0.042798
   113  H   -0.046957
   114  H   -0.034153
   115  H   -0.019420
   116  H   -0.018329
   117  H   -0.019750
   118  H   -0.055864
   119  H   -0.038833
   120  H   -0.034844
   121  H   -0.027721
   122  H   -0.043802
   123  H   -0.038023
   124  H   -0.038831
   125  H   -0.025199
   126  H   -0.019101
   127  H   -0.006913
   128  H   -0.023938
   129  H   -0.032260
   130  H   -0.009814
   131  H   -0.022855
   132  H   -0.038788
   133  H   -0.042583
   134  H   -0.025280
   135  H   -0.020251
   136  H   -0.017642
   137  H   -0.008855
   138  H   -0.036017
   139  H   -0.013908
   140  H   -0.022117
 Sum of Mulliken charges =  -0.00000
 Mulliken charges with hydrogens summed into heavy atoms:
               1
     1  Mg   0.693770
     2  C    0.011124
     3  C   -0.113793
     4  C   -0.069984
     5  C   -0.156104
     6  N   -0.191480
     7  C   -0.048241
     8  C   -0.013810
     9  C   -0.042672
    10  C    0.036721
    11  C    0.129119
    12  C    0.059316
    13  C    0.182717
    14  C    0.082215
    15  O   -0.208292
    16  O   -0.285740
    17  N   -0.299988
    18  C    0.113402
    19  C   -0.156381
    20  C    0.025180
    21  C    0.088520
    22  C    0.178009
    23  C   -0.075663
    24  O   -0.178676
    25  C    0.142898
    26  N   -0.199143
    27  C   -0.012259
    28  C    0.015868
    29  C    0.000045
    30  C    0.057768
    31  C    0.130188
    32  C   -0.010820
    33  C    0.055289
    34  N   -0.305592
    35  C    0.123154
    36  C   -0.177563
    37  C    0.117698
    38  C    0.062808
    39  C    0.175289
    40  C   -0.068581
    41  O   -0.089659
    42  C    0.028116
    43  C    0.101425
    44  O   -0.177450
    45  O   -0.210835
    46  C    0.233996
    47  C    0.306021
    48  C   -0.152802
    49  C   -0.137619
    50  C    0.170416
    51  C    0.008646
    52  C    0.078135
    53  C   -0.031245
    54  C   -0.128448
    55  C    0.079050
    56  C    0.013098
    57  C    0.047146
    58  C   -0.002658
    59  C   -0.103763
    60  C    0.085038
    61  C   -0.006702
    62  C    0.018381
    63  C    0.063084
    64  C   -0.147929
    65  C    0.068442
    66  C    0.021798
 Electronic spatial extent (au):  <R**2>=         117270.8972
 Charge=             -0.0000 electrons
 Dipole moment (field-independent basis, Debye):
    X=             -4.4297    Y=              0.5033    Z=              1.3150  Tot=              4.6481
 Quadrupole moment (field-independent basis, Debye-Ang):
   XX=           -380.6738   YY=           -434.3544   ZZ=           -399.0927
   XY=              8.6023   XZ=              8.2272   YZ=              2.8763
 Traceless Quadrupole moment (field-independent basis, Debye-Ang):
   XX=             24.0331   YY=            -29.6474   ZZ=              5.6143
   XY=              8.6023   XZ=              8.2272   YZ=              2.8763
 Octapole moment (field-independent basis, Debye-Ang**2):
  XXX=            307.2228  YYY=           -183.8648  ZZZ=             -0.3054  XYY=           -277.4653
  XXY=            -41.0093  XXZ=             14.2942  XZZ=             32.2645  YZZ=            -40.4166
  YYZ=            -56.9429  XYZ=             48.2829
 Hexadecapole moment (field-independent basis, Debye-Ang**3):
 XXXX=        -125126.8297 YYYY=         -30034.8704 ZZZZ=          -4939.2334 XXXY=            656.4117
 XXXZ=            176.5612 YYYX=           -768.8928 YYYZ=            540.6179 ZZZX=             33.0365
 ZZZY=            -60.6453 XXYY=         -27494.8893 XXZZ=         -22362.5200 YYZZ=          -5437.5661
 XXYZ=            184.5446 YYXZ=           -136.5820 ZZXY=            -16.7757
 N-N= 9.617886250293D+03 E-N=-2.623207838908D+04  KE= 2.977852550878D+03
 Leave Link  601 at Wed May  4 18:53:41 2022, MaxMem= 10066329600 cpu:              13.1 elap:               0.6
 (Enter /sw/apps/gaussian-16.0/g16/l9999.exe)
 1\1\GINC-BP1-COMPUTE164\SP\RBLYP TD-FC\def2SVP\C55H74Mg1N4O6\OF15641\0
 4-May-2022\0\\#p blyp/Def2SVP td=(nstates=5)\\step_251_chromophore_24 
 TDDFT with blyp functional\\0,1\Mg,0,-0.437,44.186,24.825\C,0,1.434,43
 .801,27.727\C,0,-3.182,43.128,26.591\C,0,-2.256,44.31,21.894\C,0,2.466
 ,44.703,22.966\N,0,-0.821,43.638,26.941\C,0,0.041,43.653,27.972\C,0,-0
 .601,43.417,29.359\C,0,-2.064,42.961,28.94\C,0,-2.049,43.21,27.356\C,0
 ,-2.282,41.47,29.382\C,0,-0.536,44.82,30.155\C,0,0.124,44.79,31.565\C,
 0,0.166,43.363,32.222\O,0,1.156,42.609,32.28\O,0,-1.082,42.941,32.698\
 N,0,-2.405,43.722,24.252\C,0,-3.412,43.377,25.177\C,0,-4.692,43.407,24
 .502\C,0,-4.45,43.691,23.152\C,0,-2.978,44.009,23.044\C,0,-5.959,42.85
 9,25.174\C,0,-5.472,43.73,21.985\O,0,-5.197,43.996,20.8\C,0,-6.957,43.
 498,22.313\N,0,0.099,44.393,22.731\C,0,-0.908,44.467,21.721\C,0,-0.261
 ,44.514,20.321\C,0,1.236,44.926,20.706\C,0,1.266,44.704,22.241\C,0,-0.
 474,43.183,19.619\C,0,1.529,46.446,20.357\C,0,0.657,47.664,20.816\N,0,
 1.536,44.172,25.194\C,0,2.632,44.38,24.351\C,0,3.831,44.316,25.122\C,0
 ,3.427,44.139,26.433\C,0,2.023,43.949,26.438\C,0,5.257,44.369,24.613\C
 ,0,3.897,44.019,27.756\O,0,5.03,43.965,28.115\C,0,2.621,43.676,28.631\
 C,0,2.82,42.268,29.12\O,0,2.222,41.307,28.683\O,0,3.773,42.301,30.059\
 C,0,4.377,41.012,30.292\C,0,-1.179,41.614,33.305\C,0,-2.334,41.356,34.
 167\C,0,-2.495,41.533,35.472\C,0,-1.598,42.275,36.443\C,0,-3.797,41.02
 2,36.131\C,0,-5.039,41.756,35.826\C,0,-6.116,40.973,35.101\C,0,-7.548,
 41.135,35.706\C,0,-8.145,42.424,35.244\C,0,-8.444,39.897,35.437\C,0,-9
 .091,39.319,36.711\C,0,-10.575,39.638,36.797\C,0,-11.162,39.855,38.276
 \C,0,-11.859,38.612,38.831\C,0,-12.038,41.128,38.348\C,0,-11.369,42.44
 8,37.761\C,0,-11.806,43.751,38.446\C,0,-13.271,44.09,38.019\C,0,-13.32
 2,45.425,37.207\C,0,-14.277,44.156,39.158\H,0,-4.077,42.871,27.161\H,0
 ,-2.791,44.11,20.964\H,0,3.386,44.852,22.396\H,0,-0.099,42.677,29.982\
 H,0,-2.869,43.574,29.346\H,0,-2.774,40.836,28.644\H,0,-2.909,41.649,30
 .255\H,0,-1.32,41.107,29.743\H,0,-1.542,45.239,30.147\H,0,0.042,45.503
 ,29.532\H,0,-0.529,45.47,32.111\H,0,1.139,45.184,31.607\H,0,-6.353,42.
 079,24.522\H,0,-6.719,43.641,25.202\H,0,-5.721,42.495,26.173\H,0,-7.06
 8,42.435,22.531\H,0,-7.491,43.661,21.377\H,0,-7.303,44.269,23.001\H,0,
 -0.72,45.376,19.836\H,0,1.942,44.368,20.092\H,0,-1.382,42.671,19.938\H
 ,0,0.369,42.516,19.798\H,0,-0.613,43.329,18.548\H,0,1.659,46.516,19.27
 7\H,0,2.469,46.628,20.878\H,0,-0.126,47.821,20.074\H,0,1.34,48.514,20.
 838\H,0,0.276,47.625,21.837\H,0,5.474,45.3,24.089\H,0,5.311,43.538,23.
 91\H,0,6.032,44.403,25.38\H,0,2.44,44.276,29.523\H,0,5.422,41.062,30.5
 97\H,0,4.252,40.186,29.592\H,0,3.939,40.474,31.133\H,0,-0.307,41.188,3
 3.802\H,0,-1.334,40.913,32.485\H,0,-2.976,40.592,33.729\H,0,-2.262,42.
 993,36.925\H,0,-0.726,42.747,35.989\H,0,-1.275,41.534,37.174\H,0,-3.61
 6,40.855,37.193\H,0,-4.047,39.976,35.954\H,0,-4.827,42.606,35.177\H,0,
 -5.418,42.056,36.803\H,0,-5.869,39.933,34.885\H,0,-6.13,41.328,34.07\H
 ,0,-7.334,41.221,36.771\H,0,-8.456,42.928,36.159\H,0,-9.022,42.275,34.
 614\H,0,-7.479,43.111,34.721\H,0,-7.815,39.101,35.039\H,0,-9.068,40.11
 7,34.57\H,0,-8.525,39.801,37.508\H,0,-8.914,38.243,36.726\H,0,-11.096,
 38.837,36.272\H,0,-10.843,40.474,36.152\H,0,-10.303,40.177,38.864\H,0,
 -12.938,38.761,38.887\H,0,-11.532,38.597,39.87\H,0,-11.7,37.652,38.338
 \H,0,-12.486,41.294,39.327\H,0,-12.801,40.762,37.661\H,0,-11.605,42.52
 5,36.7\H,0,-10.291,42.31,37.844\H,0,-11.136,44.583,38.231\H,0,-11.887,
 43.697,39.532\H,0,-13.687,43.243,37.472\H,0,-13.739,46.254,37.78\H,0,-
 14.12,45.259,36.483\H,0,-12.321,45.693,36.869\H,0,-15.01,44.951,39.022
 \H,0,-13.93,44.337,40.175\H,0,-14.881,43.251,39.091\\Version=ES64L-G16
 RevA.03\State=1-A\HF=-3007.3622904\RMSD=8.394e-09\PG=C01 [X(C55H74Mg1N
 4O6)]\\@


 THAT'S WHAT MAKES US A GREAT COUNTRY.
 THE LITTLE THINGS ARE SERIOUS AND THE BIG ONES ARE NOT.
           WILL ROGERS
 Job cpu time:       0 days  7 hours 47 minutes 21.5 seconds.
 Elapsed time:       0 days  0 hours 19 minutes 31.4 seconds.
 File lengths (MBytes):  RWF=   8028 Int=      0 D2E=      0 Chk=    390 Scr=      1
 Normal termination of Gaussian 16 at Wed May  4 18:53:41 2022.
