 Entering Gaussian System, Link 0=g16
 Initial command:
 /sw/apps/gaussian-16.0/g16/l1.exe "/tmp/Gau-127909.inp" -scrdir="/tmp/"
 Entering Link 1 = /sw/apps/gaussian-16.0/g16/l1.exe PID=    127910.
  
 Copyright (c) 1988,1990,1992,1993,1995,1998,2003,2009,2016,
            Gaussian, Inc.  All Rights Reserved.
  
 This is part of the Gaussian(R) 16 program.  It is based on
 the Gaussian(R) 09 system (copyright 2009, Gaussian, Inc.),
 the Gaussian(R) 03 system (copyright 2003, Gaussian, Inc.),
 the Gaussian(R) 98 system (copyright 1998, Gaussian, Inc.),
 the Gaussian(R) 94 system (copyright 1995, Gaussian, Inc.),
 the Gaussian 92(TM) system (copyright 1992, Gaussian, Inc.),
 the Gaussian 90(TM) system (copyright 1990, Gaussian, Inc.),
 the Gaussian 88(TM) system (copyright 1988, Gaussian, Inc.),
 the Gaussian 86(TM) system (copyright 1986, Carnegie Mellon
 University), and the Gaussian 82(TM) system (copyright 1983,
 Carnegie Mellon University). Gaussian is a federally registered
 trademark of Gaussian, Inc.
  
 This software contains proprietary and confidential information,
 including trade secrets, belonging to Gaussian, Inc.
  
 This software is provided under written license and may be
 used, copied, transmitted, or stored only in accord with that
 written license.
  
 The following legend is applicable only to US Government
 contracts under FAR:
  
                    RESTRICTED RIGHTS LEGEND
  
 Use, reproduction and disclosure by the US Government is
 subject to restrictions as set forth in subparagraphs (a)
 and (c) of the Commercial Computer Software - Restricted
 Rights clause in FAR 52.227-19.
  
 Gaussian, Inc.
 340 Quinnipiac St., Bldg. 40, Wallingford CT 06492
  
  
 ---------------------------------------------------------------
 Warning -- This program may not be used in any manner that
 competes with the business of Gaussian, Inc. or will provide
 assistance to any competitor of Gaussian, Inc.  The licensee
 of this program is prohibited from giving any competitor of
 Gaussian, Inc. access to this program.  By using this program,
 the user acknowledges that Gaussian, Inc. is engaged in the
 business of creating and licensing software in the field of
 computational chemistry and represents and warrants to the
 licensee that it is not a competitor of Gaussian, Inc. and that
 it will not use this program in any manner prohibited above.
 ---------------------------------------------------------------
  

 Cite this work as:
 Gaussian 16, Revision A.03,
 M. J. Frisch, G. W. Trucks, H. B. Schlegel, G. E. Scuseria, 
 M. A. Robb, J. R. Cheeseman, G. Scalmani, V. Barone, 
 G. A. Petersson, H. Nakatsuji, X. Li, M. Caricato, A. V. Marenich, 
 J. Bloino, B. G. Janesko, R. Gomperts, B. Mennucci, H. P. Hratchian, 
 J. V. Ortiz, A. F. Izmaylov, J. L. Sonnenberg, D. Williams-Young, 
 F. Ding, F. Lipparini, F. Egidi, J. Goings, B. Peng, A. Petrone, 
 T. Henderson, D. Ranasinghe, V. G. Zakrzewski, J. Gao, N. Rega, 
 G. Zheng, W. Liang, M. Hada, M. Ehara, K. Toyota, R. Fukuda, 
 J. Hasegawa, M. Ishida, T. Nakajima, Y. Honda, O. Kitao, H. Nakai, 
 T. Vreven, K. Throssell, J. A. Montgomery, Jr., J. E. Peralta, 
 F. Ogliaro, M. J. Bearpark, J. J. Heyd, E. N. Brothers, K. N. Kudin, 
 V. N. Staroverov, T. A. Keith, R. Kobayashi, J. Normand, 
 K. Raghavachari, A. P. Rendell, J. C. Burant, S. S. Iyengar, 
 J. Tomasi, M. Cossi, J. M. Millam, M. Klene, C. Adamo, R. Cammi, 
 J. W. Ochterski, R. L. Martin, K. Morokuma, O. Farkas, 
 J. B. Foresman, and D. J. Fox, Gaussian, Inc., Wallingford CT, 2016.
 
 ******************************************
 Gaussian 16:  ES64L-G16RevA.03 25-Dec-2016
                 5-May-2022 
 ******************************************
 %nproc=24
 Will use up to   24 processors via shared memory.
 %mem=75GB
 -----------------------------------
 #p cam-b3lyp/Def2SVP td=(nstates=5)
 -----------------------------------
 1/38=1,172=1/1;
 2/12=2,17=6,18=5,40=1/2;
 3/5=43,7=101,11=9,25=1,30=1,74=-40/1,2,3,8;
 4//1;
 5/5=2,38=5/2;
 8/6=1,10=1,108=5/1;
 9/41=5,42=1,70=2/14;
 6/7=2,8=2,9=2,10=2/1;
 99/5=1,9=1/99;
 Leave Link    1 at Thu May  5 01:42:20 2022, MaxMem= 10066329600 cpu:               0.8 elap:               0.0
 (Enter /sw/apps/gaussian-16.0/g16/l101.exe)
 -----------------------------------------------------
 step_51_chromophore_3 TDDFT with cam-b3lyp functional
 -----------------------------------------------------
 Symbolic Z-matrix:
 Charge =  0 Multiplicity = 1
 Mg                    1.056     7.951     26.056 
 C                     1.734     10.066    28.731 
 C                     1.605     5.278     28.159 
 C                     0.625     5.728     23.456 
 C                     1.205     10.609    23.894 
 N                     1.766     7.641     28.079 
 C                     1.82      8.675     29.043 
 C                     1.928     8.089     30.417 
 C                     2.143     6.577     30.176 
 C                     1.872     6.469     28.731 
 C                     3.529     5.998     30.517 
 C                     0.725     8.472     31.392 
 C                     1.165     9.089     32.704 
 C                     2.139     8.292     33.58 
 O                     3.32      8.507     33.762 
 O                     1.495     7.091     34.024 
 N                     0.918     5.768     25.862 
 C                     1.147     4.888     26.913 
 C                     0.879     3.521     26.428 
 C                     0.602     3.657     24.998 
 C                     0.777     5.086     24.712 
 C                     1.024     2.27      27.331 
 C                     0.331     2.532     23.959 
 O                     0.195     2.776     22.784 
 C                     0.185     1.035     24.289 
 N                     0.803     8.121     24.006 
 C                     0.61      7.109     23.126 
 C                     0.487     7.619     21.731 
 C                     0.291     9.155     21.949 
 C                     0.856     9.363     23.343 
 C                     1.733     7.229     20.848 
 C                    -1.138     9.86      21.711 
 C                    -1.078     10.949    20.601 
 N                     1.431     9.984     26.218 
 C                     1.478     10.943    25.229 
 C                     1.689     12.205    25.883 
 C                     1.796     11.877    27.258 
 C                     1.595     10.548    27.401 
 C                     1.791     13.548    25.174 
 C                     2.037     12.506    28.566 
 O                     2.312     13.579    28.92 
 C                     1.988     11.313    29.657 
 C                     3.254     11.319    30.367 
 O                     4.351     11.045    29.881 
 O                     3.132     11.841    31.632 
 C                     4.25      11.971    32.576 
 C                     2.344     6.21      34.875 
 C                     1.473     5.28      35.649 
 C                     1.668     4.876     36.946 
 C                     2.761     5.404     37.892 
 C                     0.712     3.827     37.44 
 C                     1.275     2.398     37.206 
 C                     0.201     1.3       37.31 
 C                    -0.041     0.903     38.857 
 C                    -1.523     0.673     38.935 
 C                     0.798    -0.433     39.164 
 C                     2.091    -0.112     39.955 
 C                     3.358    -0.237     39.072 
 C                     4.198    -1.497     39.317 
 C                     3.577    -2.851     39.063 
 C                     4.842    -1.432     40.678 
 C                     6.361    -1.755     40.728 
 C                     7.176    -0.475     40.879 
 C                     8.631    -0.555     40.53 
 C                     9.521    -0.472     41.828 
 C                     9.008     0.485     39.408 
 H                     1.66      4.477     28.899 
 H                     0.456     5.134     22.556 
 H                     1.148     11.498    23.262 
 H                     2.887     8.512     30.72 
 H                     1.386     5.978     30.683 
 H                     4.136     5.77      29.641 
 H                     3.269     5.13      31.124 
 H                     3.98      6.735     31.181 
 H                     0.078     7.595     31.402 
 H                     0.058     9.267     31.057 
 H                     0.239     9.257     33.254 
 H                     1.592     10.041    32.39 
 H                     1.566     1.469     26.828 
 H                     0.024     1.896     27.553 
 H                     1.475     2.548     28.283 
 H                    -0.346     0.553     23.468 
 H                    -0.41      0.922     25.195 
 H                     1.112     0.466     24.36 
 H                    -0.465     7.268     21.333 
 H                     0.954     9.723     21.297 
 H                     1.303     6.503     20.158 
 H                     2.477     6.792     21.515 
 H                     2.176     8.093     20.354 
 H                    -1.555     10.258    22.636 
 H                    -1.853     9.154     21.29 
 H                    -0.648     10.514    19.698 
 H                    -0.575     11.843    20.969 
 H                    -2.103     11.252    20.387 
 H                     1.412     13.479    24.154 
 H                     2.823     13.891    25.249 
 H                     1.086     14.204    25.684 
 H                     1.216     11.459    30.413 
 H                     4.963     12.726    32.243 
 H                     4.808     11.035    32.604 
 H                     3.865     12.428    33.488 
 H                     2.675     6.96      35.594 
 H                     3.209     5.769     34.379 
 H                     0.66      4.934     35.01 
 H                     3.669     4.809     37.79 
 H                     2.442     5.335     38.932 
 H                     2.94      6.458     37.681 
 H                    -0.209     4.097     36.925 
 H                     0.457     3.885     38.499 
 H                     1.962     2.325     38.049 
 H                     1.909     2.35      36.32 
 H                     0.412     0.479     36.624 
 H                    -0.692     1.754     36.881 
 H                     0.293     1.749     39.458 
 H                    -2.123     0.901     38.054 
 H                    -1.983     1.105     39.823 
 H                    -1.732    -0.392     39.039 
 H                     0.992    -0.871     38.185 
 H                     0.201    -1.162     39.712 
 H                     2.209    -0.872     40.728 
 H                     2.113     0.87      40.429 
 H                     4.028     0.619     39.15 
 H                     3.224    -0.225     37.99 
 H                     5.011    -1.454     38.593 
 H                     4.361    -3.589     39.233 
 H                     3.139    -2.963     38.071 
 H                     2.796    -3.124     39.773 
 H                     4.419    -2.177     41.353 
 H                     4.604    -0.439     41.059 
 H                     6.76     -2.456     39.995 
 H                     6.406    -2.214     41.715 
 H                     7.074    -0.167     41.92 
 H                     6.706     0.28      40.249 
 H                     8.816    -1.539     40.098 
 H                     9.247     0.509     42.216 
 H                     10.579   -0.426     41.569 
 H                     9.47     -1.281     42.557 
 H                     9.824     1.163     39.661 
 H                     8.216     1.172     39.111 
 H                     9.279    -0.109     38.535 
 
 ITRead=  0  0  0  0  0  0  0  0  0  0  0  0  0  0  0  0  0  0  0  0
 ITRead=  0  0  0  0  0  0  0  0  0  0  0  0  0  0  0  0  0  0  0  0
 ITRead=  0  0  0  0  0  0  0  0  0  0  0  0  0  0  0  0  0  0  0  0
 ITRead=  0  0  0  0  0  0  0  0  0  0  0  0  0  0  0  0  0  0  0  0
 ITRead=  0  0  0  0  0  0  0  0  0  0  0  0  0  0  0  0  0  0  0  0
 ITRead=  0  0  0  0  0  0  0  0  0  0  0  0  0  0  0  0  0  0  0  0
 ITRead=  0  0  0  0  0  0  0  0  0  0  0  0  0  0  0  0  0  0  0  0
 MicOpt= -1 -1 -1 -1 -1 -1 -1 -1 -1 -1 -1 -1 -1 -1 -1 -1 -1 -1 -1 -1
 MicOpt= -1 -1 -1 -1 -1 -1 -1 -1 -1 -1 -1 -1 -1 -1 -1 -1 -1 -1 -1 -1
 MicOpt= -1 -1 -1 -1 -1 -1 -1 -1 -1 -1 -1 -1 -1 -1 -1 -1 -1 -1 -1 -1
 MicOpt= -1 -1 -1 -1 -1 -1 -1 -1 -1 -1 -1 -1 -1 -1 -1 -1 -1 -1 -1 -1
 MicOpt= -1 -1 -1 -1 -1 -1 -1 -1 -1 -1 -1 -1 -1 -1 -1 -1 -1 -1 -1 -1
 MicOpt= -1 -1 -1 -1 -1 -1 -1 -1 -1 -1 -1 -1 -1 -1 -1 -1 -1 -1 -1 -1
 MicOpt= -1 -1 -1 -1 -1 -1 -1 -1 -1 -1 -1 -1 -1 -1 -1 -1 -1 -1 -1 -1
 NAtoms=    140 NQM=      140 NQMF=       0 NMMI=      0 NMMIF=      0
                NMic=       0 NMicF=      0.
                    Isotopes and Nuclear Properties:
 (Nuclear quadrupole moments (NQMom) in fm**2, nuclear magnetic moments (NMagM)
  in nuclear magnetons)

  Atom         1           2           3           4           5           6           7           8           9          10
 IAtWgt=          24          12          12          12          12          14          12          12          12          12
 AtmWgt=  23.9850450  12.0000000  12.0000000  12.0000000  12.0000000  14.0030740  12.0000000  12.0000000  12.0000000  12.0000000
 NucSpn=           0           0           0           0           0           2           0           0           0           0
 AtZEff=  -0.0000000  -0.0000000  -0.0000000  -0.0000000  -0.0000000  -0.0000000  -0.0000000  -0.0000000  -0.0000000  -0.0000000
 NQMom=    0.0000000   0.0000000   0.0000000   0.0000000   0.0000000   2.0440000   0.0000000   0.0000000   0.0000000   0.0000000
 NMagM=    0.0000000   0.0000000   0.0000000   0.0000000   0.0000000   0.4037610   0.0000000   0.0000000   0.0000000   0.0000000
 AtZNuc=  12.0000000   6.0000000   6.0000000   6.0000000   6.0000000   7.0000000   6.0000000   6.0000000   6.0000000   6.0000000

  Atom        11          12          13          14          15          16          17          18          19          20
 IAtWgt=          12          12          12          12          16          16          14          12          12          12
 AtmWgt=  12.0000000  12.0000000  12.0000000  12.0000000  15.9949146  15.9949146  14.0030740  12.0000000  12.0000000  12.0000000
 NucSpn=           0           0           0           0           0           0           2           0           0           0
 AtZEff=  -0.0000000  -0.0000000  -0.0000000  -0.0000000  -0.0000000  -0.0000000  -0.0000000  -0.0000000  -0.0000000  -0.0000000
 NQMom=    0.0000000   0.0000000   0.0000000   0.0000000   0.0000000   0.0000000   2.0440000   0.0000000   0.0000000   0.0000000
 NMagM=    0.0000000   0.0000000   0.0000000   0.0000000   0.0000000   0.0000000   0.4037610   0.0000000   0.0000000   0.0000000
 AtZNuc=   6.0000000   6.0000000   6.0000000   6.0000000   8.0000000   8.0000000   7.0000000   6.0000000   6.0000000   6.0000000

  Atom        21          22          23          24          25          26          27          28          29          30
 IAtWgt=          12          12          12          16          12          14          12          12          12          12
 AtmWgt=  12.0000000  12.0000000  12.0000000  15.9949146  12.0000000  14.0030740  12.0000000  12.0000000  12.0000000  12.0000000
 NucSpn=           0           0           0           0           0           2           0           0           0           0
 AtZEff=  -0.0000000  -0.0000000  -0.0000000  -0.0000000  -0.0000000  -0.0000000  -0.0000000  -0.0000000  -0.0000000  -0.0000000
 NQMom=    0.0000000   0.0000000   0.0000000   0.0000000   0.0000000   2.0440000   0.0000000   0.0000000   0.0000000   0.0000000
 NMagM=    0.0000000   0.0000000   0.0000000   0.0000000   0.0000000   0.4037610   0.0000000   0.0000000   0.0000000   0.0000000
 AtZNuc=   6.0000000   6.0000000   6.0000000   8.0000000   6.0000000   7.0000000   6.0000000   6.0000000   6.0000000   6.0000000

  Atom        31          32          33          34          35          36          37          38          39          40
 IAtWgt=          12          12          12          14          12          12          12          12          12          12
 AtmWgt=  12.0000000  12.0000000  12.0000000  14.0030740  12.0000000  12.0000000  12.0000000  12.0000000  12.0000000  12.0000000
 NucSpn=           0           0           0           2           0           0           0           0           0           0
 AtZEff=  -0.0000000  -0.0000000  -0.0000000  -0.0000000  -0.0000000  -0.0000000  -0.0000000  -0.0000000  -0.0000000  -0.0000000
 NQMom=    0.0000000   0.0000000   0.0000000   2.0440000   0.0000000   0.0000000   0.0000000   0.0000000   0.0000000   0.0000000
 NMagM=    0.0000000   0.0000000   0.0000000   0.4037610   0.0000000   0.0000000   0.0000000   0.0000000   0.0000000   0.0000000
 AtZNuc=   6.0000000   6.0000000   6.0000000   7.0000000   6.0000000   6.0000000   6.0000000   6.0000000   6.0000000   6.0000000

  Atom        41          42          43          44          45          46          47          48          49          50
 IAtWgt=          16          12          12          16          16          12          12          12          12          12
 AtmWgt=  15.9949146  12.0000000  12.0000000  15.9949146  15.9949146  12.0000000  12.0000000  12.0000000  12.0000000  12.0000000
 NucSpn=           0           0           0           0           0           0           0           0           0           0
 AtZEff=  -0.0000000  -0.0000000  -0.0000000  -0.0000000  -0.0000000  -0.0000000  -0.0000000  -0.0000000  -0.0000000  -0.0000000
 NQMom=    0.0000000   0.0000000   0.0000000   0.0000000   0.0000000   0.0000000   0.0000000   0.0000000   0.0000000   0.0000000
 NMagM=    0.0000000   0.0000000   0.0000000   0.0000000   0.0000000   0.0000000   0.0000000   0.0000000   0.0000000   0.0000000
 AtZNuc=   8.0000000   6.0000000   6.0000000   8.0000000   8.0000000   6.0000000   6.0000000   6.0000000   6.0000000   6.0000000

  Atom        51          52          53          54          55          56          57          58          59          60
 IAtWgt=          12          12          12          12          12          12          12          12          12          12
 AtmWgt=  12.0000000  12.0000000  12.0000000  12.0000000  12.0000000  12.0000000  12.0000000  12.0000000  12.0000000  12.0000000
 NucSpn=           0           0           0           0           0           0           0           0           0           0
 AtZEff=  -0.0000000  -0.0000000  -0.0000000  -0.0000000  -0.0000000  -0.0000000  -0.0000000  -0.0000000  -0.0000000  -0.0000000
 NQMom=    0.0000000   0.0000000   0.0000000   0.0000000   0.0000000   0.0000000   0.0000000   0.0000000   0.0000000   0.0000000
 NMagM=    0.0000000   0.0000000   0.0000000   0.0000000   0.0000000   0.0000000   0.0000000   0.0000000   0.0000000   0.0000000
 AtZNuc=   6.0000000   6.0000000   6.0000000   6.0000000   6.0000000   6.0000000   6.0000000   6.0000000   6.0000000   6.0000000

  Atom        61          62          63          64          65          66          67          68          69          70
 IAtWgt=          12          12          12          12          12          12           1           1           1           1
 AtmWgt=  12.0000000  12.0000000  12.0000000  12.0000000  12.0000000  12.0000000   1.0078250   1.0078250   1.0078250   1.0078250
 NucSpn=           0           0           0           0           0           0           1           1           1           1
 AtZEff=  -0.0000000  -0.0000000  -0.0000000  -0.0000000  -0.0000000  -0.0000000  -0.0000000  -0.0000000  -0.0000000  -0.0000000
 NQMom=    0.0000000   0.0000000   0.0000000   0.0000000   0.0000000   0.0000000   0.0000000   0.0000000   0.0000000   0.0000000
 NMagM=    0.0000000   0.0000000   0.0000000   0.0000000   0.0000000   0.0000000   2.7928460   2.7928460   2.7928460   2.7928460
 AtZNuc=   6.0000000   6.0000000   6.0000000   6.0000000   6.0000000   6.0000000   1.0000000   1.0000000   1.0000000   1.0000000

  Atom        71          72          73          74          75          76          77          78          79          80
 IAtWgt=           1           1           1           1           1           1           1           1           1           1
 AtmWgt=   1.0078250   1.0078250   1.0078250   1.0078250   1.0078250   1.0078250   1.0078250   1.0078250   1.0078250   1.0078250
 NucSpn=           1           1           1           1           1           1           1           1           1           1
 AtZEff=  -0.0000000  -0.0000000  -0.0000000  -0.0000000  -0.0000000  -0.0000000  -0.0000000  -0.0000000  -0.0000000  -0.0000000
 NQMom=    0.0000000   0.0000000   0.0000000   0.0000000   0.0000000   0.0000000   0.0000000   0.0000000   0.0000000   0.0000000
 NMagM=    2.7928460   2.7928460   2.7928460   2.7928460   2.7928460   2.7928460   2.7928460   2.7928460   2.7928460   2.7928460
 AtZNuc=   1.0000000   1.0000000   1.0000000   1.0000000   1.0000000   1.0000000   1.0000000   1.0000000   1.0000000   1.0000000

  Atom        81          82          83          84          85          86          87          88          89          90
 IAtWgt=           1           1           1           1           1           1           1           1           1           1
 AtmWgt=   1.0078250   1.0078250   1.0078250   1.0078250   1.0078250   1.0078250   1.0078250   1.0078250   1.0078250   1.0078250
 NucSpn=           1           1           1           1           1           1           1           1           1           1
 AtZEff=  -0.0000000  -0.0000000  -0.0000000  -0.0000000  -0.0000000  -0.0000000  -0.0000000  -0.0000000  -0.0000000  -0.0000000
 NQMom=    0.0000000   0.0000000   0.0000000   0.0000000   0.0000000   0.0000000   0.0000000   0.0000000   0.0000000   0.0000000
 NMagM=    2.7928460   2.7928460   2.7928460   2.7928460   2.7928460   2.7928460   2.7928460   2.7928460   2.7928460   2.7928460
 AtZNuc=   1.0000000   1.0000000   1.0000000   1.0000000   1.0000000   1.0000000   1.0000000   1.0000000   1.0000000   1.0000000

  Atom        91          92          93          94          95          96          97          98          99         100
 IAtWgt=           1           1           1           1           1           1           1           1           1           1
 AtmWgt=   1.0078250   1.0078250   1.0078250   1.0078250   1.0078250   1.0078250   1.0078250   1.0078250   1.0078250   1.0078250
 NucSpn=           1           1           1           1           1           1           1           1           1           1
 AtZEff=  -0.0000000  -0.0000000  -0.0000000  -0.0000000  -0.0000000  -0.0000000  -0.0000000  -0.0000000  -0.0000000  -0.0000000
 NQMom=    0.0000000   0.0000000   0.0000000   0.0000000   0.0000000   0.0000000   0.0000000   0.0000000   0.0000000   0.0000000
 NMagM=    2.7928460   2.7928460   2.7928460   2.7928460   2.7928460   2.7928460   2.7928460   2.7928460   2.7928460   2.7928460
 AtZNuc=   1.0000000   1.0000000   1.0000000   1.0000000   1.0000000   1.0000000   1.0000000   1.0000000   1.0000000   1.0000000

  Atom       101         102         103         104         105         106         107         108         109         110
 IAtWgt=           1           1           1           1           1           1           1           1           1           1
 AtmWgt=   1.0078250   1.0078250   1.0078250   1.0078250   1.0078250   1.0078250   1.0078250   1.0078250   1.0078250   1.0078250
 NucSpn=           1           1           1           1           1           1           1           1           1           1
 AtZEff=  -0.0000000  -0.0000000  -0.0000000  -0.0000000  -0.0000000  -0.0000000  -0.0000000  -0.0000000  -0.0000000  -0.0000000
 NQMom=    0.0000000   0.0000000   0.0000000   0.0000000   0.0000000   0.0000000   0.0000000   0.0000000   0.0000000   0.0000000
 NMagM=    2.7928460   2.7928460   2.7928460   2.7928460   2.7928460   2.7928460   2.7928460   2.7928460   2.7928460   2.7928460
 AtZNuc=   1.0000000   1.0000000   1.0000000   1.0000000   1.0000000   1.0000000   1.0000000   1.0000000   1.0000000   1.0000000

  Atom       111         112         113         114         115         116         117         118         119         120
 IAtWgt=           1           1           1           1           1           1           1           1           1           1
 AtmWgt=   1.0078250   1.0078250   1.0078250   1.0078250   1.0078250   1.0078250   1.0078250   1.0078250   1.0078250   1.0078250
 NucSpn=           1           1           1           1           1           1           1           1           1           1
 AtZEff=  -0.0000000  -0.0000000  -0.0000000  -0.0000000  -0.0000000  -0.0000000  -0.0000000  -0.0000000  -0.0000000  -0.0000000
 NQMom=    0.0000000   0.0000000   0.0000000   0.0000000   0.0000000   0.0000000   0.0000000   0.0000000   0.0000000   0.0000000
 NMagM=    2.7928460   2.7928460   2.7928460   2.7928460   2.7928460   2.7928460   2.7928460   2.7928460   2.7928460   2.7928460
 AtZNuc=   1.0000000   1.0000000   1.0000000   1.0000000   1.0000000   1.0000000   1.0000000   1.0000000   1.0000000   1.0000000

  Atom       121         122         123         124         125         126         127         128         129         130
 IAtWgt=           1           1           1           1           1           1           1           1           1           1
 AtmWgt=   1.0078250   1.0078250   1.0078250   1.0078250   1.0078250   1.0078250   1.0078250   1.0078250   1.0078250   1.0078250
 NucSpn=           1           1           1           1           1           1           1           1           1           1
 AtZEff=  -0.0000000  -0.0000000  -0.0000000  -0.0000000  -0.0000000  -0.0000000  -0.0000000  -0.0000000  -0.0000000  -0.0000000
 NQMom=    0.0000000   0.0000000   0.0000000   0.0000000   0.0000000   0.0000000   0.0000000   0.0000000   0.0000000   0.0000000
 NMagM=    2.7928460   2.7928460   2.7928460   2.7928460   2.7928460   2.7928460   2.7928460   2.7928460   2.7928460   2.7928460
 AtZNuc=   1.0000000   1.0000000   1.0000000   1.0000000   1.0000000   1.0000000   1.0000000   1.0000000   1.0000000   1.0000000

  Atom       131         132         133         134         135         136         137         138         139         140
 IAtWgt=           1           1           1           1           1           1           1           1           1           1
 AtmWgt=   1.0078250   1.0078250   1.0078250   1.0078250   1.0078250   1.0078250   1.0078250   1.0078250   1.0078250   1.0078250
 NucSpn=           1           1           1           1           1           1           1           1           1           1
 AtZEff=  -0.0000000  -0.0000000  -0.0000000  -0.0000000  -0.0000000  -0.0000000  -0.0000000  -0.0000000  -0.0000000  -0.0000000
 NQMom=    0.0000000   0.0000000   0.0000000   0.0000000   0.0000000   0.0000000   0.0000000   0.0000000   0.0000000   0.0000000
 NMagM=    2.7928460   2.7928460   2.7928460   2.7928460   2.7928460   2.7928460   2.7928460   2.7928460   2.7928460   2.7928460
 AtZNuc=   1.0000000   1.0000000   1.0000000   1.0000000   1.0000000   1.0000000   1.0000000   1.0000000   1.0000000   1.0000000
 Leave Link  101 at Thu May  5 01:42:20 2022, MaxMem= 10066329600 cpu:               3.7 elap:               0.2
 (Enter /sw/apps/gaussian-16.0/g16/l202.exe)
 Stoichiometry    C55H74MgN4O6
 Framework group  C1[X(C55H74MgN4O6)]
 Deg. of freedom   414
 Full point group                 C1      NOp   1
 Largest Abelian subgroup         C1      NOp   1
 Largest concise Abelian subgroup C1      NOp   1
                         Standard orientation:                         
 ---------------------------------------------------------------------
 Center     Atomic      Atomic             Coordinates (Angstroms)
 Number     Number       Type             X           Y           Z
 ---------------------------------------------------------------------
      1         12           0       -5.327253    0.648971    0.046988
      2          6           0       -3.972002   -2.543344   -0.199900
      3          6           0       -2.119575    1.885422    0.272667
      4          6           0       -6.520017    3.848907    0.521556
      5          6           0       -8.449277   -0.693141    0.508630
      6          7           0       -3.323884   -0.155098    0.227861
      7          6           0       -3.004615   -1.500883   -0.069289
      8          6           0       -1.527544   -1.644262   -0.270882
      9          6           0       -0.946840   -0.271469    0.139814
     10          6           0       -2.171833    0.538498    0.268174
     11          6           0       -0.116286   -0.215600    1.435799
     12          6           0       -1.108965   -2.169924   -1.717600
     13          6           0       -0.217091   -3.394562   -1.696259
     14          6           0        1.100046   -3.308617   -0.915858
     15          8           0        1.365953   -3.824002    0.150811
     16          8           0        1.951604   -2.338504   -1.538754
     17          7           0       -4.440459    2.654191    0.168885
     18          6           0       -3.070656    2.887361    0.195570
     19          6           0       -2.857782    4.346955    0.192724
     20          6           0       -4.191518    4.940314    0.288631
     21          6           0       -5.107535    3.798679    0.398367
     22          6           0       -1.446196    4.986083    0.212105
     23          6           0       -4.569568    6.444313    0.405481
     24          8           0       -5.713871    6.798388    0.559940
     25          6           0       -3.577259    7.618607    0.318416
     26          7           0       -7.200425    1.491126    0.325219
     27          6           0       -7.484710    2.808507    0.464793
     28          6           0       -8.944895    3.030330    0.664568
     29          6           0       -9.553498    1.643325    0.275910
     30          6           0       -8.367115    0.708856    0.433986
     31          6           0       -9.273898    3.511053    2.129139
     32          6           0      -10.366569    1.440415   -1.100117
     33          6           0      -11.836485    0.993178   -0.853240
     34          7           0       -6.123639   -1.261346    0.175117
     35          6           0       -7.428939   -1.648720    0.389931
     36          6           0       -7.456821   -3.082819    0.303541
     37          6           0       -6.106382   -3.449560    0.076660
     38          6           0       -5.366056   -2.323660   -0.029911
     39          6           0       -8.703436   -3.941640    0.462006
     40          6           0       -5.260440   -4.641243   -0.093219
     41          8           0       -5.438330   -5.788213   -0.021904
     42          6           0       -3.753338   -4.097684   -0.314852
     43          6           0       -2.919808   -4.691238    0.714620
     44          8           0       -2.995960   -4.461094    1.921234
     45          8           0       -2.124407   -5.695036    0.217309
     46          6           0       -1.180358   -6.471841    1.031745
     47          6           0        3.265937   -2.142426   -0.864036
     48          6           0        4.222562   -1.510061   -1.816717
     49          6           0        5.560379   -1.793804   -1.931544
     50          6           0        6.305153   -2.910491   -1.178770
     51          6           0        6.322047   -0.912902   -2.881410
     52          6           0        6.931771    0.312335   -2.146020
     53          6           0        7.364360    1.438366   -3.102479
     54          6           0        8.830860    1.125520   -3.703220
     55          6           0        8.738011    1.597894   -5.125735
     56          6           0        9.905387    1.965648   -2.853136
     57          6           0       10.657321    1.057057   -1.848333
     58          6           0       10.201428    1.304233   -0.388309
     59          6           0       11.185933    2.106749    0.471890
     60          6           0       11.523830    3.523210    0.068235
     61          6           0       12.429353    1.294540    0.727834
     62          6           0       12.910678    1.234207    2.203935
     63          6           0       12.557421   -0.111674    2.827825
     64          6           0       12.567876   -0.186546    4.324325
     65          6           0       13.794113   -1.036852    4.831391
     66          6           0       11.170254   -0.652044    4.883411
     67          1           0       -1.085149    2.228624    0.206330
     68          1           0       -7.023134    4.808939    0.650433
     69          1           0       -9.435677   -1.161360    0.536542
     70          1           0       -1.302242   -2.348489    0.531441
     71          1           0       -0.359543    0.172837   -0.664284
     72          1           0       -0.636826    0.255107    2.269634
     73          1           0        0.780182    0.311994    1.107985
     74          1           0        0.167525   -1.250313    1.626291
     75          1           0       -0.786774   -1.281131   -2.259891
     76          1           0       -1.908720   -2.565288   -2.344670
     77          1           0       -0.002771   -3.597938   -2.745499
     78          1           0       -0.875197   -4.163466   -1.292636
     79          1           0       -1.378878    5.795490    0.939225
     80          1           0       -1.256905    5.416678   -0.771723
     81          1           0       -0.691078    4.216753    0.369954
     82          1           0       -4.135074    8.521201    0.068429
     83          1           0       -2.860755    7.426585   -0.479945
     84          1           0       -3.065613    7.884892    1.243317
     85          1           0       -9.285196    3.714227   -0.112856
     86          1           0      -10.266060    1.311667    1.030599
     87          1           0       -9.581376    4.543750    1.964605
     88          1           0       -8.354376    3.429115    2.709793
     89          1           0      -10.038663    2.897133    2.603500
     90          1           0       -9.853298    0.760683   -1.780143
     91          1           0      -10.507663    2.392384   -1.610752
     92          1           0      -12.310406    1.692145   -0.163039
     93          1           0      -11.872209   -0.052945   -0.549891
     94          1           0      -12.356481    1.042685   -1.809996
     95          1           0       -9.606239   -3.337006    0.371637
     96          1           0       -8.619059   -4.487764    1.401648
     97          1           0       -8.723246   -4.594853   -0.409992
     98          1           0       -3.324708   -4.408252   -1.268089
     99          1           0       -1.704800   -7.121355    1.733439
    100          1           0       -0.592072   -5.791576    1.647702
    101          1           0       -0.701362   -7.203330    0.380359
    102          1           0        3.568014   -3.188476   -0.804433
    103          1           0        3.221002   -1.714908    0.137927
    104          1           0        3.700486   -0.749395   -2.397949
    105          1           0        6.679061   -2.538736   -0.224368
    106          1           0        7.164638   -3.259339   -1.751232
    107          1           0        5.638658   -3.762926   -1.049863
    108          1           0        5.581580   -0.719058   -3.656329
    109          1           0        7.146796   -1.393604   -3.409222
    110          1           0        7.810828   -0.152890   -1.700182
    111          1           0        6.318883    0.626317   -1.300420
    112          1           0        7.225081    2.417696   -2.643488
    113          1           0        6.611368    1.427967   -3.890197
    114          1           0        8.985807    0.049726   -3.618773
    115          1           0        7.766176    1.928289   -5.492507
    116          1           0        9.195141    0.914629   -5.840542
    117          1           0        9.313451    2.514974   -5.254398
    118          1           0        9.324920    2.751148   -2.369433
    119          1           0       10.621117    2.470276   -3.502162
    120          1           0       11.711162    1.336590   -1.866626
    121          1           0       10.579801   -0.013262   -2.042989
    122          1           0        9.968642    0.388607    0.154977
    123          1           0        9.251025    1.816040   -0.234655
    124          1           0       10.698796    2.230704    1.438495
    125          1           0       12.176715    3.920248    0.845604
    126          1           0       10.655193    4.164546   -0.082131
    127          1           0       12.118436    3.597876   -0.842511
    128          1           0       13.292953    1.718703    0.214161
    129          1           0       12.219512    0.311417    0.306776
    130          1           0       12.706820    2.092020    2.844630
    131          1           0       13.984499    1.170915    2.031377
    132          1           0       13.271663   -0.832262    2.428374
    133          1           0       11.562858   -0.378786    2.471005
    134          1           0       12.720169    0.823144    4.706996
    135          1           0       13.589521   -2.005287    4.375038
    136          1           0       13.745874   -1.178994    5.911219
    137          1           0       14.803634   -0.659598    4.666864
    138          1           0       11.200924   -1.524127    5.537690
    139          1           0       10.433095   -0.945299    4.136390
    140          1           0       10.771037    0.203883    5.427855
 ---------------------------------------------------------------------
 Rotational constants (GHZ):           0.0422368           0.0102555           0.0090721
 Leave Link  202 at Thu May  5 01:42:20 2022, MaxMem= 10066329600 cpu:               0.4 elap:               0.0
 (Enter /sw/apps/gaussian-16.0/g16/l301.exe)
 Standard basis: def2SVP (5D, 7F)
 Ernie: Thresh=  0.10000D-02 Tol=  0.10000D-05 Strict=F.
 There are  1364 symmetry adapted cartesian basis functions of A   symmetry.
 There are  1298 symmetry adapted basis functions of A   symmetry.
  1298 basis functions,  2180 primitive gaussians,  1364 cartesian basis functions
   246 alpha electrons      246 beta electrons
       nuclear repulsion energy      9556.4250298244 Hartrees.
 IExCor=20419 DFT=T Ex+Corr=CAM-B3LYP ExCW=0 ScaHFX=  1.000000
 ScaDFX=  1.000000  1.000000  1.000000  0.810000 ScalE2=  1.000000  1.000000
 IRadAn=      5 IRanWt=     -1 IRanGd=            0 ICorTp=0 IEmpDi=  4
 HFx  wShort=  0.000000 wLong=  0.330000 cFull=  0.190000 cShort=  0.000000 cLong=  0.460000
 DFx  wShort=  0.000000 wLong=  0.330000 cFull=  0.190000 cShort=  0.000000 cLong=  0.460000
 NAtoms=  140 NActive=  140 NUniq=  140 SFac= 1.00D+00 NAtFMM=   60 NAOKFM=T Big=T
 Integral buffers will be    131072 words long.
 Raffenetti 1 integral format.
 Two-electron integral symmetry is turned on.
 Leave Link  301 at Thu May  5 01:42:20 2022, MaxMem= 10066329600 cpu:               1.5 elap:               0.1
 (Enter /sw/apps/gaussian-16.0/g16/l302.exe)
 NPDir=0 NMtPBC=     1 NCelOv=     1 NCel=       1 NClECP=     1 NCelD=      1
         NCelK=      1 NCelE2=     1 NClLst=     1 CellRange=     0.0.
 One-electron integrals computed using PRISM.
 One-electron integral symmetry used in STVInt
   1 Symmetry operations used in ECPInt.
 ECPInt:  NShTT=  192510 NPrTT=  683786 LenC2=   93844 LenP2D=  205826.
 LDataN:  DoStor=T MaxTD1= 4 Len=   56
 NBasis=  1298 RedAO= T EigKep=  2.77D-04  NBF=  1298
 NBsUse=  1298 1.00D-06 EigRej= -1.00D+00 NBFU=  1298
 Precomputing XC quadrature grid using
 IXCGrd= 4 IRadAn=           5 IRanWt=          -1 IRanGd=           0 AccXCQ= 0.00D+00.
 Generated NRdTot=       0 NPtTot=           0 NUsed=           0 NTot=          32
 NSgBfM=  1082  1082  1082  1082  1082 MxSgAt=   140 MxSgA2=   140.
 Leave Link  302 at Thu May  5 01:42:24 2022, MaxMem= 10066329600 cpu:              84.8 elap:               3.6
 (Enter /sw/apps/gaussian-16.0/g16/l303.exe)
 DipDrv:  MaxL=1.
 Leave Link  303 at Thu May  5 01:42:24 2022, MaxMem= 10066329600 cpu:               7.5 elap:               0.4
 (Enter /sw/apps/gaussian-16.0/g16/l308.exe)
 Leave Link  308 at Thu May  5 01:42:25 2022, MaxMem= 10066329600 cpu:              17.7 elap:               0.9
 (Enter /sw/apps/gaussian-16.0/g16/l401.exe)
 ExpMin= 3.36D-02 ExpMax= 4.95D+03 ExpMxC= 7.45D+02 IAcc=3 IRadAn=         5 AccDes= 0.00D+00
 Harris functional with IExCor=20419 and IRadAn=       5 diagonalized for initial guess.
 HarFok:  IExCor=20419 AccDes= 0.00D+00 IRadAn=         5 IDoV= 1 UseB2=F ITyADJ=14
 ICtDFT=  3500011 ScaDFX=  1.000000  1.000000  1.000000  1.000000
 FoFCou: FMM=F IPFlag=           0 FMFlag=      100000 FMFlg1=        2001
         NFxFlg=           0 DoJE=T BraDBF=F KetDBF=T FulRan=T
         wScrn=  0.000000 ICntrl=       500 IOpCl=  0 I1Cent=   200000004 NGrid=           0
         NMat0=    1 NMatS0=      1 NMatT0=    0 NMatD0=    1 NMtDS0=    0 NMtDT0=    0
 Petite list used in FoFCou.
 Harris En= -2890.86125050367    
 JPrj=0 DoOrth=F DoCkMO=F.
 Leave Link  401 at Thu May  5 01:42:31 2022, MaxMem= 10066329600 cpu:             145.8 elap:               6.1
 (Enter /sw/apps/gaussian-16.0/g16/l502.exe)
 Integral symmetry usage will be decided dynamically.
 Closed shell SCF:
 Using DIIS extrapolation, IDIIS=  1040.
 NGot= 10066329600 LenX= 10062561258 LenY= 10060699398
 Requested convergence on RMS density matrix=1.00D-08 within 128 cycles.
 Requested convergence on MAX density matrix=1.00D-06.
 Requested convergence on             energy=1.00D-06.
 No special actions if energy rises.
 Fock matrices will be formed incrementally for  20 cycles.

 Cycle   1  Pass 1  IDiag  1:
 FoFJK:  IHMeth= 1 ICntrl=       0 DoSepK=T KAlg= 0 I1Cent=           0 FoldK=F
 IRaf=         1 NMat=       1 IRICut=       1 DoRegI=T DoRafI=F ISym2E= 0 IDoP0=0 IntGTp=1.
 FoFCou: FMM=T IPFlag=           0 FMFlag=      100000 FMFlg1=        2001
         NFxFlg=           0 DoJE=T BraDBF=F KetDBF=F FulRan=T
         wScrn=  0.000000 ICntrl=       500 IOpCl=  0 I1Cent=           0 NGrid=           0
         NMat0=    1 NMatS0=      1 NMatT0=    0 NMatD0=    1 NMtDS0=    0 NMtDT0=    0
 Symmetry not used in FoFCou.
 FMM levels:  10  Number of levels for PrismC:   9
 E= -3006.53330377055    
 DIIS: error= 2.73D-02 at cycle   1 NSaved=   1.
 NSaved= 1 IEnMin= 1 EnMin= -3006.53330377055     IErMin= 1 ErrMin= 2.73D-02
 ErrMax= 2.73D-02  0.00D+00 EMaxC= 1.00D-01 BMatC= 1.25D+00 BMatP= 1.25D+00
 IDIUse=3 WtCom= 7.27D-01 WtEn= 2.73D-01
 Coeff-Com:  0.100D+01
 Coeff-En:   0.100D+01
 Coeff:      0.100D+01
 Gap=     0.120 Goal=   None    Shift=    0.000
 GapD=    0.120 DampG=1.000 DampE=0.500 DampFc=0.5000 IDamp=-1.
 Damping current iteration by 5.00D-01
 RMSDP=1.51D-03 MaxDP=1.42D-01              OVMax= 1.58D-01

 Cycle   2  Pass 1  IDiag  1:
 RMSU=  7.44D-04    CP:  9.85D-01
 E= -3006.83558304509     Delta-E=       -0.302279274541 Rises=F Damp=T
 DIIS: error= 1.09D-02 at cycle   2 NSaved=   2.
 NSaved= 2 IEnMin= 2 EnMin= -3006.83558304509     IErMin= 2 ErrMin= 1.09D-02
 ErrMax= 1.09D-02  0.00D+00 EMaxC= 1.00D-01 BMatC= 2.28D-01 BMatP= 1.25D+00
 IDIUse=3 WtCom= 8.91D-01 WtEn= 1.09D-01
 Coeff-Com: -0.243D+00 0.124D+01
 Coeff-En:   0.000D+00 0.100D+01
 Coeff:     -0.216D+00 0.122D+01
 Gap=     0.139 Goal=   None    Shift=    0.000
 RMSDP=6.97D-04 MaxDP=7.81D-02 DE=-3.02D-01 OVMax= 1.52D-01

 Cycle   3  Pass 1  IDiag  1:
 RMSU=  6.69D-04    CP:  9.74D-01  1.23D+00
 E= -3007.06328045841     Delta-E=       -0.227697413316 Rises=F Damp=F
 DIIS: error= 1.83D-02 at cycle   3 NSaved=   3.
 NSaved= 3 IEnMin= 3 EnMin= -3007.06328045841     IErMin= 2 ErrMin= 1.09D-02
 ErrMax= 1.83D-02  0.00D+00 EMaxC= 1.00D-01 BMatC= 1.35D-01 BMatP= 2.28D-01
 IDIUse=3 WtCom= 8.17D-01 WtEn= 1.83D-01
 Coeff-Com: -0.271D+00 0.649D+00 0.622D+00
 Coeff-En:   0.000D+00 0.000D+00 0.100D+01
 Coeff:     -0.221D+00 0.530D+00 0.691D+00
 Gap=     0.124 Goal=   None    Shift=    0.000
 RMSDP=4.73D-04 MaxDP=5.09D-02 DE=-2.28D-01 OVMax= 1.18D-01

 Cycle   4  Pass 1  IDiag  1:
 RMSU=  2.60D-04    CP:  9.71D-01  1.54D+00  5.25D-01
 E= -3007.14623912652     Delta-E=       -0.082958668108 Rises=F Damp=F
 DIIS: error= 9.28D-03 at cycle   4 NSaved=   4.
 NSaved= 4 IEnMin= 4 EnMin= -3007.14623912652     IErMin= 4 ErrMin= 9.28D-03
 ErrMax= 9.28D-03  0.00D+00 EMaxC= 1.00D-01 BMatC= 3.97D-02 BMatP= 1.35D-01
 IDIUse=3 WtCom= 9.07D-01 WtEn= 9.28D-02
 Coeff-Com: -0.107D+00 0.218D+00 0.421D+00 0.468D+00
 Coeff-En:   0.000D+00 0.000D+00 0.247D+00 0.753D+00
 Coeff:     -0.967D-01 0.198D+00 0.404D+00 0.495D+00
 Gap=     0.125 Goal=   None    Shift=    0.000
 RMSDP=1.90D-04 MaxDP=1.94D-02 DE=-8.30D-02 OVMax= 5.37D-02

 Cycle   5  Pass 1  IDiag  1:
 RMSU=  6.68D-05    CP:  9.71D-01  1.48D+00  7.07D-01  5.30D-01
 E= -3007.18007842251     Delta-E=       -0.033839295995 Rises=F Damp=F
 DIIS: error= 7.41D-04 at cycle   5 NSaved=   5.
 NSaved= 5 IEnMin= 5 EnMin= -3007.18007842251     IErMin= 5 ErrMin= 7.41D-04
 ErrMax= 7.41D-04  0.00D+00 EMaxC= 1.00D-01 BMatC= 6.54D-04 BMatP= 3.97D-02
 IDIUse=3 WtCom= 9.93D-01 WtEn= 7.41D-03
 Coeff-Com: -0.342D-01 0.668D-01 0.166D+00 0.236D+00 0.565D+00
 Coeff-En:   0.000D+00 0.000D+00 0.000D+00 0.000D+00 0.100D+01
 Coeff:     -0.339D-01 0.663D-01 0.164D+00 0.235D+00 0.569D+00
 Gap=     0.124 Goal=   None    Shift=    0.000
 RMSDP=3.29D-05 MaxDP=3.12D-03 DE=-3.38D-02 OVMax= 1.16D-02

 Cycle   6  Pass 1  IDiag  1:
 RMSU=  2.45D-05    CP:  9.71D-01  1.49D+00  7.03D-01  5.86D-01  7.59D-01
 E= -3007.18061202310     Delta-E=       -0.000533600592 Rises=F Damp=F
 DIIS: error= 2.28D-04 at cycle   6 NSaved=   6.
 NSaved= 6 IEnMin= 6 EnMin= -3007.18061202310     IErMin= 6 ErrMin= 2.28D-04
 ErrMax= 2.28D-04  0.00D+00 EMaxC= 1.00D-01 BMatC= 8.99D-05 BMatP= 6.54D-04
 IDIUse=3 WtCom= 9.98D-01 WtEn= 2.28D-03
 Coeff-Com:  0.327D-02-0.830D-02 0.545D-02 0.286D-01 0.298D+00 0.673D+00
 Coeff-En:   0.000D+00 0.000D+00 0.000D+00 0.000D+00 0.783D-01 0.922D+00
 Coeff:      0.326D-02-0.828D-02 0.544D-02 0.286D-01 0.298D+00 0.674D+00
 Gap=     0.125 Goal=   None    Shift=    0.000
 RMSDP=1.43D-05 MaxDP=1.06D-03 DE=-5.34D-04 OVMax= 9.06D-03

 Cycle   7  Pass 1  IDiag  1:
 RMSU=  9.72D-06    CP:  9.71D-01  1.49D+00  7.09D-01  5.87D-01  8.71D-01
                    CP:  7.47D-01
 E= -3007.18071197013     Delta-E=       -0.000099947029 Rises=F Damp=F
 DIIS: error= 1.15D-04 at cycle   7 NSaved=   7.
 NSaved= 7 IEnMin= 7 EnMin= -3007.18071197013     IErMin= 7 ErrMin= 1.15D-04
 ErrMax= 1.15D-04  0.00D+00 EMaxC= 1.00D-01 BMatC= 1.32D-05 BMatP= 8.99D-05
 IDIUse=3 WtCom= 9.99D-01 WtEn= 1.15D-03
 Coeff-Com:  0.449D-02-0.967D-02-0.105D-01-0.625D-02 0.999D-01 0.362D+00
 Coeff-Com:  0.560D+00
 Coeff-En:   0.000D+00 0.000D+00 0.000D+00 0.000D+00 0.000D+00 0.000D+00
 Coeff-En:   0.100D+01
 Coeff:      0.449D-02-0.966D-02-0.105D-01-0.624D-02 0.998D-01 0.362D+00
 Coeff:      0.560D+00
 Gap=     0.125 Goal=   None    Shift=    0.000
 RMSDP=5.66D-06 MaxDP=8.13D-04 DE=-9.99D-05 OVMax= 2.35D-03

 Cycle   8  Pass 1  IDiag  1:
 RMSU=  4.11D-06    CP:  9.71D-01  1.49D+00  7.10D-01  5.89D-01  8.75D-01
                    CP:  8.90D-01  8.75D-01
 E= -3007.18072928725     Delta-E=       -0.000017317121 Rises=F Damp=F
 DIIS: error= 4.06D-05 at cycle   8 NSaved=   8.
 NSaved= 8 IEnMin= 8 EnMin= -3007.18072928725     IErMin= 8 ErrMin= 4.06D-05
 ErrMax= 4.06D-05  0.00D+00 EMaxC= 1.00D-01 BMatC= 1.86D-06 BMatP= 1.32D-05
 IDIUse=1 WtCom= 1.00D+00 WtEn= 0.00D+00
 Coeff-Com:  0.182D-02-0.351D-02-0.768D-02-0.121D-01-0.255D-01 0.406D-01
 Coeff-Com:  0.266D+00 0.740D+00
 Coeff:      0.182D-02-0.351D-02-0.768D-02-0.121D-01-0.255D-01 0.406D-01
 Coeff:      0.266D+00 0.740D+00
 Gap=     0.125 Goal=   None    Shift=    0.000
 RMSDP=3.44D-06 MaxDP=2.85D-04 DE=-1.73D-05 OVMax= 2.66D-03

 Cycle   9  Pass 1  IDiag  1:
 RMSU=  2.08D-06    CP:  9.71D-01  1.49D+00  7.10D-01  5.90D-01  8.95D-01
                    CP:  9.10D-01  1.11D+00  1.06D+00
 E= -3007.18073486483     Delta-E=       -0.000005577574 Rises=F Damp=F
 DIIS: error= 3.40D-05 at cycle   9 NSaved=   9.
 NSaved= 9 IEnMin= 9 EnMin= -3007.18073486483     IErMin= 9 ErrMin= 3.40D-05
 ErrMax= 3.40D-05  0.00D+00 EMaxC= 1.00D-01 BMatC= 6.29D-07 BMatP= 1.86D-06
 IDIUse=1 WtCom= 1.00D+00 WtEn= 0.00D+00
 Coeff-Com: -0.807D-05 0.159D-03-0.134D-02-0.406D-02-0.291D-01-0.350D-01
 Coeff-Com: -0.193D-01 0.368D+00 0.720D+00
 Coeff:     -0.807D-05 0.159D-03-0.134D-02-0.406D-02-0.291D-01-0.350D-01
 Coeff:     -0.193D-01 0.368D+00 0.720D+00
 Gap=     0.125 Goal=   None    Shift=    0.000
 RMSDP=1.93D-06 MaxDP=1.45D-04 DE=-5.58D-06 OVMax= 1.08D-03

 Cycle  10  Pass 1  IDiag  1:
 RMSU=  9.34D-07    CP:  9.71D-01  1.49D+00  7.10D-01  5.90D-01  8.99D-01
                    CP:  9.37D-01  1.20D+00  1.33D+00  1.28D+00
 E= -3007.18073701325     Delta-E=       -0.000002148423 Rises=F Damp=F
 DIIS: error= 1.72D-05 at cycle  10 NSaved=  10.
 NSaved=10 IEnMin=10 EnMin= -3007.18073701325     IErMin=10 ErrMin= 1.72D-05
 ErrMax= 1.72D-05  0.00D+00 EMaxC= 1.00D-01 BMatC= 1.79D-07 BMatP= 6.29D-07
 IDIUse=1 WtCom= 1.00D+00 WtEn= 0.00D+00
 Coeff-Com: -0.768D-03 0.155D-02 0.256D-02 0.306D-02-0.553D-02-0.283D-01
 Coeff-Com: -0.153D+00-0.644D-01 0.281D+00 0.964D+00
 Coeff:     -0.768D-03 0.155D-02 0.256D-02 0.306D-02-0.553D-02-0.283D-01
 Coeff:     -0.153D+00-0.644D-01 0.281D+00 0.964D+00
 Gap=     0.125 Goal=   None    Shift=    0.000
 RMSDP=1.95D-06 MaxDP=1.60D-04 DE=-2.15D-06 OVMax= 1.34D-03

 Cycle  11  Pass 1  IDiag  1:
 RMSU=  5.99D-07    CP:  9.71D-01  1.49D+00  7.11D-01  5.90D-01  9.03D-01
                    CP:  9.54D-01  1.29D+00  1.57D+00  1.78D+00  1.54D+00
 E= -3007.18073819550     Delta-E=       -0.000001182252 Rises=F Damp=F
 DIIS: error= 1.00D-05 at cycle  11 NSaved=  11.
 NSaved=11 IEnMin=11 EnMin= -3007.18073819550     IErMin=11 ErrMin= 1.00D-05
 ErrMax= 1.00D-05  0.00D+00 EMaxC= 1.00D-01 BMatC= 6.91D-08 BMatP= 1.79D-07
 IDIUse=1 WtCom= 1.00D+00 WtEn= 0.00D+00
 Coeff-Com: -0.396D-03 0.761D-03 0.172D-02 0.283D-02 0.503D-02-0.639D-03
 Coeff-Com: -0.855D-01-0.116D+00-0.105D+00 0.503D+00 0.794D+00
 Coeff:     -0.396D-03 0.761D-03 0.172D-02 0.283D-02 0.503D-02-0.639D-03
 Coeff:     -0.855D-01-0.116D+00-0.105D+00 0.503D+00 0.794D+00
 Gap=     0.125 Goal=   None    Shift=    0.000
 RMSDP=1.09D-06 MaxDP=8.41D-05 DE=-1.18D-06 OVMax= 6.83D-04

 Cycle  12  Pass 1  IDiag  1:
 RMSU=  2.96D-07    CP:  9.71D-01  1.49D+00  7.10D-01  5.90D-01  9.04D-01
                    CP:  9.62D-01  1.33D+00  1.70D+00  2.06D+00  2.02D+00
                    CP:  1.26D+00
 E= -3007.18073853904     Delta-E=       -0.000000343534 Rises=F Damp=F
 DIIS: error= 4.26D-06 at cycle  12 NSaved=  12.
 NSaved=12 IEnMin=12 EnMin= -3007.18073853904     IErMin=12 ErrMin= 4.26D-06
 ErrMax= 4.26D-06  0.00D+00 EMaxC= 1.00D-01 BMatC= 1.37D-08 BMatP= 6.91D-08
 IDIUse=1 WtCom= 1.00D+00 WtEn= 0.00D+00
 Coeff-Com:  0.794D-04-0.174D-03-0.123D-03 0.206D-03 0.302D-02 0.107D-01
 Coeff-Com:  0.779D-02-0.743D-02-0.132D+00-0.107D+00 0.268D+00 0.957D+00
 Coeff:      0.794D-04-0.174D-03-0.123D-03 0.206D-03 0.302D-02 0.107D-01
 Coeff:      0.779D-02-0.743D-02-0.132D+00-0.107D+00 0.268D+00 0.957D+00
 Gap=     0.125 Goal=   None    Shift=    0.000
 RMSDP=6.11D-07 MaxDP=6.70D-05 DE=-3.44D-07 OVMax= 4.00D-04

 Cycle  13  Pass 1  IDiag  1:
 RMSU=  1.51D-07    CP:  9.71D-01  1.49D+00  7.10D-01  5.90D-01  9.05D-01
                    CP:  9.64D-01  1.35D+00  1.76D+00  2.22D+00  2.32D+00
                    CP:  1.66D+00  1.34D+00
 E= -3007.18073861850     Delta-E=       -0.000000079463 Rises=F Damp=F
 DIIS: error= 1.52D-06 at cycle  13 NSaved=  13.
 NSaved=13 IEnMin=13 EnMin= -3007.18073861850     IErMin=13 ErrMin= 1.52D-06
 ErrMax= 1.52D-06  0.00D+00 EMaxC= 1.00D-01 BMatC= 3.69D-09 BMatP= 1.37D-08
 IDIUse=1 WtCom= 1.00D+00 WtEn= 0.00D+00
 Coeff-Com:  0.127D-03-0.255D-03-0.454D-03-0.522D-03 0.106D-03 0.576D-02
 Coeff-Com:  0.212D-01 0.260D-01-0.441D-01-0.172D+00-0.596D-01 0.496D+00
 Coeff-Com:  0.728D+00
 Coeff:      0.127D-03-0.255D-03-0.454D-03-0.522D-03 0.106D-03 0.576D-02
 Coeff:      0.212D-01 0.260D-01-0.441D-01-0.172D+00-0.596D-01 0.496D+00
 Coeff:      0.728D+00
 Gap=     0.125 Goal=   None    Shift=    0.000
 RMSDP=2.45D-07 MaxDP=1.75D-05 DE=-7.95D-08 OVMax= 1.49D-04

 Cycle  14  Pass 1  IDiag  1:
 RMSU=  6.44D-08    CP:  9.71D-01  1.49D+00  7.10D-01  5.90D-01  9.05D-01
                    CP:  9.65D-01  1.36D+00  1.78D+00  2.28D+00  2.44D+00
                    CP:  1.83D+00  1.62D+00  1.04D+00
 E= -3007.18073863070     Delta-E=       -0.000000012204 Rises=F Damp=F
 DIIS: error= 4.96D-07 at cycle  14 NSaved=  14.
 NSaved=14 IEnMin=14 EnMin= -3007.18073863070     IErMin=14 ErrMin= 4.96D-07
 ErrMax= 4.96D-07  0.00D+00 EMaxC= 1.00D-01 BMatC= 5.39D-10 BMatP= 3.69D-09
 IDIUse=1 WtCom= 1.00D+00 WtEn= 0.00D+00
 Coeff-Com:  0.512D-04-0.100D-03-0.212D-03-0.292D-03-0.496D-03 0.127D-02
 Coeff-Com:  0.829D-02 0.156D-01 0.325D-03-0.644D-01-0.748D-01 0.896D-01
 Coeff-Com:  0.340D+00 0.685D+00
 Coeff:      0.512D-04-0.100D-03-0.212D-03-0.292D-03-0.496D-03 0.127D-02
 Coeff:      0.829D-02 0.156D-01 0.325D-03-0.644D-01-0.748D-01 0.896D-01
 Coeff:      0.340D+00 0.685D+00
 Gap=     0.125 Goal=   None    Shift=    0.000
 RMSDP=6.62D-08 MaxDP=1.30D-05 DE=-1.22D-08 OVMax= 3.62D-05

 Cycle  15  Pass 1  IDiag  1:
 RMSU=  2.99D-08    CP:  9.71D-01  1.49D+00  7.10D-01  5.90D-01  9.05D-01
                    CP:  9.64D-01  1.36D+00  1.78D+00  2.29D+00  2.47D+00
                    CP:  1.88D+00  1.71D+00  1.21D+00  1.05D+00
 E= -3007.18073863210     Delta-E=       -0.000000001401 Rises=F Damp=F
 DIIS: error= 2.62D-07 at cycle  15 NSaved=  15.
 NSaved=15 IEnMin=15 EnMin= -3007.18073863210     IErMin=15 ErrMin= 2.62D-07
 ErrMax= 2.62D-07  0.00D+00 EMaxC= 1.00D-01 BMatC= 1.03D-10 BMatP= 5.39D-10
 IDIUse=1 WtCom= 1.00D+00 WtEn= 0.00D+00
 Coeff-Com: -0.852D-05 0.182D-04 0.176D-04 0.453D-05-0.240D-03-0.661D-03
 Coeff-Com: -0.194D-02 0.920D-03 0.800D-02 0.111D-01-0.158D-01-0.584D-01
 Coeff-Com: -0.310D-01 0.275D+00 0.813D+00
 Coeff:     -0.852D-05 0.182D-04 0.176D-04 0.453D-05-0.240D-03-0.661D-03
 Coeff:     -0.194D-02 0.920D-03 0.800D-02 0.111D-01-0.158D-01-0.584D-01
 Coeff:     -0.310D-01 0.275D+00 0.813D+00
 Gap=     0.125 Goal=   None    Shift=    0.000
 RMSDP=3.21D-08 MaxDP=2.85D-06 DE=-1.40D-09 OVMax= 1.81D-05

 Cycle  16  Pass 1  IDiag  1:
 RMSU=  1.53D-08    CP:  9.71D-01  1.49D+00  7.10D-01  5.90D-01  9.05D-01
                    CP:  9.65D-01  1.36D+00  1.79D+00  2.29D+00  2.48D+00
                    CP:  1.90D+00  1.75D+00  1.28D+00  1.27D+00  1.22D+00
 E= -3007.18073863234     Delta-E=       -0.000000000236 Rises=F Damp=F
 DIIS: error= 1.23D-07 at cycle  16 NSaved=  16.
 NSaved=16 IEnMin=16 EnMin= -3007.18073863234     IErMin=16 ErrMin= 1.23D-07
 ErrMax= 1.23D-07  0.00D+00 EMaxC= 1.00D-01 BMatC= 3.20D-11 BMatP= 1.03D-10
 IDIUse=1 WtCom= 1.00D+00 WtEn= 0.00D+00
 Coeff-Com: -0.146D-04 0.293D-04 0.516D-04 0.606D-04-0.239D-04-0.538D-03
 Coeff-Com: -0.289D-02-0.245D-02 0.405D-02 0.193D-01 0.675D-02-0.455D-01
 Coeff-Com: -0.974D-01-0.267D-01 0.379D+00 0.766D+00
 Coeff:     -0.146D-04 0.293D-04 0.516D-04 0.606D-04-0.239D-04-0.538D-03
 Coeff:     -0.289D-02-0.245D-02 0.405D-02 0.193D-01 0.675D-02-0.455D-01
 Coeff:     -0.974D-01-0.267D-01 0.379D+00 0.766D+00
 Gap=     0.125 Goal=   None    Shift=    0.000
 RMSDP=1.96D-08 MaxDP=3.25D-06 DE=-2.36D-10 OVMax= 1.09D-05

 Cycle  17  Pass 1  IDiag  1:
 RMSU=  7.39D-09    CP:  9.71D-01  1.49D+00  7.10D-01  5.90D-01  9.05D-01
                    CP:  9.65D-01  1.36D+00  1.79D+00  2.29D+00  2.48D+00
                    CP:  1.91D+00  1.77D+00  1.32D+00  1.41D+00  1.52D+00
                    CP:  1.31D+00
 E= -3007.18073863245     Delta-E=       -0.000000000115 Rises=F Damp=F
 DIIS: error= 1.20D-07 at cycle  17 NSaved=  17.
 NSaved=17 IEnMin=17 EnMin= -3007.18073863245     IErMin=17 ErrMin= 1.20D-07
 ErrMax= 1.20D-07  0.00D+00 EMaxC= 1.00D-01 BMatC= 7.80D-12 BMatP= 3.20D-11
 IDIUse=1 WtCom= 1.00D+00 WtEn= 0.00D+00
 Coeff-Com: -0.426D-05 0.811D-05 0.189D-04 0.277D-04 0.708D-04 0.154D-04
 Coeff-Com: -0.855D-03-0.124D-02-0.111D-02 0.488D-02 0.782D-02 0.318D-02
 Coeff-Com: -0.366D-01-0.101D+00-0.670D-01 0.305D+00 0.887D+00
 Coeff:     -0.426D-05 0.811D-05 0.189D-04 0.277D-04 0.708D-04 0.154D-04
 Coeff:     -0.855D-03-0.124D-02-0.111D-02 0.488D-02 0.782D-02 0.318D-02
 Coeff:     -0.366D-01-0.101D+00-0.670D-01 0.305D+00 0.887D+00
 Gap=     0.125 Goal=   None    Shift=    0.000
 RMSDP=1.23D-08 MaxDP=9.75D-07 DE=-1.15D-10 OVMax= 8.01D-06

 Cycle  18  Pass 1  IDiag  1:
 RMSU=  4.03D-09    CP:  9.71D-01  1.49D+00  7.10D-01  5.90D-01  9.05D-01
                    CP:  9.65D-01  1.36D+00  1.79D+00  2.29D+00  2.48D+00
                    CP:  1.91D+00  1.77D+00  1.34D+00  1.49D+00  1.72D+00
                    CP:  1.76D+00  1.27D+00
 E= -3007.18073863254     Delta-E=       -0.000000000087 Rises=F Damp=F
 DIIS: error= 4.47D-08 at cycle  18 NSaved=  18.
 NSaved=18 IEnMin=18 EnMin= -3007.18073863254     IErMin=18 ErrMin= 4.47D-08
 ErrMax= 4.47D-08  0.00D+00 EMaxC= 1.00D-01 BMatC= 2.81D-12 BMatP= 7.80D-12
 IDIUse=1 WtCom= 1.00D+00 WtEn= 0.00D+00
 Coeff-Com:  0.271D-05-0.561D-05-0.797D-05-0.681D-05 0.439D-04 0.201D-03
 Coeff-Com:  0.488D-03 0.373D-03-0.183D-02-0.390D-02 0.111D-02 0.178D-01
 Coeff-Com:  0.123D-01-0.443D-01-0.156D+00-0.134D+00 0.463D+00 0.845D+00
 Coeff:      0.271D-05-0.561D-05-0.797D-05-0.681D-05 0.439D-04 0.201D-03
 Coeff:      0.488D-03 0.373D-03-0.183D-02-0.390D-02 0.111D-02 0.178D-01
 Coeff:      0.123D-01-0.443D-01-0.156D+00-0.134D+00 0.463D+00 0.845D+00
 Gap=     0.125 Goal=   None    Shift=    0.000
 RMSDP=8.07D-09 MaxDP=5.80D-07 DE=-8.73D-11 OVMax= 4.73D-06

 SCF Done:  E(RCAM-B3LYP) =  -3007.18073863     A.U. after   18 cycles
            NFock= 18  Conv=0.81D-08     -V/T= 2.0106
 KE= 2.975553069376D+03 PE=-2.610526427728D+04 EE= 1.056610543945D+04
 Leave Link  502 at Thu May  5 01:50:13 2022, MaxMem= 10066329600 cpu:           10672.0 elap:             461.8
 (Enter /sw/apps/gaussian-16.0/g16/l801.exe)
 DoSCS=F DFT=T ScalE2(SS,OS)=  1.000000  1.000000
 ExpMin= 3.36D-02 ExpMax= 4.95D+03 ExpMxC= 7.45D+02 IAcc=3 IRadAn=         5 AccDes= 0.00D+00
 HarFok:  IExCor=  205 AccDes= 0.00D+00 IRadAn=         5 IDoV=-2 UseB2=F ITyADJ=14
 ICtDFT= 12500011 ScaDFX=  1.000000  1.000000  1.000000  1.000000
 GSVD:  LWork=       -5460 too small for GESVD, short by       25550 words or       25550 for optimal perf.
 Largest valence mixing into a core orbital is  1.40D-04
 Largest core mixing into a valence orbital is  5.05D-05
 Range of M.O.s used for correlation:    71  1298
 NBasis=  1298 NAE=   246 NBE=   246 NFC=    70 NFV=     0
 NROrb=   1228 NOA=   176 NOB=   176 NVA=  1052 NVB=  1052
 Leave Link  801 at Thu May  5 01:50:14 2022, MaxMem= 10066329600 cpu:               9.8 elap:               0.4
 (Enter /sw/apps/gaussian-16.0/g16/l914.exe)
 RHF ground state
 Two-electron integrals replicated using symmetry.
 MDV= 10066329600 DFT=T DoStab=F Mixed=T DoRPA=T DoScal=F NonHer=T
 Making orbital integer symmetry assigments:
 Orbital symmetries:
       Occupied  (A) (A) (A) (A) (A) (A) (A) (A) (A) (A) (A) (A)
                 (A) (A) (A) (A) (A) (A) (A) (A) (A) (A) (A) (A)
                 (A) (A) (A) (A) (A) (A) (A) (A) (A) (A) (A) (A)
                 (A) (A) (A) (A) (A) (A) (A) (A) (A) (A) (A) (A)
                 (A) (A) (A) (A) (A) (A) (A) (A) (A) (A) (A) (A)
                 (A) (A) (A) (A) (A) (A) (A) (A) (A) (A) (A) (A)
                 (A) (A) (A) (A) (A) (A) (A) (A) (A) (A) (A) (A)
                 (A) (A) (A) (A) (A) (A) (A) (A) (A) (A) (A) (A)
                 (A) (A) (A) (A) (A) (A) (A) (A) (A) (A) (A) (A)
                 (A) (A) (A) (A) (A) (A) (A) (A) (A) (A) (A) (A)
                 (A) (A) (A) (A) (A) (A) (A) (A) (A) (A) (A) (A)
                 (A) (A) (A) (A) (A) (A) (A) (A) (A) (A) (A) (A)
                 (A) (A) (A) (A) (A) (A) (A) (A) (A) (A) (A) (A)
                 (A) (A) (A) (A) (A) (A) (A) (A) (A) (A) (A) (A)
                 (A) (A) (A) (A) (A) (A) (A) (A) (A) (A) (A) (A)
                 (A) (A) (A) (A) (A) (A) (A) (A) (A) (A) (A) (A)
                 (A) (A) (A) (A) (A) (A) (A) (A) (A) (A) (A) (A)
                 (A) (A) (A) (A) (A) (A) (A) (A) (A) (A) (A) (A)
                 (A) (A) (A) (A) (A) (A) (A) (A) (A) (A) (A) (A)
                 (A) (A) (A) (A) (A) (A) (A) (A) (A) (A) (A) (A)
                 (A) (A) (A) (A) (A) (A)
       Virtual   (A) (A) (A) (A) (A) (A) (A) (A) (A) (A) (A) (A)
                 (A) (A) (A) (A) (A) (A) (A) (A) (A) (A) (A) (A)
                 (A) (A) (A) (A) (A) (A) (A) (A) (A) (A) (A) (A)
                 (A) (A) (A) (A) (A) (A) (A) (A) (A) (A) (A) (A)
                 (A) (A) (A) (A) (A) (A) (A) (A) (A) (A) (A) (A)
                 (A) (A) (A) (A) (A) (A) (A) (A) (A) (A) (A) (A)
                 (A) (A) (A) (A) (A) (A) (A) (A) (A) (A) (A) (A)
                 (A) (A) (A) (A) (A) (A) (A) (A) (A) (A) (A) (A)
                 (A) (A) (A) (A) (A) (A) (A) (A) (A) (A) (A) (A)
                 (A) (A) (A) (A) (A) (A) (A) (A) (A) (A) (A) (A)
                 (A) (A) (A) (A) (A) (A) (A) (A) (A) (A) (A) (A)
                 (A) (A) (A) (A) (A) (A) (A) (A) (A) (A) (A) (A)
                 (A) (A) (A) (A) (A) (A) (A) (A) (A) (A) (A) (A)
                 (A) (A) (A) (A) (A) (A) (A) (A) (A) (A) (A) (A)
                 (A) (A) (A) (A) (A) (A) (A) (A) (A) (A) (A) (A)
                 (A) (A) (A) (A) (A) (A) (A) (A) (A) (A) (A) (A)
                 (A) (A) (A) (A) (A) (A) (A) (A) (A) (A) (A) (A)
                 (A) (A) (A) (A) (A) (A) (A) (A) (A) (A) (A) (A)
                 (A) (A) (A) (A) (A) (A) (A) (A) (A) (A) (A) (A)
                 (A) (A) (A) (A) (A) (A) (A) (A) (A) (A) (A) (A)
                 (A) (A) (A) (A) (A) (A) (A) (A) (A) (A) (A) (A)
                 (A) (A) (A) (A) (A) (A) (A) (A) (A) (A) (A) (A)
                 (A) (A) (A) (A) (A) (A) (A) (A) (A) (A) (A) (A)
                 (A) (A) (A) (A) (A) (A) (A) (A) (A) (A) (A) (A)
                 (A) (A) (A) (A) (A) (A) (A) (A) (A) (A) (A) (A)
                 (A) (A) (A) (A) (A) (A) (A) (A) (A) (A) (A) (A)
                 (A) (A) (A) (A) (A) (A) (A) (A) (A) (A) (A) (A)
                 (A) (A) (A) (A) (A) (A) (A) (A) (A) (A) (A) (A)
                 (A) (A) (A) (A) (A) (A) (A) (A) (A) (A) (A) (A)
                 (A) (A) (A) (A) (A) (A) (A) (A) (A) (A) (A) (A)
                 (A) (A) (A) (A) (A) (A) (A) (A) (A) (A) (A) (A)
                 (A) (A) (A) (A) (A) (A) (A) (A) (A) (A) (A) (A)
                 (A) (A) (A) (A) (A) (A) (A) (A) (A) (A) (A) (A)
                 (A) (A) (A) (A) (A) (A) (A) (A) (A) (A) (A) (A)
                 (A) (A) (A) (A) (A) (A) (A) (A) (A) (A) (A) (A)
                 (A) (A) (A) (A) (A) (A) (A) (A) (A) (A) (A) (A)
                 (A) (A) (A) (A) (A) (A) (A) (A) (A) (A) (A) (A)
                 (A) (A) (A) (A) (A) (A) (A) (A) (A) (A) (A) (A)
                 (A) (A) (A) (A) (A) (A) (A) (A) (A) (A) (A) (A)
                 (A) (A) (A) (A) (A) (A) (A) (A) (A) (A) (A) (A)
                 (A) (A) (A) (A) (A) (A) (A) (A) (A) (A) (A) (A)
                 (A) (A) (A) (A) (A) (A) (A) (A) (A) (A) (A) (A)
                 (A) (A) (A) (A) (A) (A) (A) (A) (A) (A) (A) (A)
                 (A) (A) (A) (A) (A) (A) (A) (A) (A) (A) (A) (A)
                 (A) (A) (A) (A) (A) (A) (A) (A) (A) (A) (A) (A)
                 (A) (A) (A) (A) (A) (A) (A) (A) (A) (A) (A) (A)
                 (A) (A) (A) (A) (A) (A) (A) (A) (A) (A) (A) (A)
                 (A) (A) (A) (A) (A) (A) (A) (A) (A) (A) (A) (A)
                 (A) (A) (A) (A) (A) (A) (A) (A) (A) (A) (A) (A)
                 (A) (A) (A) (A) (A) (A) (A) (A) (A) (A) (A) (A)
                 (A) (A) (A) (A) (A) (A) (A) (A) (A) (A) (A) (A)
                 (A) (A) (A) (A) (A) (A) (A) (A) (A) (A) (A) (A)
                 (A) (A) (A) (A) (A) (A) (A) (A) (A) (A) (A) (A)
                 (A) (A) (A) (A) (A) (A) (A) (A) (A) (A) (A) (A)
                 (A) (A) (A) (A) (A) (A) (A) (A) (A) (A) (A) (A)
                 (A) (A) (A) (A) (A) (A) (A) (A) (A) (A) (A) (A)
                 (A) (A) (A) (A) (A) (A) (A) (A) (A) (A) (A) (A)
                 (A) (A) (A) (A) (A) (A) (A) (A) (A) (A) (A) (A)
                 (A) (A) (A) (A) (A) (A) (A) (A) (A) (A) (A) (A)
                 (A) (A) (A) (A) (A) (A) (A) (A) (A) (A) (A) (A)
                 (A) (A) (A) (A) (A) (A) (A) (A) (A) (A) (A) (A)
                 (A) (A) (A) (A) (A) (A) (A) (A) (A) (A) (A) (A)
                 (A) (A) (A) (A) (A) (A) (A) (A) (A) (A) (A) (A)
                 (A) (A) (A) (A) (A) (A) (A) (A) (A) (A) (A) (A)
                 (A) (A) (A) (A) (A) (A) (A) (A) (A) (A) (A) (A)
                 (A) (A) (A) (A) (A) (A) (A) (A) (A) (A) (A) (A)
                 (A) (A) (A) (A) (A) (A) (A) (A) (A) (A) (A) (A)
                 (A) (A) (A) (A) (A) (A) (A) (A) (A) (A) (A) (A)
                 (A) (A) (A) (A) (A) (A) (A) (A) (A) (A) (A) (A)
                 (A) (A) (A) (A) (A) (A) (A) (A) (A) (A) (A) (A)
                 (A) (A) (A) (A) (A) (A) (A) (A) (A) (A) (A) (A)
                 (A) (A) (A) (A) (A) (A) (A) (A) (A) (A) (A) (A)
                 (A) (A) (A) (A) (A) (A) (A) (A) (A) (A) (A) (A)
                 (A) (A) (A) (A) (A) (A) (A) (A) (A) (A) (A) (A)
                 (A) (A) (A) (A) (A) (A) (A) (A) (A) (A) (A) (A)
                 (A) (A) (A) (A) (A) (A) (A) (A) (A) (A) (A) (A)
                 (A) (A) (A) (A) (A) (A) (A) (A) (A) (A) (A) (A)
                 (A) (A) (A) (A) (A) (A) (A) (A) (A) (A) (A) (A)
                 (A) (A) (A) (A) (A) (A) (A) (A) (A) (A) (A) (A)
                 (A) (A) (A) (A) (A) (A) (A) (A) (A) (A) (A) (A)
                 (A) (A) (A) (A) (A) (A) (A) (A) (A) (A) (A) (A)
                 (A) (A) (A) (A) (A) (A) (A) (A) (A) (A) (A) (A)
                 (A) (A) (A) (A) (A) (A) (A) (A) (A) (A) (A) (A)
                 (A) (A) (A) (A) (A) (A) (A) (A) (A) (A) (A) (A)
                 (A) (A) (A) (A) (A) (A) (A) (A) (A) (A) (A) (A)
                 (A) (A) (A) (A) (A) (A) (A) (A) (A) (A) (A) (A)
                 (A) (A) (A) (A) (A) (A) (A) (A) (A) (A) (A) (A)
                 (A) (A) (A) (A) (A) (A) (A) (A)
    20 initial guesses have been made.
 Convergence on wavefunction:    0.001000000000000
 Davidson Disk Diagonalization:  ConvIn= 1.00D-03 SkipCon=T Conv= 1.00D-03.
 Max sub-space:  2000 roots to seek:    20 dimension of matrix:       370304
 Iteration     1 Dimension    20 NMult     0 NNew     20
 CISAX will form    20 AO SS matrices at one time.
 NMat=    20 NSing=    20 JSym2X= 0.
 FoFJK:  IHMeth= 1 ICntrl=       0 DoSepK=T KAlg= 0 I1Cent=           0 FoldK=F
 IRaf=         1 NMat=      40 IRICut=       1 DoRegI=T DoRafI=F ISym2E= 0 IDoP0=3 IntGTp=3.
 FoFCou: FMM=T IPFlag=           0 FMFlag=      100000 FMFlg1=        2001
         NFxFlg=           0 DoJE=F BraDBF=F KetDBF=F FulRan=T
         wScrn=  0.000000 ICntrl=       500 IOpCl=  0 I1Cent=           0 NGrid=           0
         NMat0=   20 NMatS0=     20 NMatT0=    0 NMatD0=   20 NMtDS0=    0 NMtDT0=    0
 Symmetry not used in FoFCou.
 FMM levels:  10  Number of levels for PrismC:   9
 New state      3 was old state      4
 New state      4 was old state      5
 New state      5 was old state     10
 Excitation Energies [eV] at current iteration:
 Root      1 :     2.225192975351531
 Root      2 :     2.642697539178777
 Root      3 :     3.618427843640876
 Root      4 :     3.778204611133982
 Root      5 :     4.092947045597895
 Root      6 :     4.135775879871376
 Root      7 :     4.281352318836465
 Root      8 :     4.340556967278907
 Root      9 :     4.504977358888376
 Root     10 :     4.553255381181333
 Root     11 :     4.708321764476821
 Root     12 :     4.784830019103771
 Root     13 :     4.880712914559791
 Root     14 :     4.974748156104496
 Root     15 :     5.066449749296305
 Root     16 :     5.101547607471513
 Root     17 :     5.334830922684959
 Root     18 :     5.511687339086821
 Root     19 :     6.127772031363580
 Root     20 :     6.383570327215137
 Iteration     2 Dimension    30 NMult    20 NNew     10
 CISAX will form    10 AO SS matrices at one time.
 NMat=    10 NSing=    10 JSym2X= 0.
 Root      1 not converged, maximum delta is    0.070408769235560
 Root      2 not converged, maximum delta is    0.061176760521151
 Root      3 not converged, maximum delta is    0.171007815237330
 Root      4 not converged, maximum delta is    0.175852138642061
 Root      5 not converged, maximum delta is    0.169947286588266
 Excitation Energies [eV] at current iteration:
 Root      1 :     1.765899669339654   Change is   -0.459293306011878
 Root      2 :     2.249606549206142   Change is   -0.393090989972635
 Root      3 :     3.282941795504658   Change is   -0.335486048136218
 Root      4 :     3.457599699451842   Change is   -0.320604911682140
 Root      5 :     3.766936426907159   Change is   -0.326010618690736
 Iteration     3 Dimension    40 NMult    30 NNew     10
 CISAX will form    10 AO SS matrices at one time.
 NMat=    10 NSing=    10 JSym2X= 0.
 Root      1 not converged, maximum delta is    0.016036442101663
 Root      2 not converged, maximum delta is    0.023774499502659
 Root      3 not converged, maximum delta is    0.011600854880599
 Root      4 not converged, maximum delta is    0.023673089245880
 Root      5 not converged, maximum delta is    0.089662140328433
 Excitation Energies [eV] at current iteration:
 Root      1 :     1.731942668716605   Change is   -0.033957000623049
 Root      2 :     2.224756153271268   Change is   -0.024850395934874
 Root      3 :     3.268459568002155   Change is   -0.014482227502503
 Root      4 :     3.442865684947499   Change is   -0.014734014504343
 Root      5 :     3.625503699204001   Change is   -0.141432727703159
 Iteration     4 Dimension    50 NMult    40 NNew     10
 CISAX will form    10 AO SS matrices at one time.
 NMat=    10 NSing=    10 JSym2X= 0.
 Root      1 not converged, maximum delta is    0.003168144881708
 Root      2 not converged, maximum delta is    0.002594561523403
 Root      3 not converged, maximum delta is    0.004483017865662
 Root      4 not converged, maximum delta is    0.006477918416839
 Root      5 not converged, maximum delta is    0.046288533621779
 Excitation Energies [eV] at current iteration:
 Root      1 :     1.728063295149469   Change is   -0.003879373567136
 Root      2 :     2.222273896868062   Change is   -0.002482256403207
 Root      3 :     3.265505191864542   Change is   -0.002954376137613
 Root      4 :     3.439877608688851   Change is   -0.002988076258648
 Root      5 :     3.598952320193833   Change is   -0.026551379010167
 Iteration     5 Dimension    60 NMult    50 NNew     10
 CISAX will form    10 AO SS matrices at one time.
 NMat=    10 NSing=    10 JSym2X= 0.
 Root      1 not converged, maximum delta is    0.001006154669347
 Root      2 has converged.
 Root      3 not converged, maximum delta is    0.001259167493118
 Root      4 not converged, maximum delta is    0.002704818295220
 Root      5 not converged, maximum delta is    0.042578777765780
 Excitation Energies [eV] at current iteration:
 Root      1 :     1.727749476144095   Change is   -0.000313819005373
 Root      2 :     2.222060820480210   Change is   -0.000213076387852
 Root      3 :     3.265221803968874   Change is   -0.000283387895668
 Root      4 :     3.439482136112892   Change is   -0.000395472575959
 Root      5 :     3.590916680565356   Change is   -0.008035639628478
 Iteration     6 Dimension    68 NMult    60 NNew      8
 CISAX will form     8 AO SS matrices at one time.
 NMat=     8 NSing=     8 JSym2X= 0.
 Root      1 has converged.
 Root      2 has converged.
 Root      3 has converged.
 Root      4 not converged, maximum delta is    0.002005656980741
 Root      5 not converged, maximum delta is    0.040445764743059
 Excitation Energies [eV] at current iteration:
 Root      1 :     1.727720079796663   Change is   -0.000029396347433
 Root      2 :     2.222059927384784   Change is   -0.000000893095426
 Root      3 :     3.265183775191178   Change is   -0.000038028777696
 Root      4 :     3.439393476825407   Change is   -0.000088659287485
 Root      5 :     3.586265755676566   Change is   -0.004650924888789
 Iteration     7 Dimension    72 NMult    68 NNew      4
 CISAX will form     4 AO SS matrices at one time.
 NMat=     4 NSing=     4 JSym2X= 0.
 Root      1 has converged.
 Root      2 has converged.
 Root      3 has converged.
 Root      4 has converged.
 Root      5 not converged, maximum delta is    0.016034290782714
 Excitation Energies [eV] at current iteration:
 Root      1 :     1.727720061797294   Change is   -0.000000017999368
 Root      2 :     2.222059669199494   Change is   -0.000000258185290
 Root      3 :     3.265182259549368   Change is   -0.000001515641810
 Root      4 :     3.439370970013434   Change is   -0.000022506811974
 Root      5 :     3.584986785983109   Change is   -0.001278969693457
 Iteration     8 Dimension    74 NMult    72 NNew      2
 CISAX will form     2 AO SS matrices at one time.
 NMat=     2 NSing=     2 JSym2X= 0.
 Root      1 has converged.
 Root      2 has converged.
 Root      3 has converged.
 Root      4 has converged.
 Root      5 not converged, maximum delta is    0.003095307615929
 Excitation Energies [eV] at current iteration:
 Root      1 :     1.727719992233137   Change is   -0.000000069564157
 Root      2 :     2.222059226621312   Change is   -0.000000442578182
 Root      3 :     3.265181872950112   Change is   -0.000000386599256
 Root      4 :     3.439369920176145   Change is   -0.000001049837288
 Root      5 :     3.584799134743712   Change is   -0.000187651239397
 Iteration     9 Dimension    76 NMult    74 NNew      2
 CISAX will form     2 AO SS matrices at one time.
 NMat=     2 NSing=     2 JSym2X= 0.
 Root      1 has converged.
 Root      2 has converged.
 Root      3 has converged.
 Root      4 has converged.
 Root      5 not converged, maximum delta is    0.001089406030335
 Excitation Energies [eV] at current iteration:
 Root      1 :     1.727719961788682   Change is   -0.000000030444455
 Root      2 :     2.222059159937070   Change is   -0.000000066684242
 Root      3 :     3.265181683309996   Change is   -0.000000189640116
 Root      4 :     3.439369889156172   Change is   -0.000000031019973
 Root      5 :     3.584766087884252   Change is   -0.000033046859460
 Iteration    10 Dimension    78 NMult    76 NNew      2
 CISAX will form     2 AO SS matrices at one time.
 NMat=     2 NSing=     2 JSym2X= 0.
 Root      1 has converged.
 Root      2 has converged.
 Root      3 has converged.
 Root      4 has converged.
 Root      5 has converged.
 Excitation Energies [eV] at current iteration:
 Root      1 :     1.727719843436679   Change is   -0.000000118352003
 Root      2 :     2.222058979437804   Change is   -0.000000180499265
 Root      3 :     3.265181504706816   Change is   -0.000000178603180
 Root      4 :     3.439369816684930   Change is   -0.000000072471243
 Root      5 :     3.584759984143916   Change is   -0.000006103740336
 Convergence achieved on expansion vectors.
 ***********************************************************************
 Excited states from <AA,BB:AA,BB> singles matrix:
 ***********************************************************************
 
 1PDM for each excited state written to RWF  633
 Ground to excited state transition densities written to RWF  633
 Ground to excited state transition electric dipole moments (Au):
       state          X           Y           Z        Dip. S.      Osc.
         1         1.2475      2.7489      0.0981      9.1223      0.3861
         2         1.3816     -0.7517     -0.1085      2.4856      0.1353
         3         0.0896      0.1000      0.0074      0.0181      0.0014
         4        -0.0060      0.0714      0.0170      0.0054      0.0005
         5        -0.3799      0.2481      0.0067      0.2059      0.0181
 Ground to excited state transition velocity dipole moments (Au):
       state          X           Y           Z        Dip. S.      Osc.
         1        -0.0761     -0.1693     -0.0071      0.0345      0.3622
         2        -0.1071      0.0580      0.0085      0.0149      0.1217
         3        -0.0108     -0.0109     -0.0008      0.0002      0.0013
         4         0.0039     -0.0076     -0.0026      0.0001      0.0004
         5         0.0513     -0.0307     -0.0034      0.0036      0.0181
 Ground to excited state transition magnetic dipole moments (Au):
       state          X           Y           Z
         1         0.0894     -0.1089      1.8695
         2        -0.0004      0.0628      0.1905
         3        -0.0357      0.0738     -1.0232
         4         0.1324     -0.0316      0.0040
         5         0.6127     -0.2594      0.3243
 Ground to excited state transition velocity quadrupole moments (Au):
       state          XX          YY          ZZ          XY          XZ          YZ
         1         1.5191     -0.4826     -0.0006      1.5263      0.0290     -0.1005
         2         1.9513      0.0707     -0.0064     -0.6093     -0.1360      0.0260
         3         0.4088     -0.5142      0.0167      0.2306     -0.0442     -0.0196
         4        -0.0291     -0.1977     -0.0019     -0.1248      0.0733      0.0202
         5        -0.9003      0.0065      0.0062      0.4965      0.0439     -0.0101
 <0|del|b> * <b|rxdel|0> + <0|del|b> * <b|delr+rdel|0>
 Rotatory Strengths (R) in cgs (10**-40 erg-esu-cm/Gauss)
       state          XX          YY          ZZ    R(velocity)    E-M Angle
         1        -4.0999     -8.8636     -5.1959     -6.0531       90.27
         2        34.5971     17.4070     -6.1380     15.2887       77.51
         3        -2.0075      4.5732     -0.4370      0.7096       88.69
         4         3.1132      0.7073      0.3319      1.3841       52.27
         5        17.5409     84.4916    103.4884     68.5070       30.25
 1/2[<0|r|b>*<b|rxdel|0> + (<0|rxdel|b>*<b|r|0>)*]
 Rotatory Strengths (R) in cgs (10**-40 erg-esu-cm/Gauss)
       state          XX          YY          ZZ     R(length)
         1       -78.9089    211.6853   -129.6477      1.0429
         2         0.3971     33.3694     14.6235     16.1300
         3         2.2637     -5.2202      5.3338      0.7924
         4         0.5601      1.5986     -0.0479      0.7036
         5       164.6015     45.5189     -1.5372     69.5277
  1/2[<0|del|b>*<b|r|0> + (<0|r|b>*<b|del|0>)*] (Au)
       state          X           Y           Z        Dip. S.   Osc.(frdel)
         1        -0.0949     -0.4653     -0.0007      0.5609      0.3740
         2        -0.1479     -0.0436     -0.0009      0.1925      0.1283
         3        -0.0010     -0.0011     -0.0000      0.0021      0.0014
         4        -0.0000     -0.0005     -0.0000      0.0006      0.0004
         5        -0.0195     -0.0076     -0.0000      0.0271      0.0181

 Excitation energies and oscillator strengths:
 
 Excited State   1:      Singlet-A      1.7277 eV  717.62 nm  f=0.3861  <S**2>=0.000
     245 -> 248       -0.16901
     246 -> 247        0.68850
     245 <- 248       -0.10400
 This state for optimization and/or second-order correction.
 Total Energy, E(TD-HF/TD-DFT) =  -3007.11724610    
 Copying the excited state density for this state as the 1-particle RhoCI density.
 
 Excited State   2:      Singlet-A      2.2221 eV  557.97 nm  f=0.1353  <S**2>=0.000
     245 -> 247        0.64919
     246 -> 248        0.25981
 
 Excited State   3:      Singlet-A      3.2652 eV  379.72 nm  f=0.0014  <S**2>=0.000
     243 -> 247        0.55983
     244 -> 247       -0.37978
[...]
 Alpha virt. eigenvalues --    1.22262   1.22348   1.22685   1.23452   1.23895
 Alpha virt. eigenvalues --    1.24544   1.24888   1.25090   1.26011   1.26459
 Alpha virt. eigenvalues --    1.26908   1.27288   1.28355   1.28637   1.29167
 Alpha virt. eigenvalues --    1.29456   1.29734   1.31071   1.31183   1.31739
 Alpha virt. eigenvalues --    1.32073   1.32292   1.32545   1.34043   1.34440
 Alpha virt. eigenvalues --    1.34827   1.35041   1.35378   1.35527   1.35654
 Alpha virt. eigenvalues --    1.36606   1.37019   1.37193   1.38146   1.38391
 Alpha virt. eigenvalues --    1.38692   1.39329   1.39366   1.39501   1.40443
 Alpha virt. eigenvalues --    1.40496   1.40976   1.41097   1.41865   1.41962
 Alpha virt. eigenvalues --    1.42508   1.43036   1.43235   1.43504   1.43614
 Alpha virt. eigenvalues --    1.44057   1.44897   1.45260   1.45670   1.46304
 Alpha virt. eigenvalues --    1.47300   1.47510   1.47632   1.48059   1.48493
 Alpha virt. eigenvalues --    1.48830   1.49138   1.49359   1.49688   1.50536
 Alpha virt. eigenvalues --    1.50987   1.51057   1.51911   1.52017   1.52541
 Alpha virt. eigenvalues --    1.52868   1.53381   1.54147   1.54842   1.55491
 Alpha virt. eigenvalues --    1.55826   1.55907   1.56636   1.56836   1.57329
 Alpha virt. eigenvalues --    1.57710   1.58312   1.58431   1.58824   1.58866
 Alpha virt. eigenvalues --    1.59018   1.59052   1.59369   1.59440   1.59564
 Alpha virt. eigenvalues --    1.59845   1.60386   1.60521   1.60915   1.61189
 Alpha virt. eigenvalues --    1.61410   1.61774   1.61919   1.62047   1.62207
 Alpha virt. eigenvalues --    1.62466   1.62682   1.62855   1.63182   1.63543
 Alpha virt. eigenvalues --    1.63713   1.64014   1.64715   1.64865   1.65552
 Alpha virt. eigenvalues --    1.65811   1.65965   1.66172   1.66571   1.66719
 Alpha virt. eigenvalues --    1.66970   1.67073   1.68060   1.68686   1.68915
 Alpha virt. eigenvalues --    1.69567   1.70476   1.70682   1.70883   1.72112
 Alpha virt. eigenvalues --    1.72395   1.72644   1.73038   1.73422   1.73929
 Alpha virt. eigenvalues --    1.74439   1.74651   1.74923   1.75457   1.75984
 Alpha virt. eigenvalues --    1.76247   1.76399   1.77028   1.77047   1.77542
 Alpha virt. eigenvalues --    1.77813   1.77839   1.78300   1.78749   1.78944
 Alpha virt. eigenvalues --    1.79085   1.79226   1.79498   1.79780   1.80255
 Alpha virt. eigenvalues --    1.80446   1.80686   1.80984   1.81064   1.81210
 Alpha virt. eigenvalues --    1.81341   1.81725   1.81745   1.81972   1.82354
 Alpha virt. eigenvalues --    1.82466   1.82640   1.83387   1.83462   1.83683
 Alpha virt. eigenvalues --    1.83906   1.84052   1.84204   1.84313   1.84598
 Alpha virt. eigenvalues --    1.84782   1.85056   1.85125   1.85231   1.85252
 Alpha virt. eigenvalues --    1.85597   1.85727   1.86181   1.86309   1.86597
 Alpha virt. eigenvalues --    1.86754   1.86822   1.87127   1.87147   1.87450
 Alpha virt. eigenvalues --    1.87505   1.87730   1.88034   1.88402   1.88575
 Alpha virt. eigenvalues --    1.88763   1.88819   1.89125   1.89357   1.89402
 Alpha virt. eigenvalues --    1.89459   1.89647   1.89741   1.89922   1.90385
 Alpha virt. eigenvalues --    1.90542   1.90733   1.90849   1.91025   1.91626
 Alpha virt. eigenvalues --    1.91723   1.91920   1.92123   1.92262   1.92733
 Alpha virt. eigenvalues --    1.92887   1.93503   1.93715   1.93749   1.94093
 Alpha virt. eigenvalues --    1.94589   1.94799   1.94964   1.95049   1.95270
 Alpha virt. eigenvalues --    1.95353   1.95633   1.95813   1.96630   1.96798
 Alpha virt. eigenvalues --    1.96932   1.97085   1.97341   1.97489   1.97776
 Alpha virt. eigenvalues --    1.97889   1.98025   1.98206   1.98673   1.98825
 Alpha virt. eigenvalues --    1.99072   1.99426   1.99576   1.99769   2.00259
 Alpha virt. eigenvalues --    2.00322   2.00488   2.00786   2.01196   2.01434
 Alpha virt. eigenvalues --    2.02012   2.02067   2.02123   2.02191   2.02452
 Alpha virt. eigenvalues --    2.02719   2.03250   2.03297   2.03646   2.03728
 Alpha virt. eigenvalues --    2.04010   2.04259   2.04697   2.04952   2.05154
 Alpha virt. eigenvalues --    2.05361   2.05713   2.05917   2.06118   2.06918
 Alpha virt. eigenvalues --    2.07672   2.07796   2.07971   2.08177   2.08788
 Alpha virt. eigenvalues --    2.09090   2.09697   2.09817   2.10186   2.10568
 Alpha virt. eigenvalues --    2.10744   2.10929   2.11132   2.11549   2.11674
 Alpha virt. eigenvalues --    2.11790   2.12188   2.12587   2.13020   2.13356
 Alpha virt. eigenvalues --    2.13625   2.14202   2.14648   2.14844   2.15250
 Alpha virt. eigenvalues --    2.15384   2.16166   2.16336   2.16432   2.16611
 Alpha virt. eigenvalues --    2.16979   2.17321   2.17618   2.17913   2.18024
 Alpha virt. eigenvalues --    2.18125   2.18253   2.18946   2.18975   2.19453
 Alpha virt. eigenvalues --    2.19694   2.20039   2.20152   2.20371   2.20837
 Alpha virt. eigenvalues --    2.21066   2.21430   2.21545   2.21914   2.22107
 Alpha virt. eigenvalues --    2.22554   2.22763   2.24265   2.24880   2.24900
 Alpha virt. eigenvalues --    2.25088   2.25851   2.26151   2.26769   2.27009
 Alpha virt. eigenvalues --    2.27244   2.27428   2.27456   2.27841   2.28283
 Alpha virt. eigenvalues --    2.28640   2.29221   2.29641   2.30437   2.30615
 Alpha virt. eigenvalues --    2.31180   2.31409   2.32375   2.32676   2.33014
 Alpha virt. eigenvalues --    2.33606   2.33925   2.34098   2.34969   2.35341
 Alpha virt. eigenvalues --    2.35520   2.35907   2.35998   2.36226   2.36506
 Alpha virt. eigenvalues --    2.37124   2.37438   2.37869   2.38147   2.38882
 Alpha virt. eigenvalues --    2.38945   2.39541   2.39856   2.39891   2.40689
 Alpha virt. eigenvalues --    2.41453   2.41539   2.41848   2.42573   2.42904
 Alpha virt. eigenvalues --    2.43217   2.43397   2.44143   2.44345   2.44646
 Alpha virt. eigenvalues --    2.44854   2.45480   2.45727   2.45918   2.46169
 Alpha virt. eigenvalues --    2.46522   2.46683   2.47119   2.47697   2.48055
 Alpha virt. eigenvalues --    2.48623   2.49106   2.49629   2.49804   2.50055
 Alpha virt. eigenvalues --    2.50285   2.50583   2.50967   2.51086   2.51229
 Alpha virt. eigenvalues --    2.52064   2.52135   2.52932   2.53315   2.53513
 Alpha virt. eigenvalues --    2.53907   2.54226   2.54826   2.55110   2.55375
 Alpha virt. eigenvalues --    2.55602   2.56742   2.57174   2.57848   2.58535
 Alpha virt. eigenvalues --    2.59249   2.59291   2.59329   2.59692   2.59911
 Alpha virt. eigenvalues --    2.60192   2.60473   2.60850   2.61610   2.62198
 Alpha virt. eigenvalues --    2.62584   2.62719   2.62972   2.63561   2.64015
 Alpha virt. eigenvalues --    2.64373   2.65178   2.65224   2.65366   2.65622
 Alpha virt. eigenvalues --    2.65905   2.66048   2.66192   2.66442   2.67473
 Alpha virt. eigenvalues --    2.68139   2.68608   2.68884   2.69273   2.69302
 Alpha virt. eigenvalues --    2.69930   2.70380   2.70585   2.70938   2.71121
 Alpha virt. eigenvalues --    2.71762   2.72104   2.72748   2.73689   2.74123
 Alpha virt. eigenvalues --    2.74562   2.74835   2.75060   2.75634   2.75952
 Alpha virt. eigenvalues --    2.76520   2.77298   2.77476   2.78114   2.78505
 Alpha virt. eigenvalues --    2.79386   2.79631   2.79868   2.80106   2.80511
 Alpha virt. eigenvalues --    2.80694   2.80873   2.81160   2.81383   2.82024
 Alpha virt. eigenvalues --    2.82741   2.83071   2.83795   2.84002   2.84128
 Alpha virt. eigenvalues --    2.84767   2.85100   2.86424   2.86645   2.87542
 Alpha virt. eigenvalues --    2.87891   2.88477   2.88709   2.89472   2.89853
 Alpha virt. eigenvalues --    2.90012   2.90414   2.91154   2.91433   2.92241
 Alpha virt. eigenvalues --    2.92605   2.93135   2.93815   2.93837   2.94922
 Alpha virt. eigenvalues --    2.95247   2.95578   2.96069   2.96191   2.96735
 Alpha virt. eigenvalues --    2.97133   2.97282   2.97390   2.97581   2.97805
 Alpha virt. eigenvalues --    2.98163   2.98483   2.98549   2.98730   2.98823
 Alpha virt. eigenvalues --    2.99066   2.99816   3.00203   3.00748   3.00764
 Alpha virt. eigenvalues --    3.01369   3.01475   3.01588   3.01932   3.02012
 Alpha virt. eigenvalues --    3.02328   3.02617   3.02765   3.02840   3.03081
 Alpha virt. eigenvalues --    3.03703   3.03918   3.04413   3.05049   3.05152
 Alpha virt. eigenvalues --    3.05267   3.05478   3.05573   3.06205   3.06472
 Alpha virt. eigenvalues --    3.06761   3.07027   3.07501   3.07832   3.08140
 Alpha virt. eigenvalues --    3.08530   3.08692   3.09344   3.09592   3.09966
 Alpha virt. eigenvalues --    3.10307   3.10599   3.10786   3.11310   3.12314
 Alpha virt. eigenvalues --    3.12710   3.13300   3.14032   3.14283   3.14494
 Alpha virt. eigenvalues --    3.14727   3.16398   3.16941   3.17544   3.18212
 Alpha virt. eigenvalues --    3.18868   3.19547   3.19732   3.21553   3.21785
 Alpha virt. eigenvalues --    3.22913   3.23544   3.23799   3.24450   3.25017
 Alpha virt. eigenvalues --    3.25741   3.26468   3.28779   3.29518   3.30452
 Alpha virt. eigenvalues --    3.33476   3.35897   3.43939   3.45884   3.47334
 Alpha virt. eigenvalues --    3.48997   3.51839   3.53510   3.56943   3.59640
 Alpha virt. eigenvalues --    3.63662   3.63889   3.68545   3.70127   3.71420
 Alpha virt. eigenvalues --    3.73091   3.80251
          Condensed to atoms (all electrons):
 Mulliken charges:
               1
     1  Mg   0.815674
     2  C   -0.038871
     3  C   -0.070939
     4  C   -0.055841
     5  C   -0.064904
     6  N   -0.297667
     7  C   -0.034679
     8  C    0.004378
     9  C   -0.091628
    10  C    0.023802
    11  C    0.093144
    12  C    0.081459
    13  C    0.066111
    14  C    0.185350
    15  O   -0.214792
    16  O   -0.403734
    17  N   -0.334184
    18  C    0.155012
    19  C   -0.144610
    20  C   -0.040111
    21  C    0.135073
    22  C    0.110561
    23  C    0.013858
    24  O   -0.190602
    25  C    0.037878
    26  N   -0.335239
    27  C    0.022063
    28  C   -0.051507
    29  C   -0.025022
    30  C    0.059464
    31  C    0.084040
    32  C    0.041750
    33  C   -0.018564
    34  N   -0.347998
    35  C    0.090973
    36  C   -0.190626
    37  C   -0.026030
    38  C    0.124207
    39  C    0.138665
    40  C    0.047330
    41  O   -0.092747
    42  C   -0.023473
    43  C    0.188267
    44  O   -0.232892
    45  O   -0.353056
    46  C    0.195945
    47  C    0.285060
    48  C   -0.131736
    49  C   -0.176785
    50  C    0.090272
    51  C    0.061910
    52  C    0.010583
    53  C    0.057148
    54  C   -0.147469
    55  C    0.067745
    56  C    0.088611
    57  C    0.034014
    58  C    0.020533
    59  C   -0.107460
    60  C    0.058779
    61  C    0.029118
    62  C    0.031408
    63  C    0.043303
    64  C   -0.129692
    65  C    0.026668
    66  C    0.028277
    67  H   -0.049834
    68  H   -0.011095
    69  H   -0.037613
    70  H    0.023032
    71  H    0.015190
    72  H    0.040069
    73  H    0.012702
    74  H    0.028097
    75  H    0.009163
    76  H    0.014342
    77  H    0.028391
    78  H    0.031688
    79  H    0.034698
    80  H    0.033932
    81  H    0.018456
    82  H    0.027861
    83  H    0.017730
    84  H    0.043469
    85  H    0.011351
    86  H   -0.003371
    87  H    0.034150
    88  H    0.031575
    89  H    0.022878
    90  H    0.017544
    91  H    0.002303
    92  H    0.024171
    93  H    0.019462
    94  H    0.011808
    95  H   -0.001056
    96  H    0.047681
    97  H    0.025866
    98  H    0.025779
    99  H    0.026680
   100  H    0.051921
   101  H    0.039122
   102  H    0.009532
   103  H    0.044021
   104  H    0.003138
   105  H    0.034770
   106  H    0.012251
   107  H    0.024400
   108  H    0.005812
   109  H   -0.010846
   110  H   -0.008205
   111  H   -0.004872
   112  H   -0.001354
   113  H   -0.008728
   114  H    0.004561
   115  H    0.005598
   116  H    0.005574
   117  H   -0.011440
   118  H   -0.000270
   119  H   -0.003027
   120  H    0.004575
   121  H    0.003818
   122  H   -0.017099
   123  H   -0.015912
   124  H   -0.021258
   125  H    0.002295
   126  H    0.005563
   127  H   -0.003467
   128  H   -0.015380
   129  H   -0.005757
   130  H    0.005369
   131  H   -0.015509
   132  H   -0.008241
   133  H   -0.010310
   134  H   -0.006897
   135  H    0.009414
   136  H    0.001955
   137  H    0.018166
   138  H    0.004201
   139  H    0.006106
   140  H    0.013734
 Sum of Mulliken charges =  -0.00000
 Mulliken charges with hydrogens summed into heavy atoms:
               1
     1  Mg   0.815674
     2  C   -0.038871
     3  C   -0.120773
     4  C   -0.066937
     5  C   -0.102517
     6  N   -0.297667
     7  C   -0.034679
     8  C    0.027410
     9  C   -0.076438
    10  C    0.023802
    11  C    0.174011
    12  C    0.104964
    13  C    0.126190
    14  C    0.185350
    15  O   -0.214792
    16  O   -0.403734
    17  N   -0.334184
    18  C    0.155012
    19  C   -0.144610
    20  C   -0.040111
    21  C    0.135073
    22  C    0.197647
    23  C    0.013858
    24  O   -0.190602
    25  C    0.126939
    26  N   -0.335239
    27  C    0.022063
    28  C   -0.040156
    29  C   -0.028393
    30  C    0.059464
    31  C    0.172643
    32  C    0.061596
    33  C    0.036878
    34  N   -0.347998
    35  C    0.090973
    36  C   -0.190626
    37  C   -0.026030
    38  C    0.124207
    39  C    0.211156
    40  C    0.047330
    41  O   -0.092747
    42  C    0.002306
    43  C    0.188267
    44  O   -0.232892
    45  O   -0.353056
    46  C    0.313668
    47  C    0.338613
    48  C   -0.128597
    49  C   -0.176785
    50  C    0.161692
    51  C    0.056876
    52  C   -0.002494
    53  C    0.047066
    54  C   -0.142908
    55  C    0.067476
    56  C    0.085315
    57  C    0.042407
    58  C   -0.012478
    59  C   -0.128718
    60  C    0.063170
    61  C    0.007981
    62  C    0.021268
    63  C    0.024752
    64  C   -0.136589
    65  C    0.056203
    66  C    0.052319
 Electronic spatial extent (au):  <R**2>=         117445.9020
 Charge=             -0.0000 electrons
 Dipole moment (field-independent basis, Debye):
    X=              4.1870    Y=              3.8682    Z=             -3.2710  Tot=              6.5722
 Quadrupole moment (field-independent basis, Debye-Ang):
   XX=           -373.1337   YY=           -425.2362   ZZ=           -407.8381
   XY=            -12.2394   XZ=              9.6050   YZ=              8.6510
 Traceless Quadrupole moment (field-independent basis, Debye-Ang):
   XX=             28.9356   YY=            -23.1669   ZZ=             -5.7688
   XY=            -12.2394   XZ=              9.6050   YZ=              8.6510
 Octapole moment (field-independent basis, Debye-Ang**2):
  XXX=           -275.3355  YYY=             -9.4221  ZZZ=             -7.9759  XYY=            253.3475
  XXY=             28.6340  XXZ=            -55.8799  XZZ=            -13.3978  YZZ=             -7.0606
  YYZ=            -27.2549  XYZ=              2.5694
 Hexadecapole moment (field-independent basis, Debye-Ang**3):
 XXXX=        -123627.0977 YYYY=         -24499.4235 ZZZZ=          -8567.9958 XXXY=           -243.2931
 XXXZ=              5.5193 YYYX=           -145.5090 YYYZ=           -108.1508 ZZZX=             61.3132
 ZZZY=             70.7518 XXYY=         -27398.2547 XXZZ=         -23181.3786 YYZZ=          -5447.1788
 XXYZ=            195.4015 YYXZ=            104.9733 ZZXY=             15.0077
 N-N= 9.556425029824D+03 E-N=-2.610526427410D+04  KE= 2.975553069376D+03
 Leave Link  601 at Thu May  5 02:12:16 2022, MaxMem= 10066329600 cpu:              14.8 elap:               0.7
 (Enter /sw/apps/gaussian-16.0/g16/l9999.exe)
 1\1\GINC-BP1-COMPUTE179\SP\RCAM-B3LYP TD-FC\def2SVP\C55H74Mg1N4O6\OF15
 641\05-May-2022\0\\#p cam-b3lyp/Def2SVP td=(nstates=5)\\step_51_chromo
 phore_3 TDDFT with cam-b3lyp functional\\0,1\Mg,0,1.056,7.951,26.056\C
 ,0,1.734,10.066,28.731\C,0,1.605,5.278,28.159\C,0,0.625,5.728,23.456\C
 ,0,1.205,10.609,23.894\N,0,1.766,7.641,28.079\C,0,1.82,8.675,29.043\C,
 0,1.928,8.089,30.417\C,0,2.143,6.577,30.176\C,0,1.872,6.469,28.731\C,0
 ,3.529,5.998,30.517\C,0,0.725,8.472,31.392\C,0,1.165,9.089,32.704\C,0,
 2.139,8.292,33.58\O,0,3.32,8.507,33.762\O,0,1.495,7.091,34.024\N,0,0.9
 18,5.768,25.862\C,0,1.147,4.888,26.913\C,0,0.879,3.521,26.428\C,0,0.60
 2,3.657,24.998\C,0,0.777,5.086,24.712\C,0,1.024,2.27,27.331\C,0,0.331,
 2.532,23.959\O,0,0.195,2.776,22.784\C,0,0.185,1.035,24.289\N,0,0.803,8
 .121,24.006\C,0,0.61,7.109,23.126\C,0,0.487,7.619,21.731\C,0,0.291,9.1
 55,21.949\C,0,0.856,9.363,23.343\C,0,1.733,7.229,20.848\C,0,-1.138,9.8
 6,21.711\C,0,-1.078,10.949,20.601\N,0,1.431,9.984,26.218\C,0,1.478,10.
 943,25.229\C,0,1.689,12.205,25.883\C,0,1.796,11.877,27.258\C,0,1.595,1
 0.548,27.401\C,0,1.791,13.548,25.174\C,0,2.037,12.506,28.566\O,0,2.312
 ,13.579,28.92\C,0,1.988,11.313,29.657\C,0,3.254,11.319,30.367\O,0,4.35
 1,11.045,29.881\O,0,3.132,11.841,31.632\C,0,4.25,11.971,32.576\C,0,2.3
 44,6.21,34.875\C,0,1.473,5.28,35.649\C,0,1.668,4.876,36.946\C,0,2.761,
 5.404,37.892\C,0,0.712,3.827,37.44\C,0,1.275,2.398,37.206\C,0,0.201,1.
 3,37.31\C,0,-0.041,0.903,38.857\C,0,-1.523,0.673,38.935\C,0,0.798,-0.4
 33,39.164\C,0,2.091,-0.112,39.955\C,0,3.358,-0.237,39.072\C,0,4.198,-1
 .497,39.317\C,0,3.577,-2.851,39.063\C,0,4.842,-1.432,40.678\C,0,6.361,
 -1.755,40.728\C,0,7.176,-0.475,40.879\C,0,8.631,-0.555,40.53\C,0,9.521
 ,-0.472,41.828\C,0,9.008,0.485,39.408\H,0,1.66,4.477,28.899\H,0,0.456,
 5.134,22.556\H,0,1.148,11.498,23.262\H,0,2.887,8.512,30.72\H,0,1.386,5
 .978,30.683\H,0,4.136,5.77,29.641\H,0,3.269,5.13,31.124\H,0,3.98,6.735
 ,31.181\H,0,0.078,7.595,31.402\H,0,0.058,9.267,31.057\H,0,0.239,9.257,
 33.254\H,0,1.592,10.041,32.39\H,0,1.566,1.469,26.828\H,0,0.024,1.896,2
 7.553\H,0,1.475,2.548,28.283\H,0,-0.346,0.553,23.468\H,0,-0.41,0.922,2
 5.195\H,0,1.112,0.466,24.36\H,0,-0.465,7.268,21.333\H,0,0.954,9.723,21
 .297\H,0,1.303,6.503,20.158\H,0,2.477,6.792,21.515\H,0,2.176,8.093,20.
 354\H,0,-1.555,10.258,22.636\H,0,-1.853,9.154,21.29\H,0,-0.648,10.514,
 19.698\H,0,-0.575,11.843,20.969\H,0,-2.103,11.252,20.387\H,0,1.412,13.
 479,24.154\H,0,2.823,13.891,25.249\H,0,1.086,14.204,25.684\H,0,1.216,1
 1.459,30.413\H,0,4.963,12.726,32.243\H,0,4.808,11.035,32.604\H,0,3.865
 ,12.428,33.488\H,0,2.675,6.96,35.594\H,0,3.209,5.769,34.379\H,0,0.66,4
 .934,35.01\H,0,3.669,4.809,37.79\H,0,2.442,5.335,38.932\H,0,2.94,6.458
 ,37.681\H,0,-0.209,4.097,36.925\H,0,0.457,3.885,38.499\H,0,1.962,2.325
 ,38.049\H,0,1.909,2.35,36.32\H,0,0.412,0.479,36.624\H,0,-0.692,1.754,3
 6.881\H,0,0.293,1.749,39.458\H,0,-2.123,0.901,38.054\H,0,-1.983,1.105,
 39.823\H,0,-1.732,-0.392,39.039\H,0,0.992,-0.871,38.185\H,0,0.201,-1.1
 62,39.712\H,0,2.209,-0.872,40.728\H,0,2.113,0.87,40.429\H,0,4.028,0.61
 9,39.15\H,0,3.224,-0.225,37.99\H,0,5.011,-1.454,38.593\H,0,4.361,-3.58
 9,39.233\H,0,3.139,-2.963,38.071\H,0,2.796,-3.124,39.773\H,0,4.419,-2.
 177,41.353\H,0,4.604,-0.439,41.059\H,0,6.76,-2.456,39.995\H,0,6.406,-2
 .214,41.715\H,0,7.074,-0.167,41.92\H,0,6.706,0.28,40.249\H,0,8.816,-1.
 539,40.098\H,0,9.247,0.509,42.216\H,0,10.579,-0.426,41.569\H,0,9.47,-1
 .281,42.557\H,0,9.824,1.163,39.661\H,0,8.216,1.172,39.111\H,0,9.279,-0
 .109,38.535\\Version=ES64L-G16RevA.03\State=1-A\HF=-3007.1807386\RMSD=
 8.071e-09\PG=C01 [X(C55H74Mg1N4O6)]\\@


 WE SHOULD BE CAREFUL TO GET OUT OF AN EXPERIENCE ONLY THE WISDOM
 THAT IS IN IT -- AND STOP THERE;
 LEST WE BE LIKE THE CAT THAT SITS DOWN ON A HOT STOVE-LID.
 SHE WILL NEVER SIT DOWN ON A HOT STOVE LID AGAIN;
 BUT ALSO SHE WILL NEVER SIT DOWN ON A COLD ONE ANY MORE.

                                                     -- MARK TWAIN
 Job cpu time:       0 days 11 hours 46 minutes 40.8 seconds.
 Elapsed time:       0 days  0 hours 29 minutes 56.2 seconds.
 File lengths (MBytes):  RWF=   8929 Int=      0 D2E=      0 Chk=    390 Scr=      1
 Normal termination of Gaussian 16 at Thu May  5 02:12:17 2022.
