 Entering Gaussian System, Link 0=g16
 Initial command:
 /sw/apps/gaussian-16.0/g16/l1.exe "/tmp/Gau-244152.inp" -scrdir="/tmp/"
 Entering Link 1 = /sw/apps/gaussian-16.0/g16/l1.exe PID=    244153.
  
 Copyright (c) 1988,1990,1992,1993,1995,1998,2003,2009,2016,
            Gaussian, Inc.  All Rights Reserved.
  
 This is part of the Gaussian(R) 16 program.  It is based on
 the Gaussian(R) 09 system (copyright 2009, Gaussian, Inc.),
 the Gaussian(R) 03 system (copyright 2003, Gaussian, Inc.),
 the Gaussian(R) 98 system (copyright 1998, Gaussian, Inc.),
 the Gaussian(R) 94 system (copyright 1995, Gaussian, Inc.),
 the Gaussian 92(TM) system (copyright 1992, Gaussian, Inc.),
 the Gaussian 90(TM) system (copyright 1990, Gaussian, Inc.),
 the Gaussian 88(TM) system (copyright 1988, Gaussian, Inc.),
 the Gaussian 86(TM) system (copyright 1986, Carnegie Mellon
 University), and the Gaussian 82(TM) system (copyright 1983,
 Carnegie Mellon University). Gaussian is a federally registered
 trademark of Gaussian, Inc.
  
 This software contains proprietary and confidential information,
 including trade secrets, belonging to Gaussian, Inc.
  
 This software is provided under written license and may be
 used, copied, transmitted, or stored only in accord with that
 written license.
  
 The following legend is applicable only to US Government
 contracts under FAR:
  
                    RESTRICTED RIGHTS LEGEND
  
 Use, reproduction and disclosure by the US Government is
 subject to restrictions as set forth in subparagraphs (a)
 and (c) of the Commercial Computer Software - Restricted
 Rights clause in FAR 52.227-19.
  
 Gaussian, Inc.
 340 Quinnipiac St., Bldg. 40, Wallingford CT 06492
  
  
 ---------------------------------------------------------------
 Warning -- This program may not be used in any manner that
 competes with the business of Gaussian, Inc. or will provide
 assistance to any competitor of Gaussian, Inc.  The licensee
 of this program is prohibited from giving any competitor of
 Gaussian, Inc. access to this program.  By using this program,
 the user acknowledges that Gaussian, Inc. is engaged in the
 business of creating and licensing software in the field of
 computational chemistry and represents and warrants to the
 licensee that it is not a competitor of Gaussian, Inc. and that
 it will not use this program in any manner prohibited above.
 ---------------------------------------------------------------
  

 Cite this work as:
 Gaussian 16, Revision A.03,
 M. J. Frisch, G. W. Trucks, H. B. Schlegel, G. E. Scuseria, 
 M. A. Robb, J. R. Cheeseman, G. Scalmani, V. Barone, 
 G. A. Petersson, H. Nakatsuji, X. Li, M. Caricato, A. V. Marenich, 
 J. Bloino, B. G. Janesko, R. Gomperts, B. Mennucci, H. P. Hratchian, 
 J. V. Ortiz, A. F. Izmaylov, J. L. Sonnenberg, D. Williams-Young, 
 F. Ding, F. Lipparini, F. Egidi, J. Goings, B. Peng, A. Petrone, 
 T. Henderson, D. Ranasinghe, V. G. Zakrzewski, J. Gao, N. Rega, 
 G. Zheng, W. Liang, M. Hada, M. Ehara, K. Toyota, R. Fukuda, 
 J. Hasegawa, M. Ishida, T. Nakajima, Y. Honda, O. Kitao, H. Nakai, 
 T. Vreven, K. Throssell, J. A. Montgomery, Jr., J. E. Peralta, 
 F. Ogliaro, M. J. Bearpark, J. J. Heyd, E. N. Brothers, K. N. Kudin, 
 V. N. Staroverov, T. A. Keith, R. Kobayashi, J. Normand, 
 K. Raghavachari, A. P. Rendell, J. C. Burant, S. S. Iyengar, 
 J. Tomasi, M. Cossi, J. M. Millam, M. Klene, C. Adamo, R. Cammi, 
 J. W. Ochterski, R. L. Martin, K. Morokuma, O. Farkas, 
 J. B. Foresman, and D. J. Fox, Gaussian, Inc., Wallingford CT, 2016.
 
 ******************************************
 Gaussian 16:  ES64L-G16RevA.03 25-Dec-2016
                27-Apr-2022 
 ******************************************
 %nproc=24
 Will use up to   24 processors via shared memory.
 %mem=50gb
 --------------------
 #p ZINDO=(nstates=5)
 --------------------
 1/38=1,172=1/1;
 2/12=2,17=6,18=5,40=1/2;
 3/5=2,25=1,41=400000/1,2,3,8;
 4/5=3,35=1/1;
 5/5=2,35=1,38=5/2;
 8/6=1,108=5/1;
 9/41=5,42=1,49=10/14;
 6/7=2,8=2,9=2,10=2/1;
 99/5=1,9=1/99;
 Leave Link    1 at Wed Apr 27 13:43:06 2022, MaxMem=  6710886400 cpu:               0.7 elap:               0.0
 (Enter /sw/apps/gaussian-16.0/g16/l101.exe)
 ------------------------------
 step_1201_chromophore_11 ZINDO
 ------------------------------
 Symbolic Z-matrix:
 Charge =  0 Multiplicity = 1
 Mg                    52.646    24.227    44.44 
 C                     49.779    26.193    43.909 
 C                     50.912    21.462    43.548 
 C                     55.47     22.404    44.542 
 C                     54.472    27.159    45.04 
 N                     50.573    23.896    43.733 
 C                     49.556    24.813    43.687 
 C                     48.299    24.042    43.463 
 C                     48.626    22.554    43.477 
 C                     50.149    22.664    43.539 
 C                     48.015    21.684    44.702 
 C                     47.48     24.409    42.164 
 C                     48.259    24.327    40.813 
 C                     47.6      23.463    39.702 
 O                     46.977    22.392    39.859 
 O                     47.793    24.058    38.478 
 N                     53.172    22.198    43.965 
 C                     52.296    21.212    43.76 
 C                     52.943    19.953    43.68 
 C                     54.36     20.183    43.932 
 C                     54.418    21.651    44.163 
 C                     52.32     18.607    43.361 
 C                     55.494    19.163    44.007 
 O                     55.205    17.99     43.818 
 C                     56.928    19.471    44.505 
 N                     54.722    24.765    44.488 
 C                     55.632    23.749    44.804 
 C                     56.997    24.358    45.121 
 C                     56.682    25.937    45.132 
 C                     55.17     25.967    44.823 
 C                     57.579    23.733    46.487 
 C                     57.518    26.81     44.117 
 C                     58.694    27.647    44.713 
 N                     52.266    26.258    44.56 
 C                     53.065    27.338    44.887 
 C                     52.249    28.508    45.098 
 C                     50.951    28.127    44.649 
 C                     51.008    26.759    44.315 
 C                     52.694    29.921    45.591 
 C                     49.57     28.48     44.515 
 O                     48.964    29.555    44.718 
 C                     48.772    27.348    43.885 
 C                     48.33     27.835    42.601 
 O                     48.954    27.633    41.518 
 O                     47.156    28.512    42.714 
 C                     46.611    28.956    41.431 
 C                     47.134    23.301    37.371 
 C                     48.161    22.234    36.783 
 C                     47.958    20.98     36.258 
 C                     46.635    20.234    36.193 
 C                     49.112    20.193    35.825 
 C                     50.042    20.784    34.704 
 C                     50.757    19.754    33.81 
 C                     52.196    19.301    34.319 
 C                     53.342    20.052    33.746 
 C                     52.293    17.767    34.357 
 C                     52.559    17.144    33.006 
 C                     51.281    16.803    32.3 
 C                     51.247    15.55     31.368 
 C                     51.134    14.263    32.274 
 C                     52.407    15.429    30.442 
 C                     52.087    14.36     29.328 
 C                     52.205    15.008    27.933 
 C                     53.43     14.534    27.123 
 C                     54.364    15.727    26.664 
 C                     53.18     13.43     26.026 
 H                     50.336    20.575    43.278 
 H                     56.358    21.846    44.847 
 H                     55.067    28.047    45.264 
 H                     47.717    24.194    44.372 
 H                     48.199    22.061    42.603 
 H                     47.928    22.301    45.597 
 H                     48.78     20.928    44.881 
 H                     47.077    21.201    44.431 
 H                     47.121    25.438    42.167 
 H                     46.628    23.732    42.231 
 H                     49.26     23.916    40.938 
 H                     48.345    25.355    40.46 
 H                     52.497    18.244    42.348 
 H                     51.247    18.562    43.547 
 H                     52.656    17.73     43.914 
 H                     57.525    18.562    44.439 
 H                     56.881    19.671    45.575 
 H                     57.45     20.315    44.054 
 H                     57.674    24.094    44.308 
 H                     56.878    26.308    46.138 
 H                     58.501    23.19     46.278 
 H                     56.833    23.097    46.963 
 H                     57.791    24.586    47.131 
 H                     56.877    27.369    43.436 
 H                     57.978    26.031    43.508 
 H                     59.591    27.262    44.229 
 H                     58.679    27.571    45.8 
 H                     58.708    28.722    44.533 
 H                     52.26     30.578    44.837 
 H                     53.765    30.088    45.476 
 H                     52.448    30.073    46.642 
 H                     47.966    27.241    44.611 
 H                     46.901    30.002    41.332 
 H                     45.532    28.937    41.586 
 H                     46.714    28.275    40.587 
 H                     46.81     24.091    36.693 
 H                     46.174    22.872    37.657 
 H                     49.169    22.649    36.825 
 H                     46.694    19.262    36.684 
 H                     46.447    19.987    35.148 
 H                     45.902    20.953    36.558 
 H                     48.913    19.137    35.642 
 H                     49.794    20.149    36.674 
 H                     50.852    21.309    35.209 
 H                     49.447    21.367    34.001 
 H                     50.902    20.207    32.829 
 H                     50.079    18.931    33.581 
 H                     52.246    19.666    35.345 
 H                     54.285    19.557    33.978 
 H                     53.396    21.025    34.235 
 H                     53.219    20.217    32.676 
 H                     51.383    17.237    34.64 
 H                     53.013    17.47     35.119 
 H                     53.159    16.243    33.134 
 H                     53.053    17.865    32.355 
 H                     51.108    17.61     31.589 
 H                     50.476    16.55     32.99 
 H                     50.359    15.601    30.738 
 H                     50.092    14.006    32.461 
 H                     51.674    14.41     33.21 
 H                     51.599    13.404    31.79 
 H                     53.265    15.065    31.006 
 H                     52.559    16.456    30.109 
 H                     51.047    14.042    29.393 
 H                     52.764    13.512    29.439 
 H                     52.274    16.094    28. 
 H                     51.274    14.824    27.397 
 H                     54.13     14.004    27.769 
 H                     53.845    16.668    26.842 
 H                     54.663    15.635    25.62 
 H                     55.286    15.603    27.233 
 H                     54.003    12.728    26.159 
 H                     53.322    13.773    25.001 
 H                     52.244    12.878    26.107 
 
 ITRead=  0  0  0  0  0  0  0  0  0  0  0  0  0  0  0  0  0  0  0  0
 ITRead=  0  0  0  0  0  0  0  0  0  0  0  0  0  0  0  0  0  0  0  0
 ITRead=  0  0  0  0  0  0  0  0  0  0  0  0  0  0  0  0  0  0  0  0
 ITRead=  0  0  0  0  0  0  0  0  0  0  0  0  0  0  0  0  0  0  0  0
 ITRead=  0  0  0  0  0  0  0  0  0  0  0  0  0  0  0  0  0  0  0  0
 ITRead=  0  0  0  0  0  0  0  0  0  0  0  0  0  0  0  0  0  0  0  0
 ITRead=  0  0  0  0  0  0  0  0  0  0  0  0  0  0  0  0  0  0  0  0
 MicOpt= -1 -1 -1 -1 -1 -1 -1 -1 -1 -1 -1 -1 -1 -1 -1 -1 -1 -1 -1 -1
 MicOpt= -1 -1 -1 -1 -1 -1 -1 -1 -1 -1 -1 -1 -1 -1 -1 -1 -1 -1 -1 -1
 MicOpt= -1 -1 -1 -1 -1 -1 -1 -1 -1 -1 -1 -1 -1 -1 -1 -1 -1 -1 -1 -1
 MicOpt= -1 -1 -1 -1 -1 -1 -1 -1 -1 -1 -1 -1 -1 -1 -1 -1 -1 -1 -1 -1
 MicOpt= -1 -1 -1 -1 -1 -1 -1 -1 -1 -1 -1 -1 -1 -1 -1 -1 -1 -1 -1 -1
 MicOpt= -1 -1 -1 -1 -1 -1 -1 -1 -1 -1 -1 -1 -1 -1 -1 -1 -1 -1 -1 -1
 MicOpt= -1 -1 -1 -1 -1 -1 -1 -1 -1 -1 -1 -1 -1 -1 -1 -1 -1 -1 -1 -1
 NAtoms=    140 NQM=      140 NQMF=       0 NMMI=      0 NMMIF=      0
                NMic=       0 NMicF=      0.
                    Isotopes and Nuclear Properties:
 (Nuclear quadrupole moments (NQMom) in fm**2, nuclear magnetic moments (NMagM)
  in nuclear magnetons)

  Atom         1           2           3           4           5           6           7           8           9          10
 IAtWgt=          24          12          12          12          12          14          12          12          12          12
 AtmWgt=  23.9850450  12.0000000  12.0000000  12.0000000  12.0000000  14.0030740  12.0000000  12.0000000  12.0000000  12.0000000
 NucSpn=           0           0           0           0           0           2           0           0           0           0
 AtZEff=  -0.0000000  -0.0000000  -0.0000000  -0.0000000  -0.0000000  -0.0000000  -0.0000000  -0.0000000  -0.0000000  -0.0000000
 NQMom=    0.0000000   0.0000000   0.0000000   0.0000000   0.0000000   2.0440000   0.0000000   0.0000000   0.0000000   0.0000000
 NMagM=    0.0000000   0.0000000   0.0000000   0.0000000   0.0000000   0.4037610   0.0000000   0.0000000   0.0000000   0.0000000
 AtZNuc=  12.0000000   6.0000000   6.0000000   6.0000000   6.0000000   7.0000000   6.0000000   6.0000000   6.0000000   6.0000000

  Atom        11          12          13          14          15          16          17          18          19          20
 IAtWgt=          12          12          12          12          16          16          14          12          12          12
 AtmWgt=  12.0000000  12.0000000  12.0000000  12.0000000  15.9949146  15.9949146  14.0030740  12.0000000  12.0000000  12.0000000
 NucSpn=           0           0           0           0           0           0           2           0           0           0
 AtZEff=  -0.0000000  -0.0000000  -0.0000000  -0.0000000  -0.0000000  -0.0000000  -0.0000000  -0.0000000  -0.0000000  -0.0000000
 NQMom=    0.0000000   0.0000000   0.0000000   0.0000000   0.0000000   0.0000000   2.0440000   0.0000000   0.0000000   0.0000000
 NMagM=    0.0000000   0.0000000   0.0000000   0.0000000   0.0000000   0.0000000   0.4037610   0.0000000   0.0000000   0.0000000
 AtZNuc=   6.0000000   6.0000000   6.0000000   6.0000000   8.0000000   8.0000000   7.0000000   6.0000000   6.0000000   6.0000000

  Atom        21          22          23          24          25          26          27          28          29          30
 IAtWgt=          12          12          12          16          12          14          12          12          12          12
 AtmWgt=  12.0000000  12.0000000  12.0000000  15.9949146  12.0000000  14.0030740  12.0000000  12.0000000  12.0000000  12.0000000
 NucSpn=           0           0           0           0           0           2           0           0           0           0
 AtZEff=  -0.0000000  -0.0000000  -0.0000000  -0.0000000  -0.0000000  -0.0000000  -0.0000000  -0.0000000  -0.0000000  -0.0000000
 NQMom=    0.0000000   0.0000000   0.0000000   0.0000000   0.0000000   2.0440000   0.0000000   0.0000000   0.0000000   0.0000000
 NMagM=    0.0000000   0.0000000   0.0000000   0.0000000   0.0000000   0.4037610   0.0000000   0.0000000   0.0000000   0.0000000
 AtZNuc=   6.0000000   6.0000000   6.0000000   8.0000000   6.0000000   7.0000000   6.0000000   6.0000000   6.0000000   6.0000000

  Atom        31          32          33          34          35          36          37          38          39          40
 IAtWgt=          12          12          12          14          12          12          12          12          12          12
 AtmWgt=  12.0000000  12.0000000  12.0000000  14.0030740  12.0000000  12.0000000  12.0000000  12.0000000  12.0000000  12.0000000
 NucSpn=           0           0           0           2           0           0           0           0           0           0
 AtZEff=  -0.0000000  -0.0000000  -0.0000000  -0.0000000  -0.0000000  -0.0000000  -0.0000000  -0.0000000  -0.0000000  -0.0000000
 NQMom=    0.0000000   0.0000000   0.0000000   2.0440000   0.0000000   0.0000000   0.0000000   0.0000000   0.0000000   0.0000000
 NMagM=    0.0000000   0.0000000   0.0000000   0.4037610   0.0000000   0.0000000   0.0000000   0.0000000   0.0000000   0.0000000
 AtZNuc=   6.0000000   6.0000000   6.0000000   7.0000000   6.0000000   6.0000000   6.0000000   6.0000000   6.0000000   6.0000000

  Atom        41          42          43          44          45          46          47          48          49          50
 IAtWgt=          16          12          12          16          16          12          12          12          12          12
 AtmWgt=  15.9949146  12.0000000  12.0000000  15.9949146  15.9949146  12.0000000  12.0000000  12.0000000  12.0000000  12.0000000
 NucSpn=           0           0           0           0           0           0           0           0           0           0
 AtZEff=  -0.0000000  -0.0000000  -0.0000000  -0.0000000  -0.0000000  -0.0000000  -0.0000000  -0.0000000  -0.0000000  -0.0000000
 NQMom=    0.0000000   0.0000000   0.0000000   0.0000000   0.0000000   0.0000000   0.0000000   0.0000000   0.0000000   0.0000000
 NMagM=    0.0000000   0.0000000   0.0000000   0.0000000   0.0000000   0.0000000   0.0000000   0.0000000   0.0000000   0.0000000
 AtZNuc=   8.0000000   6.0000000   6.0000000   8.0000000   8.0000000   6.0000000   6.0000000   6.0000000   6.0000000   6.0000000

  Atom        51          52          53          54          55          56          57          58          59          60
 IAtWgt=          12          12          12          12          12          12          12          12          12          12
 AtmWgt=  12.0000000  12.0000000  12.0000000  12.0000000  12.0000000  12.0000000  12.0000000  12.0000000  12.0000000  12.0000000
 NucSpn=           0           0           0           0           0           0           0           0           0           0
 AtZEff=  -0.0000000  -0.0000000  -0.0000000  -0.0000000  -0.0000000  -0.0000000  -0.0000000  -0.0000000  -0.0000000  -0.0000000
 NQMom=    0.0000000   0.0000000   0.0000000   0.0000000   0.0000000   0.0000000   0.0000000   0.0000000   0.0000000   0.0000000
 NMagM=    0.0000000   0.0000000   0.0000000   0.0000000   0.0000000   0.0000000   0.0000000   0.0000000   0.0000000   0.0000000
 AtZNuc=   6.0000000   6.0000000   6.0000000   6.0000000   6.0000000   6.0000000   6.0000000   6.0000000   6.0000000   6.0000000

  Atom        61          62          63          64          65          66          67          68          69          70
 IAtWgt=          12          12          12          12          12          12           1           1           1           1
 AtmWgt=  12.0000000  12.0000000  12.0000000  12.0000000  12.0000000  12.0000000   1.0078250   1.0078250   1.0078250   1.0078250
 NucSpn=           0           0           0           0           0           0           1           1           1           1
 AtZEff=  -0.0000000  -0.0000000  -0.0000000  -0.0000000  -0.0000000  -0.0000000  -0.0000000  -0.0000000  -0.0000000  -0.0000000
 NQMom=    0.0000000   0.0000000   0.0000000   0.0000000   0.0000000   0.0000000   0.0000000   0.0000000   0.0000000   0.0000000
 NMagM=    0.0000000   0.0000000   0.0000000   0.0000000   0.0000000   0.0000000   2.7928460   2.7928460   2.7928460   2.7928460
 AtZNuc=   6.0000000   6.0000000   6.0000000   6.0000000   6.0000000   6.0000000   1.0000000   1.0000000   1.0000000   1.0000000

  Atom        71          72          73          74          75          76          77          78          79          80
 IAtWgt=           1           1           1           1           1           1           1           1           1           1
 AtmWgt=   1.0078250   1.0078250   1.0078250   1.0078250   1.0078250   1.0078250   1.0078250   1.0078250   1.0078250   1.0078250
 NucSpn=           1           1           1           1           1           1           1           1           1           1
 AtZEff=  -0.0000000  -0.0000000  -0.0000000  -0.0000000  -0.0000000  -0.0000000  -0.0000000  -0.0000000  -0.0000000  -0.0000000
 NQMom=    0.0000000   0.0000000   0.0000000   0.0000000   0.0000000   0.0000000   0.0000000   0.0000000   0.0000000   0.0000000
 NMagM=    2.7928460   2.7928460   2.7928460   2.7928460   2.7928460   2.7928460   2.7928460   2.7928460   2.7928460   2.7928460
 AtZNuc=   1.0000000   1.0000000   1.0000000   1.0000000   1.0000000   1.0000000   1.0000000   1.0000000   1.0000000   1.0000000

  Atom        81          82          83          84          85          86          87          88          89          90
 IAtWgt=           1           1           1           1           1           1           1           1           1           1
 AtmWgt=   1.0078250   1.0078250   1.0078250   1.0078250   1.0078250   1.0078250   1.0078250   1.0078250   1.0078250   1.0078250
 NucSpn=           1           1           1           1           1           1           1           1           1           1
 AtZEff=  -0.0000000  -0.0000000  -0.0000000  -0.0000000  -0.0000000  -0.0000000  -0.0000000  -0.0000000  -0.0000000  -0.0000000
 NQMom=    0.0000000   0.0000000   0.0000000   0.0000000   0.0000000   0.0000000   0.0000000   0.0000000   0.0000000   0.0000000
 NMagM=    2.7928460   2.7928460   2.7928460   2.7928460   2.7928460   2.7928460   2.7928460   2.7928460   2.7928460   2.7928460
 AtZNuc=   1.0000000   1.0000000   1.0000000   1.0000000   1.0000000   1.0000000   1.0000000   1.0000000   1.0000000   1.0000000

  Atom        91          92          93          94          95          96          97          98          99         100
 IAtWgt=           1           1           1           1           1           1           1           1           1           1
 AtmWgt=   1.0078250   1.0078250   1.0078250   1.0078250   1.0078250   1.0078250   1.0078250   1.0078250   1.0078250   1.0078250
 NucSpn=           1           1           1           1           1           1           1           1           1           1
 AtZEff=  -0.0000000  -0.0000000  -0.0000000  -0.0000000  -0.0000000  -0.0000000  -0.0000000  -0.0000000  -0.0000000  -0.0000000
 NQMom=    0.0000000   0.0000000   0.0000000   0.0000000   0.0000000   0.0000000   0.0000000   0.0000000   0.0000000   0.0000000
 NMagM=    2.7928460   2.7928460   2.7928460   2.7928460   2.7928460   2.7928460   2.7928460   2.7928460   2.7928460   2.7928460
 AtZNuc=   1.0000000   1.0000000   1.0000000   1.0000000   1.0000000   1.0000000   1.0000000   1.0000000   1.0000000   1.0000000

  Atom       101         102         103         104         105         106         107         108         109         110
 IAtWgt=           1           1           1           1           1           1           1           1           1           1
 AtmWgt=   1.0078250   1.0078250   1.0078250   1.0078250   1.0078250   1.0078250   1.0078250   1.0078250   1.0078250   1.0078250
 NucSpn=           1           1           1           1           1           1           1           1           1           1
 AtZEff=  -0.0000000  -0.0000000  -0.0000000  -0.0000000  -0.0000000  -0.0000000  -0.0000000  -0.0000000  -0.0000000  -0.0000000
 NQMom=    0.0000000   0.0000000   0.0000000   0.0000000   0.0000000   0.0000000   0.0000000   0.0000000   0.0000000   0.0000000
 NMagM=    2.7928460   2.7928460   2.7928460   2.7928460   2.7928460   2.7928460   2.7928460   2.7928460   2.7928460   2.7928460
 AtZNuc=   1.0000000   1.0000000   1.0000000   1.0000000   1.0000000   1.0000000   1.0000000   1.0000000   1.0000000   1.0000000

  Atom       111         112         113         114         115         116         117         118         119         120
 IAtWgt=           1           1           1           1           1           1           1           1           1           1
 AtmWgt=   1.0078250   1.0078250   1.0078250   1.0078250   1.0078250   1.0078250   1.0078250   1.0078250   1.0078250   1.0078250
 NucSpn=           1           1           1           1           1           1           1           1           1           1
 AtZEff=  -0.0000000  -0.0000000  -0.0000000  -0.0000000  -0.0000000  -0.0000000  -0.0000000  -0.0000000  -0.0000000  -0.0000000
 NQMom=    0.0000000   0.0000000   0.0000000   0.0000000   0.0000000   0.0000000   0.0000000   0.0000000   0.0000000   0.0000000
 NMagM=    2.7928460   2.7928460   2.7928460   2.7928460   2.7928460   2.7928460   2.7928460   2.7928460   2.7928460   2.7928460
 AtZNuc=   1.0000000   1.0000000   1.0000000   1.0000000   1.0000000   1.0000000   1.0000000   1.0000000   1.0000000   1.0000000

  Atom       121         122         123         124         125         126         127         128         129         130
 IAtWgt=           1           1           1           1           1           1           1           1           1           1
 AtmWgt=   1.0078250   1.0078250   1.0078250   1.0078250   1.0078250   1.0078250   1.0078250   1.0078250   1.0078250   1.0078250
 NucSpn=           1           1           1           1           1           1           1           1           1           1
 AtZEff=  -0.0000000  -0.0000000  -0.0000000  -0.0000000  -0.0000000  -0.0000000  -0.0000000  -0.0000000  -0.0000000  -0.0000000
 NQMom=    0.0000000   0.0000000   0.0000000   0.0000000   0.0000000   0.0000000   0.0000000   0.0000000   0.0000000   0.0000000
 NMagM=    2.7928460   2.7928460   2.7928460   2.7928460   2.7928460   2.7928460   2.7928460   2.7928460   2.7928460   2.7928460
 AtZNuc=   1.0000000   1.0000000   1.0000000   1.0000000   1.0000000   1.0000000   1.0000000   1.0000000   1.0000000   1.0000000

  Atom       131         132         133         134         135         136         137         138         139         140
 IAtWgt=           1           1           1           1           1           1           1           1           1           1
 AtmWgt=   1.0078250   1.0078250   1.0078250   1.0078250   1.0078250   1.0078250   1.0078250   1.0078250   1.0078250   1.0078250
 NucSpn=           1           1           1           1           1           1           1           1           1           1
 AtZEff=  -0.0000000  -0.0000000  -0.0000000  -0.0000000  -0.0000000  -0.0000000  -0.0000000  -0.0000000  -0.0000000  -0.0000000
 NQMom=    0.0000000   0.0000000   0.0000000   0.0000000   0.0000000   0.0000000   0.0000000   0.0000000   0.0000000   0.0000000
 NMagM=    2.7928460   2.7928460   2.7928460   2.7928460   2.7928460   2.7928460   2.7928460   2.7928460   2.7928460   2.7928460
 AtZNuc=   1.0000000   1.0000000   1.0000000   1.0000000   1.0000000   1.0000000   1.0000000   1.0000000   1.0000000   1.0000000
 Leave Link  101 at Wed Apr 27 13:43:06 2022, MaxMem=  6710886400 cpu:               3.0 elap:               0.1
 (Enter /sw/apps/gaussian-16.0/g16/l202.exe)
 Stoichiometry    C55H74MgN4O6
 Framework group  C1[X(C55H74MgN4O6)]
 Deg. of freedom   414
 Full point group                 C1      NOp   1
 Largest Abelian subgroup         C1      NOp   1
 Largest concise Abelian subgroup C1      NOp   1
                         Standard orientation:                         
 ---------------------------------------------------------------------
 Center     Atomic      Atomic             Coordinates (Angstroms)
 Number     Number       Type             X           Y           Z
 ---------------------------------------------------------------------
      1         12           0       -4.701970    1.220400    0.497274
      2          6           0       -5.326932   -2.216142    0.089340
      3          6           0       -2.336138    0.512959    2.810283
      4          6           0       -3.807743    4.460650    0.596491
      5          6           0       -6.927761    1.875876   -2.130863
      6          7           0       -3.880499   -0.673619    1.300155
      7          6           0       -4.344994   -1.942136    1.071242
      8          6           0       -3.685670   -2.823710    2.077614
      9          6           0       -2.848460   -1.960815    3.013436
     10          6           0       -3.001527   -0.628706    2.280272
     11          6           0       -3.332619   -1.879011    4.559316
     12          6           0       -2.814669   -4.007582    1.500850
     13          6           0       -1.683550   -3.606610    0.501572
     14          6           0       -0.261251   -4.132748    0.841193
     15          8           0        0.243301   -4.242283    1.978405
     16          8           0        0.391200   -4.482419   -0.317033
     17          7           0       -3.158718    2.349471    1.478453
     18          6           0       -2.400855    1.894510    2.478580
     19          6           0       -1.626942    2.932959    3.055443
     20          6           0       -2.001651    4.170467    2.382791
     21          6           0       -3.037396    3.717809    1.416313
     22          6           0       -0.575074    2.813659    4.142156
     23          6           0       -1.504527    5.589680    2.648653
     24          8           0       -0.667084    5.733763    3.527915
     25          6           0       -2.125597    6.871870    2.040799
     26          7           0       -5.104290    2.879346   -0.801787
     27          6           0       -4.800641    4.155198   -0.311675
     28          6           0       -5.445416    5.217365   -1.200866
     29          6           0       -6.355773    4.336484   -2.194791
     30          6           0       -6.081806    2.901269   -1.697173
     31          6           0       -6.216485    6.304311   -0.295711
     32          6           0       -6.050697    4.504923   -3.734209
     33          6           0       -7.049909    5.378658   -4.556962
     34          7           0       -5.960056    0.135326   -0.737066
     35          6           0       -6.869768    0.515102   -1.706564
     36          6           0       -7.695123   -0.608647   -2.074332
     37          6           0       -7.075532   -1.729812   -1.449303
     38          6           0       -6.016173   -1.237494   -0.660880
     39          6           0       -8.923187   -0.631835   -3.038160
     40          6           0       -7.133947   -3.129190   -1.152564
     41          8           0       -7.903435   -4.031216   -1.550444
     42          6           0       -5.946738   -3.561237   -0.304626
     43          6           0       -5.166777   -4.450839   -1.130130
     44          8           0       -4.181543   -4.077839   -1.832450
     45          8           0       -5.618929   -5.729592   -1.031518
     46          6           0       -4.812377   -6.694466   -1.779009
     47          6           0        1.748602   -5.048417   -0.052676
     48          6           0        2.817260   -3.866498   -0.051895
     49          6           0        3.973687   -3.695718    0.671196
     50          6           0        4.490390   -4.607420    1.772508
     51          6           0        4.751172   -2.469945    0.493514
     52          6           0        5.302869   -2.135569   -0.939889
     53          6           0        6.608241   -1.319923   -0.985579
     54          6           0        6.416363    0.259717   -1.039732
     55          6           0        6.422612    0.857840   -2.399090
     56          6           0        7.266355    0.940690    0.045533
     57          6           0        8.722225    1.090259   -0.331504
     58          6           0        9.528253   -0.090239    0.120985
     59          6           0       11.012319    0.132917    0.554041
     60          6           0       11.016213    0.741378    2.009972
     61          6           0       11.808876    0.991172   -0.366075
     62          6           0       13.343006    0.845049   -0.032532
     63          6           0       14.106573    0.367027   -1.284856
     64          6           0       15.009997    1.445914   -1.918282
     65          6           0       14.673960    1.713681   -3.441983
     66          6           0       16.548601    1.379709   -1.582066
     67          1           0       -1.589879    0.272289    3.569638
     68          1           0       -3.758333    5.539482    0.759626
     69          1           0       -7.637498    2.122037   -2.923595
     70          1           0       -4.501012   -3.182075    2.706025
     71          1           0       -1.839439   -2.364358    3.104449
     72          1           0       -4.417038   -1.976415    4.621208
     73          1           0       -3.063063   -0.864762    4.855017
     74          1           0       -2.808950   -2.597108    5.189142
     75          1           0       -3.400581   -4.719819    0.920199
     76          1           0       -2.457639   -4.493481    2.409229
     77          1           0       -1.574630   -2.526387    0.413242
     78          1           0       -1.989418   -4.007116   -0.465293
     79          1           0        0.457157    2.866044    3.794275
     80          1           0       -0.673617    1.918087    4.755499
     81          1           0       -0.530411    3.581338    4.914496
     82          1           0       -1.563427    7.735539    2.394476
     83          1           0       -3.113853    7.011420    2.477818
     84          1           0       -2.256595    6.907043    0.959216
     85          1           0       -4.646441    5.726369   -1.740817
     86          1           0       -7.396457    4.612229   -2.024396
     87          1           0       -5.756611    7.283923   -0.427959
     88          1           0       -6.219970    5.995905    0.749498
     89          1           0       -7.239413    6.323224   -0.670610
     90          1           0       -5.799797    3.555544   -4.206280
     91          1           0       -5.116219    5.065909   -3.697213
     92          1           0       -6.455701    6.209423   -4.936219
     93          1           0       -7.893910    5.656161   -3.925912
     94          1           0       -7.522355    4.937648   -5.434758
     95          1           0       -8.674394   -1.451463   -3.712573
     96          1           0       -8.952873    0.232513   -3.701617
     97          1           0       -9.863170   -0.656139   -2.486740
     98          1           0       -6.457638   -4.064779    0.516098
     99          1           0       -5.341381   -6.858591   -2.717750
    100          1           0       -4.900413   -7.612781   -1.197998
    101          1           0       -3.733178   -6.546078   -1.775126
    102          1           0        1.855875   -5.802311   -0.832994
    103          1           0        1.786624   -5.672550    0.839764
    104          1           0        2.518071   -3.115162   -0.784038
    105          1           0        4.647530   -4.065632    2.705845
    106          1           0        5.491315   -4.932731    1.488431
    107          1           0        3.796836   -5.447930    1.774076
    108          1           0        5.514016   -2.288738    1.250784
    109          1           0        4.065331   -1.639984    0.662772
    110          1           0        4.567096   -1.491346   -1.419853
    111          1           0        5.556742   -3.058354   -1.461558
    112          1           0        7.145160   -1.599707   -1.892239
    113          1           0        7.286754   -1.666157   -0.205069
    114          1           0        5.366537    0.412278   -0.788750
    115          1           0        6.493972    1.944131   -2.344516
    116          1           0        5.461266    0.652626   -2.870754
    117          1           0        7.205000    0.427325   -3.023413
    118          1           0        7.363718    0.398988    0.986898
    119          1           0        6.796344    1.880126    0.335019
    120          1           0        9.121198    2.000294    0.116650
    121          1           0        8.826203    1.099185   -1.416302
    122          1           0        9.648826   -0.723816   -0.756934
    123          1           0        9.130833   -0.545860    1.027958
    124          1           0       11.520471   -0.830787    0.587232
    125          1           0       11.038162   -0.045407    2.763146
    126          1           0       10.152920    1.392707    2.150680
    127          1           0       11.894506    1.367463    2.168026
    128          1           0       11.535696    2.031618   -0.194026
    129          1           0       11.485549    0.654765   -1.351474
    130          1           0       13.499720    0.053929    0.699941
    131          1           0       13.723368    1.799484    0.333711
    132          1           0       13.424563    0.030414   -2.066009
    133          1           0       14.674374   -0.522745   -1.013157
    134          1           0       14.769479    2.428449   -1.512089
    135          1           0       13.999847    0.934395   -3.795271
    136          1           0       15.572306    1.764078   -4.056992
    137          1           0       14.256822    2.720880   -3.469664
    138          1           0       16.823153    2.414033   -1.375628
    139          1           0       17.184904    1.128614   -2.430893
    140          1           0       16.824350    0.774530   -0.718885
 ---------------------------------------------------------------------
 Rotational constants (GHZ):           0.0364448           0.0111234           0.0096604
 Leave Link  202 at Wed Apr 27 13:43:06 2022, MaxMem=  6710886400 cpu:               0.2 elap:               0.0
 (Enter /sw/apps/gaussian-16.0/g16/l301.exe)
 Standard basis: VSTO-6G (5D, 7F)
 Ernie: Thresh=  0.10000D-02 Tol=  0.10000D-05 Strict=F.
 There are   338 symmetry adapted cartesian basis functions of A   symmetry.
 There are   338 symmetry adapted basis functions of A   symmetry.
   338 basis functions,  2028 primitive gaussians,   338 cartesian basis functions
   176 alpha electrons      176 beta electrons
       nuclear repulsion energy      4822.5116984339 Hartrees.
 IExCor=    0 DFT=F Ex=HF Corr=None ExCW=0 ScaHFX=  1.000000
 ScaDFX=  1.000000  1.000000  1.000000  1.000000 ScalE2=  1.000000  1.000000
 IRadAn=      5 IRanWt=     -1 IRanGd=            0 ICorTp=0 IEmpDi=  4
 Integral buffers will be    131072 words long.
 Regular integral format.
 Two-electron integral symmetry is turned off.
 Leave Link  301 at Wed Apr 27 13:43:06 2022, MaxMem=  6710886400 cpu:               1.4 elap:               0.1
 (Enter /sw/apps/gaussian-16.0/g16/l302.exe)
 Do NDO integrals.
 NPDir=0 NMtPBC=     1 NCelOv=     1 NCel=       1 NClECP=     1 NCelD=      1
         NCelK=      1 NCelE2=     1 NClLst=     1 CellRange=     0.0.
 One-electron integrals computed using PRISM.
 Generate ZINDO/S integrals.
 NDO Nuclear repulsion=  4342.740714994769 Hartrees.
 NBasis=   338 RedAO= F EigKep=  0.00D+00  NBF=   338
 NBsUse=   338 1.00D-04 EigRej=  0.00D+00 NBFU=   338
 Leave Link  302 at Wed Apr 27 13:43:07 2022, MaxMem=  6710886400 cpu:               9.8 elap:               0.4
 (Enter /sw/apps/gaussian-16.0/g16/l303.exe)
 DipDrv:  MaxL=1.
 DipDrv:  will hold  3 matrices at once.
 Leave Link  303 at Wed Apr 27 13:43:07 2022, MaxMem=  6710886400 cpu:               0.5 elap:               0.0
 (Enter /sw/apps/gaussian-16.0/g16/l308.exe)
 Leave Link  308 at Wed Apr 27 13:43:07 2022, MaxMem=  6710886400 cpu:               6.7 elap:               0.3
 (Enter /sw/apps/gaussian-16.0/g16/l401.exe)
 Simple Huckel Guess.
 JPrj=0 DoOrth=F DoCkMO=F.
 Leave Link  401 at Wed Apr 27 13:43:07 2022, MaxMem=  6710886400 cpu:               2.6 elap:               0.1
 (Enter /sw/apps/gaussian-16.0/g16/l502.exe)
 Two-electron integral symmetry not used.
 Closed shell SCF:
 Using DIIS extrapolation, IDIIS=  1040.
 Overlap will be assumed to be unity.
 NGot=  6710886400 LenX=  6710643598 LenY=  6710528913
 Requested convergence on RMS density matrix=1.00D-08 within 128 cycles.
 Requested convergence on MAX density matrix=1.00D-06.
 Requested convergence on             energy=1.00D-06.
 No special actions if energy rises.
 Fock matrices will be formed incrementally for  20 cycles.

 Cycle   1  Pass 1  IDiag  1:
 E= -472.203130900112    
 DIIS: error= 5.43D-02 at cycle   1 NSaved=   1.
 NSaved= 1 IEnMin= 1 EnMin= -472.203130900112     IErMin= 1 ErrMin= 5.43D-02
 ErrMax= 5.43D-02  0.00D+00 EMaxC= 1.00D-01 BMatC= 8.41D-01 BMatP= 8.41D-01
 IDIUse=3 WtCom= 4.57D-01 WtEn= 5.43D-01
 Coeff-Com:  0.100D+01
 Coeff-En:   0.100D+01
 Coeff:      0.100D+01
 GapD=    2.000 DampG=2.000 DampE=0.500 DampFc=1.0000 IDamp=-1.
 RMSDP=4.05D-03 MaxDP=1.66D-01              OVMax= 0.00D+00

 Cycle   2  Pass 1  IDiag  1:
 RMSU=  4.05D-03    CP:  9.95D-01
 E= -474.054068298073     Delta-E=       -1.850937397960 Rises=F Damp=F
 DIIS: error= 1.97D-02 at cycle   2 NSaved=   2.
 NSaved= 2 IEnMin= 2 EnMin= -474.054068298073     IErMin= 2 ErrMin= 1.97D-02
 ErrMax= 1.97D-02  0.00D+00 EMaxC= 1.00D-01 BMatC= 5.38D-02 BMatP= 8.41D-01
 IDIUse=3 WtCom= 8.03D-01 WtEn= 1.97D-01
 Coeff-Com: -0.641D-01 0.106D+01
 Coeff-En:   0.000D+00 0.100D+01
 Coeff:     -0.515D-01 0.105D+01
 RMSDP=1.12D-03 MaxDP=6.24D-02 DE=-1.85D+00 OVMax= 0.00D+00

 Cycle   3  Pass 1  IDiag  1:
 RMSU=  1.06D-03    CP:  9.93D-01  1.09D+00
 E= -474.157647299999     Delta-E=       -0.103579001926 Rises=F Damp=F
 DIIS: error= 8.73D-03 at cycle   3 NSaved=   3.
 NSaved= 3 IEnMin= 3 EnMin= -474.157647299999     IErMin= 3 ErrMin= 8.73D-03
 ErrMax= 8.73D-03  0.00D+00 EMaxC= 1.00D-01 BMatC= 7.51D-03 BMatP= 5.38D-02
 IDIUse=3 WtCom= 9.13D-01 WtEn= 8.73D-02
 Coeff-Com: -0.679D-01 0.239D+00 0.829D+00
 Coeff-En:   0.000D+00 0.000D+00 0.100D+01
 Coeff:     -0.620D-01 0.218D+00 0.844D+00
 RMSDP=3.77D-04 MaxDP=1.67D-02 DE=-1.04D-01 OVMax= 0.00D+00

 Cycle   4  Pass 1  IDiag  1:
 RMSU=  2.41D-04    CP:  9.93D-01  1.15D+00  9.30D-01
 E= -474.171055797011     Delta-E=       -0.013408497012 Rises=F Damp=F
 DIIS: error= 1.31D-03 at cycle   4 NSaved=   4.
 NSaved= 4 IEnMin= 4 EnMin= -474.171055797011     IErMin= 4 ErrMin= 1.31D-03
 ErrMax= 1.31D-03  0.00D+00 EMaxC= 1.00D-01 BMatC= 3.03D-04 BMatP= 7.51D-03
 IDIUse=3 WtCom= 9.87D-01 WtEn= 1.31D-02
 Coeff-Com:  0.371D-03-0.357D-01 0.183D-01 0.102D+01
 Coeff-En:   0.000D+00 0.000D+00 0.000D+00 0.100D+01
 Coeff:      0.366D-03-0.352D-01 0.180D-01 0.102D+01
 RMSDP=1.27D-04 MaxDP=5.51D-03 DE=-1.34D-02 OVMax= 0.00D+00

 Cycle   5  Pass 1  IDiag  1:
 RMSU=  8.15D-05    CP:  9.92D-01  1.16D+00  1.02D+00  1.10D+00
 E= -474.172094151110     Delta-E=       -0.001038354099 Rises=F Damp=F
 DIIS: error= 5.07D-04 at cycle   5 NSaved=   5.
 NSaved= 5 IEnMin= 5 EnMin= -474.172094151110     IErMin= 5 ErrMin= 5.07D-04
 ErrMax= 5.07D-04  0.00D+00 EMaxC= 1.00D-01 BMatC= 5.44D-05 BMatP= 3.03D-04
 IDIUse=3 WtCom= 9.95D-01 WtEn= 5.07D-03
 Coeff-Com:  0.607D-02-0.242D-01-0.948D-01 0.174D+00 0.939D+00
 Coeff-En:   0.000D+00 0.000D+00 0.000D+00 0.000D+00 0.100D+01
 Coeff:      0.604D-02-0.241D-01-0.943D-01 0.173D+00 0.939D+00
 RMSDP=5.78D-05 MaxDP=2.65D-03 DE=-1.04D-03 OVMax= 0.00D+00

 Cycle   6  Pass 1  IDiag  1:
 RMSU=  3.09D-05    CP:  9.92D-01  1.16D+00  1.03D+00  1.27D+00  1.17D+00
 E= -474.172288263375     Delta-E=       -0.000194112265 Rises=F Damp=F
 DIIS: error= 1.84D-04 at cycle   6 NSaved=   6.
 NSaved= 6 IEnMin= 6 EnMin= -474.172288263375     IErMin= 6 ErrMin= 1.84D-04
 ErrMax= 1.84D-04  0.00D+00 EMaxC= 1.00D-01 BMatC= 6.71D-06 BMatP= 5.44D-05
 IDIUse=3 WtCom= 9.98D-01 WtEn= 1.84D-03
 Coeff-Com: -0.333D-03 0.635D-02-0.109D-01-0.110D+00 0.192D-01 0.110D+01
 Coeff-En:   0.000D+00 0.000D+00 0.000D+00 0.000D+00 0.000D+00 0.100D+01
 Coeff:     -0.332D-03 0.634D-02-0.108D-01-0.110D+00 0.192D-01 0.110D+01
 RMSDP=3.51D-05 MaxDP=1.09D-03 DE=-1.94D-04 OVMax= 0.00D+00

 Cycle   7  Pass 1  IDiag  1:
 RMSU=  1.71D-05    CP:  9.92D-01  1.16D+00  1.04D+00  1.32D+00  1.44D+00
                    CP:  1.53D+00
 E= -474.172333420608     Delta-E=       -0.000045157233 Rises=F Damp=F
 DIIS: error= 7.79D-05 at cycle   7 NSaved=   7.
 NSaved= 7 IEnMin= 7 EnMin= -474.172333420608     IErMin= 7 ErrMin= 7.79D-05
 ErrMax= 7.79D-05  0.00D+00 EMaxC= 1.00D-01 BMatC= 1.57D-06 BMatP= 6.71D-06
 IDIUse=1 WtCom= 1.00D+00 WtEn= 0.00D+00
 Coeff-Com: -0.629D-03 0.264D-02 0.830D-02-0.119D-01-0.107D+00 0.146D-01
 Coeff-Com:  0.109D+01
 Coeff:     -0.629D-03 0.264D-02 0.830D-02-0.119D-01-0.107D+00 0.146D-01
 Coeff:      0.109D+01
 RMSDP=2.41D-05 MaxDP=6.65D-04 DE=-4.52D-05 OVMax= 0.00D+00

 Cycle   8  Pass 1  IDiag  1:
 RMSU=  5.90D-06    CP:  9.92D-01  1.16D+00  1.04D+00  1.33D+00  1.56D+00
                    CP:  2.01D+00  1.82D+00
 E= -474.172353556740     Delta-E=       -0.000020136132 Rises=F Damp=F
 DIIS: error= 4.97D-05 at cycle   8 NSaved=   8.
 NSaved= 8 IEnMin= 8 EnMin= -474.172353556740     IErMin= 8 ErrMin= 4.97D-05
 ErrMax= 4.97D-05  0.00D+00 EMaxC= 1.00D-01 BMatC= 7.83D-07 BMatP= 1.57D-06
 IDIUse=1 WtCom= 1.00D+00 WtEn= 0.00D+00
 Coeff-Com:  0.285D-03-0.241D-02 0.508D-04 0.332D-01 0.117D-01-0.227D+00
 Coeff-Com: -0.533D+00 0.172D+01
 Coeff:      0.285D-03-0.241D-02 0.508D-04 0.332D-01 0.117D-01-0.227D+00
 Coeff:     -0.533D+00 0.172D+01
 RMSDP=3.44D-05 MaxDP=8.40D-04 DE=-2.01D-05 OVMax= 0.00D+00

 Cycle   9  Pass 1  IDiag  1:
 RMSU=  6.00D-06    CP:  9.92D-01  1.16D+00  1.05D+00  1.35D+00  1.72D+00
                    CP:  2.61D+00  3.00D+00  2.31D+00
 E= -474.172374000190     Delta-E=       -0.000020443450 Rises=F Damp=F
 DIIS: error= 3.27D-05 at cycle   9 NSaved=   9.
 NSaved= 9 IEnMin= 9 EnMin= -474.172374000190     IErMin= 9 ErrMin= 3.27D-05
 ErrMax= 3.27D-05  0.00D+00 EMaxC= 1.00D-01 BMatC= 5.09D-07 BMatP= 7.83D-07
 IDIUse=1 WtCom= 1.00D+00 WtEn= 0.00D+00
 Coeff-Com:  0.373D-03-0.134D-02-0.576D-02 0.148D-02 0.661D-01 0.847D-01
 Coeff-Com: -0.101D+01 0.260D+00 0.161D+01
 Coeff:      0.373D-03-0.134D-02-0.576D-02 0.148D-02 0.661D-01 0.847D-01
 Coeff:     -0.101D+01 0.260D+00 0.161D+01
 RMSDP=4.19D-05 MaxDP=1.05D-03 DE=-2.04D-05 OVMax= 0.00D+00

 Cycle  10  Pass 1  IDiag  1:
 RMSU=  2.60D-05    CP:  9.92D-01  1.16D+00  1.05D+00  1.37D+00  1.90D+00
                    CP:  3.00D+00  3.00D+00  3.00D+00  3.00D+00
 E= -474.172390113078     Delta-E=       -0.000016112888 Rises=F Damp=F
 DIIS: error= 2.16D-05 at cycle  10 NSaved=  10.
 NSaved=10 IEnMin=10 EnMin= -474.172390113078     IErMin=10 ErrMin= 2.16D-05
 ErrMax= 2.16D-05  0.00D+00 EMaxC= 1.00D-01 BMatC= 1.23D-07 BMatP= 5.09D-07
 IDIUse=1 WtCom= 1.00D+00 WtEn= 0.00D+00
 Coeff-Com: -0.113D-03 0.106D-02-0.412D-03-0.170D-01 0.179D-02 0.132D+00
 Coeff-Com:  0.107D+00-0.429D+00-0.342D+00 0.155D+01
 Coeff:     -0.113D-03 0.106D-02-0.412D-03-0.170D-01 0.179D-02 0.132D+00
 Coeff:      0.107D+00-0.429D+00-0.342D+00 0.155D+01
 RMSDP=2.56D-05 MaxDP=6.60D-04 DE=-1.61D-05 OVMax= 0.00D+00

 Cycle  11  Pass 1  IDiag  1:
 RMSU=  1.04D-05    CP:  9.92D-01  1.16D+00  1.05D+00  1.38D+00  2.00D+00
                    CP:  3.00D+00  3.00D+00  3.00D+00  3.00D+00  1.84D+00
 E= -474.172394929024     Delta-E=       -0.000004815945 Rises=F Damp=F
 DIIS: error= 1.26D-05 at cycle  11 NSaved=  11.
 NSaved=11 IEnMin=11 EnMin= -474.172394929024     IErMin=11 ErrMin= 1.26D-05
 ErrMax= 1.26D-05  0.00D+00 EMaxC= 1.00D-01 BMatC= 4.32D-08 BMatP= 1.23D-07
 IDIUse=1 WtCom= 1.00D+00 WtEn= 0.00D+00
 Coeff-Com: -0.889D-04 0.363D-03 0.143D-02-0.255D-02-0.126D-01-0.130D-01
 Coeff-Com:  0.213D+00-0.248D-01-0.633D+00 0.273D+00 0.120D+01
 Coeff:     -0.889D-04 0.363D-03 0.143D-02-0.255D-02-0.126D-01-0.130D-01
 Coeff:      0.213D+00-0.248D-01-0.633D+00 0.273D+00 0.120D+01
 RMSDP=1.64D-05 MaxDP=4.17D-04 DE=-4.82D-06 OVMax= 0.00D+00

 Cycle  12  Pass 1  IDiag  1:
 RMSU=  1.28D-06    CP:  9.92D-01  1.16D+00  1.05D+00  1.39D+00  2.06D+00
                    CP:  3.00D+00  3.00D+00  3.00D+00  3.00D+00  2.38D+00
                    CP:  1.62D+00
 E= -474.172396061031     Delta-E=       -0.000001132007 Rises=F Damp=F
 DIIS: error= 6.02D-06 at cycle  12 NSaved=  12.
 NSaved=12 IEnMin=12 EnMin= -474.172396061031     IErMin=12 ErrMin= 6.02D-06
 ErrMax= 6.02D-06  0.00D+00 EMaxC= 1.00D-01 BMatC= 5.21D-09 BMatP= 4.32D-08
 IDIUse=1 WtCom= 1.00D+00 WtEn= 0.00D+00
 Coeff-Com:  0.304D-04-0.263D-03 0.148D-03 0.359D-02 0.120D-02-0.321D-01
 Coeff-Com: -0.332D-01 0.168D+00 0.347D-01-0.343D+00-0.226D-01 0.122D+01
 Coeff:      0.304D-04-0.263D-03 0.148D-03 0.359D-02 0.120D-02-0.321D-01
 Coeff:     -0.332D-01 0.168D+00 0.347D-01-0.343D+00-0.226D-01 0.122D+01
 RMSDP=1.86D-06 MaxDP=7.25D-05 DE=-1.13D-06 OVMax= 0.00D+00

 Cycle  13  Pass 1  IDiag  1:
 RMSU=  8.98D-07    CP:  9.92D-01  1.16D+00  1.05D+00  1.39D+00  2.06D+00
                    CP:  3.00D+00  3.00D+00  3.00D+00  3.00D+00  2.42D+00
                    CP:  1.73D+00  1.43D+00
 E= -474.172396117136     Delta-E=       -0.000000056106 Rises=F Damp=F
 DIIS: error= 2.57D-06 at cycle  13 NSaved=  13.
 NSaved=13 IEnMin=13 EnMin= -474.172396117136     IErMin=13 ErrMin= 2.57D-06
 ErrMax= 2.57D-06  0.00D+00 EMaxC= 1.00D-01 BMatC= 1.05D-09 BMatP= 5.21D-09
 IDIUse=1 WtCom= 1.00D+00 WtEn= 0.00D+00
 Coeff-Com:  0.162D-04-0.811D-04-0.210D-03 0.724D-03 0.260D-02-0.222D-02
 Coeff-Com: -0.390D-01 0.301D-01 0.711D-01-0.526D-01-0.183D+00 0.119D+00
 Coeff-Com:  0.105D+01
 Coeff:      0.162D-04-0.811D-04-0.210D-03 0.724D-03 0.260D-02-0.222D-02
 Coeff:     -0.390D-01 0.301D-01 0.711D-01-0.526D-01-0.183D+00 0.119D+00
 Coeff:      0.105D+01
 RMSDP=1.19D-06 MaxDP=3.44D-05 DE=-5.61D-08 OVMax= 0.00D+00

 Cycle  14  Pass 1  IDiag  1:
 RMSU=  2.58D-07    CP:  9.92D-01  1.16D+00  1.05D+00  1.39D+00  2.07D+00
                    CP:  3.00D+00  3.00D+00  3.00D+00  3.00D+00  2.46D+00
                    CP:  1.78D+00  1.67D+00  1.37D+00
 E= -474.172396130824     Delta-E=       -0.000000013688 Rises=F Damp=F
 DIIS: error= 1.24D-06 at cycle  14 NSaved=  14.
 NSaved=14 IEnMin=14 EnMin= -474.172396130824     IErMin=14 ErrMin= 1.24D-06
 ErrMax= 1.24D-06  0.00D+00 EMaxC= 1.00D-01 BMatC= 3.22D-10 BMatP= 1.05D-09
 IDIUse=1 WtCom= 1.00D+00 WtEn= 0.00D+00
 Coeff-Com: -0.123D-04 0.868D-04 0.967D-05-0.102D-02-0.103D-02 0.827D-02
 Coeff-Com:  0.155D-01-0.368D-01-0.366D-01 0.105D+00 0.362D-01-0.295D+00
 Coeff-Com: -0.321D+00 0.153D+01
 Coeff:     -0.123D-04 0.868D-04 0.967D-05-0.102D-02-0.103D-02 0.827D-02
 Coeff:      0.155D-01-0.368D-01-0.366D-01 0.105D+00 0.362D-01-0.295D+00
 Coeff:     -0.321D+00 0.153D+01
 RMSDP=5.35D-07 MaxDP=1.62D-05 DE=-1.37D-08 OVMax= 0.00D+00

 Cycle  15  Pass 1  IDiag  1:
 RMSU=  1.32D-07    CP:  9.92D-01  1.16D+00  1.05D+00  1.39D+00  2.07D+00
                    CP:  3.00D+00  3.00D+00  3.00D+00  3.00D+00  2.46D+00
                    CP:  1.79D+00  1.81D+00  1.75D+00  2.21D+00
 E= -474.172396136589     Delta-E=       -0.000000005764 Rises=F Damp=F
 DIIS: error= 6.57D-07 at cycle  15 NSaved=  15.
 NSaved=15 IEnMin=15 EnMin= -474.172396136589     IErMin=15 ErrMin= 6.57D-07
 ErrMax= 6.57D-07  0.00D+00 EMaxC= 1.00D-01 BMatC= 1.36D-10 BMatP= 3.22D-10
 IDIUse=1 WtCom= 1.00D+00 WtEn= 0.00D+00
 Coeff-Com: -0.655D-05 0.334D-04 0.862D-04-0.258D-03-0.134D-02 0.176D-02
 Coeff-Com:  0.151D-01-0.985D-02-0.330D-01 0.270D-01 0.641D-01-0.343D-01
 Coeff-Com: -0.467D+00 0.172D+00 0.127D+01
 Coeff:     -0.655D-05 0.334D-04 0.862D-04-0.258D-03-0.134D-02 0.176D-02
 Coeff:      0.151D-01-0.985D-02-0.330D-01 0.270D-01 0.641D-01-0.343D-01
 Coeff:     -0.467D+00 0.172D+00 0.127D+01
 RMSDP=3.86D-07 MaxDP=1.05D-05 DE=-5.76D-09 OVMax= 0.00D+00

 Cycle  16  Pass 1  IDiag  1:
 RMSU=  7.54D-08    CP:  9.92D-01  1.16D+00  1.05D+00  1.39D+00  2.07D+00
                    CP:  3.00D+00  3.00D+00  3.00D+00  3.00D+00  2.46D+00
                    CP:  1.80D+00  1.90D+00  2.01D+00  3.00D+00  1.75D+00
 E= -474.172396138925     Delta-E=       -0.000000002336 Rises=F Damp=F
 DIIS: error= 4.39D-07 at cycle  16 NSaved=  16.
 NSaved=16 IEnMin=16 EnMin= -474.172396138925     IErMin=16 ErrMin= 4.39D-07
 ErrMax= 4.39D-07  0.00D+00 EMaxC= 1.00D-01 BMatC= 3.55D-11 BMatP= 1.36D-10
 IDIUse=1 WtCom= 1.00D+00 WtEn= 0.00D+00
 Coeff-Com:  0.574D-05-0.384D-04-0.988D-05 0.464D-03 0.266D-03-0.273D-02
 Coeff-Com: -0.885D-02 0.167D-01 0.168D-01-0.413D-01-0.265D-01 0.128D+00
 Coeff-Com:  0.132D+00-0.510D+00-0.328D+00 0.162D+01
 Coeff:      0.574D-05-0.384D-04-0.988D-05 0.464D-03 0.266D-03-0.273D-02
 Coeff:     -0.885D-02 0.167D-01 0.168D-01-0.413D-01-0.265D-01 0.128D+00
 Coeff:      0.132D+00-0.510D+00-0.328D+00 0.162D+01
 RMSDP=3.03D-07 MaxDP=8.37D-06 DE=-2.34D-09 OVMax= 0.00D+00

 Cycle  17  Pass 1  IDiag  1:
 RMSU=  1.17D-07    CP:  9.92D-01  1.16D+00  1.05D+00  1.39D+00  2.07D+00
                    CP:  3.00D+00  3.00D+00  3.00D+00  3.00D+00  2.46D+00
                    CP:  1.80D+00  1.96D+00  2.19D+00  3.00D+00  2.59D+00
                    CP:  3.00D+00
 E= -474.172396139737     Delta-E=       -0.000000000812 Rises=F Damp=F
 DIIS: error= 2.30D-07 at cycle  17 NSaved=  17.
 NSaved=17 IEnMin=17 EnMin= -474.172396139737     IErMin=17 ErrMin= 2.30D-07
 ErrMax= 2.30D-07  0.00D+00 EMaxC= 1.00D-01 BMatC= 6.75D-12 BMatP= 3.55D-11
 IDIUse=1 WtCom= 1.00D+00 WtEn= 0.00D+00
 Coeff-Com:  0.114D-05-0.579D-05-0.190D-04 0.559D-04 0.188D-03-0.125D-03
 Coeff-Com: -0.329D-02 0.275D-02 0.540D-02-0.418D-02-0.120D-01 0.841D-02
 Coeff-Com:  0.675D-01 0.673D-02-0.265D+00 0.299D-01 0.116D+01
 Coeff:      0.114D-05-0.579D-05-0.190D-04 0.559D-04 0.188D-03-0.125D-03
 Coeff:     -0.329D-02 0.275D-02 0.540D-02-0.418D-02-0.120D-01 0.841D-02
 Coeff:      0.675D-01 0.673D-02-0.265D+00 0.299D-01 0.116D+01
 RMSDP=7.96D-08 MaxDP=2.08D-06 DE=-8.12D-10 OVMax= 0.00D+00

 Cycle  18  Pass 1  IDiag  1:
 RMSU=  5.29D-08    CP:  9.92D-01  1.16D+00  1.05D+00  1.39D+00  2.07D+00
                    CP:  3.00D+00  3.00D+00  3.00D+00  3.00D+00  2.46D+00
                    CP:  1.80D+00  1.97D+00  2.23D+00  3.00D+00  2.84D+00
                    CP:  3.00D+00  1.23D+00
 E= -474.172396139817     Delta-E=       -0.000000000079 Rises=F Damp=F
 DIIS: error= 1.50D-07 at cycle  18 NSaved=  18.
 NSaved=18 IEnMin=18 EnMin= -474.172396139817     IErMin=18 ErrMin= 1.50D-07
 ErrMax= 1.50D-07  0.00D+00 EMaxC= 1.00D-01 BMatC= 1.49D-12 BMatP= 6.75D-12
 IDIUse=1 WtCom= 1.00D+00 WtEn= 0.00D+00
 Coeff-Com: -0.200D-05 0.133D-04 0.262D-05-0.153D-03-0.107D-03 0.968D-03
 Coeff-Com:  0.282D-02-0.521D-02-0.615D-02 0.135D-01 0.942D-02-0.417D-01
 Coeff-Com: -0.510D-01 0.173D+00 0.106D+00-0.494D+00-0.144D+00 0.144D+01
 Coeff:     -0.200D-05 0.133D-04 0.262D-05-0.153D-03-0.107D-03 0.968D-03
 Coeff:      0.282D-02-0.521D-02-0.615D-02 0.135D-01 0.942D-02-0.417D-01
 Coeff:     -0.510D-01 0.173D+00 0.106D+00-0.494D+00-0.144D+00 0.144D+01
 RMSDP=4.82D-08 MaxDP=1.58D-06 DE=-7.91D-11 OVMax= 0.00D+00

 Cycle  19  Pass 1  IDiag  1:
 RMSU=  1.14D-08    CP:  9.92D-01  1.16D+00  1.05D+00  1.39D+00  2.07D+00
                    CP:  3.00D+00  3.00D+00  3.00D+00  3.00D+00  2.46D+00
                    CP:  1.80D+00  1.98D+00  2.25D+00  3.00D+00  2.99D+00
                    CP:  3.00D+00  1.34D+00  1.63D+00
 E= -474.172396139873     Delta-E=       -0.000000000056 Rises=F Damp=F
 DIIS: error= 6.61D-08 at cycle  19 NSaved=  19.
 NSaved=19 IEnMin=19 EnMin= -474.172396139873     IErMin=19 ErrMin= 6.61D-08
 ErrMax= 6.61D-08  0.00D+00 EMaxC= 1.00D-01 BMatC= 1.96D-13 BMatP= 1.49D-12
 IDIUse=1 WtCom= 1.00D+00 WtEn= 0.00D+00
 Coeff-Com:  0.766D-07-0.695D-06 0.327D-05 0.859D-05-0.111D-04-0.110D-03
 Coeff-Com:  0.150D-03 0.256D-03-0.739D-04-0.111D-02 0.888D-03 0.370D-02
 Coeff-Com: -0.218D-02-0.271D-01 0.279D-01 0.664D-01-0.177D+00-0.185D+00
 Coeff-Com:  0.129D+01
 Coeff:      0.766D-07-0.695D-06 0.327D-05 0.859D-05-0.111D-04-0.110D-03
 Coeff:      0.150D-03 0.256D-03-0.739D-04-0.111D-02 0.888D-03 0.370D-02
 Coeff:     -0.218D-02-0.271D-01 0.279D-01 0.664D-01-0.177D+00-0.185D+00
 Coeff:      0.129D+01
 RMSDP=1.29D-08 MaxDP=7.19D-07 DE=-5.64D-11 OVMax= 0.00D+00

 Cycle  20  Pass 1  IDiag  1:
 RMSU=  4.33D-09    CP:  9.92D-01  1.16D+00  1.05D+00  1.39D+00  2.07D+00
                    CP:  3.00D+00  3.00D+00  3.00D+00  3.00D+00  2.46D+00
                    CP:  1.80D+00  1.98D+00  2.25D+00  3.00D+00  3.00D+00
                    CP:  3.00D+00  1.37D+00  1.80D+00  1.46D+00
 E= -474.172396139857     Delta-E=        0.000000000015 Rises=F Damp=F
 DIIS: error= 2.52D-08 at cycle  20 NSaved=  20.
 NSaved=20 IEnMin=19 EnMin= -474.172396139873     IErMin=20 ErrMin= 2.52D-08
 ErrMax= 2.52D-08  0.00D+00 EMaxC= 1.00D-01 BMatC= 3.65D-14 BMatP= 1.96D-13
 IDIUse=1 WtCom= 1.00D+00 WtEn= 0.00D+00
 Coeff-Com:  0.346D-06-0.234D-05-0.973D-07 0.254D-04 0.222D-04-0.182D-03
 Coeff-Com: -0.461D-03 0.917D-03 0.933D-03-0.222D-02-0.148D-02 0.698D-02
 Coeff-Com:  0.925D-02-0.313D-01-0.176D-01 0.874D-01 0.286D-01-0.263D+00
 Coeff-Com:  0.638D-01 0.112D+01
 Coeff:      0.346D-06-0.234D-05-0.973D-07 0.254D-04 0.222D-04-0.182D-03
 Coeff:     -0.461D-03 0.917D-03 0.933D-03-0.222D-02-0.148D-02 0.698D-02
 Coeff:      0.925D-02-0.313D-01-0.176D-01 0.874D-01 0.286D-01-0.263D+00
 Coeff:      0.638D-01 0.112D+01
 RMSDP=3.49D-09 MaxDP=2.51D-07 DE= 1.55D-11 OVMax= 0.00D+00

 SCF Done:  E(RZINDO/S) =  -474.172396140     A.U. after   20 cycles
            NFock= 20  Conv=0.35D-08     -V/T= 0.9493
 KE=-9.359989751880D+03 PE= 9.940413292497D-08 EE= 4.543076640646D+03
 Leave Link  502 at Wed Apr 27 13:43:08 2022, MaxMem=  6710886400 cpu:              19.5 elap:               0.8
 (Enter /sw/apps/gaussian-16.0/g16/l801.exe)
 Range of M.O.s used for correlation:     1   338
 NBasis=   338 NAE=   176 NBE=   176 NFC=     0 NFV=     0
 NROrb=    338 NOA=   176 NOB=   176 NVA=   162 NVB=   162
 Leave Link  801 at Wed Apr 27 13:43:08 2022, MaxMem=  6710886400 cpu:               0.4 elap:               0.0
 (Enter /sw/apps/gaussian-16.0/g16/l914.exe)
 RHF ground state
 Two-electron integral symmetry not used.
 MDV=  6710886400 DFT=F DoStab=F Mixed=F DoRPA=F DoScal=F NonHer=F
 Making orbital integer symmetry assigments:
 Orbital symmetries:
       Occupied  (A) (A) (A) (A) (A) (A) (A) (A) (A) (A) (A) (A)
                 (A) (A) (A) (A) (A) (A) (A) (A) (A) (A) (A) (A)
                 (A) (A) (A) (A) (A) (A) (A) (A) (A) (A) (A) (A)
                 (A) (A) (A) (A) (A) (A) (A) (A) (A) (A) (A) (A)
                 (A) (A) (A) (A) (A) (A) (A) (A) (A) (A) (A) (A)
                 (A) (A) (A) (A) (A) (A) (A) (A) (A) (A) (A) (A)
                 (A) (A) (A) (A) (A) (A) (A) (A) (A) (A) (A) (A)
                 (A) (A) (A) (A) (A) (A) (A) (A) (A) (A) (A) (A)
                 (A) (A) (A) (A) (A) (A) (A) (A) (A) (A) (A) (A)
                 (A) (A) (A) (A) (A) (A) (A) (A) (A) (A) (A) (A)
                 (A) (A) (A) (A) (A) (A) (A) (A) (A) (A) (A) (A)
                 (A) (A) (A) (A) (A) (A) (A) (A) (A) (A) (A) (A)
                 (A) (A) (A) (A) (A) (A) (A) (A) (A) (A) (A) (A)
                 (A) (A) (A) (A) (A) (A) (A) (A) (A) (A) (A) (A)
                 (A) (A) (A) (A) (A) (A) (A) (A)
       Virtual   (A) (A) (A) (A) (A) (A) (A) (A) (A) (A) (A) (A)
                 (A) (A) (A) (A) (A) (A) (A) (A) (A) (A) (A) (A)
                 (A) (A) (A) (A) (A) (A) (A) (A) (A) (A) (A) (A)
                 (A) (A) (A) (A) (A) (A) (A) (A) (A) (A) (A) (A)
                 (A) (A) (A) (A) (A) (A) (A) (A) (A) (A) (A) (A)
                 (A) (A) (A) (A) (A) (A) (A) (A) (A) (A) (A) (A)
                 (A) (A) (A) (A) (A) (A) (A) (A) (A) (A) (A) (A)
                 (A) (A) (A) (A) (A) (A) (A) (A) (A) (A) (A) (A)
                 (A) (A) (A) (A) (A) (A) (A) (A) (A) (A) (A) (A)
                 (A) (A) (A) (A) (A) (A) (A) (A) (A) (A) (A) (A)
                 (A) (A) (A) (A) (A) (A) (A) (A) (A) (A) (A) (A)
                 (A) (A) (A) (A) (A) (A) (A) (A) (A) (A) (A) (A)
                 (A) (A) (A) (A) (A) (A) (A) (A) (A) (A) (A) (A)
                 (A) (A) (A) (A) (A) (A)
    20 initial guesses have been made.
 Convergence on wavefunction:    0.001000000000000
 Davidson Disk Diagonalization:  ConvIn= 1.00D-03 SkipCon=T Conv= 1.00D-03.
 Max sub-space:  2000 roots to seek:    20 dimension of matrix:        57024
 Iteration     1 Dimension    20 NMult     0 NNew     20
 CISAX will form    20 AO SS matrices at one time.
 NMat=    20 NSing=    20 JSym2X= 0.
 New state      3 was old state      4
 New state      4 was old state      8
 New state      5 was old state      3
 Excitation Energies [eV] at current iteration:
 Root      1 :     1.638235314734169
 Root      2 :     2.119250995772789
 Root      3 :     3.196868138643844
 Root      4 :     3.298586045947072
 Root      5 :     3.402106900227625
 Root      6 :     3.449809645862781
 Root      7 :     3.693845830332892
 Root      8 :     3.717813620835562
 Root      9 :     3.925672543374537
 Root     10 :     3.992915191320146
 Root     11 :     4.081660261055686
 Root     12 :     4.210746416444755
 Root     13 :     4.372546017906374
 Root     14 :     4.436658312436582
 Root     15 :     4.578218174896883
 Root     16 :     4.606119380367217
 Root     17 :     4.626372274186106
 Root     18 :     4.639656346404827
 Root     19 :     4.724654522448745
 Root     20 :     5.827210592475065
 Iteration     2 Dimension    40 NMult    20 NNew     20
 CISAX will form    20 AO SS matrices at one time.
 NMat=    20 NSing=    20 JSym2X= 0.
 Root      1 not converged, maximum delta is    0.047905433324487
 Root      2 not converged, maximum delta is    0.040732998951262
 New state      3 was old state      4
 Root      3 not converged, maximum delta is    0.382880114334490
 New state      4 was old state      3
 Root      4 not converged, maximum delta is    0.259312400255685
 New state      5 was old state      6
 Root      5 not converged, maximum delta is    0.312296481847786
 Excitation Energies [eV] at current iteration:
 Root      1 :     1.294684374879929   Change is   -0.343550939854240
 Root      2 :     1.916135853606751   Change is   -0.203115142166038
 Root      3 :     2.982012162037724   Change is   -0.316573883909348
 Root      4 :     3.011324945332686   Change is   -0.185543193311159
 Root      5 :     3.222548162648856   Change is   -0.227261483213925
 Root      6 :     3.306753457999971   Change is   -0.095353442227653
 Root      7 :     3.448662094076121   Change is   -0.245183736256771
 Root      8 :     3.485932406843226   Change is   -0.231881213992336
 Root      9 :     3.517875814114125   Change is   -0.918782498322457
 Root     10 :     3.615097379160963   Change is   -0.377817812159184
 Root     11 :     3.710975322770403   Change is   -0.214697220604134
 Root     12 :     3.742152519105487   Change is   -0.339507741950198
 Root     13 :     3.809456962565332   Change is   -0.830199383839495
 Root     14 :     4.009835921813653   Change is   -0.200910494631102
 Root     15 :     4.120947974246665   Change is   -0.251598043659710
 Root     16 :     4.260432994232023   Change is   -0.317785180664861
 Root     17 :     4.510193337239039   Change is   -0.214461185209705
 Root     18 :     4.558152505774683   Change is   -0.047966874592534
 Root     19 :     4.620042152179496   Change is   -0.006330122006609
 Root     20 :     5.533048906165472
 Iteration     3 Dimension    45 NMult    40 NNew      5
 CISAX will form     5 AO SS matrices at one time.
 NMat=     5 NSing=     5 JSym2X= 0.
 Root      1 not converged, maximum delta is    0.014299620184948
 Root      2 not converged, maximum delta is    0.021730146103511
 Root      3 not converged, maximum delta is    0.106776157649205
 Root      4 not converged, maximum delta is    0.128578691758580
 Root      5 not converged, maximum delta is    0.038476766077569
 Excitation Energies [eV] at current iteration:
 Root      1 :     1.277758834177082   Change is   -0.016925540702846
 Root      2 :     1.889157317959022   Change is   -0.026978535647729
 Root      3 :     2.956613165685625   Change is   -0.025398996352099
 Root      4 :     2.989885130127409   Change is   -0.021439815205276
 Root      5 :     3.187077102449421   Change is   -0.035471060199435
 Iteration     4 Dimension    50 NMult    45 NNew      5
 CISAX will form     5 AO SS matrices at one time.
 NMat=     5 NSing=     5 JSym2X= 0.
 Root      1 not converged, maximum delta is    0.001767656575032
 Root      2 not converged, maximum delta is    0.002730861537732
 Root      3 not converged, maximum delta is    0.024886598423889
 Root      4 not converged, maximum delta is    0.006276164654536
 Root      5 not converged, maximum delta is    0.130933505291575
 Excitation Energies [eV] at current iteration:
 Root      1 :     1.276891982860487   Change is   -0.000866851316596
 Root      2 :     1.888473472977515   Change is   -0.000683844981507
 Root      3 :     2.952670873288683   Change is   -0.003942292396943
 Root      4 :     2.987949528399352   Change is   -0.001935601728057
 Root      5 :     3.169510485752887   Change is   -0.017566616696534
 Iteration     5 Dimension    55 NMult    50 NNew      5
 CISAX will form     5 AO SS matrices at one time.
 NMat=     5 NSing=     5 JSym2X= 0.
 Root      1 has converged.
 Root      2 has converged.
 Root      3 not converged, maximum delta is    0.302491624497245
 New state      4 was old state      5
 Root      4 not converged, maximum delta is    0.503706419844026
 New state      5 was old state      4
 Root      5 not converged, maximum delta is    0.002312016872036
 Excitation Energies [eV] at current iteration:
 Root      1 :     1.276843160697838   Change is   -0.000048822162649
 Root      2 :     1.888433184587150   Change is   -0.000040288390365
 Root      3 :     2.915505207717271   Change is   -0.037165665571412
 Root      4 :     2.966287903875905   Change is   -0.203222581876982
 Root      5 :     2.987640523617068   Change is   -0.000309004782284
 Iteration     6 Dimension    58 NMult    55 NNew      3
 CISAX will form     3 AO SS matrices at one time.
 NMat=     3 NSing=     3 JSym2X= 0.
 Root      1 has converged.
 Root      2 has converged.
 Root      3 not converged, maximum delta is    0.130571628114001
 Root      4 not converged, maximum delta is    0.096269436664313
 Root      5 not converged, maximum delta is    0.002206447644968
 Excitation Energies [eV] at current iteration:
 Root      1 :     1.276842957727359   Change is   -0.000000202970479
 Root      2 :     1.888432414662535   Change is   -0.000000769924615
 Root      3 :     2.874906147613984   Change is   -0.040599060103286
 Root      4 :     2.959495388600042   Change is   -0.006792515275863
 Root      5 :     2.987575965345292   Change is   -0.000064558271776
 Iteration     7 Dimension    61 NMult    58 NNew      3
 CISAX will form     3 AO SS matrices at one time.
 NMat=     3 NSing=     3 JSym2X= 0.
 Root      1 has converged.
 Root      2 has converged.
 Root      3 not converged, maximum delta is    0.009878815887205
 Root      4 not converged, maximum delta is    0.007941305125862
 Root      5 not converged, maximum delta is    0.005614472579989
 Excitation Energies [eV] at current iteration:
 Root      1 :     1.276842900476240   Change is   -0.000000057251119
 Root      2 :     1.888431848704331   Change is   -0.000000565958204
 Root      3 :     2.868586937652418   Change is   -0.006319209961566
 Root      4 :     2.958916974489663   Change is   -0.000578414110379
 Root      5 :     2.987499549025030   Change is   -0.000076416320263
 Iteration     8 Dimension    64 NMult    61 NNew      3
 CISAX will form     3 AO SS matrices at one time.
 NMat=     3 NSing=     3 JSym2X= 0.
 Root      1 has converged.
 Root      2 has converged.
 Root      3 not converged, maximum delta is    0.009121372287837
 Root      4 not converged, maximum delta is    0.018635502228732
 Root      5 not converged, maximum delta is    0.049779303055397
 Excitation Energies [eV] at current iteration:
 Root      1 :     1.276842727266045   Change is   -0.000000173210196
 Root      2 :     1.888431793898201   Change is   -0.000000054806130
 Root      3 :     2.867682446185547   Change is   -0.000904491466872
 Root      4 :     2.958630959020119   Change is   -0.000286015469544
 Root      5 :     2.986920254205014   Change is   -0.000579294820016
 Iteration     9 Dimension    67 NMult    64 NNew      3
 CISAX will form     3 AO SS matrices at one time.
 NMat=     3 NSing=     3 JSym2X= 0.
 Root      1 has converged.
 Root      2 has converged.
 Root      3 not converged, maximum delta is    0.009378564122612
 Root      4 not converged, maximum delta is    0.164669415145233
 Root      5 not converged, maximum delta is    0.651388112675014
 Excitation Energies [eV] at current iteration:
 Root      1 :     1.276842582118930   Change is   -0.000000145147114
 Root      2 :     1.888431754733072   Change is   -0.000000039165129
 Root      3 :     2.867371021084082   Change is   -0.000311425101464
 Root      4 :     2.956513069107398   Change is   -0.002117889912721
 Root      5 :     2.963043787432541   Change is   -0.023876466772473
 Iteration    10 Dimension    70 NMult    67 NNew      3
 CISAX will form     3 AO SS matrices at one time.
 NMat=     3 NSing=     3 JSym2X= 0.
 Root      1 has converged.
 Root      2 has converged.
 Root      3 not converged, maximum delta is    0.005246794648384
 Root      4 not converged, maximum delta is    0.316615949407584
 Root      5 not converged, maximum delta is    0.212798117251103
 Excitation Energies [eV] at current iteration:
 Root      1 :     1.276842493803351   Change is   -0.000000088315580
 Root      2 :     1.888431611062983   Change is   -0.000000143670089
 Root      3 :     2.867235557019467   Change is   -0.000135464064615
 Root      4 :     2.946088706454591   Change is   -0.010424362652807
 Root      5 :     2.959545238852817   Change is   -0.003498548579724
 Iteration    11 Dimension    73 NMult    70 NNew      3
 CISAX will form     3 AO SS matrices at one time.
 NMat=     3 NSing=     3 JSym2X= 0.
 Root      1 has converged.
 Root      2 has converged.
 Root      3 has converged.
 Root      4 not converged, maximum delta is    0.016901282692661
 Root      5 not converged, maximum delta is    0.009364308388409
 Excitation Energies [eV] at current iteration:
 Root      1 :     1.276842492604608   Change is   -0.000000001198743
 Root      2 :     1.888431549830359   Change is   -0.000000061232624
 Root      3 :     2.867215030647553   Change is   -0.000020526371915
 Root      4 :     2.944283567170950   Change is   -0.001805139283641
 Root      5 :     2.959447364054482   Change is   -0.000097874798334
 Iteration    12 Dimension    75 NMult    73 NNew      2
 CISAX will form     2 AO SS matrices at one time.
 NMat=     2 NSing=     2 JSym2X= 0.
 Root      1 has converged.
 Root      2 has converged.
 Root      3 has converged.
 Root      4 not converged, maximum delta is    0.001442583074304
 Root      5 has converged.
 Excitation Energies [eV] at current iteration:
 Root      1 :     1.276842489237377   Change is   -0.000000003367231
 Root      2 :     1.888431525378466   Change is   -0.000000024451893
 Root      3 :     2.867213191142800   Change is   -0.000001839504753
 Root      4 :     2.944113098755017   Change is   -0.000170468415933
 Root      5 :     2.959438985552286   Change is   -0.000008378502196
 Iteration    13 Dimension    76 NMult    75 NNew      1
 CISAX will form     1 AO SS matrices at one time.
 NMat=     1 NSing=     1 JSym2X= 0.
 Root      1 has converged.
 Root      2 has converged.
 Root      3 has converged.
 Root      4 has converged.
 Root      5 has converged.
 Excitation Energies [eV] at current iteration:
 Root      1 :     1.276842463246073   Change is   -0.000000025991304
 Root      2 :     1.888431508737509   Change is   -0.000000016640957
 Root      3 :     2.867213013684562   Change is   -0.000000177458238
 Root      4 :     2.944095216348430   Change is   -0.000017882406586
 Root      5 :     2.959438143627318   Change is   -0.000000841924969
 Convergence achieved on expansion vectors.
 ***********************************************************************
 Excited states from <AA,BB:AA,BB> singles matrix:
 ***********************************************************************
 
 1PDM for each excited state written to RWF  633
 Ground to excited state transition densities written to RWF  633
 Ground to excited state transition electric dipole moments (Au):
       state          X           Y           Z        Dip. S.      Osc.
         1         2.8174      2.1463      2.5390     18.9912      0.5941
         2        -0.1512      0.8317     -0.3358      0.8273      0.0383
         3         0.1130     -0.2890      0.2402      0.1540      0.0108
         4         0.0883      0.0557      0.0749      0.0165      0.0012
         5        -1.0538      1.6221     -1.2152      5.2183      0.3783
 Ground to excited state transition velocity dipole moments (Au):
       state          X           Y           Z        Dip. S.      Osc.
         1         0.0535      0.0063      0.0361      0.0042      0.0597
         2        -0.0004     -0.0213     -0.0043      0.0005      0.0045
         3         0.0013     -0.0019     -0.0008      0.0000      0.0000
         4        -0.0070     -0.0116      0.0031      0.0002      0.0012
         5         0.0384     -0.0496      0.0334      0.0050      0.0309
 Ground to excited state transition magnetic dipole moments (Au):
       state          X           Y           Z
         1        -0.0356      0.2935      0.0532
         2         0.5330     -0.1347     -0.2897
         3         0.3299      0.6198      0.3481
         4        -0.4910     -0.1682     -0.3563
         5         0.4198      0.4014      0.1370
 Ground to excited state transition velocity quadrupole moments (Au):
       state          XX          YY          ZZ          XY          XZ          YZ
         1        -1.0004      0.0695     -0.0545      0.0022     -0.3203     -0.0339
         2         0.0129     -0.0946     -0.0019      0.1604      0.0128     -0.0230
         3        -0.1017      0.0864     -0.0266      0.0515     -0.0339      0.0079
         4         0.0988     -0.1727      0.0373      0.0442      0.0006      0.0984
         5        -0.4942     -0.1265      0.1590      0.1275     -0.3183     -0.2377
 <0|del|b> * <b|rxdel|0> + <0|del|b> * <b|delr+rdel|0>
 Rotatory Strengths (R) in cgs (10**-40 erg-esu-cm/Gauss)
       state          XX          YY          ZZ    R(velocity)    E-M Angle
         1        44.0058    -14.1161     -1.9138      9.3253       84.53
         2        18.8015      8.8043     12.0250     13.2103       73.23
         3        -5.3663      0.6105     -2.4774     -2.4110      124.06
         4         3.2612      4.9116     19.7252      9.2993       60.67
         5       -87.2902     23.7656     68.6525      1.7093       88.93
 1/2[<0|r|b>*<b|rxdel|0> + (<0|rxdel|b>*<b|r|0>)*]
 Rotatory Strengths (R) in cgs (10**-40 erg-esu-cm/Gauss)
       state          XX          YY          ZZ     R(length)
         1        70.8413   -445.5417    -95.5598   -156.7534
         2        57.0060     79.2046    -68.7958     22.4716
         3       -26.3642    126.6981    -59.1302     13.7346
         4        30.6664      6.6196     18.8688     18.7183
         5       312.8399   -460.4217    117.7670     -9.9383
  1/2[<0|del|b>*<b|r|0> + (<0|r|b>*<b|del|0>)*] (Au)
       state          X           Y           Z        Dip. S.   Osc.(frdel)
         1         0.1506      0.0134      0.0917     -0.2557     -0.1705
         2         0.0001     -0.0177      0.0014      0.0162      0.0108
         3         0.0001      0.0006     -0.0002     -0.0005     -0.0003
         4        -0.0006     -0.0006      0.0002      0.0010      0.0007
         5        -0.0404     -0.0804     -0.0406      0.1614      0.1076

 Excitation energies and oscillator strengths:
 
 Excited State   1:      Singlet-A      1.2768 eV  971.02 nm  f=0.5941  <S**2>=0.000
     175 ->178         0.19140
     176 ->177         0.66226
 This state for optimization and/or second-order correction.
 Total Energy, E(CIS/TDA) =  -474.125473043    
 Copying the excited state density for this state as the 1-particle RhoCI density.
 
 Excited State   2:      Singlet-A      1.8884 eV  656.55 nm  f=0.0383  <S**2>=0.000
     175 ->177         0.54086
     176 ->178        -0.42615
 
 Excited State   3:      Singlet-A      2.8672 eV  432.42 nm  f=0.0108  <S**2>=0.000
     170 ->177         0.31953
     170 ->178        -0.11347
     170 ->179        -0.40154
     170 ->180        -0.27192
     170 ->183         0.10995
     170 ->185        -0.16091
     170 ->187        -0.16683
     170 ->200         0.12432
     176 ->179        -0.10569
 
 Excited State   4:      Singlet-A      2.9441 eV  421.13 nm  f=0.0012  <S**2>=0.000
     167 ->179         0.10671
     167 ->180        -0.10084
     168 ->177         0.28599
     168 ->178        -0.19821
     168 ->179         0.32480
     168 ->180        -0.29821
     168 ->183         0.18655
     168 ->185         0.23043
 
 Excited State   5:      Singlet-A      2.9594 eV  418.95 nm  f=0.3783  <S**2>=0.000
     175 ->177         0.23924
     176 ->178         0.28739
     176 ->179         0.52394
     176 ->180         0.10501
     176 ->183        -0.10992
 SavETr:  write IOETrn=   770 NScale= 10 NData=  16 NLR=1 NState=    5 LETran=     100.
 Leave Link  914 at Wed Apr 27 13:43:13 2022, MaxMem=  6710886400 cpu:             112.8 elap:               4.8
 (Enter /sw/apps/gaussian-16.0/g16/l601.exe)
 Copying SCF densities to generalized density rwf, IOpCl= 0 IROHF=0.

 **********************************************************************

            Population analysis using the SCF density.

 **********************************************************************

 Orbital symmetries:
       Occupied  (A) (A) (A) (A) (A) (A) (A) (A) (A) (A) (A) (A)
                 (A) (A) (A) (A) (A) (A) (A) (A) (A) (A) (A) (A)
                 (A) (A) (A) (A) (A) (A) (A) (A) (A) (A) (A) (A)
                 (A) (A) (A) (A) (A) (A) (A) (A) (A) (A) (A) (A)
                 (A) (A) (A) (A) (A) (A) (A) (A) (A) (A) (A) (A)
                 (A) (A) (A) (A) (A) (A) (A) (A) (A) (A) (A) (A)
                 (A) (A) (A) (A) (A) (A) (A) (A) (A) (A) (A) (A)
                 (A) (A) (A) (A) (A) (A) (A) (A) (A) (A) (A) (A)
                 (A) (A) (A) (A) (A) (A) (A) (A) (A) (A) (A) (A)
                 (A) (A) (A) (A) (A) (A) (A) (A) (A) (A) (A) (A)
                 (A) (A) (A) (A) (A) (A) (A) (A) (A) (A) (A) (A)
                 (A) (A) (A) (A) (A) (A) (A) (A) (A) (A) (A) (A)
                 (A) (A) (A) (A) (A) (A) (A) (A) (A) (A) (A) (A)
                 (A) (A) (A) (A) (A) (A) (A) (A) (A) (A) (A) (A)
                 (A) (A) (A) (A) (A) (A) (A) (A)
       Virtual   (A) (A) (A) (A) (A) (A) (A) (A) (A) (A) (A) (A)
                 (A) (A) (A) (A) (A) (A) (A) (A) (A) (A) (A) (A)
                 (A) (A) (A) (A) (A) (A) (A) (A) (A) (A) (A) (A)
                 (A) (A) (A) (A) (A) (A) (A) (A) (A) (A) (A) (A)
                 (A) (A) (A) (A) (A) (A) (A) (A) (A) (A) (A) (A)
                 (A) (A) (A) (A) (A) (A) (A) (A) (A) (A) (A) (A)
                 (A) (A) (A) (A) (A) (A) (A) (A) (A) (A) (A) (A)
                 (A) (A) (A) (A) (A) (A) (A) (A) (A) (A) (A) (A)
                 (A) (A) (A) (A) (A) (A) (A) (A) (A) (A) (A) (A)
                 (A) (A) (A) (A) (A) (A) (A) (A) (A) (A) (A) (A)
                 (A) (A) (A) (A) (A) (A) (A) (A) (A) (A) (A) (A)
                 (A) (A) (A) (A) (A) (A) (A) (A) (A) (A) (A) (A)
                 (A) (A) (A) (A) (A) (A) (A) (A) (A) (A) (A) (A)
                 (A) (A) (A) (A) (A) (A)
 The electronic state is 1-A.
 Alpha  occ. eigenvalues --   -1.84704  -1.81948  -1.81065  -1.74241  -1.71552
 Alpha  occ. eigenvalues --   -1.70187  -1.68293  -1.60999  -1.59292  -1.59064
 Alpha  occ. eigenvalues --   -1.54405  -1.50535  -1.48015  -1.47361  -1.45493
 Alpha  occ. eigenvalues --   -1.42575  -1.41353  -1.39604  -1.38783  -1.38215
 Alpha  occ. eigenvalues --   -1.34666  -1.32033  -1.31437  -1.30509  -1.27687
 Alpha  occ. eigenvalues --   -1.26944  -1.25971  -1.22708  -1.20132  -1.18318
 Alpha  occ. eigenvalues --   -1.17677  -1.15541  -1.15293  -1.14213  -1.13860
 Alpha  occ. eigenvalues --   -1.12747  -1.10589  -1.09775  -1.05205  -1.04192
 Alpha  occ. eigenvalues --   -1.02294  -1.01669  -1.01269  -0.98256  -0.97359
 Alpha  occ. eigenvalues --   -0.95800  -0.94900  -0.93470  -0.92643  -0.91874
 Alpha  occ. eigenvalues --   -0.90983  -0.89668  -0.89557  -0.86987  -0.85688
 Alpha  occ. eigenvalues --   -0.83987  -0.83968  -0.83044  -0.80916  -0.79952
 Alpha  occ. eigenvalues --   -0.79767  -0.79541  -0.78682  -0.77546  -0.76566
 Alpha  occ. eigenvalues --   -0.75973  -0.75604  -0.75473  -0.74457  -0.74016
 Alpha  occ. eigenvalues --   -0.73118  -0.71921  -0.70885  -0.70544  -0.70502
 Alpha  occ. eigenvalues --   -0.70187  -0.69629  -0.68866  -0.68187  -0.67645
 Alpha  occ. eigenvalues --   -0.67180  -0.66866  -0.66170  -0.65752  -0.65262
 Alpha  occ. eigenvalues --   -0.64782  -0.64431  -0.64061  -0.63871  -0.63734
 Alpha  occ. eigenvalues --   -0.63413  -0.63345  -0.62699  -0.62383  -0.61502
 Alpha  occ. eigenvalues --   -0.61243  -0.60754  -0.60489  -0.59996  -0.59054
 Alpha  occ. eigenvalues --   -0.58827  -0.58342  -0.58323  -0.58142  -0.57903
 Alpha  occ. eigenvalues --   -0.57774  -0.57295  -0.57105  -0.56689  -0.56602
 Alpha  occ. eigenvalues --   -0.56418  -0.55702  -0.55034  -0.54916  -0.54427
 Alpha  occ. eigenvalues --   -0.54207  -0.53934  -0.53312  -0.53204  -0.52695
 Alpha  occ. eigenvalues --   -0.52528  -0.52385  -0.52098  -0.51811  -0.51356
 Alpha  occ. eigenvalues --   -0.51109  -0.50786  -0.50397  -0.50287  -0.50169
 Alpha  occ. eigenvalues --   -0.49886  -0.49662  -0.49411  -0.49330  -0.49037
 Alpha  occ. eigenvalues --   -0.48875  -0.48712  -0.48337  -0.48315  -0.47806
 Alpha  occ. eigenvalues --   -0.47588  -0.47511  -0.47259  -0.46734  -0.46663
 Alpha  occ. eigenvalues --   -0.46020  -0.45945  -0.45679  -0.45477  -0.45027
 Alpha  occ. eigenvalues --   -0.44932  -0.44817  -0.44130  -0.44044  -0.43913
 Alpha  occ. eigenvalues --   -0.43791  -0.42963  -0.42805  -0.42386  -0.41684
 Alpha  occ. eigenvalues --   -0.41470  -0.41051  -0.40993  -0.39453  -0.38657
 Alpha  occ. eigenvalues --   -0.38227  -0.37318  -0.35999  -0.35355  -0.34532
 Alpha  occ. eigenvalues --   -0.33402  -0.32690  -0.32140  -0.31461  -0.26861
 Alpha  occ. eigenvalues --   -0.22141
 Alpha virt. eigenvalues --   -0.08776  -0.02744  -0.01187   0.00637   0.01519
 Alpha virt. eigenvalues --    0.01915   0.02645   0.02931   0.04459   0.04788
 Alpha virt. eigenvalues --    0.06211   0.06659   0.07067   0.07904   0.08016
 Alpha virt. eigenvalues --    0.08446   0.08673   0.08822   0.09174   0.09322
 Alpha virt. eigenvalues --    0.09739   0.09991   0.10344   0.10575   0.10880
 Alpha virt. eigenvalues --    0.11014   0.11038   0.11535   0.11991   0.12204
 Alpha virt. eigenvalues --    0.12311   0.12853   0.13099   0.13435   0.13554
 Alpha virt. eigenvalues --    0.13803   0.14075   0.14197   0.14274   0.14312
 Alpha virt. eigenvalues --    0.14752   0.15526   0.15913   0.15928   0.16090
 Alpha virt. eigenvalues --    0.16110   0.16318   0.16335   0.16866   0.17238
 Alpha virt. eigenvalues --    0.17520   0.17723   0.17728   0.18376   0.18497
 Alpha virt. eigenvalues --    0.18606   0.18713   0.18970   0.19234   0.19295
 Alpha virt. eigenvalues --    0.19697   0.19887   0.20206   0.20573   0.21245
 Alpha virt. eigenvalues --    0.21683   0.22826   0.22876   0.23814   0.23907
 Alpha virt. eigenvalues --    0.24030   0.24060   0.24092   0.24306   0.24353
 Alpha virt. eigenvalues --    0.24631   0.24734   0.24785   0.24810   0.24821
 Alpha virt. eigenvalues --    0.24900   0.24972   0.25030   0.25104   0.25174
 Alpha virt. eigenvalues --    0.25246   0.25264   0.25274   0.25382   0.25463
 Alpha virt. eigenvalues --    0.25637   0.25675   0.25692   0.25936   0.25970
 Alpha virt. eigenvalues --    0.26089   0.26162   0.26221   0.26253   0.26337
 Alpha virt. eigenvalues --    0.26517   0.26637   0.26675   0.26711   0.26798
 Alpha virt. eigenvalues --    0.26855   0.26945   0.27078   0.27211   0.27346
 Alpha virt. eigenvalues --    0.27366   0.27416   0.27466   0.27509   0.27629
 Alpha virt. eigenvalues --    0.27859   0.27959   0.28507   0.28747   0.28805
 Alpha virt. eigenvalues --    0.29745   0.30576   0.30968   0.31105   0.31151
 Alpha virt. eigenvalues --    0.31969   0.32601   0.32923   0.33602   0.33835
 Alpha virt. eigenvalues --    0.34621   0.35404   0.35675   0.35792   0.36082
 Alpha virt. eigenvalues --    0.36342   0.36956   0.36970   0.37717   0.37776
 Alpha virt. eigenvalues --    0.39623   0.39793   0.39845   0.40553   0.40933
 Alpha virt. eigenvalues --    0.41204   0.41406   0.41781   0.42319   0.42792
 Alpha virt. eigenvalues --    0.43302   0.44550   0.45122   0.45481   0.46515
 Alpha virt. eigenvalues --    0.46639   0.47177   0.48208   0.50538   0.53485
 Alpha virt. eigenvalues --    0.54405   0.56340
          Condensed to atoms (all electrons):
 Mulliken charges:
               1
     1  Mg   0.431034
     2  C   -0.038321
     3  C   -0.088486
     4  C   -0.067572
     5  C   -0.071974
     6  N   -0.263739
     7  C    0.107887
     8  C    0.012710
     9  C   -0.009184
    10  C    0.162447
    11  C   -0.057877
    12  C   -0.022668
    13  C    0.007961
    14  C    0.465740
    15  O   -0.535400
    16  O   -0.260397
    17  N   -0.333778
    18  C    0.141314
    19  C    0.053927
    20  C   -0.057198
    21  C    0.138959
    22  C   -0.039906
    23  C    0.327243
    24  O   -0.511277
    25  C   -0.027301
    26  N   -0.270819
    27  C    0.136312
    28  C   -0.008788
    29  C   -0.005818
    30  C    0.124200
    31  C   -0.056595
    32  C   -0.033330
    33  C   -0.059623
    34  N   -0.333861
    35  C    0.091528
    36  C    0.009654
    37  C   -0.051605
    38  C    0.106436
    39  C   -0.043143
    40  C    0.336624
    41  O   -0.556194
    42  C    0.064081
    43  C    0.504988
    44  O   -0.562825
    45  O   -0.247830
    46  C    0.073356
    47  C    0.098570
    48  C   -0.097857
    49  C    0.016360
    50  C   -0.042767
    51  C   -0.020948
    52  C   -0.032915
    53  C   -0.042652
    54  C   -0.005338
    55  C   -0.043149
    56  C   -0.030927
    57  C   -0.027296
    58  C   -0.039309
    59  C   -0.020036
    60  C   -0.063727
    61  C   -0.032545
    62  C   -0.037725
    63  C   -0.031149
    64  C   -0.021538
    65  C   -0.062840
    66  C   -0.059376
    67  H    0.026167
    68  H    0.016195
    69  H    0.028506
    70  H    0.024243
    71  H    0.042696
    72  H    0.024899
    73  H    0.022272
    74  H    0.030499
    75  H    0.023783
    76  H    0.030600
    77  H    0.050756
    78  H    0.050932
    79  H    0.039841
    80  H    0.015412
    81  H    0.038241
    82  H    0.036891
    83  H    0.035247
    84  H    0.036697
    85  H    0.037343
    86  H    0.029187
    87  H    0.024396
    88  H    0.028658
    89  H    0.022316
    90  H    0.032788
    91  H    0.013414
    92  H    0.021545
    93  H    0.021916
    94  H    0.021920
    95  H    0.038773
    96  H    0.015987
    97  H    0.042597
    98  H    0.060156
    99  H    0.054280
   100  H    0.017008
   101  H    0.056388
   102  H    0.033116
   103  H    0.050367
   104  H    0.030218
   105  H    0.038273
   106  H    0.024163
   107  H    0.030038
   108  H    0.019281
   109  H    0.018945
   110  H    0.028612
   111  H    0.021621
   112  H    0.007747
   113  H    0.020573
   114  H    0.007265
   115  H    0.017812
   116  H    0.012927
   117  H    0.019618
   118  H    0.016975
   119  H    0.010288
   120  H    0.018748
   121  H    0.019436
   122  H    0.015922
   123  H    0.023705
   124  H    0.015428
   125  H    0.016687
   126  H    0.020453
   127  H    0.013071
   128  H    0.018111
   129  H    0.021892
   130  H    0.021700
   131  H    0.026187
   132  H    0.018840
   133  H    0.013858
   134  H    0.013305
   135  H    0.026438
   136  H    0.018138
   137  H    0.019473
   138  H    0.011172
   139  H    0.019434
   140  H    0.023889
 Sum of Mulliken charges =  -0.00000
 Mulliken charges with hydrogens summed into heavy atoms:
               1
     1  Mg   0.431034
     2  C   -0.038321
     3  C   -0.062319
     4  C   -0.051377
     5  C   -0.043468
     6  N   -0.263739
     7  C    0.107887
     8  C    0.036953
     9  C    0.033512
    10  C    0.162447
    11  C    0.019793
    12  C    0.031715
    13  C    0.109649
    14  C    0.465740
    15  O   -0.535400
    16  O   -0.260397
    17  N   -0.333778
    18  C    0.141314
    19  C    0.053927
    20  C   -0.057198
    21  C    0.138959
    22  C    0.053589
    23  C    0.327243
    24  O   -0.511277
    25  C    0.081534
    26  N   -0.270819
    27  C    0.136312
    28  C    0.028555
    29  C    0.023370
    30  C    0.124200
    31  C    0.018775
    32  C    0.012871
    33  C    0.005757
    34  N   -0.333861
    35  C    0.091528
    36  C    0.009654
    37  C   -0.051605
    38  C    0.106436
    39  C    0.054214
    40  C    0.336624
    41  O   -0.556194
    42  C    0.124237
    43  C    0.504988
    44  O   -0.562825
    45  O   -0.247830
    46  C    0.201032
    47  C    0.182053
    48  C   -0.067639
    49  C    0.016360
    50  C    0.049707
    51  C    0.017277
    52  C    0.017318
    53  C   -0.014331
    54  C    0.001927
    55  C    0.007208
    56  C   -0.003665
    57  C    0.010889
    58  C    0.000318
    59  C   -0.004608
    60  C   -0.013516
    61  C    0.007458
    62  C    0.010163
    63  C    0.001548
    64  C   -0.008233
    65  C    0.001207
    66  C   -0.004881
 Charge=             -0.0000 electrons
 Dipole moment (field-independent basis, Debye):
    X=             -1.2900    Y=              4.7530    Z=              1.9860  Tot=              5.3103
 N-N= 4.342740714995D+03 E-N= 0.000000000000D+00  KE=-9.359989751880D+03
 Leave Link  601 at Wed Apr 27 13:43:13 2022, MaxMem=  6710886400 cpu:               1.1 elap:               0.1
 (Enter /sw/apps/gaussian-16.0/g16/l9999.exe)
 1\1\GINC-BP1-COMPUTE147\SP\RZINDO CIS\STO-3G\C55H74Mg1N4O6\OF15641\27-
 Apr-2022\0\\#p ZINDO=(nstates=5)\\step_1201_chromophore_11 ZINDO\\0,1\
 Mg,0,52.646,24.227,44.44\C,0,49.779,26.193,43.909\C,0,50.912,21.462,43
 .548\C,0,55.47,22.404,44.542\C,0,54.472,27.159,45.04\N,0,50.573,23.896
 ,43.733\C,0,49.556,24.813,43.687\C,0,48.299,24.042,43.463\C,0,48.626,2
 2.554,43.477\C,0,50.149,22.664,43.539\C,0,48.015,21.684,44.702\C,0,47.
 48,24.409,42.164\C,0,48.259,24.327,40.813\C,0,47.6,23.463,39.702\O,0,4
 6.977,22.392,39.859\O,0,47.793,24.058,38.478\N,0,53.172,22.198,43.965\
 C,0,52.296,21.212,43.76\C,0,52.943,19.953,43.68\C,0,54.36,20.183,43.93
 2\C,0,54.418,21.651,44.163\C,0,52.32,18.607,43.361\C,0,55.494,19.163,4
 4.007\O,0,55.205,17.99,43.818\C,0,56.928,19.471,44.505\N,0,54.722,24.7
 65,44.488\C,0,55.632,23.749,44.804\C,0,56.997,24.358,45.121\C,0,56.682
 ,25.937,45.132\C,0,55.17,25.967,44.823\C,0,57.579,23.733,46.487\C,0,57
 .518,26.81,44.117\C,0,58.694,27.647,44.713\N,0,52.266,26.258,44.56\C,0
 ,53.065,27.338,44.887\C,0,52.249,28.508,45.098\C,0,50.951,28.127,44.64
 9\C,0,51.008,26.759,44.315\C,0,52.694,29.921,45.591\C,0,49.57,28.48,44
 .515\O,0,48.964,29.555,44.718\C,0,48.772,27.348,43.885\C,0,48.33,27.83
 5,42.601\O,0,48.954,27.633,41.518\O,0,47.156,28.512,42.714\C,0,46.611,
 28.956,41.431\C,0,47.134,23.301,37.371\C,0,48.161,22.234,36.783\C,0,47
 .958,20.98,36.258\C,0,46.635,20.234,36.193\C,0,49.112,20.193,35.825\C,
 0,50.042,20.784,34.704\C,0,50.757,19.754,33.81\C,0,52.196,19.301,34.31
 9\C,0,53.342,20.052,33.746\C,0,52.293,17.767,34.357\C,0,52.559,17.144,
 33.006\C,0,51.281,16.803,32.3\C,0,51.247,15.55,31.368\C,0,51.134,14.26
 3,32.274\C,0,52.407,15.429,30.442\C,0,52.087,14.36,29.328\C,0,52.205,1
 5.008,27.933\C,0,53.43,14.534,27.123\C,0,54.364,15.727,26.664\C,0,53.1
 8,13.43,26.026\H,0,50.336,20.575,43.278\H,0,56.358,21.846,44.847\H,0,5
 5.067,28.047,45.264\H,0,47.717,24.194,44.372\H,0,48.199,22.061,42.603\
 H,0,47.928,22.301,45.597\H,0,48.78,20.928,44.881\H,0,47.077,21.201,44.
 431\H,0,47.121,25.438,42.167\H,0,46.628,23.732,42.231\H,0,49.26,23.916
 ,40.938\H,0,48.345,25.355,40.46\H,0,52.497,18.244,42.348\H,0,51.247,18
 .562,43.547\H,0,52.656,17.73,43.914\H,0,57.525,18.562,44.439\H,0,56.88
 1,19.671,45.575\H,0,57.45,20.315,44.054\H,0,57.674,24.094,44.308\H,0,5
 6.878,26.308,46.138\H,0,58.501,23.19,46.278\H,0,56.833,23.097,46.963\H
 ,0,57.791,24.586,47.131\H,0,56.877,27.369,43.436\H,0,57.978,26.031,43.
 508\H,0,59.591,27.262,44.229\H,0,58.679,27.571,45.8\H,0,58.708,28.722,
 44.533\H,0,52.26,30.578,44.837\H,0,53.765,30.088,45.476\H,0,52.448,30.
 073,46.642\H,0,47.966,27.241,44.611\H,0,46.901,30.002,41.332\H,0,45.53
 2,28.937,41.586\H,0,46.714,28.275,40.587\H,0,46.81,24.091,36.693\H,0,4
 6.174,22.872,37.657\H,0,49.169,22.649,36.825\H,0,46.694,19.262,36.684\
 H,0,46.447,19.987,35.148\H,0,45.902,20.953,36.558\H,0,48.913,19.137,35
 .642\H,0,49.794,20.149,36.674\H,0,50.852,21.309,35.209\H,0,49.447,21.3
 67,34.001\H,0,50.902,20.207,32.829\H,0,50.079,18.931,33.581\H,0,52.246
 ,19.666,35.345\H,0,54.285,19.557,33.978\H,0,53.396,21.025,34.235\H,0,5
 3.219,20.217,32.676\H,0,51.383,17.237,34.64\H,0,53.013,17.47,35.119\H,
 0,53.159,16.243,33.134\H,0,53.053,17.865,32.355\H,0,51.108,17.61,31.58
 9\H,0,50.476,16.55,32.99\H,0,50.359,15.601,30.738\H,0,50.092,14.006,32
 .461\H,0,51.674,14.41,33.21\H,0,51.599,13.404,31.79\H,0,53.265,15.065,
 31.006\H,0,52.559,16.456,30.109\H,0,51.047,14.042,29.393\H,0,52.764,13
 .512,29.439\H,0,52.274,16.094,28.\H,0,51.274,14.824,27.397\H,0,54.13,1
 4.004,27.769\H,0,53.845,16.668,26.842\H,0,54.663,15.635,25.62\H,0,55.2
 86,15.603,27.233\H,0,54.003,12.728,26.159\H,0,53.322,13.773,25.001\H,0
 ,52.244,12.878,26.107\\Version=ES64L-G16RevA.03\State=1-A\HF=-474.1723
 961\RMSD=3.493e-09\PG=C01 [X(C55H74Mg1N4O6)]\\@


 MY GROUP MEETINGS AREN'T VERY STRUCTURED.
     -- PROF. M. S. GORDON, OCT. 5, 1984
 Job cpu time:       0 days  0 hours  2 minutes 40.3 seconds.
 Elapsed time:       0 days  0 hours  0 minutes  7.0 seconds.
 File lengths (MBytes):  RWF=   1273 Int=      0 D2E=      0 Chk=     38 Scr=      1
 Normal termination of Gaussian 16 at Wed Apr 27 13:43:13 2022.
