 Entering Gaussian System, Link 0=g16
 Initial command:
 /sw/apps/gaussian-16.0/g16/l1.exe "/tmp/Gau-237275.inp" -scrdir="/tmp/"
 Entering Link 1 = /sw/apps/gaussian-16.0/g16/l1.exe PID=    237276.
  
 Copyright (c) 1988,1990,1992,1993,1995,1998,2003,2009,2016,
            Gaussian, Inc.  All Rights Reserved.
  
 This is part of the Gaussian(R) 16 program.  It is based on
 the Gaussian(R) 09 system (copyright 2009, Gaussian, Inc.),
 the Gaussian(R) 03 system (copyright 2003, Gaussian, Inc.),
 the Gaussian(R) 98 system (copyright 1998, Gaussian, Inc.),
 the Gaussian(R) 94 system (copyright 1995, Gaussian, Inc.),
 the Gaussian 92(TM) system (copyright 1992, Gaussian, Inc.),
 the Gaussian 90(TM) system (copyright 1990, Gaussian, Inc.),
 the Gaussian 88(TM) system (copyright 1988, Gaussian, Inc.),
 the Gaussian 86(TM) system (copyright 1986, Carnegie Mellon
 University), and the Gaussian 82(TM) system (copyright 1983,
 Carnegie Mellon University). Gaussian is a federally registered
 trademark of Gaussian, Inc.
  
 This software contains proprietary and confidential information,
 including trade secrets, belonging to Gaussian, Inc.
  
 This software is provided under written license and may be
 used, copied, transmitted, or stored only in accord with that
 written license.
  
 The following legend is applicable only to US Government
 contracts under FAR:
  
                    RESTRICTED RIGHTS LEGEND
  
 Use, reproduction and disclosure by the US Government is
 subject to restrictions as set forth in subparagraphs (a)
 and (c) of the Commercial Computer Software - Restricted
 Rights clause in FAR 52.227-19.
  
 Gaussian, Inc.
 340 Quinnipiac St., Bldg. 40, Wallingford CT 06492
  
  
 ---------------------------------------------------------------
 Warning -- This program may not be used in any manner that
 competes with the business of Gaussian, Inc. or will provide
 assistance to any competitor of Gaussian, Inc.  The licensee
 of this program is prohibited from giving any competitor of
 Gaussian, Inc. access to this program.  By using this program,
 the user acknowledges that Gaussian, Inc. is engaged in the
 business of creating and licensing software in the field of
 computational chemistry and represents and warrants to the
 licensee that it is not a competitor of Gaussian, Inc. and that
 it will not use this program in any manner prohibited above.
 ---------------------------------------------------------------
  

 Cite this work as:
 Gaussian 16, Revision A.03,
 M. J. Frisch, G. W. Trucks, H. B. Schlegel, G. E. Scuseria, 
 M. A. Robb, J. R. Cheeseman, G. Scalmani, V. Barone, 
 G. A. Petersson, H. Nakatsuji, X. Li, M. Caricato, A. V. Marenich, 
 J. Bloino, B. G. Janesko, R. Gomperts, B. Mennucci, H. P. Hratchian, 
 J. V. Ortiz, A. F. Izmaylov, J. L. Sonnenberg, D. Williams-Young, 
 F. Ding, F. Lipparini, F. Egidi, J. Goings, B. Peng, A. Petrone, 
 T. Henderson, D. Ranasinghe, V. G. Zakrzewski, J. Gao, N. Rega, 
 G. Zheng, W. Liang, M. Hada, M. Ehara, K. Toyota, R. Fukuda, 
 J. Hasegawa, M. Ishida, T. Nakajima, Y. Honda, O. Kitao, H. Nakai, 
 T. Vreven, K. Throssell, J. A. Montgomery, Jr., J. E. Peralta, 
 F. Ogliaro, M. J. Bearpark, J. J. Heyd, E. N. Brothers, K. N. Kudin, 
 V. N. Staroverov, T. A. Keith, R. Kobayashi, J. Normand, 
 K. Raghavachari, A. P. Rendell, J. C. Burant, S. S. Iyengar, 
 J. Tomasi, M. Cossi, J. M. Millam, M. Klene, C. Adamo, R. Cammi, 
 J. W. Ochterski, R. L. Martin, K. Morokuma, O. Farkas, 
 J. B. Foresman, and D. J. Fox, Gaussian, Inc., Wallingford CT, 2016.
 
 ******************************************
 Gaussian 16:  ES64L-G16RevA.03 25-Dec-2016
                 3-May-2022 
 ******************************************
 %nproc=24
 Will use up to   24 processors via shared memory.
 %mem=75GB
 -----------------------------------
 #p cam-b3lyp/Def2SVP td=(nstates=5)
 -----------------------------------
 1/38=1,172=1/1;
 2/12=2,17=6,18=5,40=1/2;
 3/5=43,7=101,11=9,25=1,30=1,74=-40/1,2,3,8;
 4//1;
 5/5=2,38=5/2;
 8/6=1,10=1,108=5/1;
 9/41=5,42=1,70=2/14;
 6/7=2,8=2,9=2,10=2/1;
 99/5=1,9=1/99;
 Leave Link    1 at Tue May  3 22:35:32 2022, MaxMem= 10066329600 cpu:               0.8 elap:               0.0
 (Enter /sw/apps/gaussian-16.0/g16/l101.exe)
 --------------------------------------------------------
 step_1101_chromophore_14 TDDFT with cam-b3lyp functional
 --------------------------------------------------------
 Symbolic Z-matrix:
 Charge =  0 Multiplicity = 1
 Mg                    46.624    45.688    44.15 
 C                     43.295    44.469    43.778 
 C                     47.687    42.373    43.834 
 C                     49.71     46.871    43.903 
 C                     45.357    48.874    44.009 
 N                     45.605    43.684    43.692 
 C                     44.256    43.433    43.681 
 C                     43.97     41.888    43.616 
 C                     45.288    41.314    44.048 
 C                     46.272    42.505    43.837 
 C                     45.375    40.764    45.516 
 C                     43.32     41.366    42.24 
 C                     43.391    42.329    40.995 
 C                     43.04     41.829    39.552 
 O                     42.045    41.207    39.285 
 O                     43.887    42.334    38.545 
 N                     48.438    44.746    43.795 
 C                     48.63     43.411    43.757 
 C                     50.046    43.195    43.557 
 C                     50.722    44.478    43.663 
 C                     49.606    45.434    43.793 
 C                     50.557    41.787    43.274 
 C                     52.243    44.717    43.532 
 O                     53.026    43.74     43.589 
 C                     52.824    46.067    43.292 
 N                     47.388    47.631    43.658 
 C                     48.695    47.808    43.997 
 C                     49.047    49.295    44.355 
 C                     47.655    49.976    44.105 
 C                     46.747    48.725    43.929 
 C                     49.548    49.494    45.826 
 C                     47.595    50.793    42.743 
 C                     48.632    51.902    42.538 
 N                     44.713    46.566    43.965 
 C                     44.356    47.85     43.985 
 C                     42.89     47.978    43.834 
 C                     42.478    46.676    43.798 
 C                     43.592    45.82     43.907 
 C                     41.993    49.276    43.572 
 C                     41.298    45.891    43.754 
 O                     40.102    46.117    43.71 
 C                     41.795    44.402    43.719 
 C                     41.277    43.663    44.884 
 O                     40.892    42.483    44.862 
 O                     41.219    44.466    46.009 
 C                     40.483    43.85     47.214 
 C                     43.33     42.052    37.174 
 C                     44.308    42.651    36.127 
 C                     45.372    42.123    35.458 
 C                     45.965    40.763    35.678 
 C                     46.281    43.04     34.594 
 C                     46.266    42.828    33.087 
 C                     45.666    44.071    32.447 
 C                     45.724    44.261    30.868 
 C                     46.267    45.608    30.427 
 C                     44.433    43.717    30.16 
 C                     44.901    43.286    28.745 
 C                     44.041    43.976    27.585 
 C                     44.876    44.748    26.546 
 C                     44.143    46.058    26.131 
 C                     45.191    43.975    25.258 
 C                     46.626    43.304    25.456 
 C                     47.615    43.458    24.287 
 C                     47.975    44.992    24.14 
 C                     47.963    45.416    22.684 
 C                     49.348    45.295    24.691 
 H                     48.022    41.348    44.004 
 H                     50.696    47.337    43.959 
 H                     44.963    49.888    44.106 
 H                     43.233    41.647    44.381 
 H                     45.597    40.468    43.433 
 H                     45.508    39.683    45.479 
 H                     44.5      41.144    46.044 
 H                     46.312    41.086    45.971 
 H                     42.301    41.021    42.414 
 H                     43.997    40.554    41.975 
 H                     44.373    42.803    40.989 
 H                     42.828    43.243    41.184 
 H                     51.278    41.548    44.056 
 H                     51.109    41.628    42.347 
 H                     49.841    40.966    43.305 
 H                     52.919    46.544    44.268 
 H                     52.13     46.571    42.619 
 H                     53.761    45.976    42.743 
 H                     49.749    49.717    43.636 
 H                     47.311    50.572    44.95 
 H                     48.702    49.374    46.502 
 H                     50.193    50.365    45.946 
 H                     50.162    48.647    46.133 
 H                     46.642    51.227    42.438 
 H                     47.87     50.076    41.97 
 H                     49.356    51.721    41.743 
 H                     49.263    52.146    43.392 
 H                     48.045    52.806    42.38 
 H                     41.511    49.316    42.595 
 H                     42.625    50.163    43.62 
 H                     41.207    49.331    44.325 
 H                     41.43     43.812    42.878 
 H                     39.483    44.273    47.122 
 H                     40.793    44.33     48.142 
 H                     40.382    42.771    47.331 
 H                     42.312    42.413    37.026 
 H                     43.34     40.964    37.11 
 H                     44.012    43.67     35.877 
 H                     47.007    40.934    35.948 
 H                     46.071    40.338    34.68 
 H                     45.469    40.158    36.437 
 H                     47.314    42.969    34.932 
 H                     46.119    44.082    34.87 
 H                     45.788    41.886    32.817 
 H                     47.295    42.791    32.729 
 H                     46.113    44.956    32.898 
 H                     44.632    44.068    32.791 
 H                     46.481    43.556    30.524 
 H                     45.4      46.078    29.964 
 H                     47.028    45.536    29.651 
 H                     46.685    46.191    31.248 
 H                     43.711    44.533    30.198 
 H                     43.97     42.809    30.545 
 H                     44.78     42.203    28.739 
 H                     45.922    43.48     28.416 
 H                     43.354    44.664    28.078 
 H                     43.456    43.24     27.035 
 H                     45.816    45.006    27.035 
 H                     43.899    46.151    25.072 
 H                     44.916    46.811    26.286 
 H                     43.208    46.281    26.645 
 H                     45.211    44.617    24.377 
 H                     44.474    43.163    25.135 
 H                     46.54     42.224    25.579 
 H                     47.144    43.509    26.393 
 H                     47.252    43.274    23.276 
 H                     48.55     42.959    24.543 
 H                     47.241    45.613    24.654 
 H                     48.339    46.435    22.585 
 H                     46.987    45.401    22.2 
 H                     48.569    44.667    22.174 
 H                     49.277    46.245    25.221 
 H                     50.066    45.411    23.879 
 H                     49.686    44.583    25.444 
 
 ITRead=  0  0  0  0  0  0  0  0  0  0  0  0  0  0  0  0  0  0  0  0
 ITRead=  0  0  0  0  0  0  0  0  0  0  0  0  0  0  0  0  0  0  0  0
 ITRead=  0  0  0  0  0  0  0  0  0  0  0  0  0  0  0  0  0  0  0  0
 ITRead=  0  0  0  0  0  0  0  0  0  0  0  0  0  0  0  0  0  0  0  0
 ITRead=  0  0  0  0  0  0  0  0  0  0  0  0  0  0  0  0  0  0  0  0
 ITRead=  0  0  0  0  0  0  0  0  0  0  0  0  0  0  0  0  0  0  0  0
 ITRead=  0  0  0  0  0  0  0  0  0  0  0  0  0  0  0  0  0  0  0  0
 MicOpt= -1 -1 -1 -1 -1 -1 -1 -1 -1 -1 -1 -1 -1 -1 -1 -1 -1 -1 -1 -1
 MicOpt= -1 -1 -1 -1 -1 -1 -1 -1 -1 -1 -1 -1 -1 -1 -1 -1 -1 -1 -1 -1
 MicOpt= -1 -1 -1 -1 -1 -1 -1 -1 -1 -1 -1 -1 -1 -1 -1 -1 -1 -1 -1 -1
 MicOpt= -1 -1 -1 -1 -1 -1 -1 -1 -1 -1 -1 -1 -1 -1 -1 -1 -1 -1 -1 -1
 MicOpt= -1 -1 -1 -1 -1 -1 -1 -1 -1 -1 -1 -1 -1 -1 -1 -1 -1 -1 -1 -1
 MicOpt= -1 -1 -1 -1 -1 -1 -1 -1 -1 -1 -1 -1 -1 -1 -1 -1 -1 -1 -1 -1
 MicOpt= -1 -1 -1 -1 -1 -1 -1 -1 -1 -1 -1 -1 -1 -1 -1 -1 -1 -1 -1 -1
 NAtoms=    140 NQM=      140 NQMF=       0 NMMI=      0 NMMIF=      0
                NMic=       0 NMicF=      0.
                    Isotopes and Nuclear Properties:
 (Nuclear quadrupole moments (NQMom) in fm**2, nuclear magnetic moments (NMagM)
  in nuclear magnetons)

  Atom         1           2           3           4           5           6           7           8           9          10
 IAtWgt=          24          12          12          12          12          14          12          12          12          12
 AtmWgt=  23.9850450  12.0000000  12.0000000  12.0000000  12.0000000  14.0030740  12.0000000  12.0000000  12.0000000  12.0000000
 NucSpn=           0           0           0           0           0           2           0           0           0           0
 AtZEff=  -0.0000000  -0.0000000  -0.0000000  -0.0000000  -0.0000000  -0.0000000  -0.0000000  -0.0000000  -0.0000000  -0.0000000
 NQMom=    0.0000000   0.0000000   0.0000000   0.0000000   0.0000000   2.0440000   0.0000000   0.0000000   0.0000000   0.0000000
 NMagM=    0.0000000   0.0000000   0.0000000   0.0000000   0.0000000   0.4037610   0.0000000   0.0000000   0.0000000   0.0000000
 AtZNuc=  12.0000000   6.0000000   6.0000000   6.0000000   6.0000000   7.0000000   6.0000000   6.0000000   6.0000000   6.0000000

  Atom        11          12          13          14          15          16          17          18          19          20
 IAtWgt=          12          12          12          12          16          16          14          12          12          12
 AtmWgt=  12.0000000  12.0000000  12.0000000  12.0000000  15.9949146  15.9949146  14.0030740  12.0000000  12.0000000  12.0000000
 NucSpn=           0           0           0           0           0           0           2           0           0           0
 AtZEff=  -0.0000000  -0.0000000  -0.0000000  -0.0000000  -0.0000000  -0.0000000  -0.0000000  -0.0000000  -0.0000000  -0.0000000
 NQMom=    0.0000000   0.0000000   0.0000000   0.0000000   0.0000000   0.0000000   2.0440000   0.0000000   0.0000000   0.0000000
 NMagM=    0.0000000   0.0000000   0.0000000   0.0000000   0.0000000   0.0000000   0.4037610   0.0000000   0.0000000   0.0000000
 AtZNuc=   6.0000000   6.0000000   6.0000000   6.0000000   8.0000000   8.0000000   7.0000000   6.0000000   6.0000000   6.0000000

  Atom        21          22          23          24          25          26          27          28          29          30
 IAtWgt=          12          12          12          16          12          14          12          12          12          12
 AtmWgt=  12.0000000  12.0000000  12.0000000  15.9949146  12.0000000  14.0030740  12.0000000  12.0000000  12.0000000  12.0000000
 NucSpn=           0           0           0           0           0           2           0           0           0           0
 AtZEff=  -0.0000000  -0.0000000  -0.0000000  -0.0000000  -0.0000000  -0.0000000  -0.0000000  -0.0000000  -0.0000000  -0.0000000
 NQMom=    0.0000000   0.0000000   0.0000000   0.0000000   0.0000000   2.0440000   0.0000000   0.0000000   0.0000000   0.0000000
 NMagM=    0.0000000   0.0000000   0.0000000   0.0000000   0.0000000   0.4037610   0.0000000   0.0000000   0.0000000   0.0000000
 AtZNuc=   6.0000000   6.0000000   6.0000000   8.0000000   6.0000000   7.0000000   6.0000000   6.0000000   6.0000000   6.0000000

  Atom        31          32          33          34          35          36          37          38          39          40
 IAtWgt=          12          12          12          14          12          12          12          12          12          12
 AtmWgt=  12.0000000  12.0000000  12.0000000  14.0030740  12.0000000  12.0000000  12.0000000  12.0000000  12.0000000  12.0000000
 NucSpn=           0           0           0           2           0           0           0           0           0           0
 AtZEff=  -0.0000000  -0.0000000  -0.0000000  -0.0000000  -0.0000000  -0.0000000  -0.0000000  -0.0000000  -0.0000000  -0.0000000
 NQMom=    0.0000000   0.0000000   0.0000000   2.0440000   0.0000000   0.0000000   0.0000000   0.0000000   0.0000000   0.0000000
 NMagM=    0.0000000   0.0000000   0.0000000   0.4037610   0.0000000   0.0000000   0.0000000   0.0000000   0.0000000   0.0000000
 AtZNuc=   6.0000000   6.0000000   6.0000000   7.0000000   6.0000000   6.0000000   6.0000000   6.0000000   6.0000000   6.0000000

  Atom        41          42          43          44          45          46          47          48          49          50
 IAtWgt=          16          12          12          16          16          12          12          12          12          12
 AtmWgt=  15.9949146  12.0000000  12.0000000  15.9949146  15.9949146  12.0000000  12.0000000  12.0000000  12.0000000  12.0000000
 NucSpn=           0           0           0           0           0           0           0           0           0           0
 AtZEff=  -0.0000000  -0.0000000  -0.0000000  -0.0000000  -0.0000000  -0.0000000  -0.0000000  -0.0000000  -0.0000000  -0.0000000
 NQMom=    0.0000000   0.0000000   0.0000000   0.0000000   0.0000000   0.0000000   0.0000000   0.0000000   0.0000000   0.0000000
 NMagM=    0.0000000   0.0000000   0.0000000   0.0000000   0.0000000   0.0000000   0.0000000   0.0000000   0.0000000   0.0000000
 AtZNuc=   8.0000000   6.0000000   6.0000000   8.0000000   8.0000000   6.0000000   6.0000000   6.0000000   6.0000000   6.0000000

  Atom        51          52          53          54          55          56          57          58          59          60
 IAtWgt=          12          12          12          12          12          12          12          12          12          12
 AtmWgt=  12.0000000  12.0000000  12.0000000  12.0000000  12.0000000  12.0000000  12.0000000  12.0000000  12.0000000  12.0000000
 NucSpn=           0           0           0           0           0           0           0           0           0           0
 AtZEff=  -0.0000000  -0.0000000  -0.0000000  -0.0000000  -0.0000000  -0.0000000  -0.0000000  -0.0000000  -0.0000000  -0.0000000
 NQMom=    0.0000000   0.0000000   0.0000000   0.0000000   0.0000000   0.0000000   0.0000000   0.0000000   0.0000000   0.0000000
 NMagM=    0.0000000   0.0000000   0.0000000   0.0000000   0.0000000   0.0000000   0.0000000   0.0000000   0.0000000   0.0000000
 AtZNuc=   6.0000000   6.0000000   6.0000000   6.0000000   6.0000000   6.0000000   6.0000000   6.0000000   6.0000000   6.0000000

  Atom        61          62          63          64          65          66          67          68          69          70
 IAtWgt=          12          12          12          12          12          12           1           1           1           1
 AtmWgt=  12.0000000  12.0000000  12.0000000  12.0000000  12.0000000  12.0000000   1.0078250   1.0078250   1.0078250   1.0078250
 NucSpn=           0           0           0           0           0           0           1           1           1           1
 AtZEff=  -0.0000000  -0.0000000  -0.0000000  -0.0000000  -0.0000000  -0.0000000  -0.0000000  -0.0000000  -0.0000000  -0.0000000
 NQMom=    0.0000000   0.0000000   0.0000000   0.0000000   0.0000000   0.0000000   0.0000000   0.0000000   0.0000000   0.0000000
 NMagM=    0.0000000   0.0000000   0.0000000   0.0000000   0.0000000   0.0000000   2.7928460   2.7928460   2.7928460   2.7928460
 AtZNuc=   6.0000000   6.0000000   6.0000000   6.0000000   6.0000000   6.0000000   1.0000000   1.0000000   1.0000000   1.0000000

  Atom        71          72          73          74          75          76          77          78          79          80
 IAtWgt=           1           1           1           1           1           1           1           1           1           1
 AtmWgt=   1.0078250   1.0078250   1.0078250   1.0078250   1.0078250   1.0078250   1.0078250   1.0078250   1.0078250   1.0078250
 NucSpn=           1           1           1           1           1           1           1           1           1           1
 AtZEff=  -0.0000000  -0.0000000  -0.0000000  -0.0000000  -0.0000000  -0.0000000  -0.0000000  -0.0000000  -0.0000000  -0.0000000
 NQMom=    0.0000000   0.0000000   0.0000000   0.0000000   0.0000000   0.0000000   0.0000000   0.0000000   0.0000000   0.0000000
 NMagM=    2.7928460   2.7928460   2.7928460   2.7928460   2.7928460   2.7928460   2.7928460   2.7928460   2.7928460   2.7928460
 AtZNuc=   1.0000000   1.0000000   1.0000000   1.0000000   1.0000000   1.0000000   1.0000000   1.0000000   1.0000000   1.0000000

  Atom        81          82          83          84          85          86          87          88          89          90
 IAtWgt=           1           1           1           1           1           1           1           1           1           1
 AtmWgt=   1.0078250   1.0078250   1.0078250   1.0078250   1.0078250   1.0078250   1.0078250   1.0078250   1.0078250   1.0078250
 NucSpn=           1           1           1           1           1           1           1           1           1           1
 AtZEff=  -0.0000000  -0.0000000  -0.0000000  -0.0000000  -0.0000000  -0.0000000  -0.0000000  -0.0000000  -0.0000000  -0.0000000
 NQMom=    0.0000000   0.0000000   0.0000000   0.0000000   0.0000000   0.0000000   0.0000000   0.0000000   0.0000000   0.0000000
 NMagM=    2.7928460   2.7928460   2.7928460   2.7928460   2.7928460   2.7928460   2.7928460   2.7928460   2.7928460   2.7928460
 AtZNuc=   1.0000000   1.0000000   1.0000000   1.0000000   1.0000000   1.0000000   1.0000000   1.0000000   1.0000000   1.0000000

  Atom        91          92          93          94          95          96          97          98          99         100
 IAtWgt=           1           1           1           1           1           1           1           1           1           1
 AtmWgt=   1.0078250   1.0078250   1.0078250   1.0078250   1.0078250   1.0078250   1.0078250   1.0078250   1.0078250   1.0078250
 NucSpn=           1           1           1           1           1           1           1           1           1           1
 AtZEff=  -0.0000000  -0.0000000  -0.0000000  -0.0000000  -0.0000000  -0.0000000  -0.0000000  -0.0000000  -0.0000000  -0.0000000
 NQMom=    0.0000000   0.0000000   0.0000000   0.0000000   0.0000000   0.0000000   0.0000000   0.0000000   0.0000000   0.0000000
 NMagM=    2.7928460   2.7928460   2.7928460   2.7928460   2.7928460   2.7928460   2.7928460   2.7928460   2.7928460   2.7928460
 AtZNuc=   1.0000000   1.0000000   1.0000000   1.0000000   1.0000000   1.0000000   1.0000000   1.0000000   1.0000000   1.0000000

  Atom       101         102         103         104         105         106         107         108         109         110
 IAtWgt=           1           1           1           1           1           1           1           1           1           1
 AtmWgt=   1.0078250   1.0078250   1.0078250   1.0078250   1.0078250   1.0078250   1.0078250   1.0078250   1.0078250   1.0078250
 NucSpn=           1           1           1           1           1           1           1           1           1           1
 AtZEff=  -0.0000000  -0.0000000  -0.0000000  -0.0000000  -0.0000000  -0.0000000  -0.0000000  -0.0000000  -0.0000000  -0.0000000
 NQMom=    0.0000000   0.0000000   0.0000000   0.0000000   0.0000000   0.0000000   0.0000000   0.0000000   0.0000000   0.0000000
 NMagM=    2.7928460   2.7928460   2.7928460   2.7928460   2.7928460   2.7928460   2.7928460   2.7928460   2.7928460   2.7928460
 AtZNuc=   1.0000000   1.0000000   1.0000000   1.0000000   1.0000000   1.0000000   1.0000000   1.0000000   1.0000000   1.0000000

  Atom       111         112         113         114         115         116         117         118         119         120
 IAtWgt=           1           1           1           1           1           1           1           1           1           1
 AtmWgt=   1.0078250   1.0078250   1.0078250   1.0078250   1.0078250   1.0078250   1.0078250   1.0078250   1.0078250   1.0078250
 NucSpn=           1           1           1           1           1           1           1           1           1           1
 AtZEff=  -0.0000000  -0.0000000  -0.0000000  -0.0000000  -0.0000000  -0.0000000  -0.0000000  -0.0000000  -0.0000000  -0.0000000
 NQMom=    0.0000000   0.0000000   0.0000000   0.0000000   0.0000000   0.0000000   0.0000000   0.0000000   0.0000000   0.0000000
 NMagM=    2.7928460   2.7928460   2.7928460   2.7928460   2.7928460   2.7928460   2.7928460   2.7928460   2.7928460   2.7928460
 AtZNuc=   1.0000000   1.0000000   1.0000000   1.0000000   1.0000000   1.0000000   1.0000000   1.0000000   1.0000000   1.0000000

  Atom       121         122         123         124         125         126         127         128         129         130
 IAtWgt=           1           1           1           1           1           1           1           1           1           1
 AtmWgt=   1.0078250   1.0078250   1.0078250   1.0078250   1.0078250   1.0078250   1.0078250   1.0078250   1.0078250   1.0078250
 NucSpn=           1           1           1           1           1           1           1           1           1           1
 AtZEff=  -0.0000000  -0.0000000  -0.0000000  -0.0000000  -0.0000000  -0.0000000  -0.0000000  -0.0000000  -0.0000000  -0.0000000
 NQMom=    0.0000000   0.0000000   0.0000000   0.0000000   0.0000000   0.0000000   0.0000000   0.0000000   0.0000000   0.0000000
 NMagM=    2.7928460   2.7928460   2.7928460   2.7928460   2.7928460   2.7928460   2.7928460   2.7928460   2.7928460   2.7928460
 AtZNuc=   1.0000000   1.0000000   1.0000000   1.0000000   1.0000000   1.0000000   1.0000000   1.0000000   1.0000000   1.0000000

  Atom       131         132         133         134         135         136         137         138         139         140
 IAtWgt=           1           1           1           1           1           1           1           1           1           1
 AtmWgt=   1.0078250   1.0078250   1.0078250   1.0078250   1.0078250   1.0078250   1.0078250   1.0078250   1.0078250   1.0078250
 NucSpn=           1           1           1           1           1           1           1           1           1           1
 AtZEff=  -0.0000000  -0.0000000  -0.0000000  -0.0000000  -0.0000000  -0.0000000  -0.0000000  -0.0000000  -0.0000000  -0.0000000
 NQMom=    0.0000000   0.0000000   0.0000000   0.0000000   0.0000000   0.0000000   0.0000000   0.0000000   0.0000000   0.0000000
 NMagM=    2.7928460   2.7928460   2.7928460   2.7928460   2.7928460   2.7928460   2.7928460   2.7928460   2.7928460   2.7928460
 AtZNuc=   1.0000000   1.0000000   1.0000000   1.0000000   1.0000000   1.0000000   1.0000000   1.0000000   1.0000000   1.0000000
 Leave Link  101 at Tue May  3 22:35:32 2022, MaxMem= 10066329600 cpu:               3.3 elap:               0.2
 (Enter /sw/apps/gaussian-16.0/g16/l202.exe)
 Stoichiometry    C55H74MgN4O6
 Framework group  C1[X(C55H74MgN4O6)]
 Deg. of freedom   414
 Full point group                 C1      NOp   1
 Largest Abelian subgroup         C1      NOp   1
 Largest concise Abelian subgroup C1      NOp   1
                         Standard orientation:                         
 ---------------------------------------------------------------------
 Center     Atomic      Atomic             Coordinates (Angstroms)
 Number     Number       Type             X           Y           Z
 ---------------------------------------------------------------------
      1         12           0        5.151986    1.048838    0.065416
      2          6           0        4.767554   -2.467524    0.505867
      3          6           0        4.558406    0.511266   -3.337190
      4          6           0        4.922456    4.340091   -0.249009
      5          6           0        5.285049    1.352182    3.480975
      6          7           0        4.566712   -0.756540   -1.223849
      7          6           0        4.568785   -2.074008   -0.840188
      8          6           0        4.392809   -3.023475   -2.081393
      9          6           0        4.748110   -2.110261   -3.218507
     10          6           0        4.605265   -0.693062   -2.584158
     11          6           0        6.167313   -2.299137   -3.862930
     12          6           0        2.996871   -3.820747   -2.145198
     13          6           0        1.827726   -3.307928   -1.221860
     14          6           0        0.359543   -3.827409   -1.395149
     15          8           0        0.069647   -4.992260   -1.480480
     16          8           0       -0.625877   -2.830697   -1.246844
     17          7           0        4.682858    2.249773   -1.559901
     18          6           0        4.538423    1.821283   -2.831148
     19          6           0        4.288756    2.991298   -3.643824
     20          6           0        4.476276    4.170674   -2.814241
     21          6           0        4.705528    3.602323   -1.472335
     22          6           0        3.886914    2.818058   -5.104024
     23          6           0        4.327635    5.638206   -3.274655
     24          8           0        4.291129    5.897283   -4.500384
     25          6           0        4.177650    6.767402   -2.315446
     26          7           0        4.791736    2.611474    1.489986
     27          6           0        5.111961    3.853862    1.033449
     28          6           0        5.573991    4.832352    2.170253
     29          6           0        5.410047    3.898799    3.421464
     30          6           0        5.160736    2.527545    2.730128
     31          6           0        7.043511    5.350040    2.006081
     32          6           0        4.116254    4.230492    4.282981
     33          6           0        3.971861    5.658063    4.820073
     34          7           0        5.080273   -0.260449    1.720003
     35          6           0        5.206810   -0.002014    3.021427
     36          6           0        5.101075   -1.251672    3.805974
     37          6           0        4.975576   -2.204746    2.835333
     38          6           0        4.992243   -1.596328    1.564442
     39          6           0        4.960479   -1.465498    5.384761
     40          6           0        4.899931   -3.611039    2.670473
     41          8           0        4.901891   -4.576896    3.412459
     42          6           0        4.739441   -3.836456    1.124903
     43          6           0        5.856625   -4.646670    0.608064
     44          8           0        5.753755   -5.520941   -0.267251
     45          8           0        7.040737   -4.352004    1.259867
     46          6           0        8.212393   -5.302103    0.947278
     47          6           0       -2.000720   -3.437035   -1.139263
     48          6           0       -3.021959   -2.280531   -0.963015
     49          6           0       -3.754550   -1.559067   -1.858136
     50          6           0       -3.653296   -1.644064   -3.352182
     51          6           0       -4.567438   -0.323547   -1.382354
     52          6           0       -6.085440   -0.412592   -1.445283
     53          6           0       -6.614116   -0.380979   -0.019047
     54          6           0       -8.174923   -0.223080    0.248635
     55          6           0       -8.524585    0.873459    1.238118
     56          6           0       -8.891380   -1.611424    0.400534
     57          6           0      -10.345937   -1.368832   -0.081568
     58          6           0      -11.428978   -1.811338    1.010454
     59          6           0      -12.425614   -0.704834    1.404272
     60          6           0      -12.721718   -0.764802    2.932127
     61          6           0      -13.776049   -0.754362    0.676556
     62          6           0      -13.664201    0.222769   -0.580971
     63          6           0      -14.841303    1.190540   -0.796025
     64          6           0      -14.879254    2.203916    0.418880
     65          6           0      -16.297911    2.402941    0.916532
     66          6           0      -14.339660    3.559146    0.028072
     67          1           0        4.641568    0.347192   -4.413254
     68          1           0        4.990328    5.429497   -0.281794
     69          1           0        5.468599    1.455128    4.552681
     70          1           0        5.154545   -3.800047   -2.025093
     71          1           0        4.063084   -2.206781   -4.061623
     72          1           0        6.044685   -2.666087   -4.881718
     73          1           0        6.743537   -2.916539   -3.173301
     74          1           0        6.623076   -1.323474   -4.033342
     75          1           0        3.168291   -4.888208   -2.008071
     76          1           0        2.654532   -3.577910   -3.151047
     77          1           0        1.834504   -2.217685   -1.240834
     78          1           0        2.099378   -3.402088   -0.170468
     79          1           0        4.630935    3.344223   -5.702414
     80          1           0        2.937562    3.251624   -5.420355
     81          1           0        3.872199    1.808966   -5.515332
     82          1           0        5.184686    7.054024   -2.010724
     83          1           0        3.561877    6.383115   -1.501979
     84          1           0        3.601087    7.570433   -2.774103
     85          1           0        4.872769    5.658476    2.287114
     86          1           0        6.306075    3.848611    4.039680
     87          1           0        7.728376    4.531713    2.226060
     88          1           0        7.214256    6.316241    2.481862
     89          1           0        7.270169    5.513395    0.952233
     90          1           0        3.868137    3.578611    5.121479
     91          1           0        3.284400    4.163696    3.582410
     92          1           0        3.148298    6.233612    4.396457
     93          1           0        4.826693    6.320154    4.686245
     94          1           0        3.897434    5.542509    5.900747
     95          1           0        4.001177   -1.865181    5.714072
     96          1           0        5.060988   -0.502769    5.886307
     97          1           0        5.734033   -2.152539    5.727428
     98          1           0        3.864787   -4.416790    0.830287
     99          1           0        8.176876   -6.003689    1.780289
    100          1           0        9.166679   -4.821499    1.161853
    101          1           0        8.249011   -5.879139    0.023255
    102          1           0       -2.096364   -4.181850   -0.348914
    103          1           0       -2.147859   -3.916625   -2.106880
    104          1           0       -3.186255   -2.083281    0.096502
    105          1           0       -3.395980   -0.640129   -3.689537
    106          1           0       -4.683089   -1.727508   -3.699209
    107          1           0       -2.931100   -2.369053   -3.727609
    108          1           0       -4.260611    0.562615   -1.936382
    109          1           0       -4.208864   -0.003161   -0.404110
    110          1           0       -6.415114   -1.259628   -2.047441
    111          1           0       -6.469687    0.494390   -1.912307
    112          1           0       -6.107636    0.410368    0.532027
    113          1           0       -6.246760   -1.310235    0.415734
    114          1           0       -8.589745    0.140360   -0.691708
    115          1           0       -8.929498    0.316637    2.082484
    116          1           0       -9.321766    1.530828    0.893373
    117          1           0       -7.671667    1.498238    1.504270
    118          1           0       -8.773934   -1.889681    1.448085
    119          1           0       -8.565916   -2.438335   -0.229822
    120          1           0      -10.431753   -1.963920   -0.990452
    121          1           0      -10.683442   -0.365475   -0.341727
    122          1           0      -10.868603   -2.121860    1.892451
    123          1           0      -12.019464   -2.657615    0.661795
    124          1           0      -11.940920    0.244278    1.172877
    125          1           0      -13.764392   -0.927030    3.208134
    126          1           0      -12.528155    0.262177    3.242626
    127          1           0      -12.170008   -1.506219    3.510112
    128          1           0      -14.605662   -0.436226    1.308423
    129          1           0      -13.943558   -1.758286    0.285866
    130          1           0      -13.622037   -0.341400   -1.513098
    131          1           0      -12.726916    0.765320   -0.705282
    132          1           0      -15.854447    0.796824   -0.716831
    133          1           0      -14.646564    1.797752   -1.680408
    134          1           0      -14.301943    1.821012    1.260716
    135          1           0      -16.327736    3.198343    1.662176
    136          1           0      -16.758200    1.530911    1.379947
    137          1           0      -16.877956    2.613912    0.017991
    138          1           0      -13.737100    3.916098    0.863505
    139          1           0      -15.157339    4.263143   -0.127214
    140          1           0      -13.651531    3.530909   -0.816841
 ---------------------------------------------------------------------
 Rotational constants (GHZ):           0.0348157           0.0098626           0.0091293
 Leave Link  202 at Tue May  3 22:35:32 2022, MaxMem= 10066329600 cpu:               0.2 elap:               0.0
 (Enter /sw/apps/gaussian-16.0/g16/l301.exe)
 Standard basis: def2SVP (5D, 7F)
 Ernie: Thresh=  0.10000D-02 Tol=  0.10000D-05 Strict=F.
 There are  1364 symmetry adapted cartesian basis functions of A   symmetry.
 There are  1298 symmetry adapted basis functions of A   symmetry.
  1298 basis functions,  2180 primitive gaussians,  1364 cartesian basis functions
   246 alpha electrons      246 beta electrons
       nuclear repulsion energy      9499.5327503916 Hartrees.
 IExCor=20419 DFT=T Ex+Corr=CAM-B3LYP ExCW=0 ScaHFX=  1.000000
 ScaDFX=  1.000000  1.000000  1.000000  0.810000 ScalE2=  1.000000  1.000000
 IRadAn=      5 IRanWt=     -1 IRanGd=            0 ICorTp=0 IEmpDi=  4
 HFx  wShort=  0.000000 wLong=  0.330000 cFull=  0.190000 cShort=  0.000000 cLong=  0.460000
 DFx  wShort=  0.000000 wLong=  0.330000 cFull=  0.190000 cShort=  0.000000 cLong=  0.460000
 NAtoms=  140 NActive=  140 NUniq=  140 SFac= 1.00D+00 NAtFMM=   60 NAOKFM=T Big=T
 Integral buffers will be    131072 words long.
 Raffenetti 1 integral format.
 Two-electron integral symmetry is turned on.
 Leave Link  301 at Tue May  3 22:35:32 2022, MaxMem= 10066329600 cpu:               1.3 elap:               0.1
 (Enter /sw/apps/gaussian-16.0/g16/l302.exe)
 NPDir=0 NMtPBC=     1 NCelOv=     1 NCel=       1 NClECP=     1 NCelD=      1
         NCelK=      1 NCelE2=     1 NClLst=     1 CellRange=     0.0.
 One-electron integrals computed using PRISM.
 One-electron integral symmetry used in STVInt
   1 Symmetry operations used in ECPInt.
 ECPInt:  NShTT=  192510 NPrTT=  683786 LenC2=   93411 LenP2D=  204864.
 LDataN:  DoStor=T MaxTD1= 4 Len=   56
 NBasis=  1298 RedAO= T EigKep=  2.52D-04  NBF=  1298
 NBsUse=  1298 1.00D-06 EigRej= -1.00D+00 NBFU=  1298
 Precomputing XC quadrature grid using
 IXCGrd= 4 IRadAn=           5 IRanWt=          -1 IRanGd=           0 AccXCQ= 0.00D+00.
 Generated NRdTot=       0 NPtTot=           0 NUsed=           0 NTot=          32
 NSgBfM=  1038  1011  1024  1033  1038 MxSgAt=   140 MxSgA2=   140.
 Leave Link  302 at Tue May  3 22:35:36 2022, MaxMem= 10066329600 cpu:              86.5 elap:               3.6
 (Enter /sw/apps/gaussian-16.0/g16/l303.exe)
 DipDrv:  MaxL=1.
 Leave Link  303 at Tue May  3 22:35:36 2022, MaxMem= 10066329600 cpu:               7.1 elap:               0.3
 (Enter /sw/apps/gaussian-16.0/g16/l308.exe)
 Leave Link  308 at Tue May  3 22:35:37 2022, MaxMem= 10066329600 cpu:              10.4 elap:               0.5
 (Enter /sw/apps/gaussian-16.0/g16/l401.exe)
 ExpMin= 3.36D-02 ExpMax= 4.95D+03 ExpMxC= 7.45D+02 IAcc=3 IRadAn=         5 AccDes= 0.00D+00
 Harris functional with IExCor=20419 and IRadAn=       5 diagonalized for initial guess.
 HarFok:  IExCor=20419 AccDes= 0.00D+00 IRadAn=         5 IDoV= 1 UseB2=F ITyADJ=14
 ICtDFT=  3500011 ScaDFX=  1.000000  1.000000  1.000000  1.000000
 FoFCou: FMM=F IPFlag=           0 FMFlag=      100000 FMFlg1=        2001
         NFxFlg=           0 DoJE=T BraDBF=F KetDBF=T FulRan=T
         wScrn=  0.000000 ICntrl=       500 IOpCl=  0 I1Cent=   200000004 NGrid=           0
         NMat0=    1 NMatS0=      1 NMatT0=    0 NMatD0=    1 NMtDS0=    0 NMtDT0=    0
 Petite list used in FoFCou.
 Harris En= -2890.87217438697    
 JPrj=0 DoOrth=F DoCkMO=F.
 Leave Link  401 at Tue May  3 22:35:43 2022, MaxMem= 10066329600 cpu:             132.9 elap:               5.6
 (Enter /sw/apps/gaussian-16.0/g16/l502.exe)
 Integral symmetry usage will be decided dynamically.
 Closed shell SCF:
 Using DIIS extrapolation, IDIIS=  1040.
 NGot= 10066329600 LenX= 10062561258 LenY= 10060699398
 Requested convergence on RMS density matrix=1.00D-08 within 128 cycles.
 Requested convergence on MAX density matrix=1.00D-06.
 Requested convergence on             energy=1.00D-06.
 No special actions if energy rises.
 Fock matrices will be formed incrementally for  20 cycles.

 Cycle   1  Pass 1  IDiag  1:
 FoFJK:  IHMeth= 1 ICntrl=       0 DoSepK=T KAlg= 0 I1Cent=           0 FoldK=F
 IRaf=         1 NMat=       1 IRICut=       1 DoRegI=T DoRafI=F ISym2E= 0 IDoP0=0 IntGTp=1.
 FoFCou: FMM=T IPFlag=           0 FMFlag=      100000 FMFlg1=        2001
         NFxFlg=           0 DoJE=T BraDBF=F KetDBF=F FulRan=T
         wScrn=  0.000000 ICntrl=       500 IOpCl=  0 I1Cent=           0 NGrid=           0
         NMat0=    1 NMatS0=      1 NMatT0=    0 NMatD0=    1 NMtDS0=    0 NMtDT0=    0
 Symmetry not used in FoFCou.
 FMM levels:  10  Number of levels for PrismC:   9
 E= -3006.48727254571    
 DIIS: error= 1.99D-02 at cycle   1 NSaved=   1.
 NSaved= 1 IEnMin= 1 EnMin= -3006.48727254571     IErMin= 1 ErrMin= 1.99D-02
 ErrMax= 1.99D-02  0.00D+00 EMaxC= 1.00D-01 BMatC= 1.26D+00 BMatP= 1.26D+00
 IDIUse=3 WtCom= 8.01D-01 WtEn= 1.99D-01
 Coeff-Com:  0.100D+01
 Coeff-En:   0.100D+01
 Coeff:      0.100D+01
 Gap=     0.126 Goal=   None    Shift=    0.000
 GapD=    0.126 DampG=1.000 DampE=0.500 DampFc=0.5000 IDamp=-1.
 Damping current iteration by 5.00D-01
 RMSDP=1.56D-03 MaxDP=1.22D-01              OVMax= 1.76D-01

 Cycle   2  Pass 1  IDiag  1:
 RMSU=  7.67D-04    CP:  9.86D-01
 E= -3006.79169515603     Delta-E=       -0.304422610321 Rises=F Damp=T
 DIIS: error= 1.23D-02 at cycle   2 NSaved=   2.
 NSaved= 2 IEnMin= 2 EnMin= -3006.79169515603     IErMin= 2 ErrMin= 1.23D-02
 ErrMax= 1.23D-02  0.00D+00 EMaxC= 1.00D-01 BMatC= 2.31D-01 BMatP= 1.26D+00
 IDIUse=3 WtCom= 8.77D-01 WtEn= 1.23D-01
 Coeff-Com: -0.222D+00 0.122D+01
 Coeff-En:   0.000D+00 0.100D+01
 Coeff:     -0.195D+00 0.119D+01
 Gap=     0.139 Goal=   None    Shift=    0.000
 RMSDP=7.08D-04 MaxDP=9.92D-02 DE=-3.04D-01 OVMax= 1.65D-01

 Cycle   3  Pass 1  IDiag  1:
 RMSU=  6.91D-04    CP:  9.75D-01  1.16D+00
 E= -3007.02279737369     Delta-E=       -0.231102217667 Rises=F Damp=F
 DIIS: error= 1.47D-02 at cycle   3 NSaved=   3.
 NSaved= 3 IEnMin= 3 EnMin= -3007.02279737369     IErMin= 2 ErrMin= 1.23D-02
 ErrMax= 1.47D-02  0.00D+00 EMaxC= 1.00D-01 BMatC= 1.47D-01 BMatP= 2.31D-01
 IDIUse=3 WtCom= 8.53D-01 WtEn= 1.47D-01
 Coeff-Com: -0.267D+00 0.650D+00 0.617D+00
 Coeff-En:   0.000D+00 0.000D+00 0.100D+01
 Coeff:     -0.228D+00 0.554D+00 0.673D+00
 Gap=     0.126 Goal=   None    Shift=    0.000
 RMSDP=4.68D-04 MaxDP=5.43D-02 DE=-2.31D-01 OVMax= 9.27D-02

 Cycle   4  Pass 1  IDiag  1:
 RMSU=  2.59D-04    CP:  9.73D-01  1.48D+00  5.69D-01
 E= -3007.11816511229     Delta-E=       -0.095367738591 Rises=F Damp=F
 DIIS: error= 6.41D-03 at cycle   4 NSaved=   4.
 NSaved= 4 IEnMin= 4 EnMin= -3007.11816511229     IErMin= 4 ErrMin= 6.41D-03
 ErrMax= 6.41D-03  0.00D+00 EMaxC= 1.00D-01 BMatC= 3.65D-02 BMatP= 1.47D-01
 IDIUse=3 WtCom= 9.36D-01 WtEn= 6.41D-02
 Coeff-Com: -0.109D+00 0.223D+00 0.406D+00 0.480D+00
 Coeff-En:   0.000D+00 0.000D+00 0.210D+00 0.790D+00
 Coeff:     -0.102D+00 0.208D+00 0.393D+00 0.500D+00
 Gap=     0.125 Goal=   None    Shift=    0.000
 RMSDP=1.72D-04 MaxDP=2.03D-02 DE=-9.54D-02 OVMax= 3.59D-02

 Cycle   5  Pass 1  IDiag  1:
 RMSU=  7.05D-05    CP:  9.72D-01  1.43D+00  7.17D-01  5.71D-01
 E= -3007.14816032109     Delta-E=       -0.029995208808 Rises=F Damp=F
 DIIS: error= 8.87D-04 at cycle   5 NSaved=   5.
 NSaved= 5 IEnMin= 5 EnMin= -3007.14816032109     IErMin= 5 ErrMin= 8.87D-04
 ErrMax= 8.87D-04  0.00D+00 EMaxC= 1.00D-01 BMatC= 7.65D-04 BMatP= 3.65D-02
 IDIUse=3 WtCom= 9.91D-01 WtEn= 8.87D-03
 Coeff-Com: -0.391D-01 0.768D-01 0.171D+00 0.250D+00 0.541D+00
 Coeff-En:   0.000D+00 0.000D+00 0.000D+00 0.000D+00 0.100D+01
 Coeff:     -0.388D-01 0.761D-01 0.169D+00 0.248D+00 0.545D+00
 Gap=     0.125 Goal=   None    Shift=    0.000
 RMSDP=3.58D-05 MaxDP=5.15D-03 DE=-3.00D-02 OVMax= 1.20D-02

 Cycle   6  Pass 1  IDiag  1:
 RMSU=  2.69D-05    CP:  9.72D-01  1.43D+00  7.17D-01  6.13D-01  7.04D-01
 E= -3007.14875657970     Delta-E=       -0.000596258602 Rises=F Damp=F
 DIIS: error= 3.00D-04 at cycle   6 NSaved=   6.
 NSaved= 6 IEnMin= 6 EnMin= -3007.14875657970     IErMin= 6 ErrMin= 3.00D-04
 ErrMax= 3.00D-04  0.00D+00 EMaxC= 1.00D-01 BMatC= 1.22D-04 BMatP= 7.65D-04
 IDIUse=3 WtCom= 9.97D-01 WtEn= 3.00D-03
 Coeff-Com:  0.190D-02-0.575D-02 0.892D-02 0.311D-01 0.303D+00 0.661D+00
 Coeff-En:   0.000D+00 0.000D+00 0.000D+00 0.000D+00 0.126D+00 0.874D+00
 Coeff:      0.190D-02-0.573D-02 0.889D-02 0.310D-01 0.303D+00 0.661D+00
 Gap=     0.125 Goal=   None    Shift=    0.000
 RMSDP=1.74D-05 MaxDP=4.67D-03 DE=-5.96D-04 OVMax= 5.61D-03

 Cycle   7  Pass 1  IDiag  1:
 RMSU=  1.06D-05    CP:  9.72D-01  1.43D+00  7.22D-01  6.19D-01  8.46D-01
                    CP:  6.98D-01
 E= -3007.14887798733     Delta-E=       -0.000121407631 Rises=F Damp=F
 DIIS: error= 8.18D-05 at cycle   7 NSaved=   7.
 NSaved= 7 IEnMin= 7 EnMin= -3007.14887798733     IErMin= 7 ErrMin= 8.18D-05
 ErrMax= 8.18D-05  0.00D+00 EMaxC= 1.00D-01 BMatC= 1.50D-05 BMatP= 1.22D-04
 IDIUse=1 WtCom= 1.00D+00 WtEn= 0.00D+00
 Coeff-Com:  0.431D-02-0.938D-02-0.939D-02-0.635D-02 0.108D+00 0.349D+00
 Coeff-Com:  0.564D+00
 Coeff:      0.431D-02-0.938D-02-0.939D-02-0.635D-02 0.108D+00 0.349D+00
 Coeff:      0.564D+00
 Gap=     0.125 Goal=   None    Shift=    0.000
 RMSDP=5.44D-06 MaxDP=6.22D-04 DE=-1.21D-04 OVMax= 1.76D-03

 Cycle   8  Pass 1  IDiag  1:
 RMSU=  3.74D-06    CP:  9.72D-01  1.43D+00  7.23D-01  6.21D-01  8.41D-01
                    CP:  8.15D-01  7.87D-01
 E= -3007.14889342440     Delta-E=       -0.000015437074 Rises=F Damp=F
 DIIS: error= 3.85D-05 at cycle   8 NSaved=   8.
 NSaved= 8 IEnMin= 8 EnMin= -3007.14889342440     IErMin= 8 ErrMin= 3.85D-05
 ErrMax= 3.85D-05  0.00D+00 EMaxC= 1.00D-01 BMatC= 2.29D-06 BMatP= 1.50D-05
 IDIUse=1 WtCom= 1.00D+00 WtEn= 0.00D+00
 Coeff-Com:  0.216D-02-0.426D-02-0.758D-02-0.118D-01-0.863D-02 0.464D-01
 Coeff-Com:  0.299D+00 0.685D+00
 Coeff:      0.216D-02-0.426D-02-0.758D-02-0.118D-01-0.863D-02 0.464D-01
 Coeff:      0.299D+00 0.685D+00
 Gap=     0.125 Goal=   None    Shift=    0.000
 RMSDP=2.73D-06 MaxDP=6.97D-04 DE=-1.54D-05 OVMax= 1.19D-03

 Cycle   9  Pass 1  IDiag  1:
 RMSU=  1.59D-06    CP:  9.72D-01  1.43D+00  7.24D-01  6.21D-01  8.59D-01
                    CP:  8.26D-01  9.42D-01  8.88D-01
 E= -3007.14889625307     Delta-E=       -0.000002828669 Rises=F Damp=F
 DIIS: error= 1.71D-05 at cycle   9 NSaved=   9.
 NSaved= 9 IEnMin= 9 EnMin= -3007.14889625307     IErMin= 9 ErrMin= 1.71D-05
 ErrMax= 1.71D-05  0.00D+00 EMaxC= 1.00D-01 BMatC= 3.12D-07 BMatP= 2.29D-06
 IDIUse=1 WtCom= 1.00D+00 WtEn= 0.00D+00
 Coeff-Com:  0.593D-03-0.108D-02-0.269D-02-0.544D-02-0.170D-01-0.189D-01
 Coeff-Com:  0.870D-01 0.351D+00 0.606D+00
 Coeff:      0.593D-03-0.108D-02-0.269D-02-0.544D-02-0.170D-01-0.189D-01
 Coeff:      0.870D-01 0.351D+00 0.606D+00
 Gap=     0.125 Goal=   None    Shift=    0.000
 RMSDP=9.10D-07 MaxDP=8.03D-05 DE=-2.83D-06 OVMax= 3.09D-04

 Cycle  10  Pass 1  IDiag  1:
 RMSU=  6.71D-07    CP:  9.72D-01  1.43D+00  7.24D-01  6.22D-01  8.62D-01
                    CP:  8.33D-01  9.69D-01  1.01D+00  9.24D-01
 E= -3007.14889669311     Delta-E=       -0.000000440041 Rises=F Damp=F
 DIIS: error= 5.59D-06 at cycle  10 NSaved=  10.
 NSaved=10 IEnMin=10 EnMin= -3007.14889669311     IErMin=10 ErrMin= 5.59D-06
 ErrMax= 5.59D-06  0.00D+00 EMaxC= 1.00D-01 BMatC= 4.21D-08 BMatP= 3.12D-07
 IDIUse=1 WtCom= 1.00D+00 WtEn= 0.00D+00
 Coeff-Com: -0.200D-03 0.436D-03 0.446D-03-0.697D-04-0.625D-02-0.208D-01
 Coeff-Com: -0.242D-01 0.251D-01 0.249D+00 0.777D+00
 Coeff:     -0.200D-03 0.436D-03 0.446D-03-0.697D-04-0.625D-02-0.208D-01
 Coeff:     -0.242D-01 0.251D-01 0.249D+00 0.777D+00
 Gap=     0.125 Goal=   None    Shift=    0.000
 RMSDP=6.41D-07 MaxDP=1.41D-04 DE=-4.40D-07 OVMax= 4.39D-04

 Cycle  11  Pass 1  IDiag  1:
 RMSU=  4.03D-07    CP:  9.72D-01  1.43D+00  7.24D-01  6.22D-01  8.64D-01
                    CP:  8.36D-01  9.94D-01  1.04D+00  1.14D+00  9.43D-01
 E= -3007.14889681128     Delta-E=       -0.000000118169 Rises=F Damp=F
 DIIS: error= 3.42D-06 at cycle  11 NSaved=  11.
 NSaved=11 IEnMin=11 EnMin= -3007.14889681128     IErMin=11 ErrMin= 3.42D-06
 ErrMax= 3.42D-06  0.00D+00 EMaxC= 1.00D-01 BMatC= 2.51D-08 BMatP= 4.21D-08
 IDIUse=1 WtCom= 1.00D+00 WtEn= 0.00D+00
 Coeff-Com: -0.224D-03 0.449D-03 0.771D-03 0.987D-03-0.199D-03-0.838D-02
 Coeff-Com: -0.321D-01-0.522D-01-0.718D-02 0.507D+00 0.591D+00
 Coeff:     -0.224D-03 0.449D-03 0.771D-03 0.987D-03-0.199D-03-0.838D-02
 Coeff:     -0.321D-01-0.522D-01-0.718D-02 0.507D+00 0.591D+00
 Gap=     0.125 Goal=   None    Shift=    0.000
 RMSDP=3.07D-07 MaxDP=5.04D-05 DE=-1.18D-07 OVMax= 1.41D-04

 Cycle  12  Pass 1  IDiag  1:
 RMSU=  1.58D-07    CP:  9.72D-01  1.43D+00  7.24D-01  6.22D-01  8.65D-01
                    CP:  8.36D-01  1.00D+00  1.08D+00  1.19D+00  1.21D+00
                    CP:  1.04D+00
 E= -3007.14889686333     Delta-E=       -0.000000052054 Rises=F Damp=F
 DIIS: error= 1.40D-06 at cycle  12 NSaved=  12.
 NSaved=12 IEnMin=12 EnMin= -3007.14889686333     IErMin=12 ErrMin= 1.40D-06
 ErrMax= 1.40D-06  0.00D+00 EMaxC= 1.00D-01 BMatC= 3.09D-09 BMatP= 2.51D-08
 IDIUse=1 WtCom= 1.00D+00 WtEn= 0.00D+00
 Coeff-Com: -0.621D-04 0.118D-03 0.275D-03 0.482D-03 0.120D-02 0.874D-03
 Coeff-Com: -0.968D-02-0.246D-01-0.742D-01 0.111D+00 0.171D+00 0.824D+00
 Coeff:     -0.621D-04 0.118D-03 0.275D-03 0.482D-03 0.120D-02 0.874D-03
 Coeff:     -0.968D-02-0.246D-01-0.742D-01 0.111D+00 0.171D+00 0.824D+00
 Gap=     0.125 Goal=   None    Shift=    0.000
 RMSDP=1.95D-07 MaxDP=1.82D-05 DE=-5.21D-08 OVMax= 1.46D-04

 Cycle  13  Pass 1  IDiag  1:
 RMSU=  9.12D-08    CP:  9.72D-01  1.43D+00  7.24D-01  6.22D-01  8.65D-01
                    CP:  8.36D-01  1.01D+00  1.09D+00  1.25D+00  1.31D+00
                    CP:  1.31D+00  1.34D+00
 E= -3007.14889687915     Delta-E=       -0.000000015812 Rises=F Damp=F
 DIIS: error= 1.11D-06 at cycle  13 NSaved=  13.
 NSaved=13 IEnMin=13 EnMin= -3007.14889687915     IErMin=13 ErrMin= 1.11D-06
 ErrMax= 1.11D-06  0.00D+00 EMaxC= 1.00D-01 BMatC= 2.18D-09 BMatP= 3.09D-09
 IDIUse=1 WtCom= 1.00D+00 WtEn= 0.00D+00
 Coeff-Com:  0.550D-04-0.114D-03-0.159D-03-0.141D-03 0.483D-03 0.377D-02
 Coeff-Com:  0.690D-02 0.122D-01-0.436D-01-0.104D+00-0.232D+00 0.459D+00
 Coeff-Com:  0.897D+00
 Coeff:      0.550D-04-0.114D-03-0.159D-03-0.141D-03 0.483D-03 0.377D-02
 Coeff:      0.690D-02 0.122D-01-0.436D-01-0.104D+00-0.232D+00 0.459D+00
 Coeff:      0.897D+00
 Gap=     0.125 Goal=   None    Shift=    0.000
 RMSDP=1.76D-07 MaxDP=1.81D-05 DE=-1.58D-08 OVMax= 1.05D-04

 Cycle  14  Pass 1  IDiag  1:
 RMSU=  4.50D-08    CP:  9.72D-01  1.43D+00  7.24D-01  6.22D-01  8.65D-01
                    CP:  8.36D-01  1.01D+00  1.10D+00  1.28D+00  1.43D+00
                    CP:  1.52D+00  1.95D+00  1.49D+00
 E= -3007.14889688959     Delta-E=       -0.000000010445 Rises=F Damp=F
 DIIS: error= 5.84D-07 at cycle  14 NSaved=  14.
 NSaved=14 IEnMin=14 EnMin= -3007.14889688959     IErMin=14 ErrMin= 5.84D-07
 ErrMax= 5.84D-07  0.00D+00 EMaxC= 1.00D-01 BMatC= 5.05D-10 BMatP= 2.18D-09
 IDIUse=1 WtCom= 1.00D+00 WtEn= 0.00D+00
 Coeff-Com:  0.538D-04-0.107D-03-0.197D-03-0.269D-03-0.355D-03 0.158D-02
 Coeff-Com:  0.677D-02 0.181D-01 0.218D-02-0.750D-01-0.220D+00-0.413D-01
 Coeff-Com:  0.375D+00 0.934D+00
 Coeff:      0.538D-04-0.107D-03-0.197D-03-0.269D-03-0.355D-03 0.158D-02
 Coeff:      0.677D-02 0.181D-01 0.218D-02-0.750D-01-0.220D+00-0.413D-01
 Coeff:      0.375D+00 0.934D+00
 Gap=     0.125 Goal=   None    Shift=    0.000
 RMSDP=1.24D-07 MaxDP=9.38D-06 DE=-1.04D-08 OVMax= 8.46D-05

 Cycle  15  Pass 1  IDiag  1:
 RMSU=  2.62D-08    CP:  9.72D-01  1.43D+00  7.24D-01  6.22D-01  8.65D-01
                    CP:  8.36D-01  1.01D+00  1.10D+00  1.30D+00  1.49D+00
                    CP:  1.68D+00  2.38D+00  2.02D+00  1.33D+00
 E= -3007.14889689296     Delta-E=       -0.000000003367 Rises=F Damp=F
 DIIS: error= 2.58D-07 at cycle  15 NSaved=  15.
 NSaved=15 IEnMin=15 EnMin= -3007.14889689296     IErMin=15 ErrMin= 2.58D-07
 ErrMax= 2.58D-07  0.00D+00 EMaxC= 1.00D-01 BMatC= 1.18D-10 BMatP= 5.05D-10
 IDIUse=1 WtCom= 1.00D+00 WtEn= 0.00D+00
 Coeff-Com:  0.744D-05-0.134D-04-0.375D-04-0.673D-04-0.282D-03-0.244D-03
 Coeff-Com:  0.607D-03 0.442D-02 0.865D-02 0.530D-03-0.403D-01-0.112D+00
 Coeff-Com: -0.121D+00 0.389D+00 0.871D+00
 Coeff:      0.744D-05-0.134D-04-0.375D-04-0.673D-04-0.282D-03-0.244D-03
 Coeff:      0.607D-03 0.442D-02 0.865D-02 0.530D-03-0.403D-01-0.112D+00
 Coeff:     -0.121D+00 0.389D+00 0.871D+00
 Gap=     0.125 Goal=   None    Shift=    0.000
 RMSDP=5.83D-08 MaxDP=4.42D-06 DE=-3.37D-09 OVMax= 3.77D-05

 Cycle  16  Pass 1  IDiag  1:
 RMSU=  1.18D-08    CP:  9.72D-01  1.43D+00  7.24D-01  6.22D-01  8.65D-01
                    CP:  8.36D-01  1.01D+00  1.10D+00  1.31D+00  1.51D+00
                    CP:  1.75D+00  2.58D+00  2.29D+00  1.67D+00  1.16D+00
 E= -3007.14889689363     Delta-E=       -0.000000000677 Rises=F Damp=F
 DIIS: error= 8.98D-08 at cycle  16 NSaved=  16.
 NSaved=16 IEnMin=16 EnMin= -3007.14889689363     IErMin=16 ErrMin= 8.98D-08
 ErrMax= 8.98D-08  0.00D+00 EMaxC= 1.00D-01 BMatC= 2.38D-11 BMatP= 1.18D-10
 IDIUse=1 WtCom= 1.00D+00 WtEn= 0.00D+00
 Coeff-Com: -0.774D-05 0.160D-04 0.228D-04 0.224D-04-0.874D-04-0.445D-03
 Coeff-Com: -0.123D-02-0.143D-02 0.345D-02 0.171D-01 0.232D-01-0.434D-01
 Coeff-Com: -0.147D+00 0.809D-02 0.463D+00 0.678D+00
 Coeff:     -0.774D-05 0.160D-04 0.228D-04 0.224D-04-0.874D-04-0.445D-03
 Coeff:     -0.123D-02-0.143D-02 0.345D-02 0.171D-01 0.232D-01-0.434D-01
 Coeff:     -0.147D+00 0.809D-02 0.463D+00 0.678D+00
 Gap=     0.125 Goal=   None    Shift=    0.000
 RMSDP=1.65D-08 MaxDP=1.27D-06 DE=-6.77D-10 OVMax= 1.00D-05

 Cycle  17  Pass 1  IDiag  1:
 RMSU=  5.59D-09    CP:  9.72D-01  1.43D+00  7.24D-01  6.22D-01  8.65D-01
                    CP:  8.36D-01  1.01D+00  1.10D+00  1.31D+00  1.52D+00
                    CP:  1.76D+00  2.63D+00  2.37D+00  1.78D+00  1.33D+00
                    CP:  8.84D-01
 E= -3007.14889689370     Delta-E=       -0.000000000069 Rises=F Damp=F
 DIIS: error= 4.82D-08 at cycle  17 NSaved=  17.
 NSaved=17 IEnMin=17 EnMin= -3007.14889689370     IErMin=17 ErrMin= 4.82D-08
 ErrMax= 4.82D-08  0.00D+00 EMaxC= 1.00D-01 BMatC= 3.37D-12 BMatP= 2.38D-11
 IDIUse=1 WtCom= 1.00D+00 WtEn= 0.00D+00
 Coeff-Com: -0.493D-05 0.985D-05 0.174D-04 0.215D-04 0.233D-05-0.165D-03
 Coeff-Com: -0.735D-03-0.142D-02 0.331D-03 0.927D-02 0.189D-01-0.114D-02
 Coeff-Com: -0.520D-01-0.650D-01 0.844D-01 0.324D+00 0.684D+00
 Coeff:     -0.493D-05 0.985D-05 0.174D-04 0.215D-04 0.233D-05-0.165D-03
 Coeff:     -0.735D-03-0.142D-02 0.331D-03 0.927D-02 0.189D-01-0.114D-02
 Coeff:     -0.520D-01-0.650D-01 0.844D-01 0.324D+00 0.684D+00
 Gap=     0.125 Goal=   None    Shift=    0.000
 RMSDP=4.20D-09 MaxDP=8.08D-07 DE=-6.91D-11 OVMax= 2.18D-06

 SCF Done:  E(RCAM-B3LYP) =  -3007.14889689     A.U. after   17 cycles
            NFock= 17  Conv=0.42D-08     -V/T= 2.0108
 KE= 2.974950781466D+03 PE=-2.599014634639D+04 EE= 1.050851391764D+04
 Leave Link  502 at Tue May  3 22:41:51 2022, MaxMem= 10066329600 cpu:            8434.4 elap:             368.3
 (Enter /sw/apps/gaussian-16.0/g16/l801.exe)
 DoSCS=F DFT=T ScalE2(SS,OS)=  1.000000  1.000000
 ExpMin= 3.36D-02 ExpMax= 4.95D+03 ExpMxC= 7.45D+02 IAcc=3 IRadAn=         5 AccDes= 0.00D+00
 HarFok:  IExCor=  205 AccDes= 0.00D+00 IRadAn=         5 IDoV=-2 UseB2=F ITyADJ=14
 ICtDFT= 12500011 ScaDFX=  1.000000  1.000000  1.000000  1.000000
 GSVD:  LWork=       -5460 too small for GESVD, short by       25550 words or       25550 for optimal perf.
 Largest valence mixing into a core orbital is  1.42D-04
 Largest core mixing into a valence orbital is  4.98D-05
 Range of M.O.s used for correlation:    71  1298
 NBasis=  1298 NAE=   246 NBE=   246 NFC=    70 NFV=     0
 NROrb=   1228 NOA=   176 NOB=   176 NVA=  1052 NVB=  1052
 Leave Link  801 at Tue May  3 22:41:51 2022, MaxMem= 10066329600 cpu:               7.4 elap:               0.3
 (Enter /sw/apps/gaussian-16.0/g16/l914.exe)
 RHF ground state
 Two-electron integrals replicated using symmetry.
 MDV= 10066329600 DFT=T DoStab=F Mixed=T DoRPA=T DoScal=F NonHer=T
 Making orbital integer symmetry assigments:
 Orbital symmetries:
       Occupied  (A) (A) (A) (A) (A) (A) (A) (A) (A) (A) (A) (A)
                 (A) (A) (A) (A) (A) (A) (A) (A) (A) (A) (A) (A)
                 (A) (A) (A) (A) (A) (A) (A) (A) (A) (A) (A) (A)
                 (A) (A) (A) (A) (A) (A) (A) (A) (A) (A) (A) (A)
                 (A) (A) (A) (A) (A) (A) (A) (A) (A) (A) (A) (A)
                 (A) (A) (A) (A) (A) (A) (A) (A) (A) (A) (A) (A)
                 (A) (A) (A) (A) (A) (A) (A) (A) (A) (A) (A) (A)
                 (A) (A) (A) (A) (A) (A) (A) (A) (A) (A) (A) (A)
                 (A) (A) (A) (A) (A) (A) (A) (A) (A) (A) (A) (A)
                 (A) (A) (A) (A) (A) (A) (A) (A) (A) (A) (A) (A)
                 (A) (A) (A) (A) (A) (A) (A) (A) (A) (A) (A) (A)
                 (A) (A) (A) (A) (A) (A) (A) (A) (A) (A) (A) (A)
                 (A) (A) (A) (A) (A) (A) (A) (A) (A) (A) (A) (A)
                 (A) (A) (A) (A) (A) (A) (A) (A) (A) (A) (A) (A)
                 (A) (A) (A) (A) (A) (A) (A) (A) (A) (A) (A) (A)
                 (A) (A) (A) (A) (A) (A) (A) (A) (A) (A) (A) (A)
                 (A) (A) (A) (A) (A) (A) (A) (A) (A) (A) (A) (A)
                 (A) (A) (A) (A) (A) (A) (A) (A) (A) (A) (A) (A)
                 (A) (A) (A) (A) (A) (A) (A) (A) (A) (A) (A) (A)
                 (A) (A) (A) (A) (A) (A) (A) (A) (A) (A) (A) (A)
                 (A) (A) (A) (A) (A) (A)
       Virtual   (A) (A) (A) (A) (A) (A) (A) (A) (A) (A) (A) (A)
                 (A) (A) (A) (A) (A) (A) (A) (A) (A) (A) (A) (A)
                 (A) (A) (A) (A) (A) (A) (A) (A) (A) (A) (A) (A)
                 (A) (A) (A) (A) (A) (A) (A) (A) (A) (A) (A) (A)
                 (A) (A) (A) (A) (A) (A) (A) (A) (A) (A) (A) (A)
                 (A) (A) (A) (A) (A) (A) (A) (A) (A) (A) (A) (A)
                 (A) (A) (A) (A) (A) (A) (A) (A) (A) (A) (A) (A)
                 (A) (A) (A) (A) (A) (A) (A) (A) (A) (A) (A) (A)
                 (A) (A) (A) (A) (A) (A) (A) (A) (A) (A) (A) (A)
                 (A) (A) (A) (A) (A) (A) (A) (A) (A) (A) (A) (A)
                 (A) (A) (A) (A) (A) (A) (A) (A) (A) (A) (A) (A)
                 (A) (A) (A) (A) (A) (A) (A) (A) (A) (A) (A) (A)
                 (A) (A) (A) (A) (A) (A) (A) (A) (A) (A) (A) (A)
                 (A) (A) (A) (A) (A) (A) (A) (A) (A) (A) (A) (A)
                 (A) (A) (A) (A) (A) (A) (A) (A) (A) (A) (A) (A)
                 (A) (A) (A) (A) (A) (A) (A) (A) (A) (A) (A) (A)
                 (A) (A) (A) (A) (A) (A) (A) (A) (A) (A) (A) (A)
                 (A) (A) (A) (A) (A) (A) (A) (A) (A) (A) (A) (A)
                 (A) (A) (A) (A) (A) (A) (A) (A) (A) (A) (A) (A)
                 (A) (A) (A) (A) (A) (A) (A) (A) (A) (A) (A) (A)
                 (A) (A) (A) (A) (A) (A) (A) (A) (A) (A) (A) (A)
                 (A) (A) (A) (A) (A) (A) (A) (A) (A) (A) (A) (A)
                 (A) (A) (A) (A) (A) (A) (A) (A) (A) (A) (A) (A)
                 (A) (A) (A) (A) (A) (A) (A) (A) (A) (A) (A) (A)
                 (A) (A) (A) (A) (A) (A) (A) (A) (A) (A) (A) (A)
                 (A) (A) (A) (A) (A) (A) (A) (A) (A) (A) (A) (A)
                 (A) (A) (A) (A) (A) (A) (A) (A) (A) (A) (A) (A)
                 (A) (A) (A) (A) (A) (A) (A) (A) (A) (A) (A) (A)
                 (A) (A) (A) (A) (A) (A) (A) (A) (A) (A) (A) (A)
                 (A) (A) (A) (A) (A) (A) (A) (A) (A) (A) (A) (A)
                 (A) (A) (A) (A) (A) (A) (A) (A) (A) (A) (A) (A)
                 (A) (A) (A) (A) (A) (A) (A) (A) (A) (A) (A) (A)
                 (A) (A) (A) (A) (A) (A) (A) (A) (A) (A) (A) (A)
                 (A) (A) (A) (A) (A) (A) (A) (A) (A) (A) (A) (A)
                 (A) (A) (A) (A) (A) (A) (A) (A) (A) (A) (A) (A)
                 (A) (A) (A) (A) (A) (A) (A) (A) (A) (A) (A) (A)
                 (A) (A) (A) (A) (A) (A) (A) (A) (A) (A) (A) (A)
                 (A) (A) (A) (A) (A) (A) (A) (A) (A) (A) (A) (A)
                 (A) (A) (A) (A) (A) (A) (A) (A) (A) (A) (A) (A)
                 (A) (A) (A) (A) (A) (A) (A) (A) (A) (A) (A) (A)
                 (A) (A) (A) (A) (A) (A) (A) (A) (A) (A) (A) (A)
                 (A) (A) (A) (A) (A) (A) (A) (A) (A) (A) (A) (A)
                 (A) (A) (A) (A) (A) (A) (A) (A) (A) (A) (A) (A)
                 (A) (A) (A) (A) (A) (A) (A) (A) (A) (A) (A) (A)
                 (A) (A) (A) (A) (A) (A) (A) (A) (A) (A) (A) (A)
                 (A) (A) (A) (A) (A) (A) (A) (A) (A) (A) (A) (A)
                 (A) (A) (A) (A) (A) (A) (A) (A) (A) (A) (A) (A)
                 (A) (A) (A) (A) (A) (A) (A) (A) (A) (A) (A) (A)
                 (A) (A) (A) (A) (A) (A) (A) (A) (A) (A) (A) (A)
                 (A) (A) (A) (A) (A) (A) (A) (A) (A) (A) (A) (A)
                 (A) (A) (A) (A) (A) (A) (A) (A) (A) (A) (A) (A)
                 (A) (A) (A) (A) (A) (A) (A) (A) (A) (A) (A) (A)
                 (A) (A) (A) (A) (A) (A) (A) (A) (A) (A) (A) (A)
                 (A) (A) (A) (A) (A) (A) (A) (A) (A) (A) (A) (A)
                 (A) (A) (A) (A) (A) (A) (A) (A) (A) (A) (A) (A)
                 (A) (A) (A) (A) (A) (A) (A) (A) (A) (A) (A) (A)
                 (A) (A) (A) (A) (A) (A) (A) (A) (A) (A) (A) (A)
                 (A) (A) (A) (A) (A) (A) (A) (A) (A) (A) (A) (A)
                 (A) (A) (A) (A) (A) (A) (A) (A) (A) (A) (A) (A)
                 (A) (A) (A) (A) (A) (A) (A) (A) (A) (A) (A) (A)
                 (A) (A) (A) (A) (A) (A) (A) (A) (A) (A) (A) (A)
                 (A) (A) (A) (A) (A) (A) (A) (A) (A) (A) (A) (A)
                 (A) (A) (A) (A) (A) (A) (A) (A) (A) (A) (A) (A)
                 (A) (A) (A) (A) (A) (A) (A) (A) (A) (A) (A) (A)
                 (A) (A) (A) (A) (A) (A) (A) (A) (A) (A) (A) (A)
                 (A) (A) (A) (A) (A) (A) (A) (A) (A) (A) (A) (A)
                 (A) (A) (A) (A) (A) (A) (A) (A) (A) (A) (A) (A)
                 (A) (A) (A) (A) (A) (A) (A) (A) (A) (A) (A) (A)
                 (A) (A) (A) (A) (A) (A) (A) (A) (A) (A) (A) (A)
                 (A) (A) (A) (A) (A) (A) (A) (A) (A) (A) (A) (A)
                 (A) (A) (A) (A) (A) (A) (A) (A) (A) (A) (A) (A)
                 (A) (A) (A) (A) (A) (A) (A) (A) (A) (A) (A) (A)
                 (A) (A) (A) (A) (A) (A) (A) (A) (A) (A) (A) (A)
                 (A) (A) (A) (A) (A) (A) (A) (A) (A) (A) (A) (A)
                 (A) (A) (A) (A) (A) (A) (A) (A) (A) (A) (A) (A)
                 (A) (A) (A) (A) (A) (A) (A) (A) (A) (A) (A) (A)
                 (A) (A) (A) (A) (A) (A) (A) (A) (A) (A) (A) (A)
                 (A) (A) (A) (A) (A) (A) (A) (A) (A) (A) (A) (A)
                 (A) (A) (A) (A) (A) (A) (A) (A) (A) (A) (A) (A)
                 (A) (A) (A) (A) (A) (A) (A) (A) (A) (A) (A) (A)
                 (A) (A) (A) (A) (A) (A) (A) (A) (A) (A) (A) (A)
                 (A) (A) (A) (A) (A) (A) (A) (A) (A) (A) (A) (A)
                 (A) (A) (A) (A) (A) (A) (A) (A) (A) (A) (A) (A)
                 (A) (A) (A) (A) (A) (A) (A) (A) (A) (A) (A) (A)
                 (A) (A) (A) (A) (A) (A) (A) (A) (A) (A) (A) (A)
                 (A) (A) (A) (A) (A) (A) (A) (A) (A) (A) (A) (A)
                 (A) (A) (A) (A) (A) (A) (A) (A) (A) (A) (A) (A)
                 (A) (A) (A) (A) (A) (A) (A) (A)
    20 initial guesses have been made.
 Convergence on wavefunction:    0.001000000000000
 Davidson Disk Diagonalization:  ConvIn= 1.00D-03 SkipCon=T Conv= 1.00D-03.
 Max sub-space:  2000 roots to seek:    20 dimension of matrix:       370304
 Iteration     1 Dimension    20 NMult     0 NNew     20
 CISAX will form    20 AO SS matrices at one time.
 NMat=    20 NSing=    20 JSym2X= 0.
 FoFJK:  IHMeth= 1 ICntrl=       0 DoSepK=T KAlg= 0 I1Cent=           0 FoldK=F
 IRaf=         1 NMat=      40 IRICut=       1 DoRegI=T DoRafI=F ISym2E= 0 IDoP0=3 IntGTp=3.
 FoFCou: FMM=T IPFlag=           0 FMFlag=      100000 FMFlg1=        2001
         NFxFlg=           0 DoJE=F BraDBF=F KetDBF=F FulRan=T
         wScrn=  0.000000 ICntrl=       500 IOpCl=  0 I1Cent=           0 NGrid=           0
         NMat0=   20 NMatS0=     20 NMatT0=    0 NMatD0=   20 NMtDS0=    0 NMtDT0=    0
 Symmetry not used in FoFCou.
 FMM levels:  10  Number of levels for PrismC:   9
 New state      3 was old state      6
 New state      5 was old state      8
 Excitation Energies [eV] at current iteration:
 Root      1 :     2.223462601765124
 Root      2 :     2.647753048363725
 Root      3 :     3.592715557772598
 Root      4 :     3.697957104300156
 Root      5 :     3.996551846518102
 Root      6 :     4.130222969183275
 Root      7 :     4.205261085003512
 Root      8 :     4.304499716935940
 Root      9 :     4.395503110122503
 Root     10 :     4.467314614398018
 Root     11 :     4.582008287093805
 Root     12 :     4.677284226671180
 Root     13 :     4.744405477097818
 Root     14 :     4.922447078043701
 Root     15 :     5.037803221020551
 Root     16 :     5.121290863021670
 Root     17 :     5.279282737171076
 Root     18 :     5.488619844423906
 Root     19 :     6.019580069389857
 Root     20 :     6.315660661234579
 Iteration     2 Dimension    30 NMult    20 NNew     10
 CISAX will form    10 AO SS matrices at one time.
 NMat=    10 NSing=    10 JSym2X= 0.
 Root      1 not converged, maximum delta is    0.076413956221786
 Root      2 not converged, maximum delta is    0.058405306086087
 New state      3 was old state      4
 Root      3 not converged, maximum delta is    0.094358887340948
 New state      4 was old state      3
 Root      4 not converged, maximum delta is    0.155895468224269
 Root      5 not converged, maximum delta is    0.179614888637358
 Excitation Energies [eV] at current iteration:
 Root      1 :     1.745732164280452   Change is   -0.477730437484672
 Root      2 :     2.275504138866434   Change is   -0.372248909497291
 Root      3 :     3.378715830920063   Change is   -0.319241273380094
 Root      4 :     3.503821613591572   Change is   -0.088893944181027
 Root      5 :     3.597345555937130   Change is   -0.399206290580973
 Iteration     3 Dimension    40 NMult    30 NNew     10
 CISAX will form    10 AO SS matrices at one time.
 NMat=    10 NSing=    10 JSym2X= 0.
 Root      1 not converged, maximum delta is    0.021497114027379
 Root      2 not converged, maximum delta is    0.014421008605282
 Root      3 not converged, maximum delta is    0.006632541314845
 Root      4 not converged, maximum delta is    0.217093991673883
 Root      5 not converged, maximum delta is    0.271407687757827
 Excitation Energies [eV] at current iteration:
 Root      1 :     1.709622157800618   Change is   -0.036110006479834
 Root      2 :     2.253496823233758   Change is   -0.022007315632676
 Root      3 :     3.366192792348927   Change is   -0.012523038571136
 Root      4 :     3.457326071257201   Change is   -0.046495542334371
 Root      5 :     3.514375308391796   Change is   -0.082970247545333
 Iteration     4 Dimension    50 NMult    40 NNew     10
 CISAX will form    10 AO SS matrices at one time.
 NMat=    10 NSing=    10 JSym2X= 0.
 Root      1 not converged, maximum delta is    0.003632748060834
 Root      2 not converged, maximum delta is    0.003039216979838
 Root      3 not converged, maximum delta is    0.007266155946329
 Root      4 not converged, maximum delta is    0.081361652876973
 Root      5 not converged, maximum delta is    0.152237298399591
 Excitation Energies [eV] at current iteration:
 Root      1 :     1.705449863166568   Change is   -0.004172294634050
 Root      2 :     2.250209215933661   Change is   -0.003287607300097
 Root      3 :     3.363673520202436   Change is   -0.002519272146491
 Root      4 :     3.443983959816968   Change is   -0.013342111440233
 Root      5 :     3.493063889681904   Change is   -0.021311418709892
 Iteration     5 Dimension    60 NMult    50 NNew     10
 CISAX will form    10 AO SS matrices at one time.
 NMat=    10 NSing=    10 JSym2X= 0.
 Root      1 not converged, maximum delta is    0.001308551758525
 Root      2 has converged.
 Root      3 not converged, maximum delta is    0.001903662034925
 Root      4 not converged, maximum delta is    0.018474494911108
 Root      5 not converged, maximum delta is    0.034880521370902
 Excitation Energies [eV] at current iteration:
 Root      1 :     1.705046810415643   Change is   -0.000403052750925
 Root      2 :     2.249938296387161   Change is   -0.000270919546499
 Root      3 :     3.363408978832002   Change is   -0.000264541370434
 Root      4 :     3.441738037305833   Change is   -0.002245922511135
 Root      5 :     3.488852454256593   Change is   -0.004211435425311
 Iteration     6 Dimension    68 NMult    60 NNew      8
 CISAX will form     8 AO SS matrices at one time.
 NMat=     8 NSing=     8 JSym2X= 0.
 Root      1 has converged.
 Root      2 has converged.
 Root      3 has converged.
 Root      4 not converged, maximum delta is    0.003856629292755
 Root      5 not converged, maximum delta is    0.007237439185897
 Excitation Energies [eV] at current iteration:
 Root      1 :     1.705009097508303   Change is   -0.000037712907341
 Root      2 :     2.249935471277139   Change is   -0.000002825110023
 Root      3 :     3.363378870269539   Change is   -0.000030108562463
 Root      4 :     3.441456760691778   Change is   -0.000281276614055
 Root      5 :     3.488131793576942   Change is   -0.000720660679650
 Iteration     7 Dimension    72 NMult    68 NNew      4
 CISAX will form     4 AO SS matrices at one time.
 NMat=     4 NSing=     4 JSym2X= 0.
 Root      1 has converged.
 Root      2 has converged.
 Root      3 has converged.
 Root      4 not converged, maximum delta is    0.001574203597193
 Root      5 not converged, maximum delta is    0.001924362010595
 Excitation Energies [eV] at current iteration:
 Root      1 :     1.705009057347035   Change is   -0.000000040161268
 Root      2 :     2.249934849916231   Change is   -0.000000621360908
 Root      3 :     3.363377360856157   Change is   -0.000001509413382
 Root      4 :     3.441402077825522   Change is   -0.000054682866256
 Root      5 :     3.488025292309363   Change is   -0.000106501267579
 Iteration     8 Dimension    76 NMult    72 NNew      4
 CISAX will form     4 AO SS matrices at one time.
 NMat=     4 NSing=     4 JSym2X= 0.
 Root      1 has converged.
 Root      2 has converged.
 Root      3 has converged.
 Root      4 not converged, maximum delta is    0.003519963543323
 Root      5 not converged, maximum delta is    0.004601873592273
 Excitation Energies [eV] at current iteration:
 Root      1 :     1.705008892851433   Change is   -0.000000164495602
 Root      2 :     2.249934266507049   Change is   -0.000000583409181
 Root      3 :     3.363374893111829   Change is   -0.000002467744328
 Root      4 :     3.441362409984761   Change is   -0.000039667840761
 Root      5 :     3.487969579811800   Change is   -0.000055712497564
 Iteration     9 Dimension    80 NMult    76 NNew      4
 CISAX will form     4 AO SS matrices at one time.
 NMat=     4 NSing=     4 JSym2X= 0.
 Root      1 has converged.
 Root      2 has converged.
 Root      3 has converged.
 Root      4 not converged, maximum delta is    0.004438475668981
 Root      5 not converged, maximum delta is    0.007305266722533
 Excitation Energies [eV] at current iteration:
 Root      1 :     1.705008686812110   Change is   -0.000000206039323
 Root      2 :     2.249933486677301   Change is   -0.000000779829748
 Root      3 :     3.363372568543127   Change is   -0.000002324568703
 Root      4 :     3.441324837144760   Change is   -0.000037572840002
 Root      5 :     3.487909518936922   Change is   -0.000060060874877
 Iteration    10 Dimension    84 NMult    80 NNew      4
 CISAX will form     4 AO SS matrices at one time.
 NMat=     4 NSing=     4 JSym2X= 0.
 Root      1 has converged.
 Root      2 has converged.
 Root      3 has converged.
 Root      4 not converged, maximum delta is    0.001969017509114
 Root      5 not converged, maximum delta is    0.004241115286786
 Excitation Energies [eV] at current iteration:
 Root      1 :     1.705008644770050   Change is   -0.000000042042060
 Root      2 :     2.249933286672258   Change is   -0.000000200005043
 Root      3 :     3.363371791501820   Change is   -0.000000777041306
 Root      4 :     3.441311118694667   Change is   -0.000013718450092
 Root      5 :     3.487880614916844   Change is   -0.000028904020079
 Iteration    11 Dimension    88 NMult    84 NNew      4
 CISAX will form     4 AO SS matrices at one time.
 NMat=     4 NSing=     4 JSym2X= 0.
 Root      1 has converged.
 Root      2 has converged.
 Root      3 has converged.
 Root      4 has converged.
 Root      5 has converged.
 Excitation Energies [eV] at current iteration:
 Root      1 :     1.705008625929918   Change is   -0.000000018840132
 Root      2 :     2.249933160980142   Change is   -0.000000125692117
 Root      3 :     3.363371759950138   Change is   -0.000000031551682
 Root      4 :     3.441308751419161   Change is   -0.000002367275506
 Root      5 :     3.487875118380474   Change is   -0.000005496536370
 Convergence achieved on expansion vectors.
 ***********************************************************************
 Excited states from <AA,BB:AA,BB> singles matrix:
 ***********************************************************************
 
 1PDM for each excited state written to RWF  633
 Ground to excited state transition densities written to RWF  633
 Ground to excited state transition electric dipole moments (Au):
       state          X           Y           Z        Dip. S.      Osc.
         1        -0.1390      1.8093     -2.3500      8.8155      0.3682
         2        -0.0981     -1.1770     -0.7157      1.9073      0.1051
         3         0.0120      0.1032     -0.0436      0.0127      0.0010
         4        -0.1920     -1.0213     -0.5798      1.4162      0.1194
         5         0.1438      1.0228      0.6922      1.5459      0.1321
 Ground to excited state transition velocity dipole moments (Au):
       state          X           Y           Z        Dip. S.      Osc.
         1         0.0070     -0.1100      0.1423      0.0324      0.3446
         2         0.0071      0.0916      0.0549      0.0115      0.0924
         3        -0.0006     -0.0114      0.0051      0.0002      0.0008
         4         0.0210      0.1249      0.0706      0.0210      0.1108
         5        -0.0198     -0.1276     -0.0855      0.0240      0.1247
 Ground to excited state transition magnetic dipole moments (Au):
       state          X           Y           Z
         1         0.0894     -1.3096     -1.0301
         2         0.1663     -0.5780      0.8951
         3        -0.7479     -0.0161      0.0040
         4         0.2595     -1.1829      1.4475
         5         0.0905      0.4601     -0.9382
 Ground to excited state transition velocity quadrupole moments (Au):
       state          XX          YY          ZZ          XY          XZ          YZ
         1         0.1893     -0.2899      0.0079     -1.0051      1.3154      0.2723
         2         0.0021      0.2460      0.1262      0.8987      0.5072      0.1667
         3         0.0211     -0.4537      0.2264     -0.0531      0.1255      0.1654
         4         0.1610      0.4314     -0.0206      1.1985      0.6213      0.3220
         5        -0.1675     -0.4500      0.1416     -1.3059     -0.7872     -0.4407
 <0|del|b> * <b|rxdel|0> + <0|del|b> * <b|delr+rdel|0>
 Rotatory Strengths (R) in cgs (10**-40 erg-esu-cm/Gauss)
       state          XX          YY          ZZ    R(velocity)    E-M Angle
         1        -4.4367     -5.7043    -10.8910     -7.0107       90.36
         2        -4.3632      9.2159    -27.7698     -7.6390       91.33
         3         3.8942      1.7468     -2.1137      1.1758       86.21
         4      -107.8080     83.2658   -199.7522    -74.7648       98.43
         5        90.3815    -67.5642     86.0497     36.2890       83.02
 1/2[<0|r|b>*<b|rxdel|0> + (<0|rxdel|b>*<b|r|0>)*]
 Rotatory Strengths (R) in cgs (10**-40 erg-esu-cm/Gauss)
       state          XX          YY          ZZ     R(length)
         1         8.7837   1675.5429  -1711.8697     -9.1811
         2        11.5411   -481.1103    453.0469     -5.5074
         3         6.3728      1.1782      0.1236      2.5582
         4        35.2374   -854.3647    593.5500    -75.1924
         5        -9.2043   -332.7641    459.2690     39.1002
  1/2[<0|del|b>*<b|r|0> + (<0|r|b>*<b|del|0>)*] (Au)
       state          X           Y           Z        Dip. S.   Osc.(frdel)
         1        -0.0010     -0.1990     -0.3343      0.5343      0.3562
         2        -0.0007     -0.1079     -0.0393      0.1478      0.0986
         3        -0.0000     -0.0012     -0.0002      0.0014      0.0009
         4        -0.0040     -0.1275     -0.0409      0.1725      0.1150
         5        -0.0029     -0.1305     -0.0592      0.1925      0.1284

 Excitation energies and oscillator strengths:
 
 Excited State   1:      Singlet-A      1.7050 eV  727.18 nm  f=0.3682  <S**2>=0.000
     245 -> 248       -0.17842
     246 -> 247        0.68537
     245 <- 248       -0.10749
 This state for optimization and/or second-order correction.
 Total Energy, E(TD-HF/TD-DFT) =  -3007.08623898    
 Copying the excited state density for this state as the 1-particle RhoCI density.
 
 Excited State   2:      Singlet-A      2.2499 eV  551.06 nm  f=0.1051  <S**2>=0.000
     245 -> 247        0.63674
     246 -> 248        0.29542
 
 Excited State   3:      Singlet-A      3.3634 eV  368.63 nm  f=0.0010  <S**2>=0.000
     244 -> 247        0.68363
 
 Excited State   4:      Singlet-A      3.4413 eV  360.28 nm  f=0.1194  <S**2>=0.000
     239 -> 247        0.10815
     240 -> 247       -0.13390
     241 -> 247        0.44249
     241 -> 249        0.16575
     241 -> 250       -0.14628
     241 -> 251       -0.12622
     245 -> 247        0.13245
     246 -> 248       -0.32988
[...]
 Alpha virt. eigenvalues --    1.22278   1.22898   1.23257   1.23476   1.23771
 Alpha virt. eigenvalues --    1.24328   1.24720   1.25356   1.25780   1.26258
 Alpha virt. eigenvalues --    1.26592   1.27230   1.28256   1.28598   1.29379
 Alpha virt. eigenvalues --    1.29481   1.29816   1.30090   1.30626   1.31019
 Alpha virt. eigenvalues --    1.31404   1.31678   1.32026   1.32982   1.33109
 Alpha virt. eigenvalues --    1.33441   1.33884   1.34224   1.34398   1.34919
 Alpha virt. eigenvalues --    1.35525   1.35618   1.36697   1.37542   1.37825
 Alpha virt. eigenvalues --    1.38016   1.38743   1.39035   1.39145   1.39976
 Alpha virt. eigenvalues --    1.40383   1.40709   1.41044   1.41222   1.41539
 Alpha virt. eigenvalues --    1.41869   1.42169   1.42807   1.42904   1.43356
 Alpha virt. eigenvalues --    1.44298   1.44527   1.45013   1.45182   1.45553
 Alpha virt. eigenvalues --    1.45740   1.46093   1.46498   1.46881   1.47365
 Alpha virt. eigenvalues --    1.47896   1.48390   1.48612   1.48696   1.48904
 Alpha virt. eigenvalues --    1.48956   1.50158   1.50512   1.50630   1.51409
 Alpha virt. eigenvalues --    1.51487   1.52110   1.52387   1.53148   1.53549
 Alpha virt. eigenvalues --    1.54124   1.54434   1.54929   1.55207   1.56167
 Alpha virt. eigenvalues --    1.56770   1.57050   1.57234   1.57541   1.58168
 Alpha virt. eigenvalues --    1.58474   1.58812   1.58955   1.59106   1.59266
 Alpha virt. eigenvalues --    1.59549   1.59635   1.59764   1.60701   1.60822
 Alpha virt. eigenvalues --    1.60931   1.61005   1.61196   1.61517   1.61769
 Alpha virt. eigenvalues --    1.62110   1.62253   1.62383   1.62651   1.63268
 Alpha virt. eigenvalues --    1.63891   1.63915   1.64542   1.64641   1.64937
 Alpha virt. eigenvalues --    1.65587   1.65662   1.66327   1.66680   1.67153
 Alpha virt. eigenvalues --    1.67556   1.67963   1.68199   1.68753   1.68958
 Alpha virt. eigenvalues --    1.69570   1.69643   1.69832   1.70285   1.71083
 Alpha virt. eigenvalues --    1.71366   1.72169   1.72904   1.73014   1.73568
 Alpha virt. eigenvalues --    1.73691   1.74551   1.74658   1.74829   1.75412
 Alpha virt. eigenvalues --    1.76078   1.76100   1.76535   1.76551   1.76758
 Alpha virt. eigenvalues --    1.77559   1.77782   1.78335   1.78709   1.78834
 Alpha virt. eigenvalues --    1.78947   1.79413   1.79448   1.79679   1.79906
 Alpha virt. eigenvalues --    1.80244   1.80599   1.81369   1.81491   1.81535
 Alpha virt. eigenvalues --    1.81644   1.81802   1.81852   1.82148   1.82302
 Alpha virt. eigenvalues --    1.82530   1.82787   1.82911   1.83004   1.83340
 Alpha virt. eigenvalues --    1.83461   1.83502   1.83546   1.84077   1.84138
 Alpha virt. eigenvalues --    1.84365   1.84583   1.84779   1.85277   1.85382
 Alpha virt. eigenvalues --    1.85467   1.85537   1.85802   1.86247   1.86479
 Alpha virt. eigenvalues --    1.86571   1.86675   1.86788   1.86869   1.87143
 Alpha virt. eigenvalues --    1.87454   1.87643   1.87857   1.88254   1.88296
 Alpha virt. eigenvalues --    1.88380   1.88453   1.88750   1.88992   1.89199
 Alpha virt. eigenvalues --    1.89450   1.89840   1.89940   1.90118   1.90222
 Alpha virt. eigenvalues --    1.90302   1.90528   1.90559   1.90831   1.91090
 Alpha virt. eigenvalues --    1.91268   1.91490   1.91503   1.91717   1.92117
 Alpha virt. eigenvalues --    1.92401   1.92552   1.92654   1.93117   1.93321
 Alpha virt. eigenvalues --    1.93567   1.94019   1.94040   1.94178   1.94385
 Alpha virt. eigenvalues --    1.94564   1.94695   1.95061   1.95273   1.95497
 Alpha virt. eigenvalues --    1.95652   1.95958   1.96257   1.96588   1.96637
 Alpha virt. eigenvalues --    1.96970   1.97528   1.97941   1.97991   1.98156
 Alpha virt. eigenvalues --    1.98438   1.99020   1.99166   1.99201   1.99660
 Alpha virt. eigenvalues --    1.99785   2.00145   2.00412   2.00646   2.01011
 Alpha virt. eigenvalues --    2.01275   2.01604   2.01752   2.01988   2.02594
 Alpha virt. eigenvalues --    2.03130   2.03205   2.03625   2.03834   2.04002
 Alpha virt. eigenvalues --    2.04288   2.04680   2.04735   2.05155   2.05561
 Alpha virt. eigenvalues --    2.05644   2.06222   2.06634   2.06760   2.07116
 Alpha virt. eigenvalues --    2.07240   2.07428   2.07771   2.08551   2.08724
 Alpha virt. eigenvalues --    2.09024   2.09591   2.09809   2.09887   2.10110
 Alpha virt. eigenvalues --    2.10246   2.10770   2.11027   2.11341   2.11423
 Alpha virt. eigenvalues --    2.11512   2.11812   2.12521   2.12944   2.13124
 Alpha virt. eigenvalues --    2.13526   2.13786   2.13800   2.14200   2.14296
 Alpha virt. eigenvalues --    2.14365   2.14921   2.15061   2.15757   2.15898
 Alpha virt. eigenvalues --    2.16850   2.17075   2.17176   2.17527   2.17707
 Alpha virt. eigenvalues --    2.17899   2.18339   2.18465   2.18620   2.18929
 Alpha virt. eigenvalues --    2.19131   2.19261   2.20330   2.20381   2.20989
 Alpha virt. eigenvalues --    2.21494   2.21653   2.22206   2.22786   2.23048
 Alpha virt. eigenvalues --    2.23817   2.23925   2.24281   2.24369   2.24425
 Alpha virt. eigenvalues --    2.25141   2.25492   2.25752   2.25831   2.26346
 Alpha virt. eigenvalues --    2.27279   2.27931   2.28178   2.28698   2.29260
 Alpha virt. eigenvalues --    2.29321   2.29463   2.29945   2.30018   2.30734
 Alpha virt. eigenvalues --    2.31006   2.31437   2.32143   2.32191   2.32576
 Alpha virt. eigenvalues --    2.32781   2.33163   2.34286   2.34396   2.34402
 Alpha virt. eigenvalues --    2.35540   2.35620   2.36268   2.36715   2.37234
 Alpha virt. eigenvalues --    2.37482   2.37738   2.37932   2.38658   2.38834
 Alpha virt. eigenvalues --    2.39427   2.39778   2.39869   2.40465   2.40932
 Alpha virt. eigenvalues --    2.41199   2.41665   2.41947   2.42175   2.42459
 Alpha virt. eigenvalues --    2.42631   2.43124   2.43523   2.44029   2.44679
 Alpha virt. eigenvalues --    2.44829   2.45118   2.45204   2.45372   2.46041
 Alpha virt. eigenvalues --    2.46235   2.46687   2.46769   2.46957   2.47740
 Alpha virt. eigenvalues --    2.48043   2.48285   2.48805   2.49076   2.49528
 Alpha virt. eigenvalues --    2.49822   2.50496   2.50614   2.50651   2.50799
 Alpha virt. eigenvalues --    2.51315   2.51661   2.51992   2.52337   2.53132
 Alpha virt. eigenvalues --    2.53578   2.54022   2.54745   2.55031   2.55114
 Alpha virt. eigenvalues --    2.55811   2.56115   2.57146   2.57870   2.57966
 Alpha virt. eigenvalues --    2.58713   2.59009   2.59298   2.59597   2.60111
 Alpha virt. eigenvalues --    2.60362   2.60633   2.61100   2.61578   2.61643
 Alpha virt. eigenvalues --    2.62196   2.62238   2.62854   2.63252   2.63752
 Alpha virt. eigenvalues --    2.63834   2.64032   2.64389   2.65039   2.65243
 Alpha virt. eigenvalues --    2.65989   2.66513   2.66668   2.67259   2.67490
 Alpha virt. eigenvalues --    2.68373   2.68876   2.69233   2.69333   2.69515
 Alpha virt. eigenvalues --    2.69681   2.70560   2.70836   2.71199   2.71363
 Alpha virt. eigenvalues --    2.71904   2.73098   2.73285   2.73379   2.73717
 Alpha virt. eigenvalues --    2.74173   2.74262   2.74558   2.74773   2.75188
 Alpha virt. eigenvalues --    2.76461   2.77060   2.77141   2.77380   2.77984
 Alpha virt. eigenvalues --    2.78469   2.78493   2.78933   2.79229   2.79582
 Alpha virt. eigenvalues --    2.79660   2.79833   2.80546   2.80615   2.80763
 Alpha virt. eigenvalues --    2.80829   2.82143   2.83114   2.83201   2.83508
 Alpha virt. eigenvalues --    2.84097   2.85089   2.85221   2.85441   2.86412
 Alpha virt. eigenvalues --    2.86879   2.87106   2.87412   2.88648   2.88729
 Alpha virt. eigenvalues --    2.89819   2.90177   2.90588   2.91016   2.91840
 Alpha virt. eigenvalues --    2.92152   2.92886   2.93611   2.93985   2.94509
 Alpha virt. eigenvalues --    2.94693   2.94785   2.95724   2.95960   2.96592
 Alpha virt. eigenvalues --    2.96763   2.96915   2.97938   2.98144   2.98248
 Alpha virt. eigenvalues --    2.98302   2.98431   2.98854   2.98959   2.99016
 Alpha virt. eigenvalues --    2.99351   2.99694   2.99817   2.99926   3.00895
 Alpha virt. eigenvalues --    3.00931   3.00958   3.01230   3.01470   3.01491
 Alpha virt. eigenvalues --    3.01704   3.02420   3.02694   3.02728   3.02928
 Alpha virt. eigenvalues --    3.03584   3.03831   3.03968   3.04582   3.04652
 Alpha virt. eigenvalues --    3.05016   3.05434   3.06098   3.06331   3.06425
 Alpha virt. eigenvalues --    3.06777   3.06981   3.07012   3.07596   3.07725
 Alpha virt. eigenvalues --    3.08321   3.08909   3.09116   3.09330   3.09748
 Alpha virt. eigenvalues --    3.10555   3.10608   3.11083   3.11150   3.11567
 Alpha virt. eigenvalues --    3.12197   3.12362   3.14317   3.14544   3.15275
 Alpha virt. eigenvalues --    3.15355   3.16036   3.17479   3.17763   3.18168
 Alpha virt. eigenvalues --    3.18254   3.18951   3.19639   3.19734   3.20643
 Alpha virt. eigenvalues --    3.20957   3.21519   3.21606   3.21701   3.24386
 Alpha virt. eigenvalues --    3.25085   3.26588   3.27472   3.27568   3.29329
 Alpha virt. eigenvalues --    3.29599   3.34267   3.41207   3.43166   3.43721
 Alpha virt. eigenvalues --    3.46066   3.48862   3.51716   3.56162   3.57241
 Alpha virt. eigenvalues --    3.60981   3.64391   3.65485   3.67023   3.69652
 Alpha virt. eigenvalues --    3.70687   3.76880
          Condensed to atoms (all electrons):
 Mulliken charges:
               1
     1  Mg   0.807179
     2  C   -0.046846
     3  C   -0.083676
     4  C   -0.069317
     5  C   -0.081053
     6  N   -0.243639
     7  C   -0.078642
     8  C    0.006749
     9  C   -0.072080
    10  C    0.008303
    11  C    0.079918
    12  C    0.086949
    13  C    0.015677
    14  C    0.194137
    15  O   -0.217425
    16  O   -0.362673
    17  N   -0.360661
    18  C    0.165175
    19  C   -0.124609
    20  C   -0.050601
    21  C    0.152137
    22  C    0.112823
    23  C   -0.010590
    24  O   -0.235878
    25  C    0.071622
    26  N   -0.252532
    27  C    0.015447
    28  C   -0.041474
    29  C   -0.014173
    30  C    0.034598
    31  C    0.085375
    32  C    0.017061
    33  C   -0.004374
    34  N   -0.304350
    35  C    0.079891
    36  C   -0.177329
    37  C    0.023123
    38  C    0.118539
    39  C    0.111149
    40  C    0.084675
    41  O   -0.153358
    42  C   -0.012018
    43  C    0.207425
    44  O   -0.241197
    45  O   -0.355623
    46  C    0.175498
    47  C    0.274904
    48  C   -0.125734
    49  C   -0.139122
    50  C    0.123849
    51  C    0.039238
    52  C    0.056468
    53  C    0.019876
    54  C   -0.143072
    55  C    0.066640
    56  C    0.060045
    57  C   -0.009129
    58  C    0.065323
    59  C   -0.167572
    60  C    0.035325
    61  C    0.093221
    62  C   -0.013976
    63  C    0.077996
    64  C   -0.194760
    65  C    0.036840
    66  C    0.060613
    67  H   -0.014969
    68  H   -0.033881
    69  H   -0.032969
    70  H    0.017670
    71  H    0.002580
    72  H    0.019154
    73  H    0.030156
    74  H    0.010559
    75  H    0.044903
    76  H    0.002027
    77  H    0.019633
    78  H    0.027021
    79  H    0.028689
    80  H    0.030020
    81  H   -0.002694
    82  H    0.052868
    83  H    0.030929
    84  H    0.035949
    85  H    0.012259
    86  H    0.003194
    87  H    0.011415
    88  H    0.030308
    89  H    0.000160
    90  H    0.016785
    91  H    0.007287
    92  H    0.022219
    93  H    0.003759
    94  H    0.014134
    95  H    0.041347
    96  H    0.004551
    97  H    0.039987
    98  H    0.038578
    99  H    0.038474
   100  H    0.034485
   101  H    0.065235
   102  H    0.034505
   103  H    0.013265
   104  H   -0.004410
   105  H    0.011435
   106  H    0.006584
   107  H    0.026387
   108  H   -0.002053
   109  H   -0.003011
   110  H    0.005727
   111  H   -0.011727
   112  H   -0.018142
   113  H   -0.009132
   114  H   -0.010681
   115  H    0.001065
   116  H    0.011933
   117  H    0.015223
   118  H    0.007507
   119  H    0.003509
   120  H   -0.004527
   121  H    0.007784
   122  H   -0.008464
   123  H   -0.011643
   124  H    0.001083
   125  H    0.000942
   126  H    0.007440
   127  H    0.009009
   128  H    0.011706
   129  H    0.000691
   130  H   -0.016214
   131  H   -0.007189
   132  H   -0.010254
   133  H   -0.007727
   134  H   -0.003267
   135  H    0.009039
   136  H    0.002311
   137  H    0.007501
   138  H   -0.002752
   139  H    0.008339
   140  H    0.000081
 Sum of Mulliken charges =  -0.00000
 Mulliken charges with hydrogens summed into heavy atoms:
               1
     1  Mg   0.807179
     2  C   -0.046846
     3  C   -0.098645
     4  C   -0.103198
     5  C   -0.114022
     6  N   -0.243639
     7  C   -0.078642
     8  C    0.024419
     9  C   -0.069500
    10  C    0.008303
    11  C    0.139788
    12  C    0.133879
    13  C    0.062331
    14  C    0.194137
    15  O   -0.217425
    16  O   -0.362673
    17  N   -0.360661
    18  C    0.165175
    19  C   -0.124609
    20  C   -0.050601
    21  C    0.152137
    22  C    0.168838
    23  C   -0.010590
    24  O   -0.235878
    25  C    0.191369
    26  N   -0.252532
    27  C    0.015447
    28  C   -0.029215
    29  C   -0.010979
    30  C    0.034598
    31  C    0.127258
    32  C    0.041133
    33  C    0.035738
    34  N   -0.304350
    35  C    0.079891
    36  C   -0.177329
    37  C    0.023123
    38  C    0.118539
    39  C    0.197034
    40  C    0.084675
    41  O   -0.153358
    42  C    0.026560
    43  C    0.207425
    44  O   -0.241197
    45  O   -0.355623
    46  C    0.313692
    47  C    0.322674
    48  C   -0.130144
    49  C   -0.139122
    50  C    0.168255
    51  C    0.034173
    52  C    0.050469
    53  C   -0.007399
    54  C   -0.153753
    55  C    0.094860
    56  C    0.071061
    57  C   -0.005872
    58  C    0.045216
    59  C   -0.166489
    60  C    0.052716
    61  C    0.105618
    62  C   -0.037378
    63  C    0.060015
    64  C   -0.198028
    65  C    0.055690
    66  C    0.066282
 Electronic spatial extent (au):  <R**2>=         121754.0136
 Charge=             -0.0000 electrons
 Dipole moment (field-independent basis, Debye):
    X=              2.6688    Y=              4.6588    Z=              1.9115  Tot=              5.6992
 Quadrupole moment (field-independent basis, Debye-Ang):
   XX=           -357.7987   YY=           -436.7328   ZZ=           -406.6763
   XY=              8.9927   XZ=             13.3651   YZ=             35.7749
 Traceless Quadrupole moment (field-independent basis, Debye-Ang):
   XX=             42.6039   YY=            -36.3302   ZZ=             -6.2737
   XY=              8.9927   XZ=             13.3651   YZ=             35.7749
 Octapole moment (field-independent basis, Debye-Ang**2):
  XXX=            596.2467  YYY=            180.1211  ZZZ=             62.1016  XYY=             30.2219
  XXY=            -90.4848  XXZ=             55.6744  XZZ=             17.4379  YZZ=            -91.6857
  YYZ=            143.3129  XYZ=            177.3501
 Hexadecapole moment (field-independent basis, Debye-Ang**3):
 XXXX=        -127824.5152 YYYY=         -25935.9298 ZZZZ=         -14485.4301 XXXY=           -747.9582
 XXXZ=            384.9450 YYYX=            280.1280 YYYZ=            781.3442 ZZZX=            507.8376
 ZZZY=            853.3552 XXYY=         -25212.7414 XXZZ=         -24209.3738 YYZZ=          -7554.5282
 XXYZ=            704.3883 YYXZ=            645.7973 ZZXY=           -374.6655
 N-N= 9.499532750392D+03 E-N=-2.599014636531D+04  KE= 2.974950781466D+03
 Leave Link  601 at Tue May  3 23:03:28 2022, MaxMem= 10066329600 cpu:              12.8 elap:               0.6
 (Enter /sw/apps/gaussian-16.0/g16/l9999.exe)
 1\1\GINC-BP1-COMPUTE121\SP\RCAM-B3LYP TD-FC\def2SVP\C55H74Mg1N4O6\OF15
 641\03-May-2022\0\\#p cam-b3lyp/Def2SVP td=(nstates=5)\\step_1101_chro
 mophore_14 TDDFT with cam-b3lyp functional\\0,1\Mg,0,46.624,45.688,44.
 15\C,0,43.295,44.469,43.778\C,0,47.687,42.373,43.834\C,0,49.71,46.871,
 43.903\C,0,45.357,48.874,44.009\N,0,45.605,43.684,43.692\C,0,44.256,43
 .433,43.681\C,0,43.97,41.888,43.616\C,0,45.288,41.314,44.048\C,0,46.27
 2,42.505,43.837\C,0,45.375,40.764,45.516\C,0,43.32,41.366,42.24\C,0,43
 .391,42.329,40.995\C,0,43.04,41.829,39.552\O,0,42.045,41.207,39.285\O,
 0,43.887,42.334,38.545\N,0,48.438,44.746,43.795\C,0,48.63,43.411,43.75
 7\C,0,50.046,43.195,43.557\C,0,50.722,44.478,43.663\C,0,49.606,45.434,
 43.793\C,0,50.557,41.787,43.274\C,0,52.243,44.717,43.532\O,0,53.026,43
 .74,43.589\C,0,52.824,46.067,43.292\N,0,47.388,47.631,43.658\C,0,48.69
 5,47.808,43.997\C,0,49.047,49.295,44.355\C,0,47.655,49.976,44.105\C,0,
 46.747,48.725,43.929\C,0,49.548,49.494,45.826\C,0,47.595,50.793,42.743
 \C,0,48.632,51.902,42.538\N,0,44.713,46.566,43.965\C,0,44.356,47.85,43
 .985\C,0,42.89,47.978,43.834\C,0,42.478,46.676,43.798\C,0,43.592,45.82
 ,43.907\C,0,41.993,49.276,43.572\C,0,41.298,45.891,43.754\O,0,40.102,4
 6.117,43.71\C,0,41.795,44.402,43.719\C,0,41.277,43.663,44.884\O,0,40.8
 92,42.483,44.862\O,0,41.219,44.466,46.009\C,0,40.483,43.85,47.214\C,0,
 43.33,42.052,37.174\C,0,44.308,42.651,36.127\C,0,45.372,42.123,35.458\
 C,0,45.965,40.763,35.678\C,0,46.281,43.04,34.594\C,0,46.266,42.828,33.
 087\C,0,45.666,44.071,32.447\C,0,45.724,44.261,30.868\C,0,46.267,45.60
 8,30.427\C,0,44.433,43.717,30.16\C,0,44.901,43.286,28.745\C,0,44.041,4
 3.976,27.585\C,0,44.876,44.748,26.546\C,0,44.143,46.058,26.131\C,0,45.
 191,43.975,25.258\C,0,46.626,43.304,25.456\C,0,47.615,43.458,24.287\C,
 0,47.975,44.992,24.14\C,0,47.963,45.416,22.684\C,0,49.348,45.295,24.69
 1\H,0,48.022,41.348,44.004\H,0,50.696,47.337,43.959\H,0,44.963,49.888,
 44.106\H,0,43.233,41.647,44.381\H,0,45.597,40.468,43.433\H,0,45.508,39
 .683,45.479\H,0,44.5,41.144,46.044\H,0,46.312,41.086,45.971\H,0,42.301
 ,41.021,42.414\H,0,43.997,40.554,41.975\H,0,44.373,42.803,40.989\H,0,4
 2.828,43.243,41.184\H,0,51.278,41.548,44.056\H,0,51.109,41.628,42.347\
 H,0,49.841,40.966,43.305\H,0,52.919,46.544,44.268\H,0,52.13,46.571,42.
 619\H,0,53.761,45.976,42.743\H,0,49.749,49.717,43.636\H,0,47.311,50.57
 2,44.95\H,0,48.702,49.374,46.502\H,0,50.193,50.365,45.946\H,0,50.162,4
 8.647,46.133\H,0,46.642,51.227,42.438\H,0,47.87,50.076,41.97\H,0,49.35
 6,51.721,41.743\H,0,49.263,52.146,43.392\H,0,48.045,52.806,42.38\H,0,4
 1.511,49.316,42.595\H,0,42.625,50.163,43.62\H,0,41.207,49.331,44.325\H
 ,0,41.43,43.812,42.878\H,0,39.483,44.273,47.122\H,0,40.793,44.33,48.14
 2\H,0,40.382,42.771,47.331\H,0,42.312,42.413,37.026\H,0,43.34,40.964,3
 7.11\H,0,44.012,43.67,35.877\H,0,47.007,40.934,35.948\H,0,46.071,40.33
 8,34.68\H,0,45.469,40.158,36.437\H,0,47.314,42.969,34.932\H,0,46.119,4
 4.082,34.87\H,0,45.788,41.886,32.817\H,0,47.295,42.791,32.729\H,0,46.1
 13,44.956,32.898\H,0,44.632,44.068,32.791\H,0,46.481,43.556,30.524\H,0
 ,45.4,46.078,29.964\H,0,47.028,45.536,29.651\H,0,46.685,46.191,31.248\
 H,0,43.711,44.533,30.198\H,0,43.97,42.809,30.545\H,0,44.78,42.203,28.7
 39\H,0,45.922,43.48,28.416\H,0,43.354,44.664,28.078\H,0,43.456,43.24,2
 7.035\H,0,45.816,45.006,27.035\H,0,43.899,46.151,25.072\H,0,44.916,46.
 811,26.286\H,0,43.208,46.281,26.645\H,0,45.211,44.617,24.377\H,0,44.47
 4,43.163,25.135\H,0,46.54,42.224,25.579\H,0,47.144,43.509,26.393\H,0,4
 7.252,43.274,23.276\H,0,48.55,42.959,24.543\H,0,47.241,45.613,24.654\H
 ,0,48.339,46.435,22.585\H,0,46.987,45.401,22.2\H,0,48.569,44.667,22.17
 4\H,0,49.277,46.245,25.221\H,0,50.066,45.411,23.879\H,0,49.686,44.583,
 25.444\\Version=ES64L-G16RevA.03\State=1-A\HF=-3007.1488969\RMSD=4.198
 e-09\PG=C01 [X(C55H74Mg1N4O6)]\\@


 WHEN ALL ELSE FAILS, LOOK AT THE SCHRODINGER EQUATION.
     -- RUSSELL T. PACK, APRIL 1978
 Job cpu time:       0 days 10 hours 57 minutes 20.1 seconds.
 Elapsed time:       0 days  0 hours 27 minutes 56.0 seconds.
 File lengths (MBytes):  RWF=   8929 Int=      0 D2E=      0 Chk=    390 Scr=      1
 Normal termination of Gaussian 16 at Tue May  3 23:03:29 2022.
