 Entering Gaussian System, Link 0=g16
 Initial command:
 /sw/apps/gaussian-16.0/g16/l1.exe "/tmp/Gau-245809.inp" -scrdir="/tmp/"
 Entering Link 1 = /sw/apps/gaussian-16.0/g16/l1.exe PID=    245810.
  
 Copyright (c) 1988,1990,1992,1993,1995,1998,2003,2009,2016,
            Gaussian, Inc.  All Rights Reserved.
  
 This is part of the Gaussian(R) 16 program.  It is based on
 the Gaussian(R) 09 system (copyright 2009, Gaussian, Inc.),
 the Gaussian(R) 03 system (copyright 2003, Gaussian, Inc.),
 the Gaussian(R) 98 system (copyright 1998, Gaussian, Inc.),
 the Gaussian(R) 94 system (copyright 1995, Gaussian, Inc.),
 the Gaussian 92(TM) system (copyright 1992, Gaussian, Inc.),
 the Gaussian 90(TM) system (copyright 1990, Gaussian, Inc.),
 the Gaussian 88(TM) system (copyright 1988, Gaussian, Inc.),
 the Gaussian 86(TM) system (copyright 1986, Carnegie Mellon
 University), and the Gaussian 82(TM) system (copyright 1983,
 Carnegie Mellon University). Gaussian is a federally registered
 trademark of Gaussian, Inc.
  
 This software contains proprietary and confidential information,
 including trade secrets, belonging to Gaussian, Inc.
  
 This software is provided under written license and may be
 used, copied, transmitted, or stored only in accord with that
 written license.
  
 The following legend is applicable only to US Government
 contracts under FAR:
  
                    RESTRICTED RIGHTS LEGEND
  
 Use, reproduction and disclosure by the US Government is
 subject to restrictions as set forth in subparagraphs (a)
 and (c) of the Commercial Computer Software - Restricted
 Rights clause in FAR 52.227-19.
  
 Gaussian, Inc.
 340 Quinnipiac St., Bldg. 40, Wallingford CT 06492
  
  
 ---------------------------------------------------------------
 Warning -- This program may not be used in any manner that
 competes with the business of Gaussian, Inc. or will provide
 assistance to any competitor of Gaussian, Inc.  The licensee
 of this program is prohibited from giving any competitor of
 Gaussian, Inc. access to this program.  By using this program,
 the user acknowledges that Gaussian, Inc. is engaged in the
 business of creating and licensing software in the field of
 computational chemistry and represents and warrants to the
 licensee that it is not a competitor of Gaussian, Inc. and that
 it will not use this program in any manner prohibited above.
 ---------------------------------------------------------------
  

 Cite this work as:
 Gaussian 16, Revision A.03,
 M. J. Frisch, G. W. Trucks, H. B. Schlegel, G. E. Scuseria, 
 M. A. Robb, J. R. Cheeseman, G. Scalmani, V. Barone, 
 G. A. Petersson, H. Nakatsuji, X. Li, M. Caricato, A. V. Marenich, 
 J. Bloino, B. G. Janesko, R. Gomperts, B. Mennucci, H. P. Hratchian, 
 J. V. Ortiz, A. F. Izmaylov, J. L. Sonnenberg, D. Williams-Young, 
 F. Ding, F. Lipparini, F. Egidi, J. Goings, B. Peng, A. Petrone, 
 T. Henderson, D. Ranasinghe, V. G. Zakrzewski, J. Gao, N. Rega, 
 G. Zheng, W. Liang, M. Hada, M. Ehara, K. Toyota, R. Fukuda, 
 J. Hasegawa, M. Ishida, T. Nakajima, Y. Honda, O. Kitao, H. Nakai, 
 T. Vreven, K. Throssell, J. A. Montgomery, Jr., J. E. Peralta, 
 F. Ogliaro, M. J. Bearpark, J. J. Heyd, E. N. Brothers, K. N. Kudin, 
 V. N. Staroverov, T. A. Keith, R. Kobayashi, J. Normand, 
 K. Raghavachari, A. P. Rendell, J. C. Burant, S. S. Iyengar, 
 J. Tomasi, M. Cossi, J. M. Millam, M. Klene, C. Adamo, R. Cammi, 
 J. W. Ochterski, R. L. Martin, K. Morokuma, O. Farkas, 
 J. B. Foresman, and D. J. Fox, Gaussian, Inc., Wallingford CT, 2016.
 
 ******************************************
 Gaussian 16:  ES64L-G16RevA.03 25-Dec-2016
                 4-May-2022 
 ******************************************
 %nproc=24
 Will use up to   24 processors via shared memory.
 %mem=50gb
 --------------------
 #p ZINDO=(nstates=5)
 --------------------
 1/38=1,172=1/1;
 2/12=2,17=6,18=5,40=1/2;
 3/5=2,25=1,41=400000/1,2,3,8;
 4/5=3,35=1/1;
 5/5=2,35=1,38=5/2;
 8/6=1,108=5/1;
 9/41=5,42=1,49=10/14;
 6/7=2,8=2,9=2,10=2/1;
 99/5=1,9=1/99;
 Leave Link    1 at Wed May  4 00:04:02 2022, MaxMem=  6710886400 cpu:               0.5 elap:               0.0
 (Enter /sw/apps/gaussian-16.0/g16/l101.exe)
 ------------------------------
 step_1101_chromophore_14 ZINDO
 ------------------------------
 Symbolic Z-matrix:
 Charge =  0 Multiplicity = 1
 Mg                    46.624    45.688    44.15 
 C                     43.295    44.469    43.778 
 C                     47.687    42.373    43.834 
 C                     49.71     46.871    43.903 
 C                     45.357    48.874    44.009 
 N                     45.605    43.684    43.692 
 C                     44.256    43.433    43.681 
 C                     43.97     41.888    43.616 
 C                     45.288    41.314    44.048 
 C                     46.272    42.505    43.837 
 C                     45.375    40.764    45.516 
 C                     43.32     41.366    42.24 
 C                     43.391    42.329    40.995 
 C                     43.04     41.829    39.552 
 O                     42.045    41.207    39.285 
 O                     43.887    42.334    38.545 
 N                     48.438    44.746    43.795 
 C                     48.63     43.411    43.757 
 C                     50.046    43.195    43.557 
 C                     50.722    44.478    43.663 
 C                     49.606    45.434    43.793 
 C                     50.557    41.787    43.274 
 C                     52.243    44.717    43.532 
 O                     53.026    43.74     43.589 
 C                     52.824    46.067    43.292 
 N                     47.388    47.631    43.658 
 C                     48.695    47.808    43.997 
 C                     49.047    49.295    44.355 
 C                     47.655    49.976    44.105 
 C                     46.747    48.725    43.929 
 C                     49.548    49.494    45.826 
 C                     47.595    50.793    42.743 
 C                     48.632    51.902    42.538 
 N                     44.713    46.566    43.965 
 C                     44.356    47.85     43.985 
 C                     42.89     47.978    43.834 
 C                     42.478    46.676    43.798 
 C                     43.592    45.82     43.907 
 C                     41.993    49.276    43.572 
 C                     41.298    45.891    43.754 
 O                     40.102    46.117    43.71 
 C                     41.795    44.402    43.719 
 C                     41.277    43.663    44.884 
 O                     40.892    42.483    44.862 
 O                     41.219    44.466    46.009 
 C                     40.483    43.85     47.214 
 C                     43.33     42.052    37.174 
 C                     44.308    42.651    36.127 
 C                     45.372    42.123    35.458 
 C                     45.965    40.763    35.678 
 C                     46.281    43.04     34.594 
 C                     46.266    42.828    33.087 
 C                     45.666    44.071    32.447 
 C                     45.724    44.261    30.868 
 C                     46.267    45.608    30.427 
 C                     44.433    43.717    30.16 
 C                     44.901    43.286    28.745 
 C                     44.041    43.976    27.585 
 C                     44.876    44.748    26.546 
 C                     44.143    46.058    26.131 
 C                     45.191    43.975    25.258 
 C                     46.626    43.304    25.456 
 C                     47.615    43.458    24.287 
 C                     47.975    44.992    24.14 
 C                     47.963    45.416    22.684 
 C                     49.348    45.295    24.691 
 H                     48.022    41.348    44.004 
 H                     50.696    47.337    43.959 
 H                     44.963    49.888    44.106 
 H                     43.233    41.647    44.381 
 H                     45.597    40.468    43.433 
 H                     45.508    39.683    45.479 
 H                     44.5      41.144    46.044 
 H                     46.312    41.086    45.971 
 H                     42.301    41.021    42.414 
 H                     43.997    40.554    41.975 
 H                     44.373    42.803    40.989 
 H                     42.828    43.243    41.184 
 H                     51.278    41.548    44.056 
 H                     51.109    41.628    42.347 
 H                     49.841    40.966    43.305 
 H                     52.919    46.544    44.268 
 H                     52.13     46.571    42.619 
 H                     53.761    45.976    42.743 
 H                     49.749    49.717    43.636 
 H                     47.311    50.572    44.95 
 H                     48.702    49.374    46.502 
 H                     50.193    50.365    45.946 
 H                     50.162    48.647    46.133 
 H                     46.642    51.227    42.438 
 H                     47.87     50.076    41.97 
 H                     49.356    51.721    41.743 
 H                     49.263    52.146    43.392 
 H                     48.045    52.806    42.38 
 H                     41.511    49.316    42.595 
 H                     42.625    50.163    43.62 
 H                     41.207    49.331    44.325 
 H                     41.43     43.812    42.878 
 H                     39.483    44.273    47.122 
 H                     40.793    44.33     48.142 
 H                     40.382    42.771    47.331 
 H                     42.312    42.413    37.026 
 H                     43.34     40.964    37.11 
 H                     44.012    43.67     35.877 
 H                     47.007    40.934    35.948 
 H                     46.071    40.338    34.68 
 H                     45.469    40.158    36.437 
 H                     47.314    42.969    34.932 
 H                     46.119    44.082    34.87 
 H                     45.788    41.886    32.817 
 H                     47.295    42.791    32.729 
 H                     46.113    44.956    32.898 
 H                     44.632    44.068    32.791 
 H                     46.481    43.556    30.524 
 H                     45.4      46.078    29.964 
 H                     47.028    45.536    29.651 
 H                     46.685    46.191    31.248 
 H                     43.711    44.533    30.198 
 H                     43.97     42.809    30.545 
 H                     44.78     42.203    28.739 
 H                     45.922    43.48     28.416 
 H                     43.354    44.664    28.078 
 H                     43.456    43.24     27.035 
 H                     45.816    45.006    27.035 
 H                     43.899    46.151    25.072 
 H                     44.916    46.811    26.286 
 H                     43.208    46.281    26.645 
 H                     45.211    44.617    24.377 
 H                     44.474    43.163    25.135 
 H                     46.54     42.224    25.579 
 H                     47.144    43.509    26.393 
 H                     47.252    43.274    23.276 
 H                     48.55     42.959    24.543 
 H                     47.241    45.613    24.654 
 H                     48.339    46.435    22.585 
 H                     46.987    45.401    22.2 
 H                     48.569    44.667    22.174 
 H                     49.277    46.245    25.221 
 H                     50.066    45.411    23.879 
 H                     49.686    44.583    25.444 
 
 ITRead=  0  0  0  0  0  0  0  0  0  0  0  0  0  0  0  0  0  0  0  0
 ITRead=  0  0  0  0  0  0  0  0  0  0  0  0  0  0  0  0  0  0  0  0
 ITRead=  0  0  0  0  0  0  0  0  0  0  0  0  0  0  0  0  0  0  0  0
 ITRead=  0  0  0  0  0  0  0  0  0  0  0  0  0  0  0  0  0  0  0  0
 ITRead=  0  0  0  0  0  0  0  0  0  0  0  0  0  0  0  0  0  0  0  0
 ITRead=  0  0  0  0  0  0  0  0  0  0  0  0  0  0  0  0  0  0  0  0
 ITRead=  0  0  0  0  0  0  0  0  0  0  0  0  0  0  0  0  0  0  0  0
 MicOpt= -1 -1 -1 -1 -1 -1 -1 -1 -1 -1 -1 -1 -1 -1 -1 -1 -1 -1 -1 -1
 MicOpt= -1 -1 -1 -1 -1 -1 -1 -1 -1 -1 -1 -1 -1 -1 -1 -1 -1 -1 -1 -1
 MicOpt= -1 -1 -1 -1 -1 -1 -1 -1 -1 -1 -1 -1 -1 -1 -1 -1 -1 -1 -1 -1
 MicOpt= -1 -1 -1 -1 -1 -1 -1 -1 -1 -1 -1 -1 -1 -1 -1 -1 -1 -1 -1 -1
 MicOpt= -1 -1 -1 -1 -1 -1 -1 -1 -1 -1 -1 -1 -1 -1 -1 -1 -1 -1 -1 -1
 MicOpt= -1 -1 -1 -1 -1 -1 -1 -1 -1 -1 -1 -1 -1 -1 -1 -1 -1 -1 -1 -1
 MicOpt= -1 -1 -1 -1 -1 -1 -1 -1 -1 -1 -1 -1 -1 -1 -1 -1 -1 -1 -1 -1
 NAtoms=    140 NQM=      140 NQMF=       0 NMMI=      0 NMMIF=      0
                NMic=       0 NMicF=      0.
                    Isotopes and Nuclear Properties:
 (Nuclear quadrupole moments (NQMom) in fm**2, nuclear magnetic moments (NMagM)
  in nuclear magnetons)

  Atom         1           2           3           4           5           6           7           8           9          10
 IAtWgt=          24          12          12          12          12          14          12          12          12          12
 AtmWgt=  23.9850450  12.0000000  12.0000000  12.0000000  12.0000000  14.0030740  12.0000000  12.0000000  12.0000000  12.0000000
 NucSpn=           0           0           0           0           0           2           0           0           0           0
 AtZEff=  -0.0000000  -0.0000000  -0.0000000  -0.0000000  -0.0000000  -0.0000000  -0.0000000  -0.0000000  -0.0000000  -0.0000000
 NQMom=    0.0000000   0.0000000   0.0000000   0.0000000   0.0000000   2.0440000   0.0000000   0.0000000   0.0000000   0.0000000
 NMagM=    0.0000000   0.0000000   0.0000000   0.0000000   0.0000000   0.4037610   0.0000000   0.0000000   0.0000000   0.0000000
 AtZNuc=  12.0000000   6.0000000   6.0000000   6.0000000   6.0000000   7.0000000   6.0000000   6.0000000   6.0000000   6.0000000

  Atom        11          12          13          14          15          16          17          18          19          20
 IAtWgt=          12          12          12          12          16          16          14          12          12          12
 AtmWgt=  12.0000000  12.0000000  12.0000000  12.0000000  15.9949146  15.9949146  14.0030740  12.0000000  12.0000000  12.0000000
 NucSpn=           0           0           0           0           0           0           2           0           0           0
 AtZEff=  -0.0000000  -0.0000000  -0.0000000  -0.0000000  -0.0000000  -0.0000000  -0.0000000  -0.0000000  -0.0000000  -0.0000000
 NQMom=    0.0000000   0.0000000   0.0000000   0.0000000   0.0000000   0.0000000   2.0440000   0.0000000   0.0000000   0.0000000
 NMagM=    0.0000000   0.0000000   0.0000000   0.0000000   0.0000000   0.0000000   0.4037610   0.0000000   0.0000000   0.0000000
 AtZNuc=   6.0000000   6.0000000   6.0000000   6.0000000   8.0000000   8.0000000   7.0000000   6.0000000   6.0000000   6.0000000

  Atom        21          22          23          24          25          26          27          28          29          30
 IAtWgt=          12          12          12          16          12          14          12          12          12          12
 AtmWgt=  12.0000000  12.0000000  12.0000000  15.9949146  12.0000000  14.0030740  12.0000000  12.0000000  12.0000000  12.0000000
 NucSpn=           0           0           0           0           0           2           0           0           0           0
 AtZEff=  -0.0000000  -0.0000000  -0.0000000  -0.0000000  -0.0000000  -0.0000000  -0.0000000  -0.0000000  -0.0000000  -0.0000000
 NQMom=    0.0000000   0.0000000   0.0000000   0.0000000   0.0000000   2.0440000   0.0000000   0.0000000   0.0000000   0.0000000
 NMagM=    0.0000000   0.0000000   0.0000000   0.0000000   0.0000000   0.4037610   0.0000000   0.0000000   0.0000000   0.0000000
 AtZNuc=   6.0000000   6.0000000   6.0000000   8.0000000   6.0000000   7.0000000   6.0000000   6.0000000   6.0000000   6.0000000

  Atom        31          32          33          34          35          36          37          38          39          40
 IAtWgt=          12          12          12          14          12          12          12          12          12          12
 AtmWgt=  12.0000000  12.0000000  12.0000000  14.0030740  12.0000000  12.0000000  12.0000000  12.0000000  12.0000000  12.0000000
 NucSpn=           0           0           0           2           0           0           0           0           0           0
 AtZEff=  -0.0000000  -0.0000000  -0.0000000  -0.0000000  -0.0000000  -0.0000000  -0.0000000  -0.0000000  -0.0000000  -0.0000000
 NQMom=    0.0000000   0.0000000   0.0000000   2.0440000   0.0000000   0.0000000   0.0000000   0.0000000   0.0000000   0.0000000
 NMagM=    0.0000000   0.0000000   0.0000000   0.4037610   0.0000000   0.0000000   0.0000000   0.0000000   0.0000000   0.0000000
 AtZNuc=   6.0000000   6.0000000   6.0000000   7.0000000   6.0000000   6.0000000   6.0000000   6.0000000   6.0000000   6.0000000

  Atom        41          42          43          44          45          46          47          48          49          50
 IAtWgt=          16          12          12          16          16          12          12          12          12          12
 AtmWgt=  15.9949146  12.0000000  12.0000000  15.9949146  15.9949146  12.0000000  12.0000000  12.0000000  12.0000000  12.0000000
 NucSpn=           0           0           0           0           0           0           0           0           0           0
 AtZEff=  -0.0000000  -0.0000000  -0.0000000  -0.0000000  -0.0000000  -0.0000000  -0.0000000  -0.0000000  -0.0000000  -0.0000000
 NQMom=    0.0000000   0.0000000   0.0000000   0.0000000   0.0000000   0.0000000   0.0000000   0.0000000   0.0000000   0.0000000
 NMagM=    0.0000000   0.0000000   0.0000000   0.0000000   0.0000000   0.0000000   0.0000000   0.0000000   0.0000000   0.0000000
 AtZNuc=   8.0000000   6.0000000   6.0000000   8.0000000   8.0000000   6.0000000   6.0000000   6.0000000   6.0000000   6.0000000

  Atom        51          52          53          54          55          56          57          58          59          60
 IAtWgt=          12          12          12          12          12          12          12          12          12          12
 AtmWgt=  12.0000000  12.0000000  12.0000000  12.0000000  12.0000000  12.0000000  12.0000000  12.0000000  12.0000000  12.0000000
 NucSpn=           0           0           0           0           0           0           0           0           0           0
 AtZEff=  -0.0000000  -0.0000000  -0.0000000  -0.0000000  -0.0000000  -0.0000000  -0.0000000  -0.0000000  -0.0000000  -0.0000000
 NQMom=    0.0000000   0.0000000   0.0000000   0.0000000   0.0000000   0.0000000   0.0000000   0.0000000   0.0000000   0.0000000
 NMagM=    0.0000000   0.0000000   0.0000000   0.0000000   0.0000000   0.0000000   0.0000000   0.0000000   0.0000000   0.0000000
 AtZNuc=   6.0000000   6.0000000   6.0000000   6.0000000   6.0000000   6.0000000   6.0000000   6.0000000   6.0000000   6.0000000

  Atom        61          62          63          64          65          66          67          68          69          70
 IAtWgt=          12          12          12          12          12          12           1           1           1           1
 AtmWgt=  12.0000000  12.0000000  12.0000000  12.0000000  12.0000000  12.0000000   1.0078250   1.0078250   1.0078250   1.0078250
 NucSpn=           0           0           0           0           0           0           1           1           1           1
 AtZEff=  -0.0000000  -0.0000000  -0.0000000  -0.0000000  -0.0000000  -0.0000000  -0.0000000  -0.0000000  -0.0000000  -0.0000000
 NQMom=    0.0000000   0.0000000   0.0000000   0.0000000   0.0000000   0.0000000   0.0000000   0.0000000   0.0000000   0.0000000
 NMagM=    0.0000000   0.0000000   0.0000000   0.0000000   0.0000000   0.0000000   2.7928460   2.7928460   2.7928460   2.7928460
 AtZNuc=   6.0000000   6.0000000   6.0000000   6.0000000   6.0000000   6.0000000   1.0000000   1.0000000   1.0000000   1.0000000

  Atom        71          72          73          74          75          76          77          78          79          80
 IAtWgt=           1           1           1           1           1           1           1           1           1           1
 AtmWgt=   1.0078250   1.0078250   1.0078250   1.0078250   1.0078250   1.0078250   1.0078250   1.0078250   1.0078250   1.0078250
 NucSpn=           1           1           1           1           1           1           1           1           1           1
 AtZEff=  -0.0000000  -0.0000000  -0.0000000  -0.0000000  -0.0000000  -0.0000000  -0.0000000  -0.0000000  -0.0000000  -0.0000000
 NQMom=    0.0000000   0.0000000   0.0000000   0.0000000   0.0000000   0.0000000   0.0000000   0.0000000   0.0000000   0.0000000
 NMagM=    2.7928460   2.7928460   2.7928460   2.7928460   2.7928460   2.7928460   2.7928460   2.7928460   2.7928460   2.7928460
 AtZNuc=   1.0000000   1.0000000   1.0000000   1.0000000   1.0000000   1.0000000   1.0000000   1.0000000   1.0000000   1.0000000

  Atom        81          82          83          84          85          86          87          88          89          90
 IAtWgt=           1           1           1           1           1           1           1           1           1           1
 AtmWgt=   1.0078250   1.0078250   1.0078250   1.0078250   1.0078250   1.0078250   1.0078250   1.0078250   1.0078250   1.0078250
 NucSpn=           1           1           1           1           1           1           1           1           1           1
 AtZEff=  -0.0000000  -0.0000000  -0.0000000  -0.0000000  -0.0000000  -0.0000000  -0.0000000  -0.0000000  -0.0000000  -0.0000000
 NQMom=    0.0000000   0.0000000   0.0000000   0.0000000   0.0000000   0.0000000   0.0000000   0.0000000   0.0000000   0.0000000
 NMagM=    2.7928460   2.7928460   2.7928460   2.7928460   2.7928460   2.7928460   2.7928460   2.7928460   2.7928460   2.7928460
 AtZNuc=   1.0000000   1.0000000   1.0000000   1.0000000   1.0000000   1.0000000   1.0000000   1.0000000   1.0000000   1.0000000

  Atom        91          92          93          94          95          96          97          98          99         100
 IAtWgt=           1           1           1           1           1           1           1           1           1           1
 AtmWgt=   1.0078250   1.0078250   1.0078250   1.0078250   1.0078250   1.0078250   1.0078250   1.0078250   1.0078250   1.0078250
 NucSpn=           1           1           1           1           1           1           1           1           1           1
 AtZEff=  -0.0000000  -0.0000000  -0.0000000  -0.0000000  -0.0000000  -0.0000000  -0.0000000  -0.0000000  -0.0000000  -0.0000000
 NQMom=    0.0000000   0.0000000   0.0000000   0.0000000   0.0000000   0.0000000   0.0000000   0.0000000   0.0000000   0.0000000
 NMagM=    2.7928460   2.7928460   2.7928460   2.7928460   2.7928460   2.7928460   2.7928460   2.7928460   2.7928460   2.7928460
 AtZNuc=   1.0000000   1.0000000   1.0000000   1.0000000   1.0000000   1.0000000   1.0000000   1.0000000   1.0000000   1.0000000

  Atom       101         102         103         104         105         106         107         108         109         110
 IAtWgt=           1           1           1           1           1           1           1           1           1           1
 AtmWgt=   1.0078250   1.0078250   1.0078250   1.0078250   1.0078250   1.0078250   1.0078250   1.0078250   1.0078250   1.0078250
 NucSpn=           1           1           1           1           1           1           1           1           1           1
 AtZEff=  -0.0000000  -0.0000000  -0.0000000  -0.0000000  -0.0000000  -0.0000000  -0.0000000  -0.0000000  -0.0000000  -0.0000000
 NQMom=    0.0000000   0.0000000   0.0000000   0.0000000   0.0000000   0.0000000   0.0000000   0.0000000   0.0000000   0.0000000
 NMagM=    2.7928460   2.7928460   2.7928460   2.7928460   2.7928460   2.7928460   2.7928460   2.7928460   2.7928460   2.7928460
 AtZNuc=   1.0000000   1.0000000   1.0000000   1.0000000   1.0000000   1.0000000   1.0000000   1.0000000   1.0000000   1.0000000

  Atom       111         112         113         114         115         116         117         118         119         120
 IAtWgt=           1           1           1           1           1           1           1           1           1           1
 AtmWgt=   1.0078250   1.0078250   1.0078250   1.0078250   1.0078250   1.0078250   1.0078250   1.0078250   1.0078250   1.0078250
 NucSpn=           1           1           1           1           1           1           1           1           1           1
 AtZEff=  -0.0000000  -0.0000000  -0.0000000  -0.0000000  -0.0000000  -0.0000000  -0.0000000  -0.0000000  -0.0000000  -0.0000000
 NQMom=    0.0000000   0.0000000   0.0000000   0.0000000   0.0000000   0.0000000   0.0000000   0.0000000   0.0000000   0.0000000
 NMagM=    2.7928460   2.7928460   2.7928460   2.7928460   2.7928460   2.7928460   2.7928460   2.7928460   2.7928460   2.7928460
 AtZNuc=   1.0000000   1.0000000   1.0000000   1.0000000   1.0000000   1.0000000   1.0000000   1.0000000   1.0000000   1.0000000

  Atom       121         122         123         124         125         126         127         128         129         130
 IAtWgt=           1           1           1           1           1           1           1           1           1           1
 AtmWgt=   1.0078250   1.0078250   1.0078250   1.0078250   1.0078250   1.0078250   1.0078250   1.0078250   1.0078250   1.0078250
 NucSpn=           1           1           1           1           1           1           1           1           1           1
 AtZEff=  -0.0000000  -0.0000000  -0.0000000  -0.0000000  -0.0000000  -0.0000000  -0.0000000  -0.0000000  -0.0000000  -0.0000000
 NQMom=    0.0000000   0.0000000   0.0000000   0.0000000   0.0000000   0.0000000   0.0000000   0.0000000   0.0000000   0.0000000
 NMagM=    2.7928460   2.7928460   2.7928460   2.7928460   2.7928460   2.7928460   2.7928460   2.7928460   2.7928460   2.7928460
 AtZNuc=   1.0000000   1.0000000   1.0000000   1.0000000   1.0000000   1.0000000   1.0000000   1.0000000   1.0000000   1.0000000

  Atom       131         132         133         134         135         136         137         138         139         140
 IAtWgt=           1           1           1           1           1           1           1           1           1           1
 AtmWgt=   1.0078250   1.0078250   1.0078250   1.0078250   1.0078250   1.0078250   1.0078250   1.0078250   1.0078250   1.0078250
 NucSpn=           1           1           1           1           1           1           1           1           1           1
 AtZEff=  -0.0000000  -0.0000000  -0.0000000  -0.0000000  -0.0000000  -0.0000000  -0.0000000  -0.0000000  -0.0000000  -0.0000000
 NQMom=    0.0000000   0.0000000   0.0000000   0.0000000   0.0000000   0.0000000   0.0000000   0.0000000   0.0000000   0.0000000
 NMagM=    2.7928460   2.7928460   2.7928460   2.7928460   2.7928460   2.7928460   2.7928460   2.7928460   2.7928460   2.7928460
 AtZNuc=   1.0000000   1.0000000   1.0000000   1.0000000   1.0000000   1.0000000   1.0000000   1.0000000   1.0000000   1.0000000
 Leave Link  101 at Wed May  4 00:04:02 2022, MaxMem=  6710886400 cpu:               2.8 elap:               0.1
 (Enter /sw/apps/gaussian-16.0/g16/l202.exe)
 Stoichiometry    C55H74MgN4O6
 Framework group  C1[X(C55H74MgN4O6)]
 Deg. of freedom   414
 Full point group                 C1      NOp   1
 Largest Abelian subgroup         C1      NOp   1
 Largest concise Abelian subgroup C1      NOp   1
                         Standard orientation:                         
 ---------------------------------------------------------------------
 Center     Atomic      Atomic             Coordinates (Angstroms)
 Number     Number       Type             X           Y           Z
 ---------------------------------------------------------------------
      1         12           0        5.151986    1.048838    0.065416
      2          6           0        4.767554   -2.467524    0.505867
      3          6           0        4.558406    0.511266   -3.337190
      4          6           0        4.922456    4.340091   -0.249009
      5          6           0        5.285049    1.352182    3.480975
      6          7           0        4.566712   -0.756540   -1.223849
      7          6           0        4.568785   -2.074008   -0.840188
      8          6           0        4.392809   -3.023475   -2.081393
      9          6           0        4.748110   -2.110261   -3.218507
     10          6           0        4.605265   -0.693062   -2.584158
     11          6           0        6.167313   -2.299137   -3.862930
     12          6           0        2.996871   -3.820747   -2.145198
     13          6           0        1.827726   -3.307928   -1.221860
     14          6           0        0.359543   -3.827409   -1.395149
     15          8           0        0.069647   -4.992260   -1.480480
     16          8           0       -0.625877   -2.830697   -1.246844
     17          7           0        4.682858    2.249773   -1.559901
     18          6           0        4.538423    1.821283   -2.831148
     19          6           0        4.288756    2.991298   -3.643824
     20          6           0        4.476276    4.170674   -2.814241
     21          6           0        4.705528    3.602323   -1.472335
     22          6           0        3.886914    2.818058   -5.104024
     23          6           0        4.327635    5.638206   -3.274655
     24          8           0        4.291129    5.897283   -4.500384
     25          6           0        4.177650    6.767402   -2.315446
     26          7           0        4.791736    2.611474    1.489986
     27          6           0        5.111961    3.853862    1.033449
     28          6           0        5.573991    4.832352    2.170253
     29          6           0        5.410047    3.898799    3.421464
     30          6           0        5.160736    2.527545    2.730128
     31          6           0        7.043511    5.350040    2.006081
     32          6           0        4.116254    4.230492    4.282981
     33          6           0        3.971861    5.658063    4.820073
     34          7           0        5.080273   -0.260449    1.720003
     35          6           0        5.206810   -0.002014    3.021427
     36          6           0        5.101075   -1.251672    3.805974
     37          6           0        4.975576   -2.204746    2.835333
     38          6           0        4.992243   -1.596328    1.564442
     39          6           0        4.960479   -1.465498    5.384761
     40          6           0        4.899931   -3.611039    2.670473
     41          8           0        4.901891   -4.576896    3.412459
     42          6           0        4.739441   -3.836456    1.124903
     43          6           0        5.856625   -4.646670    0.608064
     44          8           0        5.753755   -5.520941   -0.267251
     45          8           0        7.040737   -4.352004    1.259867
     46          6           0        8.212393   -5.302103    0.947278
     47          6           0       -2.000720   -3.437035   -1.139263
     48          6           0       -3.021959   -2.280531   -0.963015
     49          6           0       -3.754550   -1.559067   -1.858136
     50          6           0       -3.653296   -1.644064   -3.352182
     51          6           0       -4.567438   -0.323547   -1.382354
     52          6           0       -6.085440   -0.412592   -1.445283
     53          6           0       -6.614116   -0.380979   -0.019047
     54          6           0       -8.174923   -0.223080    0.248635
     55          6           0       -8.524585    0.873459    1.238118
     56          6           0       -8.891380   -1.611424    0.400534
     57          6           0      -10.345937   -1.368832   -0.081568
     58          6           0      -11.428978   -1.811338    1.010454
     59          6           0      -12.425614   -0.704834    1.404272
     60          6           0      -12.721718   -0.764802    2.932127
     61          6           0      -13.776049   -0.754362    0.676556
     62          6           0      -13.664201    0.222769   -0.580971
     63          6           0      -14.841303    1.190540   -0.796025
     64          6           0      -14.879254    2.203916    0.418880
     65          6           0      -16.297911    2.402941    0.916532
     66          6           0      -14.339660    3.559146    0.028072
     67          1           0        4.641568    0.347192   -4.413254
     68          1           0        4.990328    5.429497   -0.281794
     69          1           0        5.468599    1.455128    4.552681
     70          1           0        5.154545   -3.800047   -2.025093
     71          1           0        4.063084   -2.206781   -4.061623
     72          1           0        6.044685   -2.666087   -4.881718
     73          1           0        6.743537   -2.916539   -3.173301
     74          1           0        6.623076   -1.323474   -4.033342
     75          1           0        3.168291   -4.888208   -2.008071
     76          1           0        2.654532   -3.577910   -3.151047
     77          1           0        1.834504   -2.217685   -1.240834
     78          1           0        2.099378   -3.402088   -0.170468
     79          1           0        4.630935    3.344223   -5.702414
     80          1           0        2.937562    3.251624   -5.420355
     81          1           0        3.872199    1.808966   -5.515332
     82          1           0        5.184686    7.054024   -2.010724
     83          1           0        3.561877    6.383115   -1.501979
     84          1           0        3.601087    7.570433   -2.774103
     85          1           0        4.872769    5.658476    2.287114
     86          1           0        6.306075    3.848611    4.039680
     87          1           0        7.728376    4.531713    2.226060
     88          1           0        7.214256    6.316241    2.481862
     89          1           0        7.270169    5.513395    0.952233
     90          1           0        3.868137    3.578611    5.121479
     91          1           0        3.284400    4.163696    3.582410
     92          1           0        3.148298    6.233612    4.396457
     93          1           0        4.826693    6.320154    4.686245
     94          1           0        3.897434    5.542509    5.900747
     95          1           0        4.001177   -1.865181    5.714072
     96          1           0        5.060988   -0.502769    5.886307
     97          1           0        5.734033   -2.152539    5.727428
     98          1           0        3.864787   -4.416790    0.830287
     99          1           0        8.176876   -6.003689    1.780289
    100          1           0        9.166679   -4.821499    1.161853
    101          1           0        8.249011   -5.879139    0.023255
    102          1           0       -2.096364   -4.181850   -0.348914
    103          1           0       -2.147859   -3.916625   -2.106880
    104          1           0       -3.186255   -2.083281    0.096502
    105          1           0       -3.395980   -0.640129   -3.689537
    106          1           0       -4.683089   -1.727508   -3.699209
    107          1           0       -2.931100   -2.369053   -3.727609
    108          1           0       -4.260611    0.562615   -1.936382
    109          1           0       -4.208864   -0.003161   -0.404110
    110          1           0       -6.415114   -1.259628   -2.047441
    111          1           0       -6.469687    0.494390   -1.912307
    112          1           0       -6.107636    0.410368    0.532027
    113          1           0       -6.246760   -1.310235    0.415734
    114          1           0       -8.589745    0.140360   -0.691708
    115          1           0       -8.929498    0.316637    2.082484
    116          1           0       -9.321766    1.530828    0.893373
    117          1           0       -7.671667    1.498238    1.504270
    118          1           0       -8.773934   -1.889681    1.448085
    119          1           0       -8.565916   -2.438335   -0.229822
    120          1           0      -10.431753   -1.963920   -0.990452
    121          1           0      -10.683442   -0.365475   -0.341727
    122          1           0      -10.868603   -2.121860    1.892451
    123          1           0      -12.019464   -2.657615    0.661795
    124          1           0      -11.940920    0.244278    1.172877
    125          1           0      -13.764392   -0.927030    3.208134
    126          1           0      -12.528155    0.262177    3.242626
    127          1           0      -12.170008   -1.506219    3.510112
    128          1           0      -14.605662   -0.436226    1.308423
    129          1           0      -13.943558   -1.758286    0.285866
    130          1           0      -13.622037   -0.341400   -1.513098
    131          1           0      -12.726916    0.765320   -0.705282
    132          1           0      -15.854447    0.796824   -0.716831
    133          1           0      -14.646564    1.797752   -1.680408
    134          1           0      -14.301943    1.821012    1.260716
    135          1           0      -16.327736    3.198343    1.662176
    136          1           0      -16.758200    1.530911    1.379947
    137          1           0      -16.877956    2.613912    0.017991
    138          1           0      -13.737100    3.916098    0.863505
    139          1           0      -15.157339    4.263143   -0.127214
    140          1           0      -13.651531    3.530909   -0.816841
 ---------------------------------------------------------------------
 Rotational constants (GHZ):           0.0348157           0.0098626           0.0091293
 Leave Link  202 at Wed May  4 00:04:02 2022, MaxMem=  6710886400 cpu:               0.2 elap:               0.0
 (Enter /sw/apps/gaussian-16.0/g16/l301.exe)
 Standard basis: VSTO-6G (5D, 7F)
 Ernie: Thresh=  0.10000D-02 Tol=  0.10000D-05 Strict=F.
 There are   338 symmetry adapted cartesian basis functions of A   symmetry.
 There are   338 symmetry adapted basis functions of A   symmetry.
   338 basis functions,  2028 primitive gaussians,   338 cartesian basis functions
   176 alpha electrons      176 beta electrons
       nuclear repulsion energy      4764.4441280797 Hartrees.
 IExCor=    0 DFT=F Ex=HF Corr=None ExCW=0 ScaHFX=  1.000000
 ScaDFX=  1.000000  1.000000  1.000000  1.000000 ScalE2=  1.000000  1.000000
 IRadAn=      5 IRanWt=     -1 IRanGd=            0 ICorTp=0 IEmpDi=  4
 Integral buffers will be    131072 words long.
 Regular integral format.
 Two-electron integral symmetry is turned off.
 Leave Link  301 at Wed May  4 00:04:03 2022, MaxMem=  6710886400 cpu:               1.2 elap:               0.1
 (Enter /sw/apps/gaussian-16.0/g16/l302.exe)
 Do NDO integrals.
 NPDir=0 NMtPBC=     1 NCelOv=     1 NCel=       1 NClECP=     1 NCelD=      1
         NCelK=      1 NCelE2=     1 NClLst=     1 CellRange=     0.0.
 One-electron integrals computed using PRISM.
 Generate ZINDO/S integrals.
 NDO Nuclear repulsion=  4287.440156785489 Hartrees.
 NBasis=   338 RedAO= F EigKep=  0.00D+00  NBF=   338
 NBsUse=   338 1.00D-04 EigRej=  0.00D+00 NBFU=   338
 Leave Link  302 at Wed May  4 00:04:03 2022, MaxMem=  6710886400 cpu:               8.3 elap:               0.4
 (Enter /sw/apps/gaussian-16.0/g16/l303.exe)
 DipDrv:  MaxL=1.
 DipDrv:  will hold  3 matrices at once.
 Leave Link  303 at Wed May  4 00:04:03 2022, MaxMem=  6710886400 cpu:               0.5 elap:               0.0
 (Enter /sw/apps/gaussian-16.0/g16/l308.exe)
 Leave Link  308 at Wed May  4 00:04:03 2022, MaxMem=  6710886400 cpu:               4.6 elap:               0.2
 (Enter /sw/apps/gaussian-16.0/g16/l401.exe)
 Simple Huckel Guess.
 JPrj=0 DoOrth=F DoCkMO=F.
 Leave Link  401 at Wed May  4 00:04:03 2022, MaxMem=  6710886400 cpu:               2.8 elap:               0.1
 (Enter /sw/apps/gaussian-16.0/g16/l502.exe)
 Two-electron integral symmetry not used.
 Closed shell SCF:
 Using DIIS extrapolation, IDIIS=  1040.
 Overlap will be assumed to be unity.
 NGot=  6710886400 LenX=  6710643598 LenY=  6710528913
 Requested convergence on RMS density matrix=1.00D-08 within 128 cycles.
 Requested convergence on MAX density matrix=1.00D-06.
 Requested convergence on             energy=1.00D-06.
 No special actions if energy rises.
 Fock matrices will be formed incrementally for  20 cycles.

 Cycle   1  Pass 1  IDiag  1:
 E= -472.073540249798    
 DIIS: error= 6.12D-02 at cycle   1 NSaved=   1.
 NSaved= 1 IEnMin= 1 EnMin= -472.073540249798     IErMin= 1 ErrMin= 6.12D-02
 ErrMax= 6.12D-02  0.00D+00 EMaxC= 1.00D-01 BMatC= 8.44D-01 BMatP= 8.44D-01
 IDIUse=3 WtCom= 3.88D-01 WtEn= 6.12D-01
 Coeff-Com:  0.100D+01
 Coeff-En:   0.100D+01
 Coeff:      0.100D+01
 GapD=    2.000 DampG=2.000 DampE=0.500 DampFc=1.0000 IDamp=-1.
 RMSDP=4.05D-03 MaxDP=1.72D-01              OVMax= 0.00D+00

 Cycle   2  Pass 1  IDiag  1:
 RMSU=  4.04D-03    CP:  9.95D-01
 E= -473.925649972343     Delta-E=       -1.852109722545 Rises=F Damp=F
 DIIS: error= 2.21D-02 at cycle   2 NSaved=   2.
 NSaved= 2 IEnMin= 2 EnMin= -473.925649972343     IErMin= 2 ErrMin= 2.21D-02
 ErrMax= 2.21D-02  0.00D+00 EMaxC= 1.00D-01 BMatC= 5.49D-02 BMatP= 8.44D-01
 IDIUse=3 WtCom= 7.79D-01 WtEn= 2.21D-01
 Coeff-Com: -0.625D-01 0.106D+01
 Coeff-En:   0.000D+00 0.100D+01
 Coeff:     -0.487D-01 0.105D+01
 RMSDP=1.13D-03 MaxDP=6.38D-02 DE=-1.85D+00 OVMax= 0.00D+00

 Cycle   3  Pass 1  IDiag  1:
 RMSU=  1.08D-03    CP:  9.93D-01  1.08D+00
 E= -474.029702906591     Delta-E=       -0.104052934247 Rises=F Damp=F
 DIIS: error= 1.05D-02 at cycle   3 NSaved=   3.
 NSaved= 3 IEnMin= 3 EnMin= -474.029702906591     IErMin= 3 ErrMin= 1.05D-02
 ErrMax= 1.05D-02  0.00D+00 EMaxC= 1.00D-01 BMatC= 8.05D-03 BMatP= 5.49D-02
 IDIUse=3 WtCom= 8.95D-01 WtEn= 1.05D-01
 Coeff-Com: -0.689D-01 0.247D+00 0.822D+00
 Coeff-En:   0.000D+00 0.000D+00 0.100D+01
 Coeff:     -0.616D-01 0.221D+00 0.841D+00
 RMSDP=4.03D-04 MaxDP=1.78D-02 DE=-1.04D-01 OVMax= 0.00D+00

 Cycle   4  Pass 1  IDiag  1:
 RMSU=  2.59D-04    CP:  9.93D-01  1.15D+00  9.03D-01
 E= -474.043858680544     Delta-E=       -0.014155773953 Rises=F Damp=F
 DIIS: error= 1.65D-03 at cycle   4 NSaved=   4.
 NSaved= 4 IEnMin= 4 EnMin= -474.043858680544     IErMin= 4 ErrMin= 1.65D-03
 ErrMax= 1.65D-03  0.00D+00 EMaxC= 1.00D-01 BMatC= 3.51D-04 BMatP= 8.05D-03
 IDIUse=3 WtCom= 9.83D-01 WtEn= 1.65D-02
 Coeff-Com: -0.186D-02-0.302D-01 0.526D-01 0.980D+00
 Coeff-En:   0.000D+00 0.000D+00 0.000D+00 0.100D+01
 Coeff:     -0.183D-02-0.297D-01 0.517D-01 0.980D+00
 RMSDP=1.35D-04 MaxDP=7.18D-03 DE=-1.42D-02 OVMax= 0.00D+00

 Cycle   5  Pass 1  IDiag  1:
 RMSU=  8.99D-05    CP:  9.92D-01  1.16D+00  9.95D-01  1.01D+00
 E= -474.044928359368     Delta-E=       -0.001069678824 Rises=F Damp=F
 DIIS: error= 5.88D-04 at cycle   5 NSaved=   5.
 NSaved= 5 IEnMin= 5 EnMin= -474.044928359368     IErMin= 5 ErrMin= 5.88D-04
 ErrMax= 5.88D-04  0.00D+00 EMaxC= 1.00D-01 BMatC= 6.18D-05 BMatP= 3.51D-04
 IDIUse=3 WtCom= 9.94D-01 WtEn= 5.88D-03
 Coeff-Com:  0.620D-02-0.264D-01-0.921D-01 0.187D+00 0.925D+00
 Coeff-En:   0.000D+00 0.000D+00 0.000D+00 0.000D+00 0.100D+01
 Coeff:      0.617D-02-0.262D-01-0.915D-01 0.186D+00 0.926D+00
 RMSDP=5.96D-05 MaxDP=3.01D-03 DE=-1.07D-03 OVMax= 0.00D+00

 Cycle   6  Pass 1  IDiag  1:
 RMSU=  3.18D-05    CP:  9.92D-01  1.16D+00  1.01D+00  1.19D+00  1.00D+00
 E= -474.045122351749     Delta-E=       -0.000193992381 Rises=F Damp=F
 DIIS: error= 3.14D-04 at cycle   6 NSaved=   6.
 NSaved= 6 IEnMin= 6 EnMin= -474.045122351749     IErMin= 6 ErrMin= 3.14D-04
 ErrMax= 3.14D-04  0.00D+00 EMaxC= 1.00D-01 BMatC= 6.83D-06 BMatP= 6.18D-05
 IDIUse=3 WtCom= 9.97D-01 WtEn= 3.14D-03
 Coeff-Com:  0.425D-03 0.334D-02-0.211D-01-0.878D-01 0.103D+00 0.100D+01
 Coeff-En:   0.000D+00 0.000D+00 0.000D+00 0.000D+00 0.000D+00 0.100D+01
 Coeff:      0.424D-03 0.333D-02-0.210D-01-0.875D-01 0.103D+00 0.100D+01
 RMSDP=2.27D-05 MaxDP=1.22D-03 DE=-1.94D-04 OVMax= 0.00D+00

 Cycle   7  Pass 1  IDiag  1:
 RMSU=  1.09D-05    CP:  9.92D-01  1.16D+00  1.02D+00  1.21D+00  1.19D+00
                    CP:  1.10D+00
 E= -474.045146847986     Delta-E=       -0.000024496237 Rises=F Damp=F
 DIIS: error= 7.04D-05 at cycle   7 NSaved=   7.
 NSaved= 7 IEnMin= 7 EnMin= -474.045146847986     IErMin= 7 ErrMin= 7.04D-05
 ErrMax= 7.04D-05  0.00D+00 EMaxC= 1.00D-01 BMatC= 7.72D-07 BMatP= 6.83D-06
 IDIUse=1 WtCom= 1.00D+00 WtEn= 0.00D+00
 Coeff-Com: -0.650D-03 0.384D-02 0.522D-02-0.334D-01-0.901D-01 0.153D+00
 Coeff-Com:  0.962D+00
 Coeff:     -0.650D-03 0.384D-02 0.522D-02-0.334D-01-0.901D-01 0.153D+00
 Coeff:      0.962D+00
 RMSDP=9.15D-06 MaxDP=6.36D-04 DE=-2.45D-05 OVMax= 0.00D+00

 Cycle   8  Pass 1  IDiag  1:
 RMSU=  4.72D-06    CP:  9.92D-01  1.16D+00  1.02D+00  1.22D+00  1.22D+00
                    CP:  1.30D+00  1.19D+00
 E= -474.045150625423     Delta-E=       -0.000003777437 Rises=F Damp=F
 DIIS: error= 3.07D-05 at cycle   8 NSaved=   8.
 NSaved= 8 IEnMin= 8 EnMin= -474.045150625423     IErMin= 8 ErrMin= 3.07D-05
 ErrMax= 3.07D-05  0.00D+00 EMaxC= 1.00D-01 BMatC= 1.39D-07 BMatP= 7.72D-07
 IDIUse=1 WtCom= 1.00D+00 WtEn= 0.00D+00
 Coeff-Com: -0.997D-04-0.223D-03 0.314D-02 0.132D-01-0.303D-01-0.121D+00
 Coeff-Com:  0.122D+00 0.101D+01
 Coeff:     -0.997D-04-0.223D-03 0.314D-02 0.132D-01-0.303D-01-0.121D+00
 Coeff:      0.122D+00 0.101D+01
 RMSDP=5.15D-06 MaxDP=2.95D-04 DE=-3.78D-06 OVMax= 0.00D+00

 Cycle   9  Pass 1  IDiag  1:
 RMSU=  2.05D-06    CP:  9.92D-01  1.16D+00  1.02D+00  1.22D+00  1.25D+00
                    CP:  1.33D+00  1.52D+00  1.33D+00
 E= -474.045151578192     Delta-E=       -0.000000952769 Rises=F Damp=F
 DIIS: error= 1.61D-05 at cycle   9 NSaved=   9.
 NSaved= 9 IEnMin= 9 EnMin= -474.045151578192     IErMin= 9 ErrMin= 1.61D-05
 ErrMax= 1.61D-05  0.00D+00 EMaxC= 1.00D-01 BMatC= 3.76D-08 BMatP= 1.39D-07
 IDIUse=1 WtCom= 1.00D+00 WtEn= 0.00D+00
 Coeff-Com:  0.111D-03-0.662D-03-0.931D-03 0.722D-02 0.749D-02-0.118D-01
 Coeff-Com: -0.194D+00-0.175D-01 0.121D+01
 Coeff:      0.111D-03-0.662D-03-0.931D-03 0.722D-02 0.749D-02-0.118D-01
 Coeff:     -0.194D+00-0.175D-01 0.121D+01
 RMSDP=3.89D-06 MaxDP=2.17D-04 DE=-9.53D-07 OVMax= 0.00D+00

 Cycle  10  Pass 1  IDiag  1:
 RMSU=  1.01D-06    CP:  9.92D-01  1.16D+00  1.02D+00  1.22D+00  1.26D+00
                    CP:  1.36D+00  1.71D+00  1.75D+00  1.89D+00
 E= -474.045152007421     Delta-E=       -0.000000429229 Rises=F Damp=F
 DIIS: error= 7.68D-06 at cycle  10 NSaved=  10.
 NSaved=10 IEnMin=10 EnMin= -474.045152007421     IErMin=10 ErrMin= 7.68D-06
 ErrMax= 7.68D-06  0.00D+00 EMaxC= 1.00D-01 BMatC= 1.43D-08 BMatP= 3.76D-08
 IDIUse=1 WtCom= 1.00D+00 WtEn= 0.00D+00
 Coeff-Com:  0.124D-05 0.102D-03-0.440D-03-0.165D-02-0.617D-03 0.346D-01
 Coeff-Com: -0.364D-01-0.876D-01-0.201D+00 0.129D+01
 Coeff:      0.124D-05 0.102D-03-0.440D-03-0.165D-02-0.617D-03 0.346D-01
 Coeff:     -0.364D-01-0.876D-01-0.201D+00 0.129D+01
 RMSDP=2.97D-06 MaxDP=1.35D-04 DE=-4.29D-07 OVMax= 0.00D+00

 Cycle  11  Pass 1  IDiag  1:
 RMSU=  5.18D-07    CP:  9.92D-01  1.16D+00  1.02D+00  1.22D+00  1.27D+00
                    CP:  1.35D+00  1.84D+00  1.98D+00  2.82D+00  2.04D+00
 E= -474.045152228881     Delta-E=       -0.000000221460 Rises=F Damp=F
 DIIS: error= 7.48D-06 at cycle  11 NSaved=  11.
 NSaved=11 IEnMin=11 EnMin= -474.045152228881     IErMin=11 ErrMin= 7.48D-06
 ErrMax= 7.48D-06  0.00D+00 EMaxC= 1.00D-01 BMatC= 9.15D-09 BMatP= 1.43D-08
 IDIUse=1 WtCom= 1.00D+00 WtEn= 0.00D+00
 Coeff-Com: -0.392D-04 0.198D-03 0.448D-03-0.143D-02-0.659D-02 0.969D-02
 Coeff-Com:  0.359D-01 0.136D+00-0.608D+00-0.214D+00 0.165D+01
 Coeff:     -0.392D-04 0.198D-03 0.448D-03-0.143D-02-0.659D-02 0.969D-02
 Coeff:      0.359D-01 0.136D+00-0.608D+00-0.214D+00 0.165D+01
 RMSDP=3.80D-06 MaxDP=1.68D-04 DE=-2.21D-07 OVMax= 0.00D+00

 Cycle  12  Pass 1  IDiag  1:
 RMSU=  2.20D-06    CP:  9.92D-01  1.16D+00  1.02D+00  1.22D+00  1.28D+00
                    CP:  1.35D+00  1.98D+00  2.23D+00  3.00D+00  3.00D+00
                    CP:  2.41D+00
 E= -474.045152436134     Delta-E=       -0.000000207253 Rises=F Damp=F
 DIIS: error= 4.98D-06 at cycle  12 NSaved=  12.
 NSaved=12 IEnMin=12 EnMin= -474.045152436134     IErMin=12 ErrMin= 4.98D-06
 ErrMax= 4.98D-06  0.00D+00 EMaxC= 1.00D-01 BMatC= 4.38D-09 BMatP= 9.15D-09
 IDIUse=1 WtCom= 1.00D+00 WtEn= 0.00D+00
 Coeff-Com:  0.185D-04-0.185D-03 0.189D-03 0.251D-02 0.170D-03-0.171D-01
 Coeff-Com: -0.391D-01 0.142D+00 0.265D+00-0.693D+00-0.805D+00 0.214D+01
 Coeff:      0.185D-04-0.185D-03 0.189D-03 0.251D-02 0.170D-03-0.171D-01
 Coeff:     -0.391D-01 0.142D+00 0.265D+00-0.693D+00-0.805D+00 0.214D+01
 RMSDP=4.56D-06 MaxDP=2.07D-04 DE=-2.07D-07 OVMax= 0.00D+00

 Cycle  13  Pass 1  IDiag  1:
 RMSU=  1.43D-06    CP:  9.92D-01  1.16D+00  1.02D+00  1.21D+00  1.29D+00
                    CP:  1.33D+00  2.13D+00  2.47D+00  3.00D+00  3.00D+00
                    CP:  3.00D+00  2.60D+00
 E= -474.045152581457     Delta-E=       -0.000000145323 Rises=F Damp=F
 DIIS: error= 2.22D-06 at cycle  13 NSaved=  13.
 NSaved=13 IEnMin=13 EnMin= -474.045152581457     IErMin=13 ErrMin= 2.22D-06
 ErrMax= 2.22D-06  0.00D+00 EMaxC= 1.00D-01 BMatC= 1.11D-09 BMatP= 4.38D-09
 IDIUse=1 WtCom= 1.00D+00 WtEn= 0.00D+00
 Coeff-Com:  0.169D-04-0.984D-04-0.154D-03 0.916D-03 0.233D-02-0.237D-02
 Coeff-Com: -0.344D-01 0.266D-02 0.181D+00 0.731D-01-0.713D+00 0.179D+00
 Coeff-Com:  0.131D+01
 Coeff:      0.169D-04-0.984D-04-0.154D-03 0.916D-03 0.233D-02-0.237D-02
 Coeff:     -0.344D-01 0.266D-02 0.181D+00 0.731D-01-0.713D+00 0.179D+00
 Coeff:      0.131D+01
 RMSDP=2.48D-06 MaxDP=1.08D-04 DE=-1.45D-07 OVMax= 0.00D+00

 Cycle  14  Pass 1  IDiag  1:
 RMSU=  1.04D-06    CP:  9.92D-01  1.16D+00  1.02D+00  1.21D+00  1.30D+00
                    CP:  1.33D+00  2.22D+00  2.58D+00  3.00D+00  3.00D+00
                    CP:  3.00D+00  3.00D+00  1.65D+00
 E= -474.045152614191     Delta-E=       -0.000000032734 Rises=F Damp=F
 DIIS: error= 1.57D-06 at cycle  14 NSaved=  14.
 NSaved=14 IEnMin=14 EnMin= -474.045152614191     IErMin=14 ErrMin= 1.57D-06
 ErrMax= 1.57D-06  0.00D+00 EMaxC= 1.00D-01 BMatC= 2.39D-10 BMatP= 1.11D-09
 IDIUse=1 WtCom= 1.00D+00 WtEn= 0.00D+00
 Coeff-Com: -0.654D-05 0.538D-04-0.332D-04-0.652D-03-0.303D-03 0.522D-02
 Coeff-Com:  0.574D-02-0.119D-01-0.107D+00 0.197D+00 0.200D+00-0.489D+00
 Coeff-Com: -0.929D-01 0.129D+01
 Coeff:     -0.654D-05 0.538D-04-0.332D-04-0.652D-03-0.303D-03 0.522D-02
 Coeff:      0.574D-02-0.119D-01-0.107D+00 0.197D+00 0.200D+00-0.489D+00
 Coeff:     -0.929D-01 0.129D+01
 RMSDP=7.25D-07 MaxDP=3.24D-05 DE=-3.27D-08 OVMax= 0.00D+00

 Cycle  15  Pass 1  IDiag  1:
 RMSU=  1.52D-07    CP:  9.92D-01  1.16D+00  1.02D+00  1.21D+00  1.30D+00
                    CP:  1.32D+00  2.24D+00  2.60D+00  3.00D+00  3.00D+00
                    CP:  3.00D+00  3.00D+00  1.86D+00  1.52D+00
 E= -474.045152618670     Delta-E=       -0.000000004479 Rises=F Damp=F
 DIIS: error= 8.55D-07 at cycle  15 NSaved=  15.
 NSaved=15 IEnMin=15 EnMin= -474.045152618670     IErMin=15 ErrMin= 8.55D-07
 ErrMax= 8.55D-07  0.00D+00 EMaxC= 1.00D-01 BMatC= 7.53D-11 BMatP= 2.39D-10
 IDIUse=1 WtCom= 1.00D+00 WtEn= 0.00D+00
 Coeff-Com: -0.467D-05 0.264D-04 0.489D-04-0.233D-03-0.783D-03 0.119D-02
 Coeff-Com:  0.732D-02 0.733D-02-0.682D-01 0.309D-02 0.172D+00-0.207D-01
 Coeff-Com: -0.375D+00-0.942D-01 0.137D+01
 Coeff:     -0.467D-05 0.264D-04 0.489D-04-0.233D-03-0.783D-03 0.119D-02
 Coeff:      0.732D-02 0.733D-02-0.682D-01 0.309D-02 0.172D+00-0.207D-01
 Coeff:     -0.375D+00-0.942D-01 0.137D+01
 RMSDP=3.56D-07 MaxDP=1.71D-05 DE=-4.48D-09 OVMax= 0.00D+00

 Cycle  16  Pass 1  IDiag  1:
 RMSU=  7.85D-08    CP:  9.92D-01  1.16D+00  1.02D+00  1.21D+00  1.30D+00
                    CP:  1.32D+00  2.25D+00  2.61D+00  3.00D+00  3.00D+00
                    CP:  3.00D+00  3.00D+00  1.96D+00  1.75D+00  2.05D+00
 E= -474.045152620130     Delta-E=       -0.000000001460 Rises=F Damp=F
 DIIS: error= 3.74D-07 at cycle  16 NSaved=  16.
 NSaved=16 IEnMin=16 EnMin= -474.045152620130     IErMin=16 ErrMin= 3.74D-07
 ErrMax= 3.74D-07  0.00D+00 EMaxC= 1.00D-01 BMatC= 2.61D-11 BMatP= 7.53D-11
 IDIUse=1 WtCom= 1.00D+00 WtEn= 0.00D+00
 Coeff-Com:  0.491D-05-0.347D-04-0.216D-05 0.395D-03 0.294D-03-0.205D-02
 Coeff-Com: -0.701D-02 0.683D-02 0.608D-01-0.599D-01-0.180D+00 0.221D+00
 Coeff-Com:  0.206D+00-0.568D+00-0.365D+00 0.169D+01
 Coeff:      0.491D-05-0.347D-04-0.216D-05 0.395D-03 0.294D-03-0.205D-02
 Coeff:     -0.701D-02 0.683D-02 0.608D-01-0.599D-01-0.180D+00 0.221D+00
 Coeff:      0.206D+00-0.568D+00-0.365D+00 0.169D+01
 RMSDP=2.46D-07 MaxDP=1.21D-05 DE=-1.46D-09 OVMax= 0.00D+00

 Cycle  17  Pass 1  IDiag  1:
 RMSU=  4.02D-08    CP:  9.92D-01  1.16D+00  1.02D+00  1.21D+00  1.30D+00
                    CP:  1.32D+00  2.25D+00  2.61D+00  3.00D+00  3.00D+00
                    CP:  3.00D+00  3.00D+00  2.01D+00  1.88D+00  3.00D+00
                    CP:  2.01D+00
 E= -474.045152620734     Delta-E=       -0.000000000605 Rises=F Damp=F
 DIIS: error= 2.22D-07 at cycle  17 NSaved=  17.
 NSaved=17 IEnMin=17 EnMin= -474.045152620734     IErMin=17 ErrMin= 2.22D-07
 ErrMax= 2.22D-07  0.00D+00 EMaxC= 1.00D-01 BMatC= 5.98D-12 BMatP= 2.61D-11
 IDIUse=1 WtCom= 1.00D+00 WtEn= 0.00D+00
 Coeff-Com:  0.852D-06-0.436D-05-0.146D-04 0.395D-04 0.144D-03 0.134D-05
 Coeff-Com: -0.199D-02-0.902D-03 0.101D-01 0.840D-02-0.325D-01-0.119D-01
 Coeff-Com:  0.835D-01 0.121D-01-0.203D+00-0.206D+00 0.134D+01
 Coeff:      0.852D-06-0.436D-05-0.146D-04 0.395D-04 0.144D-03 0.134D-05
 Coeff:     -0.199D-02-0.902D-03 0.101D-01 0.840D-02-0.325D-01-0.119D-01
 Coeff:      0.835D-01 0.121D-01-0.203D+00-0.206D+00 0.134D+01
 RMSDP=1.05D-07 MaxDP=5.71D-06 DE=-6.05D-10 OVMax= 0.00D+00

 Cycle  18  Pass 1  IDiag  1:
 RMSU=  5.80D-08    CP:  9.92D-01  1.16D+00  1.02D+00  1.21D+00  1.30D+00
                    CP:  1.32D+00  2.26D+00  2.61D+00  3.00D+00  3.00D+00
                    CP:  3.00D+00  3.00D+00  2.03D+00  1.92D+00  3.00D+00
                    CP:  2.59D+00  2.21D+00
 E= -474.045152620841     Delta-E=       -0.000000000106 Rises=F Damp=F
 DIIS: error= 1.55D-07 at cycle  18 NSaved=  18.
 NSaved=18 IEnMin=18 EnMin= -474.045152620841     IErMin=18 ErrMin= 1.55D-07
 ErrMax= 1.55D-07  0.00D+00 EMaxC= 1.00D-01 BMatC= 1.94D-12 BMatP= 5.98D-12
 IDIUse=1 WtCom= 1.00D+00 WtEn= 0.00D+00
 Coeff-Com: -0.184D-05 0.129D-04 0.416D-06-0.142D-03-0.112D-03 0.808D-03
 Coeff-Com:  0.227D-02-0.136D-02-0.244D-01 0.216D-01 0.652D-01-0.765D-01
 Coeff-Com: -0.716D-01 0.177D+00 0.211D+00-0.647D+00-0.221D+00 0.157D+01
 Coeff:     -0.184D-05 0.129D-04 0.416D-06-0.142D-03-0.112D-03 0.808D-03
 Coeff:      0.227D-02-0.136D-02-0.244D-01 0.216D-01 0.652D-01-0.765D-01
 Coeff:     -0.716D-01 0.177D+00 0.211D+00-0.647D+00-0.221D+00 0.157D+01
 RMSDP=6.70D-08 MaxDP=3.48D-06 DE=-1.06D-10 OVMax= 0.00D+00

 Cycle  19  Pass 1  IDiag  1:
 RMSU=  1.38D-08    CP:  9.92D-01  1.16D+00  1.02D+00  1.21D+00  1.30D+00
                    CP:  1.32D+00  2.26D+00  2.61D+00  3.00D+00  3.00D+00
                    CP:  3.00D+00  3.00D+00  2.03D+00  1.94D+00  3.00D+00
                    CP:  2.99D+00  3.00D+00  1.58D+00
 E= -474.045152620880     Delta-E=       -0.000000000039 Rises=F Damp=F
 DIIS: error= 9.40D-08 at cycle  19 NSaved=  19.
 NSaved=19 IEnMin=19 EnMin= -474.045152620880     IErMin=19 ErrMin= 9.40D-08
 ErrMax= 9.40D-08  0.00D+00 EMaxC= 1.00D-01 BMatC= 3.52D-13 BMatP= 1.94D-12
 IDIUse=1 WtCom= 1.00D+00 WtEn= 0.00D+00
 Coeff-Com: -0.175D-06 0.913D-06 0.411D-05-0.881D-05-0.295D-04 0.253D-05
 Coeff-Com:  0.319D-03 0.599D-03-0.246D-02-0.111D-02 0.468D-02 0.407D-02
 Coeff-Com: -0.156D-01-0.193D-01 0.539D-01 0.832D-01-0.348D+00 0.678D-02
 Coeff-Com:  0.123D+01
 Coeff:     -0.175D-06 0.913D-06 0.411D-05-0.881D-05-0.295D-04 0.253D-05
 Coeff:      0.319D-03 0.599D-03-0.246D-02-0.111D-02 0.468D-02 0.407D-02
 Coeff:     -0.156D-01-0.193D-01 0.539D-01 0.832D-01-0.348D+00 0.678D-02
 Coeff:      0.123D+01
 RMSDP=2.32D-08 MaxDP=1.19D-06 DE=-3.91D-11 OVMax= 0.00D+00

 Cycle  20  Pass 1  IDiag  1:
 RMSU=  1.06D-08    CP:  9.92D-01  1.16D+00  1.02D+00  1.21D+00  1.30D+00
                    CP:  1.32D+00  2.26D+00  2.61D+00  3.00D+00  3.00D+00
                    CP:  3.00D+00  3.00D+00  2.04D+00  1.94D+00  3.00D+00
                    CP:  3.00D+00  3.00D+00  1.75D+00  2.04D+00
 E= -474.045152620867     Delta-E=        0.000000000013 Rises=F Damp=F
 DIIS: error= 4.41D-08 at cycle  20 NSaved=  20.
 NSaved=20 IEnMin=19 EnMin= -474.045152620880     IErMin=20 ErrMin= 4.41D-08
 ErrMax= 4.41D-08  0.00D+00 EMaxC= 1.00D-01 BMatC= 6.73D-14 BMatP= 3.52D-13
 IDIUse=1 WtCom= 1.00D+00 WtEn= 0.00D+00
 Coeff-Com:  0.425D-06-0.299D-05 0.450D-06 0.312D-04 0.291D-04-0.190D-03
 Coeff-Com: -0.560D-03 0.518D-03 0.503D-02-0.462D-02-0.152D-01 0.184D-01
 Coeff-Com:  0.170D-01-0.436D-01-0.480D-01 0.160D+00 0.114D-01-0.324D+00
 Coeff-Com:  0.411D-01 0.118D+01
 Coeff:      0.425D-06-0.299D-05 0.450D-06 0.312D-04 0.291D-04-0.190D-03
 Coeff:     -0.560D-03 0.518D-03 0.503D-02-0.462D-02-0.152D-01 0.184D-01
 Coeff:      0.170D-01-0.436D-01-0.480D-01 0.160D+00 0.114D-01-0.324D+00
 Coeff:      0.411D-01 0.118D+01
 RMSDP=7.49D-09 MaxDP=4.48D-07 DE= 1.27D-11 OVMax= 0.00D+00

 SCF Done:  E(RZINDO/S) =  -474.045152621     A.U. after   20 cycles
            NFock= 20  Conv=0.75D-08     -V/T= 0.9487
 KE=-9.248492194259D+03 PE= 5.561705620494D-07 EE= 4.487006884296D+03
 Leave Link  502 at Wed May  4 00:04:04 2022, MaxMem=  6710886400 cpu:              21.4 elap:               0.9
 (Enter /sw/apps/gaussian-16.0/g16/l801.exe)
 Range of M.O.s used for correlation:     1   338
 NBasis=   338 NAE=   176 NBE=   176 NFC=     0 NFV=     0
 NROrb=    338 NOA=   176 NOB=   176 NVA=   162 NVB=   162
 Leave Link  801 at Wed May  4 00:04:04 2022, MaxMem=  6710886400 cpu:               0.9 elap:               0.1
 (Enter /sw/apps/gaussian-16.0/g16/l914.exe)
 RHF ground state
 Two-electron integral symmetry not used.
 MDV=  6710886400 DFT=F DoStab=F Mixed=F DoRPA=F DoScal=F NonHer=F
 Making orbital integer symmetry assigments:
 Orbital symmetries:
       Occupied  (A) (A) (A) (A) (A) (A) (A) (A) (A) (A) (A) (A)
                 (A) (A) (A) (A) (A) (A) (A) (A) (A) (A) (A) (A)
                 (A) (A) (A) (A) (A) (A) (A) (A) (A) (A) (A) (A)
                 (A) (A) (A) (A) (A) (A) (A) (A) (A) (A) (A) (A)
                 (A) (A) (A) (A) (A) (A) (A) (A) (A) (A) (A) (A)
                 (A) (A) (A) (A) (A) (A) (A) (A) (A) (A) (A) (A)
                 (A) (A) (A) (A) (A) (A) (A) (A) (A) (A) (A) (A)
                 (A) (A) (A) (A) (A) (A) (A) (A) (A) (A) (A) (A)
                 (A) (A) (A) (A) (A) (A) (A) (A) (A) (A) (A) (A)
                 (A) (A) (A) (A) (A) (A) (A) (A) (A) (A) (A) (A)
                 (A) (A) (A) (A) (A) (A) (A) (A) (A) (A) (A) (A)
                 (A) (A) (A) (A) (A) (A) (A) (A) (A) (A) (A) (A)
                 (A) (A) (A) (A) (A) (A) (A) (A) (A) (A) (A) (A)
                 (A) (A) (A) (A) (A) (A) (A) (A) (A) (A) (A) (A)
                 (A) (A) (A) (A) (A) (A) (A) (A)
       Virtual   (A) (A) (A) (A) (A) (A) (A) (A) (A) (A) (A) (A)
                 (A) (A) (A) (A) (A) (A) (A) (A) (A) (A) (A) (A)
                 (A) (A) (A) (A) (A) (A) (A) (A) (A) (A) (A) (A)
                 (A) (A) (A) (A) (A) (A) (A) (A) (A) (A) (A) (A)
                 (A) (A) (A) (A) (A) (A) (A) (A) (A) (A) (A) (A)
                 (A) (A) (A) (A) (A) (A) (A) (A) (A) (A) (A) (A)
                 (A) (A) (A) (A) (A) (A) (A) (A) (A) (A) (A) (A)
                 (A) (A) (A) (A) (A) (A) (A) (A) (A) (A) (A) (A)
                 (A) (A) (A) (A) (A) (A) (A) (A) (A) (A) (A) (A)
                 (A) (A) (A) (A) (A) (A) (A) (A) (A) (A) (A) (A)
                 (A) (A) (A) (A) (A) (A) (A) (A) (A) (A) (A) (A)
                 (A) (A) (A) (A) (A) (A) (A) (A) (A) (A) (A) (A)
                 (A) (A) (A) (A) (A) (A) (A) (A) (A) (A) (A) (A)
                 (A) (A) (A) (A) (A) (A)
    20 initial guesses have been made.
 Convergence on wavefunction:    0.001000000000000
 Davidson Disk Diagonalization:  ConvIn= 1.00D-03 SkipCon=T Conv= 1.00D-03.
 Max sub-space:  2000 roots to seek:    20 dimension of matrix:        57024
 Iteration     1 Dimension    20 NMult     0 NNew     20
 CISAX will form    20 AO SS matrices at one time.
 NMat=    20 NSing=    20 JSym2X= 0.
 New state      3 was old state      5
 New state      5 was old state      3
 Excitation Energies [eV] at current iteration:
 Root      1 :     1.607601139592072
 Root      2 :     2.104386357904050
 Root      3 :     2.850213371117944
 Root      4 :     3.307574476616369
 Root      5 :     3.435080624582639
 Root      6 :     3.510640624427555
 Root      7 :     3.754649121080555
 Root      8 :     3.836149383425476
 Root      9 :     3.895427062562316
 Root     10 :     4.056388371685891
 Root     11 :     4.144466458081991
 Root     12 :     4.163904005197757
 Root     13 :     4.375696059937074
 Root     14 :     4.394244557207555
 Root     15 :     4.479240787399597
 Root     16 :     4.598583492481080
 Root     17 :     4.642493242897063
 Root     18 :     4.805875172395163
 Root     19 :     4.862302841187105
 Root     20 :     5.628547366531087
 Iteration     2 Dimension    40 NMult    20 NNew     20
 CISAX will form    20 AO SS matrices at one time.
 NMat=    20 NSing=    20 JSym2X= 0.
 Root      1 not converged, maximum delta is    0.038932442721947
 Root      2 not converged, maximum delta is    0.038835992058205
 Root      3 not converged, maximum delta is    0.078407133396563
 New state      4 was old state      5
 Root      4 not converged, maximum delta is    0.469428216165936
 New state      5 was old state      4
 Root      5 not converged, maximum delta is    0.370066165042719
 Excitation Energies [eV] at current iteration:
 Root      1 :     1.248171734273657   Change is   -0.359429405318415
 Root      2 :     1.904473315603218   Change is   -0.199913042300832
 Root      3 :     2.811598170556750   Change is   -0.038615200561194
 Root      4 :     3.000115144600391   Change is   -0.434965479982247
 Root      5 :     3.129637124712704   Change is   -0.177937351903665
 Root      6 :     3.305408673920669   Change is   -0.205231950506886
 Root      7 :     3.496455273129321   Change is   -0.258193847951233
 Root      8 :     3.520258120177191   Change is   -0.958982667222406
 Root      9 :     3.569529316561209   Change is   -0.325897746001107
 Root     10 :     3.640480625334416   Change is   -0.195668758091060
 Root     11 :     3.740583849272191   Change is   -0.315804522413700
 Root     12 :     3.806050127791573   Change is   -0.338416330290418
 Root     13 :     4.063768670642057   Change is   -0.100135334555700
 Root     14 :     4.095406181091651   Change is   -0.298838376115905
 Root     15 :     4.110293195954423   Change is   -0.695581976440741
 Root     16 :     4.213981452958381   Change is   -0.161714606978694
 Root     17 :     4.352992001002196   Change is   -0.289501241894868
 Root     18 :     4.570484308343078   Change is   -0.028099184138002
 Root     19 :     4.857548619744465   Change is   -0.004754221442641
 Root     20 :     5.556166827285069   Change is   -0.072380539246018
 Iteration     3 Dimension    45 NMult    40 NNew      5
 CISAX will form     5 AO SS matrices at one time.
 NMat=     5 NSing=     5 JSym2X= 0.
 Root      1 not converged, maximum delta is    0.014514856941374
 Root      2 not converged, maximum delta is    0.017487820867158
 Root      3 not converged, maximum delta is    0.012576010485192
 Root      4 not converged, maximum delta is    0.024432690909603
 Root      5 not converged, maximum delta is    0.037730748411577
 Excitation Energies [eV] at current iteration:
 Root      1 :     1.230750912695995   Change is   -0.017420821577662
 Root      2 :     1.877596778757025   Change is   -0.026876536846193
 Root      3 :     2.806543451069098   Change is   -0.005054719487652
 Root      4 :     2.976381446161628   Change is   -0.023733698438762
 Root      5 :     3.101952538122243   Change is   -0.027684586590461
 Iteration     4 Dimension    50 NMult    45 NNew      5
 CISAX will form     5 AO SS matrices at one time.
 NMat=     5 NSing=     5 JSym2X= 0.
 Root      1 not converged, maximum delta is    0.002588200605631
 Root      2 not converged, maximum delta is    0.003394736028436
 Root      3 not converged, maximum delta is    0.002782221125030
 Root      4 not converged, maximum delta is    0.009340531210397
 Root      5 not converged, maximum delta is    0.010228561002984
 Excitation Energies [eV] at current iteration:
 Root      1 :     1.229840268056566   Change is   -0.000910644639429
 Root      2 :     1.876857825025145   Change is   -0.000738953731880
 Root      3 :     2.805951074644536   Change is   -0.000592376424562
 Root      4 :     2.973255798546296   Change is   -0.003125647615333
 Root      5 :     3.098707195282149   Change is   -0.003245342840094
 Iteration     5 Dimension    55 NMult    50 NNew      5
 CISAX will form     5 AO SS matrices at one time.
 NMat=     5 NSing=     5 JSym2X= 0.
 Root      1 has converged.
 Root      2 has converged.
 Root      3 not converged, maximum delta is    0.001188975054530
 Root      4 not converged, maximum delta is    0.014156285333799
 Root      5 not converged, maximum delta is    0.052019565377620
 Excitation Energies [eV] at current iteration:
 Root      1 :     1.229783929530203   Change is   -0.000056338526364
 Root      2 :     1.876808934354457   Change is   -0.000048890670688
 Root      3 :     2.805862695997395   Change is   -0.000088378647141
 Root      4 :     2.972052675727768   Change is   -0.001203122818528
 Root      5 :     3.095172684848368   Change is   -0.003534510433781
 Iteration     6 Dimension    58 NMult    55 NNew      3
 CISAX will form     3 AO SS matrices at one time.
 NMat=     3 NSing=     3 JSym2X= 0.
 Root      1 has converged.
 Root      2 has converged.
 Root      3 not converged, maximum delta is    0.001975490295667
 Root      4 not converged, maximum delta is    0.250134870602799
 Root      5 not converged, maximum delta is    0.600320126675351
 Excitation Energies [eV] at current iteration:
 Root      1 :     1.229783867377088   Change is   -0.000000062153114
 Root      2 :     1.876807655598948   Change is   -0.000001278755509
 Root      3 :     2.805836006887229   Change is   -0.000026689110166
 Root      4 :     2.949979116480779   Change is   -0.022073559246989
 Root      5 :     2.979614413842566   Change is   -0.115558271005802
 Iteration     7 Dimension    61 NMult    58 NNew      3
 CISAX will form     3 AO SS matrices at one time.
 NMat=     3 NSing=     3 JSym2X= 0.
 Root      1 has converged.
 Root      2 has converged.
 Root      3 has converged.
 Root      4 not converged, maximum delta is    0.122094294647898
 Root      5 not converged, maximum delta is    0.079201044462171
 Excitation Energies [eV] at current iteration:
 Root      1 :     1.229783760946082   Change is   -0.000000106431007
 Root      2 :     1.876806695338903   Change is   -0.000000960260045
 Root      3 :     2.805826230647044   Change is   -0.000009776240185
 Root      4 :     2.919602956610208   Change is   -0.030376159870572
 Root      5 :     2.975456219678545   Change is   -0.004158194164020
 Iteration     8 Dimension    63 NMult    61 NNew      2
 CISAX will form     2 AO SS matrices at one time.
 NMat=     2 NSing=     2 JSym2X= 0.
 Root      1 has converged.
 Root      2 has converged.
 Root      3 has converged.
 Root      4 not converged, maximum delta is    0.008154939134512
 Root      5 not converged, maximum delta is    0.005269378491707
 Excitation Energies [eV] at current iteration:
 Root      1 :     1.229783756056727   Change is   -0.000000004889355
 Root      2 :     1.876806348633510   Change is   -0.000000346705393
 Root      3 :     2.805825312130249   Change is   -0.000000918516795
 Root      4 :     2.915620104508112   Change is   -0.003982852102095
 Root      5 :     2.975175472870303   Change is   -0.000280746808242
 Iteration     9 Dimension    65 NMult    63 NNew      2
 CISAX will form     2 AO SS matrices at one time.
 NMat=     2 NSing=     2 JSym2X= 0.
 Root      1 has converged.
 Root      2 has converged.
 Root      3 has converged.
 Root      4 not converged, maximum delta is    0.002875463727105
 Root      5 not converged, maximum delta is    0.001268140802551
 Excitation Energies [eV] at current iteration:
 Root      1 :     1.229783737188600   Change is   -0.000000018868127
 Root      2 :     1.876806283443609   Change is   -0.000000065189900
 Root      3 :     2.805825215975662   Change is   -0.000000096154587
 Root      4 :     2.914958958465560   Change is   -0.000661146042553
 Root      5 :     2.975120497856624   Change is   -0.000054975013679
 Iteration    10 Dimension    67 NMult    65 NNew      2
 CISAX will form     2 AO SS matrices at one time.
 NMat=     2 NSing=     2 JSym2X= 0.
 Root      1 has converged.
 Root      2 has converged.
 Root      3 has converged.
 Root      4 has converged.
 Root      5 has converged.
 Excitation Energies [eV] at current iteration:
 Root      1 :     1.229783679424038   Change is   -0.000000057764562
 Root      2 :     1.876806255573205   Change is   -0.000000027870404
 Root      3 :     2.805825210379769   Change is   -0.000000005595893
 Root      4 :     2.914866081770306   Change is   -0.000092876695253
 Root      5 :     2.975111724193358   Change is   -0.000008773663266
 Convergence achieved on expansion vectors.
 ***********************************************************************
 Excited states from <AA,BB:AA,BB> singles matrix:
 ***********************************************************************
 
 1PDM for each excited state written to RWF  633
 Ground to excited state transition densities written to RWF  633
 Ground to excited state transition electric dipole moments (Au):
       state          X           Y           Z        Dip. S.      Osc.
         1         0.2771     -2.4247      3.6148     19.0225      0.5731
         2         0.0008      0.7301      0.4683      0.7524      0.0346
         3         0.1301      0.8705      0.6980      1.2620      0.0868
         4         0.0413      0.3992      0.1555      0.1852      0.0132
         5        -0.2447     -2.7917     -1.7512     10.9203      0.7960
 Ground to excited state transition velocity dipole moments (Au):
       state          X           Y           Z        Dip. S.      Osc.
         1         0.0180     -0.0142      0.0695      0.0054      0.0790
         2         0.0022     -0.0191      0.0001      0.0004      0.0036
         3        -0.0053     -0.0190     -0.0217      0.0009      0.0055
         4         0.0044     -0.0125     -0.0028      0.0002      0.0011
         5         0.0212      0.0855      0.0394      0.0093      0.0568
 Ground to excited state transition magnetic dipole moments (Au):
       state          X           Y           Z
         1         0.1569     -0.5800     -0.1194
         2         0.0787      0.0348     -0.2051
         3         0.1257      0.2259     -0.1560
         4        -0.1119      0.7170     -0.4431
         5         0.3684     -0.3957      0.8142
 Ground to excited state transition velocity quadrupole moments (Au):
       state          XX          YY          ZZ          XY          XZ          YZ
         1         0.2231     -0.1211      0.0675     -0.0755      0.5907     -0.0460
         2         0.0783     -0.0451     -0.0331     -0.2361     -0.0060     -0.0068
         3        -0.0703      0.0197     -0.0532     -0.2845     -0.2372     -0.2401
         4         0.1149     -0.0279      0.0005     -0.1764      0.0049      0.0260
         5        -0.0844      0.3031      0.0599      0.8124      0.3509     -0.1717
 <0|del|b> * <b|rxdel|0> + <0|del|b> * <b|delr+rdel|0>
 Rotatory Strengths (R) in cgs (10**-40 erg-esu-cm/Gauss)
       state          XX          YY          ZZ    R(velocity)    E-M Angle
         1        23.9486     -8.2376     27.3851     14.3653       86.48
         2        -4.2496      0.8140     -1.8591     -1.7649       96.95
         3         2.6692     -7.4857     -5.9073     -3.5746      100.18
         4       -23.6638      1.2077    -31.7992    -18.0851      135.50
         5         0.9735     13.6779     24.5708     13.0741       86.32
 1/2[<0|r|b>*<b|rxdel|0> + (<0|rxdel|b>*<b|r|0>)*]
 Rotatory Strengths (R) in cgs (10**-40 erg-esu-cm/Gauss)
       state          XX          YY          ZZ     R(length)
         1       -30.7537   -994.5591    305.2144   -240.0328
         2        -0.0443    -17.9566     67.9438     16.6476
         3       -11.5666   -139.0829     77.0006    -24.5496
         4         3.2732   -202.3812     48.7171    -50.1303
         5        63.7439   -781.1120   1008.3172     96.9830
  1/2[<0|del|b>*<b|r|0> + (<0|r|b>*<b|del|0>)*] (Au)
       state          X           Y           Z        Dip. S.   Osc.(frdel)
         1         0.0050      0.0344      0.2512     -0.2906     -0.1937
         2         0.0000     -0.0139      0.0001      0.0139      0.0092
         3        -0.0007     -0.0165     -0.0151      0.0323      0.0216
         4         0.0002     -0.0050     -0.0004      0.0052      0.0035
         5        -0.0052     -0.2388     -0.0691      0.3131      0.2087

 Excitation energies and oscillator strengths:
 
 Excited State   1:      Singlet-A      1.2298 eV 1008.18 nm  f=0.5731  <S**2>=0.000
     175 ->178        -0.19991
     176 ->177         0.66014
 This state for optimization and/or second-order correction.
 Total Energy, E(CIS/TDA) =  -473.999958902    
 Copying the excited state density for this state as the 1-particle RhoCI density.
 
 Excited State   2:      Singlet-A      1.8768 eV  660.61 nm  f=0.0346  <S**2>=0.000
     175 ->177         0.54324
     176 ->178         0.42912
 
 Excited State   3:      Singlet-A      2.8058 eV  441.88 nm  f=0.0868  <S**2>=0.000
     175 ->177         0.13069
     176 ->178        -0.18849
     176 ->179         0.36169
     176 ->180         0.55021
 
 Excited State   4:      Singlet-A      2.9149 eV  425.35 nm  f=0.0132  <S**2>=0.000
     168 ->177         0.23161
     168 ->178        -0.10256
     168 ->179        -0.24555
     168 ->181         0.17850
     168 ->185        -0.11056
     170 ->177         0.27521
     170 ->178        -0.11317
     170 ->179        -0.27294
     170 ->180         0.10690
     170 ->181         0.19884
     170 ->185        -0.11730
 
 Excited State   5:      Singlet-A      2.9751 eV  416.74 nm  f=0.7960  <S**2>=0.000
     175 ->177        -0.32732
     176 ->178         0.44050
     176 ->179         0.37996
 SavETr:  write IOETrn=   770 NScale= 10 NData=  16 NLR=1 NState=    5 LETran=     100.
 Leave Link  914 at Wed May  4 00:04:08 2022, MaxMem=  6710886400 cpu:              87.6 elap:               3.7
 (Enter /sw/apps/gaussian-16.0/g16/l601.exe)
 Copying SCF densities to generalized density rwf, IOpCl= 0 IROHF=0.

 **********************************************************************

            Population analysis using the SCF density.

 **********************************************************************

 Orbital symmetries:
       Occupied  (A) (A) (A) (A) (A) (A) (A) (A) (A) (A) (A) (A)
                 (A) (A) (A) (A) (A) (A) (A) (A) (A) (A) (A) (A)
                 (A) (A) (A) (A) (A) (A) (A) (A) (A) (A) (A) (A)
                 (A) (A) (A) (A) (A) (A) (A) (A) (A) (A) (A) (A)
                 (A) (A) (A) (A) (A) (A) (A) (A) (A) (A) (A) (A)
                 (A) (A) (A) (A) (A) (A) (A) (A) (A) (A) (A) (A)
                 (A) (A) (A) (A) (A) (A) (A) (A) (A) (A) (A) (A)
                 (A) (A) (A) (A) (A) (A) (A) (A) (A) (A) (A) (A)
                 (A) (A) (A) (A) (A) (A) (A) (A) (A) (A) (A) (A)
                 (A) (A) (A) (A) (A) (A) (A) (A) (A) (A) (A) (A)
                 (A) (A) (A) (A) (A) (A) (A) (A) (A) (A) (A) (A)
                 (A) (A) (A) (A) (A) (A) (A) (A) (A) (A) (A) (A)
                 (A) (A) (A) (A) (A) (A) (A) (A) (A) (A) (A) (A)
                 (A) (A) (A) (A) (A) (A) (A) (A) (A) (A) (A) (A)
                 (A) (A) (A) (A) (A) (A) (A) (A)
       Virtual   (A) (A) (A) (A) (A) (A) (A) (A) (A) (A) (A) (A)
                 (A) (A) (A) (A) (A) (A) (A) (A) (A) (A) (A) (A)
                 (A) (A) (A) (A) (A) (A) (A) (A) (A) (A) (A) (A)
                 (A) (A) (A) (A) (A) (A) (A) (A) (A) (A) (A) (A)
                 (A) (A) (A) (A) (A) (A) (A) (A) (A) (A) (A) (A)
                 (A) (A) (A) (A) (A) (A) (A) (A) (A) (A) (A) (A)
                 (A) (A) (A) (A) (A) (A) (A) (A) (A) (A) (A) (A)
                 (A) (A) (A) (A) (A) (A) (A) (A) (A) (A) (A) (A)
                 (A) (A) (A) (A) (A) (A) (A) (A) (A) (A) (A) (A)
                 (A) (A) (A) (A) (A) (A) (A) (A) (A) (A) (A) (A)
                 (A) (A) (A) (A) (A) (A) (A) (A) (A) (A) (A) (A)
                 (A) (A) (A) (A) (A) (A) (A) (A) (A) (A) (A) (A)
                 (A) (A) (A) (A) (A) (A) (A) (A) (A) (A) (A) (A)
                 (A) (A) (A) (A) (A) (A)
 The electronic state is 1-A.
 Alpha  occ. eigenvalues --   -1.87120  -1.83056  -1.80647  -1.72403  -1.71208
 Alpha  occ. eigenvalues --   -1.70089  -1.65810  -1.61363  -1.58057  -1.56887
 Alpha  occ. eigenvalues --   -1.55935  -1.50591  -1.48257  -1.47651  -1.46078
 Alpha  occ. eigenvalues --   -1.44780  -1.42111  -1.40676  -1.38365  -1.37249
 Alpha  occ. eigenvalues --   -1.35358  -1.32145  -1.31883  -1.30086  -1.28709
 Alpha  occ. eigenvalues --   -1.27819  -1.27439  -1.23260  -1.20472  -1.18460
 Alpha  occ. eigenvalues --   -1.16501  -1.14932  -1.14538  -1.14076  -1.13813
 Alpha  occ. eigenvalues --   -1.12026  -1.09940  -1.09289  -1.07284  -1.04884
 Alpha  occ. eigenvalues --   -1.02810  -1.02373  -0.99262  -0.98263  -0.95982
 Alpha  occ. eigenvalues --   -0.95372  -0.94166  -0.93662  -0.92788  -0.92418
 Alpha  occ. eigenvalues --   -0.91652  -0.90692  -0.88884  -0.88136  -0.86289
 Alpha  occ. eigenvalues --   -0.86188  -0.83577  -0.83089  -0.81891  -0.81691
 Alpha  occ. eigenvalues --   -0.79809  -0.79110  -0.77542  -0.77211  -0.77013
 Alpha  occ. eigenvalues --   -0.76855  -0.75931  -0.75609  -0.75440  -0.73931
 Alpha  occ. eigenvalues --   -0.73575  -0.72261  -0.71949  -0.71233  -0.70319
 Alpha  occ. eigenvalues --   -0.69606  -0.69382  -0.68678  -0.68211  -0.67727
 Alpha  occ. eigenvalues --   -0.66902  -0.66554  -0.65896  -0.65817  -0.65482
 Alpha  occ. eigenvalues --   -0.64660  -0.64226  -0.64031  -0.63592  -0.63368
 Alpha  occ. eigenvalues --   -0.63078  -0.62249  -0.61857  -0.61636  -0.61550
 Alpha  occ. eigenvalues --   -0.61178  -0.61137  -0.60743  -0.60379  -0.60053
 Alpha  occ. eigenvalues --   -0.59657  -0.59283  -0.58882  -0.58636  -0.58228
 Alpha  occ. eigenvalues --   -0.57624  -0.57572  -0.56919  -0.56899  -0.56344
 Alpha  occ. eigenvalues --   -0.56216  -0.56143  -0.55428  -0.55272  -0.54982
 Alpha  occ. eigenvalues --   -0.54309  -0.54265  -0.54132  -0.53749  -0.53326
 Alpha  occ. eigenvalues --   -0.53043  -0.52932  -0.52754  -0.52291  -0.52135
 Alpha  occ. eigenvalues --   -0.51585  -0.51212  -0.51171  -0.50901  -0.50647
 Alpha  occ. eigenvalues --   -0.50602  -0.50457  -0.50177  -0.49606  -0.49311
 Alpha  occ. eigenvalues --   -0.48977  -0.48619  -0.48364  -0.48254  -0.47929
 Alpha  occ. eigenvalues --   -0.47357  -0.47234  -0.47130  -0.46570  -0.46474
 Alpha  occ. eigenvalues --   -0.46246  -0.46163  -0.45894  -0.45690  -0.45506
 Alpha  occ. eigenvalues --   -0.45163  -0.44863  -0.44486  -0.44329  -0.43980
 Alpha  occ. eigenvalues --   -0.43867  -0.43424  -0.42895  -0.42471  -0.42067
 Alpha  occ. eigenvalues --   -0.41773  -0.41493  -0.41109  -0.39478  -0.38940
 Alpha  occ. eigenvalues --   -0.38558  -0.37820  -0.35684  -0.35427  -0.35227
 Alpha  occ. eigenvalues --   -0.34295  -0.33168  -0.32565  -0.32435  -0.26969
 Alpha  occ. eigenvalues --   -0.22115
 Alpha virt. eigenvalues --   -0.08856  -0.02684  -0.00913   0.00072   0.01197
 Alpha virt. eigenvalues --    0.02050   0.02125   0.02588   0.04296   0.04517
 Alpha virt. eigenvalues --    0.05852   0.06673   0.06915   0.07208   0.07708
 Alpha virt. eigenvalues --    0.08102   0.08325   0.08479   0.08840   0.09132
 Alpha virt. eigenvalues --    0.09637   0.09742   0.09922   0.09976   0.10476
 Alpha virt. eigenvalues --    0.10562   0.11105   0.11370   0.11679   0.12000
 Alpha virt. eigenvalues --    0.12256   0.12368   0.12828   0.12968   0.13246
 Alpha virt. eigenvalues --    0.13393   0.13697   0.14024   0.14181   0.14300
 Alpha virt. eigenvalues --    0.14481   0.15149   0.15636   0.15652   0.15832
 Alpha virt. eigenvalues --    0.15863   0.16124   0.16145   0.16167   0.16996
 Alpha virt. eigenvalues --    0.17118   0.17322   0.17435   0.17857   0.18052
 Alpha virt. eigenvalues --    0.18429   0.18558   0.18834   0.19142   0.19402
 Alpha virt. eigenvalues --    0.19653   0.19720   0.20235   0.20242   0.20619
 Alpha virt. eigenvalues --    0.21112   0.22632   0.22687   0.22802   0.23085
 Alpha virt. eigenvalues --    0.23383   0.23904   0.23975   0.24158   0.24188
 Alpha virt. eigenvalues --    0.24248   0.24258   0.24436   0.24539   0.24633
 Alpha virt. eigenvalues --    0.24771   0.24776   0.24803   0.24975   0.25021
 Alpha virt. eigenvalues --    0.25150   0.25241   0.25291   0.25393   0.25446
 Alpha virt. eigenvalues --    0.25580   0.25678   0.25686   0.25726   0.25758
 Alpha virt. eigenvalues --    0.25771   0.25775   0.25868   0.25927   0.25989
 Alpha virt. eigenvalues --    0.26336   0.26502   0.26512   0.26678   0.26751
 Alpha virt. eigenvalues --    0.26751   0.26814   0.26847   0.26935   0.27025
 Alpha virt. eigenvalues --    0.27142   0.27229   0.27260   0.27414   0.27566
 Alpha virt. eigenvalues --    0.27907   0.28002   0.28560   0.28754   0.29908
 Alpha virt. eigenvalues --    0.30101   0.30122   0.30395   0.30941   0.31326
 Alpha virt. eigenvalues --    0.31685   0.32239   0.33013   0.33403   0.33784
 Alpha virt. eigenvalues --    0.34363   0.35207   0.35731   0.36175   0.36294
 Alpha virt. eigenvalues --    0.36372   0.36572   0.37048   0.37086   0.37202
 Alpha virt. eigenvalues --    0.39125   0.39326   0.39799   0.39962   0.40195
 Alpha virt. eigenvalues --    0.40487   0.40735   0.41258   0.41348   0.41905
 Alpha virt. eigenvalues --    0.42576   0.43667   0.44466   0.45585   0.46317
 Alpha virt. eigenvalues --    0.46710   0.47261   0.47535   0.50748   0.52723
 Alpha virt. eigenvalues --    0.54312   0.56191
          Condensed to atoms (all electrons):
 Mulliken charges:
               1
     1  Mg   0.445292
     2  C   -0.033098
     3  C   -0.065332
     4  C   -0.093690
     5  C   -0.103769
     6  N   -0.281378
     7  C    0.115135
     8  C    0.005673
     9  C    0.007432
    10  C    0.110893
    11  C   -0.053328
    12  C   -0.019306
    13  C    0.001072
    14  C    0.460495
    15  O   -0.494122
    16  O   -0.277386
    17  N   -0.309798
    18  C    0.100610
    19  C    0.035214
    20  C   -0.068901
    21  C    0.125112
    22  C   -0.040719
    23  C    0.328415
    24  O   -0.538629
    25  C   -0.023497
    26  N   -0.263386
    27  C    0.121130
    28  C   -0.002285
    29  C   -0.001129
    30  C    0.157568
    31  C   -0.053547
    32  C   -0.030716
    33  C   -0.060967
    34  N   -0.312131
    35  C    0.122895
    36  C    0.014686
    37  C   -0.027170
    38  C    0.099551
    39  C   -0.038308
    40  C    0.335148
    41  O   -0.512129
    42  C    0.054473
    43  C    0.489395
    44  O   -0.542850
    45  O   -0.266876
    46  C    0.066347
    47  C    0.105594
    48  C   -0.094888
    49  C    0.002305
    50  C   -0.042896
    51  C   -0.022826
    52  C   -0.020393
    53  C   -0.038943
    54  C   -0.018826
    55  C   -0.051116
    56  C   -0.029914
    57  C   -0.048347
    58  C   -0.044380
    59  C   -0.009663
    60  C   -0.067168
    61  C   -0.028541
    62  C   -0.044950
    63  C   -0.043463
    64  C   -0.019318
    65  C   -0.055230
    66  C   -0.054824
    67  H    0.036774
    68  H    0.028123
    69  H    0.020406
    70  H    0.037473
    71  H    0.024935
    72  H    0.024687
    73  H    0.035097
    74  H    0.020977
    75  H    0.047674
    76  H    0.023686
    77  H    0.027152
    78  H    0.042593
    79  H    0.031406
    80  H    0.036665
    81  H    0.020885
    82  H    0.050503
    83  H    0.028012
    84  H    0.042250
    85  H    0.036149
    86  H    0.033220
    87  H    0.027976
    88  H    0.030960
    89  H    0.012741
    90  H    0.029840
    91  H    0.017250
    92  H    0.023813
    93  H    0.013324
    94  H    0.016041
    95  H    0.038690
    96  H    0.018858
    97  H    0.037967
    98  H    0.062736
    99  H    0.034742
   100  H    0.033890
   101  H    0.064807
   102  H    0.055986
   103  H    0.041903
   104  H    0.021343
   105  H    0.024473
   106  H    0.030116
   107  H    0.033805
   108  H    0.015628
   109  H    0.018555
   110  H    0.027376
   111  H    0.012821
   112  H    0.016638
   113  H    0.012520
   114  H    0.007659
   115  H    0.018283
   116  H    0.018495
   117  H    0.024982
   118  H    0.024578
   119  H    0.026189
   120  H    0.013733
   121  H    0.029756
   122  H    0.018866
   123  H    0.018693
   124  H    0.024823
   125  H    0.015233
   126  H    0.013148
   127  H    0.022605
   128  H    0.030005
   129  H    0.024087
   130  H    0.000214
   131  H    0.026109
   132  H    0.031397
   133  H    0.023745
   134  H    0.019599
   135  H    0.014980
   136  H    0.009530
   137  H    0.018122
   138  H    0.008274
   139  H    0.022576
   140  H    0.016553
 Sum of Mulliken charges =  -0.00000
 Mulliken charges with hydrogens summed into heavy atoms:
               1
     1  Mg   0.445292
     2  C   -0.033098
     3  C   -0.028558
     4  C   -0.065567
     5  C   -0.083363
     6  N   -0.281378
     7  C    0.115135
     8  C    0.043146
     9  C    0.032367
    10  C    0.110893
    11  C    0.027433
    12  C    0.052054
    13  C    0.070817
    14  C    0.460495
    15  O   -0.494122
    16  O   -0.277386
    17  N   -0.309798
    18  C    0.100610
    19  C    0.035214
    20  C   -0.068901
    21  C    0.125112
    22  C    0.048237
    23  C    0.328415
    24  O   -0.538629
    25  C    0.097268
    26  N   -0.263386
    27  C    0.121130
    28  C    0.033864
    29  C    0.032091
    30  C    0.157568
    31  C    0.018130
    32  C    0.016375
    33  C   -0.007789
    34  N   -0.312131
    35  C    0.122895
    36  C    0.014686
    37  C   -0.027170
    38  C    0.099551
    39  C    0.057207
    40  C    0.335148
    41  O   -0.512129
    42  C    0.117209
    43  C    0.489395
    44  O   -0.542850
    45  O   -0.266876
    46  C    0.199785
    47  C    0.203483
    48  C   -0.073546
    49  C    0.002305
    50  C    0.045498
    51  C    0.011357
    52  C    0.019804
    53  C   -0.009785
    54  C   -0.011168
    55  C    0.010644
    56  C    0.020853
    57  C   -0.004858
    58  C   -0.006822
    59  C    0.015160
    60  C   -0.016182
    61  C    0.025552
    62  C   -0.018626
    63  C    0.011680
    64  C    0.000282
    65  C   -0.012599
    66  C   -0.007421
 Charge=             -0.0000 electrons
 Dipole moment (field-independent basis, Debye):
    X=              3.4564    Y=              6.8267    Z=              2.8636  Tot=              8.1701
 N-N= 4.287440156785D+03 E-N= 0.000000000000D+00  KE=-9.248492194259D+03
 Leave Link  601 at Wed May  4 00:04:08 2022, MaxMem=  6710886400 cpu:               0.8 elap:               0.1
 (Enter /sw/apps/gaussian-16.0/g16/l9999.exe)
 1\1\GINC-BP1-COMPUTE121\SP\RZINDO CIS\STO-3G\C55H74Mg1N4O6\OF15641\04-
 May-2022\0\\#p ZINDO=(nstates=5)\\step_1101_chromophore_14 ZINDO\\0,1\
 Mg,0,46.624,45.688,44.15\C,0,43.295,44.469,43.778\C,0,47.687,42.373,43
 .834\C,0,49.71,46.871,43.903\C,0,45.357,48.874,44.009\N,0,45.605,43.68
 4,43.692\C,0,44.256,43.433,43.681\C,0,43.97,41.888,43.616\C,0,45.288,4
 1.314,44.048\C,0,46.272,42.505,43.837\C,0,45.375,40.764,45.516\C,0,43.
 32,41.366,42.24\C,0,43.391,42.329,40.995\C,0,43.04,41.829,39.552\O,0,4
 2.045,41.207,39.285\O,0,43.887,42.334,38.545\N,0,48.438,44.746,43.795\
 C,0,48.63,43.411,43.757\C,0,50.046,43.195,43.557\C,0,50.722,44.478,43.
 663\C,0,49.606,45.434,43.793\C,0,50.557,41.787,43.274\C,0,52.243,44.71
 7,43.532\O,0,53.026,43.74,43.589\C,0,52.824,46.067,43.292\N,0,47.388,4
 7.631,43.658\C,0,48.695,47.808,43.997\C,0,49.047,49.295,44.355\C,0,47.
 655,49.976,44.105\C,0,46.747,48.725,43.929\C,0,49.548,49.494,45.826\C,
 0,47.595,50.793,42.743\C,0,48.632,51.902,42.538\N,0,44.713,46.566,43.9
 65\C,0,44.356,47.85,43.985\C,0,42.89,47.978,43.834\C,0,42.478,46.676,4
 3.798\C,0,43.592,45.82,43.907\C,0,41.993,49.276,43.572\C,0,41.298,45.8
 91,43.754\O,0,40.102,46.117,43.71\C,0,41.795,44.402,43.719\C,0,41.277,
 43.663,44.884\O,0,40.892,42.483,44.862\O,0,41.219,44.466,46.009\C,0,40
 .483,43.85,47.214\C,0,43.33,42.052,37.174\C,0,44.308,42.651,36.127\C,0
 ,45.372,42.123,35.458\C,0,45.965,40.763,35.678\C,0,46.281,43.04,34.594
 \C,0,46.266,42.828,33.087\C,0,45.666,44.071,32.447\C,0,45.724,44.261,3
 0.868\C,0,46.267,45.608,30.427\C,0,44.433,43.717,30.16\C,0,44.901,43.2
 86,28.745\C,0,44.041,43.976,27.585\C,0,44.876,44.748,26.546\C,0,44.143
 ,46.058,26.131\C,0,45.191,43.975,25.258\C,0,46.626,43.304,25.456\C,0,4
 7.615,43.458,24.287\C,0,47.975,44.992,24.14\C,0,47.963,45.416,22.684\C
 ,0,49.348,45.295,24.691\H,0,48.022,41.348,44.004\H,0,50.696,47.337,43.
 959\H,0,44.963,49.888,44.106\H,0,43.233,41.647,44.381\H,0,45.597,40.46
 8,43.433\H,0,45.508,39.683,45.479\H,0,44.5,41.144,46.044\H,0,46.312,41
 .086,45.971\H,0,42.301,41.021,42.414\H,0,43.997,40.554,41.975\H,0,44.3
 73,42.803,40.989\H,0,42.828,43.243,41.184\H,0,51.278,41.548,44.056\H,0
 ,51.109,41.628,42.347\H,0,49.841,40.966,43.305\H,0,52.919,46.544,44.26
 8\H,0,52.13,46.571,42.619\H,0,53.761,45.976,42.743\H,0,49.749,49.717,4
 3.636\H,0,47.311,50.572,44.95\H,0,48.702,49.374,46.502\H,0,50.193,50.3
 65,45.946\H,0,50.162,48.647,46.133\H,0,46.642,51.227,42.438\H,0,47.87,
 50.076,41.97\H,0,49.356,51.721,41.743\H,0,49.263,52.146,43.392\H,0,48.
 045,52.806,42.38\H,0,41.511,49.316,42.595\H,0,42.625,50.163,43.62\H,0,
 41.207,49.331,44.325\H,0,41.43,43.812,42.878\H,0,39.483,44.273,47.122\
 H,0,40.793,44.33,48.142\H,0,40.382,42.771,47.331\H,0,42.312,42.413,37.
 026\H,0,43.34,40.964,37.11\H,0,44.012,43.67,35.877\H,0,47.007,40.934,3
 5.948\H,0,46.071,40.338,34.68\H,0,45.469,40.158,36.437\H,0,47.314,42.9
 69,34.932\H,0,46.119,44.082,34.87\H,0,45.788,41.886,32.817\H,0,47.295,
 42.791,32.729\H,0,46.113,44.956,32.898\H,0,44.632,44.068,32.791\H,0,46
 .481,43.556,30.524\H,0,45.4,46.078,29.964\H,0,47.028,45.536,29.651\H,0
 ,46.685,46.191,31.248\H,0,43.711,44.533,30.198\H,0,43.97,42.809,30.545
 \H,0,44.78,42.203,28.739\H,0,45.922,43.48,28.416\H,0,43.354,44.664,28.
 078\H,0,43.456,43.24,27.035\H,0,45.816,45.006,27.035\H,0,43.899,46.151
 ,25.072\H,0,44.916,46.811,26.286\H,0,43.208,46.281,26.645\H,0,45.211,4
 4.617,24.377\H,0,44.474,43.163,25.135\H,0,46.54,42.224,25.579\H,0,47.1
 44,43.509,26.393\H,0,47.252,43.274,23.276\H,0,48.55,42.959,24.543\H,0,
 47.241,45.613,24.654\H,0,48.339,46.435,22.585\H,0,46.987,45.401,22.2\H
 ,0,48.569,44.667,22.174\H,0,49.277,46.245,25.221\H,0,50.066,45.411,23.
 879\H,0,49.686,44.583,25.444\\Version=ES64L-G16RevA.03\State=1-A\HF=-4
 74.0451526\RMSD=7.495e-09\PG=C01 [X(C55H74Mg1N4O6)]\\@


 SCIENCE AND PEACE WILL TRIUMPH OVER IGNORANCE AND WAR

                          -- PASTEUR
 Job cpu time:       0 days  0 hours  2 minutes 12.9 seconds.
 Elapsed time:       0 days  0 hours  0 minutes  5.8 seconds.
 File lengths (MBytes):  RWF=   1261 Int=      0 D2E=      0 Chk=     38 Scr=      1
 Normal termination of Gaussian 16 at Wed May  4 00:04:08 2022.
