 Entering Gaussian System, Link 0=g16
 Initial command:
 /sw/apps/gaussian-16.0/g16/l1.exe "/tmp/Gau-55754.inp" -scrdir="/tmp/"
 Entering Link 1 = /sw/apps/gaussian-16.0/g16/l1.exe PID=     55755.
  
 Copyright (c) 1988,1990,1992,1993,1995,1998,2003,2009,2016,
            Gaussian, Inc.  All Rights Reserved.
  
 This is part of the Gaussian(R) 16 program.  It is based on
 the Gaussian(R) 09 system (copyright 2009, Gaussian, Inc.),
 the Gaussian(R) 03 system (copyright 2003, Gaussian, Inc.),
 the Gaussian(R) 98 system (copyright 1998, Gaussian, Inc.),
 the Gaussian(R) 94 system (copyright 1995, Gaussian, Inc.),
 the Gaussian 92(TM) system (copyright 1992, Gaussian, Inc.),
 the Gaussian 90(TM) system (copyright 1990, Gaussian, Inc.),
 the Gaussian 88(TM) system (copyright 1988, Gaussian, Inc.),
 the Gaussian 86(TM) system (copyright 1986, Carnegie Mellon
 University), and the Gaussian 82(TM) system (copyright 1983,
 Carnegie Mellon University). Gaussian is a federally registered
 trademark of Gaussian, Inc.
  
 This software contains proprietary and confidential information,
 including trade secrets, belonging to Gaussian, Inc.
  
 This software is provided under written license and may be
 used, copied, transmitted, or stored only in accord with that
 written license.
  
 The following legend is applicable only to US Government
 contracts under FAR:
  
                    RESTRICTED RIGHTS LEGEND
  
 Use, reproduction and disclosure by the US Government is
 subject to restrictions as set forth in subparagraphs (a)
 and (c) of the Commercial Computer Software - Restricted
 Rights clause in FAR 52.227-19.
  
 Gaussian, Inc.
 340 Quinnipiac St., Bldg. 40, Wallingford CT 06492
  
  
 ---------------------------------------------------------------
 Warning -- This program may not be used in any manner that
 competes with the business of Gaussian, Inc. or will provide
 assistance to any competitor of Gaussian, Inc.  The licensee
 of this program is prohibited from giving any competitor of
 Gaussian, Inc. access to this program.  By using this program,
 the user acknowledges that Gaussian, Inc. is engaged in the
 business of creating and licensing software in the field of
 computational chemistry and represents and warrants to the
 licensee that it is not a competitor of Gaussian, Inc. and that
 it will not use this program in any manner prohibited above.
 ---------------------------------------------------------------
  

 Cite this work as:
 Gaussian 16, Revision A.03,
 M. J. Frisch, G. W. Trucks, H. B. Schlegel, G. E. Scuseria, 
 M. A. Robb, J. R. Cheeseman, G. Scalmani, V. Barone, 
 G. A. Petersson, H. Nakatsuji, X. Li, M. Caricato, A. V. Marenich, 
 J. Bloino, B. G. Janesko, R. Gomperts, B. Mennucci, H. P. Hratchian, 
 J. V. Ortiz, A. F. Izmaylov, J. L. Sonnenberg, D. Williams-Young, 
 F. Ding, F. Lipparini, F. Egidi, J. Goings, B. Peng, A. Petrone, 
 T. Henderson, D. Ranasinghe, V. G. Zakrzewski, J. Gao, N. Rega, 
 G. Zheng, W. Liang, M. Hada, M. Ehara, K. Toyota, R. Fukuda, 
 J. Hasegawa, M. Ishida, T. Nakajima, Y. Honda, O. Kitao, H. Nakai, 
 T. Vreven, K. Throssell, J. A. Montgomery, Jr., J. E. Peralta, 
 F. Ogliaro, M. J. Bearpark, J. J. Heyd, E. N. Brothers, K. N. Kudin, 
 V. N. Staroverov, T. A. Keith, R. Kobayashi, J. Normand, 
 K. Raghavachari, A. P. Rendell, J. C. Burant, S. S. Iyengar, 
 J. Tomasi, M. Cossi, J. M. Millam, M. Klene, C. Adamo, R. Cammi, 
 J. W. Ochterski, R. L. Martin, K. Morokuma, O. Farkas, 
 J. B. Foresman, and D. J. Fox, Gaussian, Inc., Wallingford CT, 2016.
 
 ******************************************
 Gaussian 16:  ES64L-G16RevA.03 25-Dec-2016
                 4-May-2022 
 ******************************************
 %nproc=24
 Will use up to   24 processors via shared memory.
 %mem=50gb
 --------------------
 #p ZINDO=(nstates=5)
 --------------------
 1/38=1,172=1/1;
 2/12=2,17=6,18=5,40=1/2;
 3/5=2,25=1,41=400000/1,2,3,8;
 4/5=3,35=1/1;
 5/5=2,35=1,38=5/2;
 8/6=1,108=5/1;
 9/41=5,42=1,49=10/14;
 6/7=2,8=2,9=2,10=2/1;
 99/5=1,9=1/99;
 Leave Link    1 at Wed May  4 02:18:16 2022, MaxMem=  6710886400 cpu:               1.1 elap:               0.1
 (Enter /sw/apps/gaussian-16.0/g16/l101.exe)
 -----------------------------
 step_1201_chromophore_6 ZINDO
 -----------------------------
 Symbolic Z-matrix:
 Charge =  0 Multiplicity = 1
 Mg                    16.454   -2.838     27.046 
 C                     15.661   -0.437     29.499 
 C                     18.368   -4.482     29.421 
 C                     17.629   -4.754     24.573 
 C                     14.909   -0.664     24.546 
 N                     17.222   -2.207     29.146 
 C                     16.578   -1.374     30.006 
 C                     17.081   -1.482     31.54 
 C                     18.073   -2.777     31.379 
 C                     17.938   -3.172     29.836 
 C                     19.524   -2.54      31.744 
 C                     15.97    -1.629     32.575 
 C                     15.811   -0.665     33.651 
 C                     17.122   -0.078     34.25 
 O                     17.341    1.108     34.436 
 O                     18.012   -1.077     34.568 
 N                     17.64    -4.555     27.089 
 C                     18.303   -5.141     28.139 
 C                     18.889   -6.352     27.664 
 C                     18.73    -6.383     26.26 
 C                     17.946   -5.243     25.882 
 C                     19.823   -7.068     28.501 
 C                     19.324   -7.385     25.301 
 O                     19.077   -7.373     24.068 
 C                     20.141   -8.701     25.86 
 N                     16.217   -2.761     24.917 
 C                     16.951   -3.654     24.146 
 C                     16.901   -3.303     22.622 
 C                     15.787   -2.174     22.648 
 C                     15.636   -1.833     24.104 
 C                     18.263   -2.787     22.026 
 C                     14.533   -2.414     21.837 
 C                     13.261   -2.545     22.595 
 N                     15.516   -0.978     26.95 
 C                     14.838   -0.27      25.956 
 C                     14.09     0.898     26.609 
 C                     14.404    0.848     27.971 
 C                     15.306   -0.306     28.134 
 C                     13.16     1.835     25.958 
 C                     14.117    1.581     29.252 
 O                     13.437    2.552     29.496 
 C                     14.876    0.652     30.226 
 C                     15.905    1.611     30.915 
 O                     16.995    1.855     30.409 
 O                     15.5      2.234     32.069 
 C                     16.436    3.341     32.518 
 C                     19.232   -0.68      35.339 
 C                     19.097   -1.422     36.651 
 C                     20.123   -1.647     37.504 
 C                     21.419   -0.907     37.383 
 C                     20.001   -2.469     38.771 
 C                     19.348   -3.886     38.542 
 C                     20.222   -5.085     38.767 
 C                     19.77    -6.035     39.779 
 C                     20.094   -5.453     41.169 
 C                     20.452   -7.493     39.597 
 C                     22.011   -7.537     39.596 
 C                     22.549   -8.735     40.41 
 C                     24.014   -9.107     40.115 
 C                     24.106   -10.264    39.072 
 C                     24.821   -9.487     41.39 
 C                     26.327   -9.239     41.317 
 C                     26.914   -9.021     42.713 
 C                     28.062   -10.038    43.125 
 C                     29.482   -9.622     42.748 
 C                     27.919   -10.223    44.621 
 H                     18.916   -5.06      30.168 
 H                     18.011   -5.193     23.649 
 H                     14.391   -0.02      23.833 
 H                     17.583   -0.545     31.782 
 H                     17.862   -3.607     32.052 
 H                     19.857   -3.203     32.543 
 H                     19.633   -1.496     32.04 
 H                     20.171   -2.717     30.885 
 H                     15.929   -2.599     33.072 
 H                     15.081   -1.587     31.945 
 H                     15.511   -1.29      34.492 
 H                     15.103    0.14      33.454 
 H                     20.839   -7.007     28.112 
 H                     19.641   -8.139     28.59 
 H                     19.785   -6.745     29.541 
 H                     19.533   -9.365     26.475 
 H                     21.045   -8.301     26.318 
 H                     20.636   -9.281     25.081 
 H                     16.567   -4.143     22.012 
 H                     16.177   -1.255     22.209 
 H                     19.108   -3.213     22.567 
 H                     18.416   -1.71      22.101 
 H                     18.355   -3.078     20.98 
 H                     14.749   -3.25      21.172 
 H                     14.429   -1.48      21.284 
 H                     13.407   -3.04      23.555 
 H                     12.601   -3.198     22.023 
 H                     12.778   -1.583     22.765 
 H                     12.746    1.195     25.179 
 H                     13.634    2.72      25.532 
 H                     12.522    2.119     26.795 
 H                     14.155    0.33      30.978 
 H                     16.293    4.29      32.002 
 H                     17.5      3.104     32.516 
 H                     16.241    3.547     33.571 
 H                     19.354    0.378     35.571 
 H                     20.137   -1.08      34.881 
 H                     18.12    -1.807     36.943 
 H                     21.178   -0.03      36.781 
 H                     22.189   -1.471     36.858 
 H                     21.831   -0.599     38.344 
 H                     19.227   -1.951     39.337 
 H                     20.898   -2.599     39.376 
 H                     19.101   -3.938     37.481 
 H                     18.371   -3.925     39.022 
 H                     21.232   -4.835     39.093 
 H                     20.39    -5.564     37.803 
 H                     18.689   -6.123     39.673 
 H                     20.857   -6.094     41.611 
 H                     19.221   -5.456     41.822 
 H                     20.521   -4.452     41.102 
 H                     20.201   -7.828     38.59 
 H                     19.999   -8.063     40.408 
 H                     22.444   -6.658     40.073 
 H                     22.343   -7.706     38.571 
 H                     21.807   -9.52      40.264 
 H                     22.454   -8.471     41.464 
 H                     24.519   -8.329     39.542 
 H                     24.925   -10.94     39.314 
 H                     24.369   -9.856     38.096 
 H                     23.152   -10.789    39.017 
 H                     24.546   -10.51     41.65 
 H                     24.463   -8.875     42.218 
 H                     26.588   -8.437     40.626 
 H                     26.604   -10.234    40.966 
 H                     26.199   -8.894     43.526 
 H                     27.371   -8.055     42.497 
 H                     27.961   -11.007    42.638 
 H                     29.343   -8.735     42.131 
 H                     30.049   -10.326    42.138 
 H                     30.085   -9.289     43.593 
 H                     28.289   -11.21     44.895 
 H                     26.935   -10.031    45.048 
 H                     28.556   -9.49      45.117 
 
 ITRead=  0  0  0  0  0  0  0  0  0  0  0  0  0  0  0  0  0  0  0  0
 ITRead=  0  0  0  0  0  0  0  0  0  0  0  0  0  0  0  0  0  0  0  0
 ITRead=  0  0  0  0  0  0  0  0  0  0  0  0  0  0  0  0  0  0  0  0
 ITRead=  0  0  0  0  0  0  0  0  0  0  0  0  0  0  0  0  0  0  0  0
 ITRead=  0  0  0  0  0  0  0  0  0  0  0  0  0  0  0  0  0  0  0  0
 ITRead=  0  0  0  0  0  0  0  0  0  0  0  0  0  0  0  0  0  0  0  0
 ITRead=  0  0  0  0  0  0  0  0  0  0  0  0  0  0  0  0  0  0  0  0
 MicOpt= -1 -1 -1 -1 -1 -1 -1 -1 -1 -1 -1 -1 -1 -1 -1 -1 -1 -1 -1 -1
 MicOpt= -1 -1 -1 -1 -1 -1 -1 -1 -1 -1 -1 -1 -1 -1 -1 -1 -1 -1 -1 -1
 MicOpt= -1 -1 -1 -1 -1 -1 -1 -1 -1 -1 -1 -1 -1 -1 -1 -1 -1 -1 -1 -1
 MicOpt= -1 -1 -1 -1 -1 -1 -1 -1 -1 -1 -1 -1 -1 -1 -1 -1 -1 -1 -1 -1
 MicOpt= -1 -1 -1 -1 -1 -1 -1 -1 -1 -1 -1 -1 -1 -1 -1 -1 -1 -1 -1 -1
 MicOpt= -1 -1 -1 -1 -1 -1 -1 -1 -1 -1 -1 -1 -1 -1 -1 -1 -1 -1 -1 -1
 MicOpt= -1 -1 -1 -1 -1 -1 -1 -1 -1 -1 -1 -1 -1 -1 -1 -1 -1 -1 -1 -1
 NAtoms=    140 NQM=      140 NQMF=       0 NMMI=      0 NMMIF=      0
                NMic=       0 NMicF=      0.
                    Isotopes and Nuclear Properties:
 (Nuclear quadrupole moments (NQMom) in fm**2, nuclear magnetic moments (NMagM)
  in nuclear magnetons)

  Atom         1           2           3           4           5           6           7           8           9          10
 IAtWgt=          24          12          12          12          12          14          12          12          12          12
 AtmWgt=  23.9850450  12.0000000  12.0000000  12.0000000  12.0000000  14.0030740  12.0000000  12.0000000  12.0000000  12.0000000
 NucSpn=           0           0           0           0           0           2           0           0           0           0
 AtZEff=  -0.0000000  -0.0000000  -0.0000000  -0.0000000  -0.0000000  -0.0000000  -0.0000000  -0.0000000  -0.0000000  -0.0000000
 NQMom=    0.0000000   0.0000000   0.0000000   0.0000000   0.0000000   2.0440000   0.0000000   0.0000000   0.0000000   0.0000000
 NMagM=    0.0000000   0.0000000   0.0000000   0.0000000   0.0000000   0.4037610   0.0000000   0.0000000   0.0000000   0.0000000
 AtZNuc=  12.0000000   6.0000000   6.0000000   6.0000000   6.0000000   7.0000000   6.0000000   6.0000000   6.0000000   6.0000000

  Atom        11          12          13          14          15          16          17          18          19          20
 IAtWgt=          12          12          12          12          16          16          14          12          12          12
 AtmWgt=  12.0000000  12.0000000  12.0000000  12.0000000  15.9949146  15.9949146  14.0030740  12.0000000  12.0000000  12.0000000
 NucSpn=           0           0           0           0           0           0           2           0           0           0
 AtZEff=  -0.0000000  -0.0000000  -0.0000000  -0.0000000  -0.0000000  -0.0000000  -0.0000000  -0.0000000  -0.0000000  -0.0000000
 NQMom=    0.0000000   0.0000000   0.0000000   0.0000000   0.0000000   0.0000000   2.0440000   0.0000000   0.0000000   0.0000000
 NMagM=    0.0000000   0.0000000   0.0000000   0.0000000   0.0000000   0.0000000   0.4037610   0.0000000   0.0000000   0.0000000
 AtZNuc=   6.0000000   6.0000000   6.0000000   6.0000000   8.0000000   8.0000000   7.0000000   6.0000000   6.0000000   6.0000000

  Atom        21          22          23          24          25          26          27          28          29          30
 IAtWgt=          12          12          12          16          12          14          12          12          12          12
 AtmWgt=  12.0000000  12.0000000  12.0000000  15.9949146  12.0000000  14.0030740  12.0000000  12.0000000  12.0000000  12.0000000
 NucSpn=           0           0           0           0           0           2           0           0           0           0
 AtZEff=  -0.0000000  -0.0000000  -0.0000000  -0.0000000  -0.0000000  -0.0000000  -0.0000000  -0.0000000  -0.0000000  -0.0000000
 NQMom=    0.0000000   0.0000000   0.0000000   0.0000000   0.0000000   2.0440000   0.0000000   0.0000000   0.0000000   0.0000000
 NMagM=    0.0000000   0.0000000   0.0000000   0.0000000   0.0000000   0.4037610   0.0000000   0.0000000   0.0000000   0.0000000
 AtZNuc=   6.0000000   6.0000000   6.0000000   8.0000000   6.0000000   7.0000000   6.0000000   6.0000000   6.0000000   6.0000000

  Atom        31          32          33          34          35          36          37          38          39          40
 IAtWgt=          12          12          12          14          12          12          12          12          12          12
 AtmWgt=  12.0000000  12.0000000  12.0000000  14.0030740  12.0000000  12.0000000  12.0000000  12.0000000  12.0000000  12.0000000
 NucSpn=           0           0           0           2           0           0           0           0           0           0
 AtZEff=  -0.0000000  -0.0000000  -0.0000000  -0.0000000  -0.0000000  -0.0000000  -0.0000000  -0.0000000  -0.0000000  -0.0000000
 NQMom=    0.0000000   0.0000000   0.0000000   2.0440000   0.0000000   0.0000000   0.0000000   0.0000000   0.0000000   0.0000000
 NMagM=    0.0000000   0.0000000   0.0000000   0.4037610   0.0000000   0.0000000   0.0000000   0.0000000   0.0000000   0.0000000
 AtZNuc=   6.0000000   6.0000000   6.0000000   7.0000000   6.0000000   6.0000000   6.0000000   6.0000000   6.0000000   6.0000000

  Atom        41          42          43          44          45          46          47          48          49          50
 IAtWgt=          16          12          12          16          16          12          12          12          12          12
 AtmWgt=  15.9949146  12.0000000  12.0000000  15.9949146  15.9949146  12.0000000  12.0000000  12.0000000  12.0000000  12.0000000
 NucSpn=           0           0           0           0           0           0           0           0           0           0
 AtZEff=  -0.0000000  -0.0000000  -0.0000000  -0.0000000  -0.0000000  -0.0000000  -0.0000000  -0.0000000  -0.0000000  -0.0000000
 NQMom=    0.0000000   0.0000000   0.0000000   0.0000000   0.0000000   0.0000000   0.0000000   0.0000000   0.0000000   0.0000000
 NMagM=    0.0000000   0.0000000   0.0000000   0.0000000   0.0000000   0.0000000   0.0000000   0.0000000   0.0000000   0.0000000
 AtZNuc=   8.0000000   6.0000000   6.0000000   8.0000000   8.0000000   6.0000000   6.0000000   6.0000000   6.0000000   6.0000000

  Atom        51          52          53          54          55          56          57          58          59          60
 IAtWgt=          12          12          12          12          12          12          12          12          12          12
 AtmWgt=  12.0000000  12.0000000  12.0000000  12.0000000  12.0000000  12.0000000  12.0000000  12.0000000  12.0000000  12.0000000
 NucSpn=           0           0           0           0           0           0           0           0           0           0
 AtZEff=  -0.0000000  -0.0000000  -0.0000000  -0.0000000  -0.0000000  -0.0000000  -0.0000000  -0.0000000  -0.0000000  -0.0000000
 NQMom=    0.0000000   0.0000000   0.0000000   0.0000000   0.0000000   0.0000000   0.0000000   0.0000000   0.0000000   0.0000000
 NMagM=    0.0000000   0.0000000   0.0000000   0.0000000   0.0000000   0.0000000   0.0000000   0.0000000   0.0000000   0.0000000
 AtZNuc=   6.0000000   6.0000000   6.0000000   6.0000000   6.0000000   6.0000000   6.0000000   6.0000000   6.0000000   6.0000000

  Atom        61          62          63          64          65          66          67          68          69          70
 IAtWgt=          12          12          12          12          12          12           1           1           1           1
 AtmWgt=  12.0000000  12.0000000  12.0000000  12.0000000  12.0000000  12.0000000   1.0078250   1.0078250   1.0078250   1.0078250
 NucSpn=           0           0           0           0           0           0           1           1           1           1
 AtZEff=  -0.0000000  -0.0000000  -0.0000000  -0.0000000  -0.0000000  -0.0000000  -0.0000000  -0.0000000  -0.0000000  -0.0000000
 NQMom=    0.0000000   0.0000000   0.0000000   0.0000000   0.0000000   0.0000000   0.0000000   0.0000000   0.0000000   0.0000000
 NMagM=    0.0000000   0.0000000   0.0000000   0.0000000   0.0000000   0.0000000   2.7928460   2.7928460   2.7928460   2.7928460
 AtZNuc=   6.0000000   6.0000000   6.0000000   6.0000000   6.0000000   6.0000000   1.0000000   1.0000000   1.0000000   1.0000000

  Atom        71          72          73          74          75          76          77          78          79          80
 IAtWgt=           1           1           1           1           1           1           1           1           1           1
 AtmWgt=   1.0078250   1.0078250   1.0078250   1.0078250   1.0078250   1.0078250   1.0078250   1.0078250   1.0078250   1.0078250
 NucSpn=           1           1           1           1           1           1           1           1           1           1
 AtZEff=  -0.0000000  -0.0000000  -0.0000000  -0.0000000  -0.0000000  -0.0000000  -0.0000000  -0.0000000  -0.0000000  -0.0000000
 NQMom=    0.0000000   0.0000000   0.0000000   0.0000000   0.0000000   0.0000000   0.0000000   0.0000000   0.0000000   0.0000000
 NMagM=    2.7928460   2.7928460   2.7928460   2.7928460   2.7928460   2.7928460   2.7928460   2.7928460   2.7928460   2.7928460
 AtZNuc=   1.0000000   1.0000000   1.0000000   1.0000000   1.0000000   1.0000000   1.0000000   1.0000000   1.0000000   1.0000000

  Atom        81          82          83          84          85          86          87          88          89          90
 IAtWgt=           1           1           1           1           1           1           1           1           1           1
 AtmWgt=   1.0078250   1.0078250   1.0078250   1.0078250   1.0078250   1.0078250   1.0078250   1.0078250   1.0078250   1.0078250
 NucSpn=           1           1           1           1           1           1           1           1           1           1
 AtZEff=  -0.0000000  -0.0000000  -0.0000000  -0.0000000  -0.0000000  -0.0000000  -0.0000000  -0.0000000  -0.0000000  -0.0000000
 NQMom=    0.0000000   0.0000000   0.0000000   0.0000000   0.0000000   0.0000000   0.0000000   0.0000000   0.0000000   0.0000000
 NMagM=    2.7928460   2.7928460   2.7928460   2.7928460   2.7928460   2.7928460   2.7928460   2.7928460   2.7928460   2.7928460
 AtZNuc=   1.0000000   1.0000000   1.0000000   1.0000000   1.0000000   1.0000000   1.0000000   1.0000000   1.0000000   1.0000000

  Atom        91          92          93          94          95          96          97          98          99         100
 IAtWgt=           1           1           1           1           1           1           1           1           1           1
 AtmWgt=   1.0078250   1.0078250   1.0078250   1.0078250   1.0078250   1.0078250   1.0078250   1.0078250   1.0078250   1.0078250
 NucSpn=           1           1           1           1           1           1           1           1           1           1
 AtZEff=  -0.0000000  -0.0000000  -0.0000000  -0.0000000  -0.0000000  -0.0000000  -0.0000000  -0.0000000  -0.0000000  -0.0000000
 NQMom=    0.0000000   0.0000000   0.0000000   0.0000000   0.0000000   0.0000000   0.0000000   0.0000000   0.0000000   0.0000000
 NMagM=    2.7928460   2.7928460   2.7928460   2.7928460   2.7928460   2.7928460   2.7928460   2.7928460   2.7928460   2.7928460
 AtZNuc=   1.0000000   1.0000000   1.0000000   1.0000000   1.0000000   1.0000000   1.0000000   1.0000000   1.0000000   1.0000000

  Atom       101         102         103         104         105         106         107         108         109         110
 IAtWgt=           1           1           1           1           1           1           1           1           1           1
 AtmWgt=   1.0078250   1.0078250   1.0078250   1.0078250   1.0078250   1.0078250   1.0078250   1.0078250   1.0078250   1.0078250
 NucSpn=           1           1           1           1           1           1           1           1           1           1
 AtZEff=  -0.0000000  -0.0000000  -0.0000000  -0.0000000  -0.0000000  -0.0000000  -0.0000000  -0.0000000  -0.0000000  -0.0000000
 NQMom=    0.0000000   0.0000000   0.0000000   0.0000000   0.0000000   0.0000000   0.0000000   0.0000000   0.0000000   0.0000000
 NMagM=    2.7928460   2.7928460   2.7928460   2.7928460   2.7928460   2.7928460   2.7928460   2.7928460   2.7928460   2.7928460
 AtZNuc=   1.0000000   1.0000000   1.0000000   1.0000000   1.0000000   1.0000000   1.0000000   1.0000000   1.0000000   1.0000000

  Atom       111         112         113         114         115         116         117         118         119         120
 IAtWgt=           1           1           1           1           1           1           1           1           1           1
 AtmWgt=   1.0078250   1.0078250   1.0078250   1.0078250   1.0078250   1.0078250   1.0078250   1.0078250   1.0078250   1.0078250
 NucSpn=           1           1           1           1           1           1           1           1           1           1
 AtZEff=  -0.0000000  -0.0000000  -0.0000000  -0.0000000  -0.0000000  -0.0000000  -0.0000000  -0.0000000  -0.0000000  -0.0000000
 NQMom=    0.0000000   0.0000000   0.0000000   0.0000000   0.0000000   0.0000000   0.0000000   0.0000000   0.0000000   0.0000000
 NMagM=    2.7928460   2.7928460   2.7928460   2.7928460   2.7928460   2.7928460   2.7928460   2.7928460   2.7928460   2.7928460
 AtZNuc=   1.0000000   1.0000000   1.0000000   1.0000000   1.0000000   1.0000000   1.0000000   1.0000000   1.0000000   1.0000000

  Atom       121         122         123         124         125         126         127         128         129         130
 IAtWgt=           1           1           1           1           1           1           1           1           1           1
 AtmWgt=   1.0078250   1.0078250   1.0078250   1.0078250   1.0078250   1.0078250   1.0078250   1.0078250   1.0078250   1.0078250
 NucSpn=           1           1           1           1           1           1           1           1           1           1
 AtZEff=  -0.0000000  -0.0000000  -0.0000000  -0.0000000  -0.0000000  -0.0000000  -0.0000000  -0.0000000  -0.0000000  -0.0000000
 NQMom=    0.0000000   0.0000000   0.0000000   0.0000000   0.0000000   0.0000000   0.0000000   0.0000000   0.0000000   0.0000000
 NMagM=    2.7928460   2.7928460   2.7928460   2.7928460   2.7928460   2.7928460   2.7928460   2.7928460   2.7928460   2.7928460
 AtZNuc=   1.0000000   1.0000000   1.0000000   1.0000000   1.0000000   1.0000000   1.0000000   1.0000000   1.0000000   1.0000000

  Atom       131         132         133         134         135         136         137         138         139         140
 IAtWgt=           1           1           1           1           1           1           1           1           1           1
 AtmWgt=   1.0078250   1.0078250   1.0078250   1.0078250   1.0078250   1.0078250   1.0078250   1.0078250   1.0078250   1.0078250
 NucSpn=           1           1           1           1           1           1           1           1           1           1
 AtZEff=  -0.0000000  -0.0000000  -0.0000000  -0.0000000  -0.0000000  -0.0000000  -0.0000000  -0.0000000  -0.0000000  -0.0000000
 NQMom=    0.0000000   0.0000000   0.0000000   0.0000000   0.0000000   0.0000000   0.0000000   0.0000000   0.0000000   0.0000000
 NMagM=    2.7928460   2.7928460   2.7928460   2.7928460   2.7928460   2.7928460   2.7928460   2.7928460   2.7928460   2.7928460
 AtZNuc=   1.0000000   1.0000000   1.0000000   1.0000000   1.0000000   1.0000000   1.0000000   1.0000000   1.0000000   1.0000000
 Leave Link  101 at Wed May  4 02:18:16 2022, MaxMem=  6710886400 cpu:               2.8 elap:               0.1
 (Enter /sw/apps/gaussian-16.0/g16/l202.exe)
 Stoichiometry    C55H74MgN4O6
 Framework group  C1[X(C55H74MgN4O6)]
 Deg. of freedom   414
 Full point group                 C1      NOp   1
 Largest Abelian subgroup         C1      NOp   1
 Largest concise Abelian subgroup C1      NOp   1
                         Standard orientation:                         
 ---------------------------------------------------------------------
 Center     Atomic      Atomic             Coordinates (Angstroms)
 Number     Number       Type             X           Y           Z
 ---------------------------------------------------------------------
      1         12           0       -5.221343    1.208732   -0.333127
      2          6           0       -4.365607   -2.207601   -0.248014
      3          6           0       -1.838842    1.953040   -0.226154
      4          6           0       -6.079579    4.400951    0.157359
      5          6           0       -8.713762    0.255105    0.173731
      6          7           0       -3.349536   -0.083662    0.140200
      7          6           0       -3.214749   -1.409064   -0.130660
      8          6           0       -1.684594   -1.934784   -0.139189
      9          6           0       -0.930063   -0.486306    0.000837
     10          6           0       -2.131019    0.567959    0.037299
     11          6           0       -0.041810   -0.325340    1.217344
     12          6           0       -1.293864   -2.765001   -1.357887
     13          6           0       -0.802027   -4.125267   -1.216022
     14          6           0        0.098003   -4.407311    0.021915
     15          8           0       -0.043251   -5.339634    0.796495
     16          8           0        1.101485   -3.472960    0.127916
     17          7           0       -4.069153    2.948999   -0.311680
     18          6           0       -2.704800    3.101945   -0.336447
     19          6           0       -2.423327    4.498883   -0.406298
     20          6           0       -3.642095    5.191101   -0.224930
     21          6           0       -4.693243    4.217784   -0.155072
     22          6           0       -1.066547    4.962084   -0.232585
     23          6           0       -3.825081    6.679974   -0.062774
     24          8           0       -4.957802    7.218132    0.030872
     25          6           0       -2.551116    7.707742   -0.243150
     26          7           0       -7.108880    2.164078    0.012213
     27          6           0       -7.109050    3.522845    0.302729
     28          6           0       -8.503780    4.022015    0.806549
     29          6           0       -9.370230    2.726873    0.509592
     30          6           0       -8.354325    1.654303    0.232917
     31          6           0       -8.540623    4.432071    2.325434
     32          6           0      -10.534207    2.871431   -0.445446
     33          6           0      -10.450856    2.113073   -1.721242
     34          7           0       -6.350861   -0.523507   -0.064431
     35          6           0       -7.716631   -0.805225    0.001088
     36          6           0       -7.911648   -2.320572   -0.124717
     37          6           0       -6.629269   -2.871519   -0.214729
     38          6           0       -5.696273   -1.732757   -0.146698
     39          6           0       -9.187047   -3.049354   -0.219077
     40          6           0       -5.950506   -4.206399   -0.348879
     41          8           0       -6.385433   -5.332844   -0.430957
     42          6           0       -4.490380   -3.713792   -0.463640
     43          6           0       -3.769711   -4.433481    0.726287
     44          8           0       -3.766823   -3.959733    1.857315
     45          8           0       -3.213095   -5.660972    0.466834
     46          6           0       -2.782063   -6.404977    1.717360
     47          6           0        2.164613   -3.730630    1.149589
     48          6           0        3.430018   -3.885882    0.334248
     49          6           0        4.678702   -3.776596    0.843910
     50          6           0        4.928038   -3.809733    2.319914
     51          6           0        5.939672   -3.841961    0.006331
     52          6           0        5.923061   -2.868303   -1.234013
     53          6           0        6.909231   -1.737141   -1.227364
     54          6           0        7.851253   -1.692836   -2.341626
     55          6           0        8.950780   -2.742992   -2.088616
     56          6           0        8.500356   -0.221407   -2.535469
     57          6           0        9.230461    0.385812   -1.298275
     58          6           0       10.546903    1.087921   -1.699857
     59          6           0       11.100990    2.066244   -0.647476
     60          6           0       10.669825    3.533962   -0.955473
     61          6           0       12.648154    1.996444   -0.496853
     62          6           0       13.197367    2.395810    0.871993
     63          6           0       14.543906    1.720450    1.139632
     64          6           0       15.749320    2.714836    1.422675
     65          6           0       15.952754    3.110127    2.883478
     66          6           0       16.977032    2.030979    0.858980
     67          1           0       -0.779477    2.214383   -0.269092
     68          1           0       -6.518667    5.358762    0.444103
     69          1           0       -9.753331   -0.063817    0.268676
     70          1           0       -1.566780   -2.599711    0.716690
     71          1           0       -0.196414   -0.270745   -0.774819
     72          1           0        0.989902   -0.104207    0.942517
     73          1           0       -0.095733   -1.245272    1.800655
     74          1           0       -0.392890    0.493710    1.844814
     75          1           0       -0.580396   -2.287709   -2.030751
     76          1           0       -2.235036   -2.797961   -1.907518
     77          1           0       -0.039218   -4.187769   -1.991987
     78          1           0       -1.557644   -4.905469   -1.307812
     79          1           0       -0.940369    5.489509    0.712507
     80          1           0       -0.720164    5.676798   -0.979103
     81          1           0       -0.335261    4.160245   -0.330806
     82          1           0       -2.102912    7.679204   -1.236671
     83          1           0       -1.891894    7.493671    0.597433
     84          1           0       -2.771932    8.740975    0.025057
     85          1           0       -8.879723    4.864165    0.224564
     86          1           0       -9.858609    2.387179    1.423636
     87          1           0       -7.565049    4.791676    2.652729
     88          1           0       -8.767292    3.617185    3.013580
     89          1           0       -9.262699    5.232124    2.486008
     90          1           0      -10.704074    3.940999   -0.567697
     91          1           0      -11.348414    2.397677    0.103740
     92          1           0       -9.428450    2.052358   -2.093991
     93          1           0      -11.007574    2.671291   -2.474669
     94          1           0      -10.853206    1.104252   -1.631653
     95          1           0       -9.805513   -2.303676   -0.718377
     96          1           0       -9.614804   -3.338645    0.741502
     97          1           0       -8.885586   -3.936398   -0.776340
     98          1           0       -4.095200   -4.119035   -1.395649
     99          1           0       -3.588719   -6.923799    2.234502
    100          1           0       -2.215923   -5.829934    2.450217
    101          1           0       -2.073236   -7.180804    1.425940
    102          1           0        2.059302   -4.623480    1.765869
    103          1           0        2.336525   -2.852022    1.771910
    104          1           0        3.349804   -4.098399   -0.731782
    105          1           0        4.029526   -4.264404    2.738918
    106          1           0        5.037381   -2.819305    2.760049
    107          1           0        5.806022   -4.393784    2.595879
    108          1           0        5.877571   -4.819531   -0.471431
    109          1           0        6.893245   -3.725118    0.520705
    110          1           0        4.953279   -2.369710   -1.214967
    111          1           0        5.882402   -3.445501   -2.156856
    112          1           0        7.558428   -1.728038   -0.351386
    113          1           0        6.352209   -0.806330   -1.125982
    114          1           0        7.296625   -1.967076   -3.238689
    115          1           0        9.878774   -2.196125   -1.920754
    116          1           0        9.088360   -3.399345   -2.948162
    117          1           0        8.758391   -3.324998   -1.186910
    118          1           0        7.667458    0.466461   -2.685119
    119          1           0        9.149849   -0.367090   -3.398466
    120          1           0        9.529388   -0.381271   -0.584213
    121          1           0        8.595309    1.168882   -0.882591
    122          1           0       10.347241    1.497536   -2.690037
    123          1           0       11.283180    0.303490   -1.879306
    124          1           0       10.602076    1.947110    0.314568
    125          1           0       11.470528    4.231962   -0.714697
    126          1           0        9.851135    3.820436   -0.295255
    127          1           0       10.361092    3.617680   -1.997798
    128          1           0       13.076621    2.551396   -1.332435
    129          1           0       12.961601    0.963447   -0.648383
    130          1           0       12.481195    2.229570    1.677144
    131          1           0       13.367029    3.448139    0.640104
    132          1           0       14.842521    0.938867    0.440862
    133          1           0       14.254272    1.253630    2.081360
    134          1           0       15.624671    3.678604    0.930798
    135          1           0       15.085424    2.692961    3.393860
    136          1           0       15.945472    4.178163    3.103592
    137          1           0       16.814652    2.636958    3.354399
    138          1           0       17.701377    2.787807    0.561189
    139          1           0       16.812577    1.300131    0.067611
    140          1           0       17.433959    1.441826    1.654712
 ---------------------------------------------------------------------
 Rotational constants (GHZ):           0.0406671           0.0099406           0.0082712
 Leave Link  202 at Wed May  4 02:18:16 2022, MaxMem=  6710886400 cpu:               0.3 elap:               0.0
 (Enter /sw/apps/gaussian-16.0/g16/l301.exe)
 Standard basis: VSTO-6G (5D, 7F)
 Ernie: Thresh=  0.10000D-02 Tol=  0.10000D-05 Strict=F.
 There are   338 symmetry adapted cartesian basis functions of A   symmetry.
 There are   338 symmetry adapted basis functions of A   symmetry.
   338 basis functions,  2028 primitive gaussians,   338 cartesian basis functions
   176 alpha electrons      176 beta electrons
       nuclear repulsion energy      4778.7711426942 Hartrees.
 IExCor=    0 DFT=F Ex=HF Corr=None ExCW=0 ScaHFX=  1.000000
 ScaDFX=  1.000000  1.000000  1.000000  1.000000 ScalE2=  1.000000  1.000000
 IRadAn=      5 IRanWt=     -1 IRanGd=            0 ICorTp=0 IEmpDi=  4
 Integral buffers will be    131072 words long.
 Regular integral format.
 Two-electron integral symmetry is turned off.
 Leave Link  301 at Wed May  4 02:18:16 2022, MaxMem=  6710886400 cpu:               1.2 elap:               0.1
 (Enter /sw/apps/gaussian-16.0/g16/l302.exe)
 Do NDO integrals.
 NPDir=0 NMtPBC=     1 NCelOv=     1 NCel=       1 NClECP=     1 NCelD=      1
         NCelK=      1 NCelE2=     1 NClLst=     1 CellRange=     0.0.
 One-electron integrals computed using PRISM.
 Generate ZINDO/S integrals.
 NDO Nuclear repulsion=  4295.736828633683 Hartrees.
 NBasis=   338 RedAO= F EigKep=  0.00D+00  NBF=   338
 NBsUse=   338 1.00D-04 EigRej=  0.00D+00 NBFU=   338
 Leave Link  302 at Wed May  4 02:18:16 2022, MaxMem=  6710886400 cpu:               9.2 elap:               0.4
 (Enter /sw/apps/gaussian-16.0/g16/l303.exe)
 DipDrv:  MaxL=1.
 DipDrv:  will hold  3 matrices at once.
 Leave Link  303 at Wed May  4 02:18:16 2022, MaxMem=  6710886400 cpu:               0.5 elap:               0.0
 (Enter /sw/apps/gaussian-16.0/g16/l308.exe)
 Leave Link  308 at Wed May  4 02:18:17 2022, MaxMem=  6710886400 cpu:               4.4 elap:               0.2
 (Enter /sw/apps/gaussian-16.0/g16/l401.exe)
 Simple Huckel Guess.
 JPrj=0 DoOrth=F DoCkMO=F.
 Leave Link  401 at Wed May  4 02:18:17 2022, MaxMem=  6710886400 cpu:               2.8 elap:               0.1
 (Enter /sw/apps/gaussian-16.0/g16/l502.exe)
 Two-electron integral symmetry not used.
 Closed shell SCF:
 Using DIIS extrapolation, IDIIS=  1040.
 Overlap will be assumed to be unity.
 NGot=  6710886400 LenX=  6710643598 LenY=  6710528913
 Requested convergence on RMS density matrix=1.00D-08 within 128 cycles.
 Requested convergence on MAX density matrix=1.00D-06.
 Requested convergence on             energy=1.00D-06.
 No special actions if energy rises.
 Fock matrices will be formed incrementally for  20 cycles.

 Cycle   1  Pass 1  IDiag  1:
 E= -471.954725982874    
 DIIS: error= 5.61D-02 at cycle   1 NSaved=   1.
 NSaved= 1 IEnMin= 1 EnMin= -471.954725982874     IErMin= 1 ErrMin= 5.61D-02
 ErrMax= 5.61D-02  0.00D+00 EMaxC= 1.00D-01 BMatC= 8.27D-01 BMatP= 8.27D-01
 IDIUse=3 WtCom= 4.39D-01 WtEn= 5.61D-01
 Coeff-Com:  0.100D+01
 Coeff-En:   0.100D+01
 Coeff:      0.100D+01
 GapD=    2.000 DampG=2.000 DampE=0.500 DampFc=1.0000 IDamp=-1.
 RMSDP=3.99D-03 MaxDP=1.57D-01              OVMax= 0.00D+00

 Cycle   2  Pass 1  IDiag  1:
 RMSU=  3.98D-03    CP:  9.95D-01
 E= -473.784422439167     Delta-E=       -1.829696456293 Rises=F Damp=F
 DIIS: error= 2.05D-02 at cycle   2 NSaved=   2.
 NSaved= 2 IEnMin= 2 EnMin= -473.784422439167     IErMin= 2 ErrMin= 2.05D-02
 ErrMax= 2.05D-02  0.00D+00 EMaxC= 1.00D-01 BMatC= 5.18D-02 BMatP= 8.27D-01
 IDIUse=3 WtCom= 7.95D-01 WtEn= 2.05D-01
 Coeff-Com: -0.733D-01 0.107D+01
 Coeff-En:   0.000D+00 0.100D+01
 Coeff:     -0.583D-01 0.106D+01
 RMSDP=1.13D-03 MaxDP=6.35D-02 DE=-1.83D+00 OVMax= 0.00D+00

 Cycle   3  Pass 1  IDiag  1:
 RMSU=  1.06D-03    CP:  9.93D-01  1.10D+00
 E= -473.887679931453     Delta-E=       -0.103257492286 Rises=F Damp=F
 DIIS: error= 8.61D-03 at cycle   3 NSaved=   3.
 NSaved= 3 IEnMin= 3 EnMin= -473.887679931453     IErMin= 3 ErrMin= 8.61D-03
 ErrMax= 8.61D-03  0.00D+00 EMaxC= 1.00D-01 BMatC= 7.36D-03 BMatP= 5.18D-02
 IDIUse=3 WtCom= 9.14D-01 WtEn= 8.61D-02
 Coeff-Com: -0.687D-01 0.242D+00 0.826D+00
 Coeff-En:   0.000D+00 0.000D+00 0.100D+01
 Coeff:     -0.628D-01 0.221D+00 0.841D+00
 RMSDP=3.67D-04 MaxDP=1.72D-02 DE=-1.03D-01 OVMax= 0.00D+00

 Cycle   4  Pass 1  IDiag  1:
 RMSU=  2.39D-04    CP:  9.93D-01  1.17D+00  9.37D-01
 E= -473.900874504272     Delta-E=       -0.013194572819 Rises=F Damp=F
 DIIS: error= 1.52D-03 at cycle   4 NSaved=   4.
 NSaved= 4 IEnMin= 4 EnMin= -473.900874504272     IErMin= 4 ErrMin= 1.52D-03
 ErrMax= 1.52D-03  0.00D+00 EMaxC= 1.00D-01 BMatC= 3.01D-04 BMatP= 7.36D-03
 IDIUse=3 WtCom= 9.85D-01 WtEn= 1.52D-02
 Coeff-Com:  0.132D-02-0.386D-01 0.851D-02 0.103D+01
 Coeff-En:   0.000D+00 0.000D+00 0.000D+00 0.100D+01
 Coeff:      0.130D-02-0.380D-01 0.839D-02 0.103D+01
 RMSDP=1.80D-04 MaxDP=9.94D-03 DE=-1.32D-02 OVMax= 0.00D+00

 Cycle   5  Pass 1  IDiag  1:
 RMSU=  1.30D-04    CP:  9.92D-01  1.17D+00  1.05D+00  1.11D+00
 E= -473.902216640528     Delta-E=       -0.001342136256 Rises=F Damp=F
 DIIS: error= 7.49D-04 at cycle   5 NSaved=   5.
 NSaved= 5 IEnMin= 5 EnMin= -473.902216640528     IErMin= 5 ErrMin= 7.49D-04
 ErrMax= 7.49D-04  0.00D+00 EMaxC= 1.00D-01 BMatC= 1.04D-04 BMatP= 3.01D-04
 IDIUse=3 WtCom= 9.93D-01 WtEn= 7.49D-03
 Coeff-Com:  0.725D-02-0.313D-01-0.108D+00 0.297D+00 0.835D+00
 Coeff-En:   0.000D+00 0.000D+00 0.000D+00 0.000D+00 0.100D+01
 Coeff:      0.719D-02-0.311D-01-0.107D+00 0.295D+00 0.836D+00
 RMSDP=7.95D-05 MaxDP=3.42D-03 DE=-1.34D-03 OVMax= 0.00D+00

 Cycle   6  Pass 1  IDiag  1:
 RMSU=  4.42D-05    CP:  9.92D-01  1.17D+00  1.08D+00  1.32D+00  1.26D+00
 E= -473.902628424542     Delta-E=       -0.000411784014 Rises=F Damp=F
 DIIS: error= 3.26D-04 at cycle   6 NSaved=   6.
 NSaved= 6 IEnMin= 6 EnMin= -473.902628424542     IErMin= 6 ErrMin= 3.26D-04
 ErrMax= 3.26D-04  0.00D+00 EMaxC= 1.00D-01 BMatC= 1.77D-05 BMatP= 1.04D-04
 IDIUse=3 WtCom= 9.97D-01 WtEn= 3.26D-03
 Coeff-Com: -0.852D-03 0.954D-02-0.811D-02-0.117D+00-0.200D+00 0.132D+01
 Coeff-En:   0.000D+00 0.000D+00 0.000D+00 0.000D+00 0.000D+00 0.100D+01
 Coeff:     -0.849D-03 0.951D-02-0.808D-02-0.116D+00-0.199D+00 0.131D+01
 RMSDP=9.67D-05 MaxDP=4.16D-03 DE=-4.12D-04 OVMax= 0.00D+00

 Cycle   7  Pass 1  IDiag  1:
 RMSU=  2.81D-05    CP:  9.92D-01  1.18D+00  1.10D+00  1.42D+00  1.83D+00
                    CP:  1.89D+00
 E= -473.902873581969     Delta-E=       -0.000245157427 Rises=F Damp=F
 DIIS: error= 2.06D-04 at cycle   7 NSaved=   7.
 NSaved= 7 IEnMin= 7 EnMin= -473.902873581969     IErMin= 7 ErrMin= 2.06D-04
 ErrMax= 2.06D-04  0.00D+00 EMaxC= 1.00D-01 BMatC= 1.03D-05 BMatP= 1.77D-05
 IDIUse=3 WtCom= 9.98D-01 WtEn= 2.06D-03
 Coeff-Com: -0.163D-02 0.575D-02 0.253D-01-0.808D-02-0.342D+00 0.554D-01
 Coeff-Com:  0.127D+01
 Coeff-En:   0.000D+00 0.000D+00 0.000D+00 0.000D+00 0.000D+00 0.000D+00
 Coeff-En:   0.100D+01
 Coeff:     -0.162D-02 0.574D-02 0.252D-01-0.806D-02-0.342D+00 0.553D-01
 Coeff:      0.126D+01
 RMSDP=8.29D-05 MaxDP=3.58D-03 DE=-2.45D-04 OVMax= 0.00D+00

 Cycle   8  Pass 1  IDiag  1:
 RMSU=  9.69D-06    CP:  9.92D-01  1.18D+00  1.12D+00  1.50D+00  2.28D+00
                    CP:  2.89D+00  1.99D+00
 E= -473.903030694582     Delta-E=       -0.000157112612 Rises=F Damp=F
 DIIS: error= 1.34D-04 at cycle   8 NSaved=   8.
 NSaved= 8 IEnMin= 8 EnMin= -473.903030694582     IErMin= 8 ErrMin= 1.34D-04
 ErrMax= 1.34D-04  0.00D+00 EMaxC= 1.00D-01 BMatC= 4.12D-06 BMatP= 1.03D-05
 IDIUse=3 WtCom= 9.99D-01 WtEn= 1.34D-03
 Coeff-Com:  0.752D-03-0.640D-02 0.130D-02 0.820D-01 0.449D-01-0.412D+00
 Coeff-Com: -0.816D+00 0.211D+01
 Coeff-En:   0.000D+00 0.000D+00 0.000D+00 0.000D+00 0.000D+00 0.000D+00
 Coeff-En:   0.000D+00 0.100D+01
 Coeff:      0.751D-03-0.639D-02 0.130D-02 0.819D-01 0.449D-01-0.411D+00
 Coeff:     -0.815D+00 0.210D+01
 RMSDP=1.22D-04 MaxDP=5.14D-03 DE=-1.57D-04 OVMax= 0.00D+00

 Cycle   9  Pass 1  IDiag  1:
 RMSU=  6.23D-05    CP:  9.92D-01  1.18D+00  1.14D+00  1.58D+00  2.93D+00
                    CP:  3.00D+00  3.00D+00  2.59D+00
 E= -473.903162455053     Delta-E=       -0.000131760472 Rises=F Damp=F
 DIIS: error= 7.10D-05 at cycle   9 NSaved=   9.
 NSaved= 9 IEnMin= 9 EnMin= -473.903162455053     IErMin= 9 ErrMin= 7.10D-05
 ErrMax= 7.10D-05  0.00D+00 EMaxC= 1.00D-01 BMatC= 9.25D-07 BMatP= 4.12D-06
 IDIUse=1 WtCom= 1.00D+00 WtEn= 0.00D+00
 Coeff-Com:  0.478D-03-0.148D-02-0.791D-02-0.523D-02 0.100D+00 0.813D-01
 Coeff-Com: -0.669D+00 0.172D+00 0.133D+01
 Coeff:      0.478D-03-0.148D-02-0.791D-02-0.523D-02 0.100D+00 0.813D-01
 Coeff:     -0.669D+00 0.172D+00 0.133D+01
 RMSDP=6.66D-05 MaxDP=2.83D-03 DE=-1.32D-04 OVMax= 0.00D+00

 Cycle  10  Pass 1  IDiag  1:
 RMSU=  4.00D-05    CP:  9.92D-01  1.18D+00  1.15D+00  1.63D+00  3.00D+00
                    CP:  3.00D+00  3.00D+00  3.00D+00  1.68D+00
 E= -473.903188401097     Delta-E=       -0.000025946044 Rises=F Damp=F
 DIIS: error= 2.71D-05 at cycle  10 NSaved=  10.
 NSaved=10 IEnMin=10 EnMin= -473.903188401097     IErMin=10 ErrMin= 2.71D-05
 ErrMax= 2.71D-05  0.00D+00 EMaxC= 1.00D-01 BMatC= 1.00D-07 BMatP= 9.25D-07
 IDIUse=1 WtCom= 1.00D+00 WtEn= 0.00D+00
 Coeff-Com: -0.143D-03 0.127D-02-0.436D-03-0.191D-01 0.343D-02 0.939D-01
 Coeff-Com:  0.113D+00-0.342D+00-0.207D-01 0.117D+01
 Coeff:     -0.143D-03 0.127D-02-0.436D-03-0.191D-01 0.343D-02 0.939D-01
 Coeff:      0.113D+00-0.342D+00-0.207D-01 0.117D+01
 RMSDP=1.12D-05 MaxDP=4.44D-04 DE=-2.59D-05 OVMax= 0.00D+00

 Cycle  11  Pass 1  IDiag  1:
 RMSU=  3.18D-06    CP:  9.92D-01  1.18D+00  1.15D+00  1.64D+00  3.00D+00
                    CP:  3.00D+00  3.00D+00  3.00D+00  1.79D+00  1.20D+00
 E= -473.903189750776     Delta-E=       -0.000001349678 Rises=F Damp=F
 DIIS: error= 1.35D-05 at cycle  11 NSaved=  11.
 NSaved=11 IEnMin=11 EnMin= -473.903189750776     IErMin=11 ErrMin= 1.35D-05
 ErrMax= 1.35D-05  0.00D+00 EMaxC= 1.00D-01 BMatC= 1.68D-08 BMatP= 1.00D-07
 IDIUse=1 WtCom= 1.00D+00 WtEn= 0.00D+00
 Coeff-Com: -0.659D-04 0.241D-03 0.114D-02-0.118D-02-0.107D-01-0.996D-02
 Coeff-Com:  0.848D-01-0.255D-01-0.219D+00 0.746D-01 0.111D+01
 Coeff:     -0.659D-04 0.241D-03 0.114D-02-0.118D-02-0.107D-01-0.996D-02
 Coeff:      0.848D-01-0.255D-01-0.219D+00 0.746D-01 0.111D+01
 RMSDP=5.80D-06 MaxDP=2.43D-04 DE=-1.35D-06 OVMax= 0.00D+00

 Cycle  12  Pass 1  IDiag  1:
 RMSU=  7.90D-07    CP:  9.92D-01  1.18D+00  1.15D+00  1.64D+00  3.00D+00
                    CP:  3.00D+00  3.00D+00  3.00D+00  1.85D+00  1.30D+00
                    CP:  1.41D+00
 E= -473.903189973494     Delta-E=       -0.000000222718 Rises=F Damp=F
 DIIS: error= 4.18D-06 at cycle  12 NSaved=  12.
 NSaved=12 IEnMin=12 EnMin= -473.903189973494     IErMin=12 ErrMin= 4.18D-06
 ErrMax= 4.18D-06  0.00D+00 EMaxC= 1.00D-01 BMatC= 2.39D-09 BMatP= 1.68D-08
 IDIUse=1 WtCom= 1.00D+00 WtEn= 0.00D+00
 Coeff-Com:  0.225D-04-0.189D-03 0.109D-03 0.262D-02 0.492D-03-0.150D-01
 Coeff-Com: -0.150D-01 0.547D-01-0.927D-03-0.197D+00 0.187D-01 0.115D+01
 Coeff:      0.225D-04-0.189D-03 0.109D-03 0.262D-02 0.492D-03-0.150D-01
 Coeff:     -0.150D-01 0.547D-01-0.927D-03-0.197D+00 0.187D-01 0.115D+01
 RMSDP=8.77D-07 MaxDP=6.69D-05 DE=-2.23D-07 OVMax= 0.00D+00

 Cycle  13  Pass 1  IDiag  1:
 RMSU=  3.21D-07    CP:  9.92D-01  1.18D+00  1.15D+00  1.64D+00  3.00D+00
                    CP:  3.00D+00  3.00D+00  3.00D+00  1.85D+00  1.31D+00
                    CP:  1.62D+00  1.41D+00
 E= -473.903189991424     Delta-E=       -0.000000017931 Rises=F Damp=F
 DIIS: error= 2.40D-06 at cycle  13 NSaved=  13.
 NSaved=13 IEnMin=13 EnMin= -473.903189991424     IErMin=13 ErrMin= 2.40D-06
 ErrMax= 2.40D-06  0.00D+00 EMaxC= 1.00D-01 BMatC= 3.78D-10 BMatP= 2.39D-09
 IDIUse=1 WtCom= 1.00D+00 WtEn= 0.00D+00
 Coeff-Com:  0.114D-04-0.594D-04-0.130D-03 0.492D-03 0.201D-02-0.255D-02
 Coeff-Com: -0.114D-01 0.923D-02 0.319D-01-0.463D-01-0.124D+00 0.182D+00
 Coeff-Com:  0.959D+00
 Coeff:      0.114D-04-0.594D-04-0.130D-03 0.492D-03 0.201D-02-0.255D-02
 Coeff:     -0.114D-01 0.923D-02 0.319D-01-0.463D-01-0.124D+00 0.182D+00
 Coeff:      0.959D+00
 RMSDP=2.65D-07 MaxDP=1.53D-05 DE=-1.79D-08 OVMax= 0.00D+00

 Cycle  14  Pass 1  IDiag  1:
 RMSU=  1.06D-07    CP:  9.92D-01  1.18D+00  1.15D+00  1.64D+00  3.00D+00
                    CP:  3.00D+00  3.00D+00  3.00D+00  1.85D+00  1.31D+00
                    CP:  1.66D+00  1.59D+00  1.39D+00
 E= -473.903189993845     Delta-E=       -0.000000002420 Rises=F Damp=F
 DIIS: error= 8.42D-07 at cycle  14 NSaved=  14.
 NSaved=14 IEnMin=14 EnMin= -473.903189993845     IErMin=14 ErrMin= 8.42D-07
 ErrMax= 8.42D-07  0.00D+00 EMaxC= 1.00D-01 BMatC= 8.38D-11 BMatP= 3.78D-10
 IDIUse=1 WtCom= 1.00D+00 WtEn= 0.00D+00
 Coeff-Com: -0.540D-05 0.386D-04-0.256D-05-0.476D-03-0.208D-03 0.207D-02
 Coeff-Com:  0.534D-02-0.119D-01-0.520D-04 0.282D-01 0.232D-01-0.170D+00
 Coeff-Com: -0.248D+00 0.137D+01
 Coeff:     -0.540D-05 0.386D-04-0.256D-05-0.476D-03-0.208D-03 0.207D-02
 Coeff:      0.534D-02-0.119D-01-0.520D-04 0.282D-01 0.232D-01-0.170D+00
 Coeff:     -0.248D+00 0.137D+01
 RMSDP=2.07D-07 MaxDP=1.05D-05 DE=-2.42D-09 OVMax= 0.00D+00

 Cycle  15  Pass 1  IDiag  1:
 RMSU=  6.49D-08    CP:  9.92D-01  1.18D+00  1.15D+00  1.64D+00  3.00D+00
                    CP:  3.00D+00  3.00D+00  3.00D+00  1.85D+00  1.31D+00
                    CP:  1.67D+00  1.70D+00  1.78D+00  1.94D+00
 E= -473.903189994953     Delta-E=       -0.000000001109 Rises=F Damp=F
 DIIS: error= 5.16D-07 at cycle  15 NSaved=  15.
 NSaved=15 IEnMin=15 EnMin= -473.903189994953     IErMin=15 ErrMin= 5.16D-07
 ErrMax= 5.16D-07  0.00D+00 EMaxC= 1.00D-01 BMatC= 3.52D-11 BMatP= 8.38D-11
 IDIUse=1 WtCom= 1.00D+00 WtEn= 0.00D+00
 Coeff-Com: -0.299D-05 0.151D-04 0.382D-04-0.100D-03-0.690D-03 0.702D-03
 Coeff-Com:  0.353D-02-0.353D-02-0.673D-02 0.652D-02 0.404D-01-0.411D-01
 Coeff-Com: -0.351D+00 0.185D+00 0.117D+01
 Coeff:     -0.299D-05 0.151D-04 0.382D-04-0.100D-03-0.690D-03 0.702D-03
 Coeff:      0.353D-02-0.353D-02-0.673D-02 0.652D-02 0.404D-01-0.411D-01
 Coeff:     -0.351D+00 0.185D+00 0.117D+01
 RMSDP=1.43D-07 MaxDP=7.09D-06 DE=-1.11D-09 OVMax= 0.00D+00

 Cycle  16  Pass 1  IDiag  1:
 RMSU=  2.88D-08    CP:  9.92D-01  1.18D+00  1.15D+00  1.64D+00  3.00D+00
                    CP:  3.00D+00  3.00D+00  3.00D+00  1.85D+00  1.31D+00
                    CP:  1.68D+00  1.77D+00  2.02D+00  2.75D+00  1.77D+00
 E= -473.903189995397     Delta-E=       -0.000000000444 Rises=F Damp=F
 DIIS: error= 2.28D-07 at cycle  16 NSaved=  16.
 NSaved=16 IEnMin=16 EnMin= -473.903189995397     IErMin=16 ErrMin= 2.28D-07
 ErrMax= 2.28D-07  0.00D+00 EMaxC= 1.00D-01 BMatC= 1.05D-11 BMatP= 3.52D-11
 IDIUse=1 WtCom= 1.00D+00 WtEn= 0.00D+00
 Coeff-Com:  0.272D-05-0.184D-04-0.119D-05 0.226D-03 0.541D-04-0.783D-03
 Coeff-Com: -0.258D-02 0.464D-02 0.240D-02-0.154D-01-0.681D-02 0.736D-01
 Coeff-Com:  0.117D+00-0.472D+00-0.397D+00 0.170D+01
 Coeff:      0.272D-05-0.184D-04-0.119D-05 0.226D-03 0.541D-04-0.783D-03
 Coeff:     -0.258D-02 0.464D-02 0.240D-02-0.154D-01-0.681D-02 0.736D-01
 Coeff:      0.117D+00-0.472D+00-0.397D+00 0.170D+01
 RMSDP=1.32D-07 MaxDP=6.56D-06 DE=-4.44D-10 OVMax= 0.00D+00

 Cycle  17  Pass 1  IDiag  1:
 RMSU=  5.43D-08    CP:  9.92D-01  1.18D+00  1.15D+00  1.64D+00  3.00D+00
                    CP:  3.00D+00  3.00D+00  3.00D+00  1.85D+00  1.31D+00
                    CP:  1.68D+00  1.83D+00  2.21D+00  3.00D+00  2.75D+00
                    CP:  2.13D+00
 E= -473.903189995606     Delta-E=       -0.000000000209 Rises=F Damp=F
 DIIS: error= 9.51D-08 at cycle  17 NSaved=  17.
 NSaved=17 IEnMin=17 EnMin= -473.903189995606     IErMin=17 ErrMin= 9.51D-08
 ErrMax= 9.51D-08  0.00D+00 EMaxC= 1.00D-01 BMatC= 2.11D-12 BMatP= 1.05D-11
 IDIUse=1 WtCom= 1.00D+00 WtEn= 0.00D+00
 Coeff-Com:  0.639D-06-0.327D-05-0.937D-05 0.208D-04 0.146D-03-0.161D-03
 Coeff-Com: -0.710D-03 0.504D-03 0.208D-02-0.272D-02-0.506D-02 0.336D-02
 Coeff-Com:  0.717D-01-0.151D-01-0.291D+00 0.472D-01 0.119D+01
 Coeff:      0.639D-06-0.327D-05-0.937D-05 0.208D-04 0.146D-03-0.161D-03
 Coeff:     -0.710D-03 0.504D-03 0.208D-02-0.272D-02-0.506D-02 0.336D-02
 Coeff:      0.717D-01-0.151D-01-0.291D+00 0.472D-01 0.119D+01
 RMSDP=4.81D-08 MaxDP=2.40D-06 DE=-2.09D-10 OVMax= 0.00D+00

 Cycle  18  Pass 1  IDiag  1:
 RMSU=  1.03D-08    CP:  9.92D-01  1.18D+00  1.15D+00  1.64D+00  3.00D+00
                    CP:  3.00D+00  3.00D+00  3.00D+00  1.85D+00  1.31D+00
                    CP:  1.68D+00  1.84D+00  2.27D+00  3.00D+00  3.00D+00
                    CP:  2.78D+00  1.53D+00
 E= -473.903189995641     Delta-E=       -0.000000000035 Rises=F Damp=F
 DIIS: error= 8.02D-08 at cycle  18 NSaved=  18.
 NSaved=18 IEnMin=18 EnMin= -473.903189995641     IErMin=18 ErrMin= 8.02D-08
 ErrMax= 8.02D-08  0.00D+00 EMaxC= 1.00D-01 BMatC= 5.27D-13 BMatP= 2.11D-12
 IDIUse=1 WtCom= 1.00D+00 WtEn= 0.00D+00
 Coeff-Com: -0.833D-06 0.559D-05-0.314D-06-0.664D-04-0.117D-04 0.219D-03
 Coeff-Com:  0.761D-03-0.143D-02-0.478D-03 0.370D-02 0.359D-02-0.238D-01
 Coeff-Com: -0.316D-01 0.139D+00 0.105D+00-0.493D+00-0.276D-01 0.133D+01
 Coeff:     -0.833D-06 0.559D-05-0.314D-06-0.664D-04-0.117D-04 0.219D-03
 Coeff:      0.761D-03-0.143D-02-0.478D-03 0.370D-02 0.359D-02-0.238D-01
 Coeff:     -0.316D-01 0.139D+00 0.105D+00-0.493D+00-0.276D-01 0.133D+01
 RMSDP=2.66D-08 MaxDP=1.38D-06 DE=-3.46D-11 OVMax= 0.00D+00

 Cycle  19  Pass 1  IDiag  1:
 RMSU=  8.78D-09    CP:  9.92D-01  1.18D+00  1.15D+00  1.64D+00  3.00D+00
                    CP:  3.00D+00  3.00D+00  3.00D+00  1.85D+00  1.31D+00
                    CP:  1.68D+00  1.85D+00  2.29D+00  3.00D+00  3.00D+00
                    CP:  3.00D+00  1.81D+00  2.29D+00
 E= -473.903189995650     Delta-E=       -0.000000000009 Rises=F Damp=F
 DIIS: error= 5.12D-08 at cycle  19 NSaved=  19.
 NSaved=19 IEnMin=19 EnMin= -473.903189995650     IErMin=19 ErrMin= 5.12D-08
 ErrMax= 5.12D-08  0.00D+00 EMaxC= 1.00D-01 BMatC= 6.17D-14 BMatP= 5.27D-13
 IDIUse=1 WtCom= 1.00D+00 WtEn= 0.00D+00
 Coeff-Com: -0.663D-07 0.357D-06 0.162D-05-0.511D-06-0.269D-04 0.272D-04
 Coeff-Com:  0.543D-04-0.285D-04-0.278D-03 0.221D-03 0.960D-03 0.421D-03
 Coeff-Com: -0.104D-01-0.473D-02 0.385D-01 0.423D-01-0.220D+00-0.108D+00
 Coeff-Com:  0.126D+01
 Coeff:     -0.663D-07 0.357D-06 0.162D-05-0.511D-06-0.269D-04 0.272D-04
 Coeff:      0.543D-04-0.285D-04-0.278D-03 0.221D-03 0.960D-03 0.421D-03
 Coeff:     -0.104D-01-0.473D-02 0.385D-01 0.423D-01-0.220D+00-0.108D+00
 Coeff:      0.126D+01
 RMSDP=7.90D-09 MaxDP=4.34D-07 DE=-9.09D-12 OVMax= 0.00D+00

 SCF Done:  E(RZINDO/S) =  -473.903189996     A.U. after   19 cycles
            NFock= 19  Conv=0.79D-08     -V/T= 0.9489
 KE=-9.265700130400D+03 PE=-1.170983523480D-06 EE= 4.496060112942D+03
 Leave Link  502 at Wed May  4 02:18:18 2022, MaxMem=  6710886400 cpu:              21.8 elap:               0.9
 (Enter /sw/apps/gaussian-16.0/g16/l801.exe)
 Range of M.O.s used for correlation:     1   338
 NBasis=   338 NAE=   176 NBE=   176 NFC=     0 NFV=     0
 NROrb=    338 NOA=   176 NOB=   176 NVA=   162 NVB=   162
 Leave Link  801 at Wed May  4 02:18:18 2022, MaxMem=  6710886400 cpu:               0.5 elap:               0.0
 (Enter /sw/apps/gaussian-16.0/g16/l914.exe)
 RHF ground state
 Two-electron integral symmetry not used.
 MDV=  6710886400 DFT=F DoStab=F Mixed=F DoRPA=F DoScal=F NonHer=F
 Making orbital integer symmetry assigments:
 Orbital symmetries:
       Occupied  (A) (A) (A) (A) (A) (A) (A) (A) (A) (A) (A) (A)
                 (A) (A) (A) (A) (A) (A) (A) (A) (A) (A) (A) (A)
                 (A) (A) (A) (A) (A) (A) (A) (A) (A) (A) (A) (A)
                 (A) (A) (A) (A) (A) (A) (A) (A) (A) (A) (A) (A)
                 (A) (A) (A) (A) (A) (A) (A) (A) (A) (A) (A) (A)
                 (A) (A) (A) (A) (A) (A) (A) (A) (A) (A) (A) (A)
                 (A) (A) (A) (A) (A) (A) (A) (A) (A) (A) (A) (A)
                 (A) (A) (A) (A) (A) (A) (A) (A) (A) (A) (A) (A)
                 (A) (A) (A) (A) (A) (A) (A) (A) (A) (A) (A) (A)
                 (A) (A) (A) (A) (A) (A) (A) (A) (A) (A) (A) (A)
                 (A) (A) (A) (A) (A) (A) (A) (A) (A) (A) (A) (A)
                 (A) (A) (A) (A) (A) (A) (A) (A) (A) (A) (A) (A)
                 (A) (A) (A) (A) (A) (A) (A) (A) (A) (A) (A) (A)
                 (A) (A) (A) (A) (A) (A) (A) (A) (A) (A) (A) (A)
                 (A) (A) (A) (A) (A) (A) (A) (A)
       Virtual   (A) (A) (A) (A) (A) (A) (A) (A) (A) (A) (A) (A)
                 (A) (A) (A) (A) (A) (A) (A) (A) (A) (A) (A) (A)
                 (A) (A) (A) (A) (A) (A) (A) (A) (A) (A) (A) (A)
                 (A) (A) (A) (A) (A) (A) (A) (A) (A) (A) (A) (A)
                 (A) (A) (A) (A) (A) (A) (A) (A) (A) (A) (A) (A)
                 (A) (A) (A) (A) (A) (A) (A) (A) (A) (A) (A) (A)
                 (A) (A) (A) (A) (A) (A) (A) (A) (A) (A) (A) (A)
                 (A) (A) (A) (A) (A) (A) (A) (A) (A) (A) (A) (A)
                 (A) (A) (A) (A) (A) (A) (A) (A) (A) (A) (A) (A)
                 (A) (A) (A) (A) (A) (A) (A) (A) (A) (A) (A) (A)
                 (A) (A) (A) (A) (A) (A) (A) (A) (A) (A) (A) (A)
                 (A) (A) (A) (A) (A) (A) (A) (A) (A) (A) (A) (A)
                 (A) (A) (A) (A) (A) (A) (A) (A) (A) (A) (A) (A)
                 (A) (A) (A) (A) (A) (A)
    20 initial guesses have been made.
 Convergence on wavefunction:    0.001000000000000
 Davidson Disk Diagonalization:  ConvIn= 1.00D-03 SkipCon=T Conv= 1.00D-03.
 Max sub-space:  2000 roots to seek:    20 dimension of matrix:        57024
 Iteration     1 Dimension    20 NMult     0 NNew     20
 CISAX will form    20 AO SS matrices at one time.
 NMat=    20 NSing=    20 JSym2X= 0.
 New state      3 was old state      4
 New state      4 was old state      8
 Excitation Energies [eV] at current iteration:
 Root      1 :     1.625746145083888
 Root      2 :     2.141966627146284
 Root      3 :     3.178716798427665
 Root      4 :     3.294143980890902
 Root      5 :     3.349764011744688
 Root      6 :     3.580255900800165
 Root      7 :     3.600692638197545
 Root      8 :     3.803046760841733
 Root      9 :     3.863439537738234
 Root     10 :     3.989467752992032
 Root     11 :     4.067460705055106
 Root     12 :     4.281352710659363
 Root     13 :     4.363845873809450
 Root     14 :     4.419666636799565
 Root     15 :     4.601211135157699
 Root     16 :     4.716568157043104
 Root     17 :     4.834060604016640
 Root     18 :     4.885400831707985
 Root     19 :     4.897375080819629
 Root     20 :     5.712862428176432
 Iteration     2 Dimension    40 NMult    20 NNew     20
 CISAX will form    20 AO SS matrices at one time.
 NMat=    20 NSing=    20 JSym2X= 0.
 Root      1 not converged, maximum delta is    0.034290307244782
 Root      2 not converged, maximum delta is    0.020403528895394
 Root      3 not converged, maximum delta is    0.321670471726035
 New state      4 was old state      5
 Root      4 not converged, maximum delta is    0.498318974853213
 New state      5 was old state      4
 Root      5 not converged, maximum delta is    0.286228389412528
 Excitation Energies [eV] at current iteration:
 Root      1 :     1.345080498313649   Change is   -0.280665646770239
 Root      2 :     1.944590962115292   Change is   -0.197375665030992
 Root      3 :     2.929683916933796   Change is   -0.249032881493869
 Root      4 :     3.033837657893705   Change is   -0.315926353850983
 Root      5 :     3.283878126480950   Change is   -0.010265854409951
 Root      6 :     3.382021053714096   Change is   -0.218671584483449
 Root      7 :     3.412232246509796   Change is   -0.168023654290370
 Root      8 :     3.492923327137541   Change is   -0.310123433704192
 Root      9 :     3.628223735082245   Change is   -0.235215802655989
 Root     10 :     3.690816472334738   Change is   -0.376644232720368
 Root     11 :     3.759324677772756   Change is   -0.230143075219276
 Root     12 :     4.010359745338587   Change is   -0.353486128470863
 Root     13 :     4.115669726119028   Change is   -0.303996910680537
 Root     14 :     4.176300697468570   Change is   -0.105052013190793
 Root     15 :     4.256232067226144   Change is   -0.629168764481841
 Root     16 :     4.465855933772596   Change is   -0.135355201385103
 Root     17 :     4.581792954904992   Change is   -0.134775202138111
 Root     18 :     4.646189265473986   Change is   -0.187871338542655
 Root     19 :     4.885371550629104   Change is   -0.012003530190525
 Root     20 :     5.671830427230768
 Iteration     3 Dimension    45 NMult    40 NNew      5
 CISAX will form     5 AO SS matrices at one time.
 NMat=     5 NSing=     5 JSym2X= 0.
 Root      1 not converged, maximum delta is    0.010399575910249
 Root      2 not converged, maximum delta is    0.017841318038673
 Root      3 not converged, maximum delta is    0.021236131386065
 Root      4 not converged, maximum delta is    0.025534739007758
 Root      5 not converged, maximum delta is    0.027801895534786
 Excitation Energies [eV] at current iteration:
 Root      1 :     1.330930141895315   Change is   -0.014150356418334
 Root      2 :     1.917155073928502   Change is   -0.027435888186789
 Root      3 :     2.912144806792679   Change is   -0.017539110141116
 Root      4 :     2.995519776167922   Change is   -0.038317881725783
 Root      5 :     3.277109071273099   Change is   -0.006769055207851
 Iteration     4 Dimension    50 NMult    45 NNew      5
 CISAX will form     5 AO SS matrices at one time.
 NMat=     5 NSing=     5 JSym2X= 0.
 Root      1 not converged, maximum delta is    0.001793415434045
 Root      2 not converged, maximum delta is    0.002338574149514
 Root      3 not converged, maximum delta is    0.004282529487396
 Root      4 not converged, maximum delta is    0.009587002654083
 Root      5 not converged, maximum delta is    0.010334967016967
 Excitation Energies [eV] at current iteration:
 Root      1 :     1.330248250129224   Change is   -0.000681891766091
 Root      2 :     1.916429428749945   Change is   -0.000725645178557
 Root      3 :     2.910358283630466   Change is   -0.001786523162213
 Root      4 :     2.990146510411683   Change is   -0.005373265756239
 Root      5 :     3.275827464133913   Change is   -0.001281607139187
 Iteration     5 Dimension    55 NMult    50 NNew      5
 CISAX will form     5 AO SS matrices at one time.
 NMat=     5 NSing=     5 JSym2X= 0.
 Root      1 has converged.
 Root      2 has converged.
 Root      3 not converged, maximum delta is    0.002467914131967
 Root      4 not converged, maximum delta is    0.017385477961886
 Root      5 not converged, maximum delta is    0.018760854827042
 Excitation Energies [eV] at current iteration:
 Root      1 :     1.330205175431988   Change is   -0.000043074697236
 Root      2 :     1.916384667658154   Change is   -0.000044761091792
 Root      3 :     2.910052996503012   Change is   -0.000305287127454
 Root      4 :     2.987128024554827   Change is   -0.003018485856856
 Root      5 :     3.274539444999636   Change is   -0.001288019134277
 Iteration     6 Dimension    58 NMult    55 NNew      3
 CISAX will form     3 AO SS matrices at one time.
 NMat=     3 NSing=     3 JSym2X= 0.
 Root      1 has converged.
 Root      2 has converged.
 Root      3 not converged, maximum delta is    0.002770095356543
 Root      4 not converged, maximum delta is    0.071449334033895
 Root      5 not converged, maximum delta is    0.619181952875703
 Excitation Energies [eV] at current iteration:
 Root      1 :     1.330204994102333   Change is   -0.000000181329655
 Root      2 :     1.916383320070119   Change is   -0.000001347588035
 Root      3 :     2.909931469445627   Change is   -0.000121527057384
 Root      4 :     2.979301663190955   Change is   -0.007826361363872
 Root      5 :     3.124368173583805   Change is   -0.150171271415831
 Iteration     7 Dimension    61 NMult    58 NNew      3
 CISAX will form     3 AO SS matrices at one time.
 NMat=     3 NSing=     3 JSym2X= 0.
 Root      1 has converged.
 Root      2 has converged.
 Root      3 not converged, maximum delta is    0.006111096065026
 Root      4 not converged, maximum delta is    0.109023835351300
 Root      5 not converged, maximum delta is    0.161335826542235
 Excitation Energies [eV] at current iteration:
 Root      1 :     1.330204854103624   Change is   -0.000000139998709
 Root      2 :     1.916381408507810   Change is   -0.000001911562308
 Root      3 :     2.909750105318559   Change is   -0.000181364127069
 Root      4 :     2.964808164519421   Change is   -0.014493498671534
 Root      5 :     3.040827741270880   Change is   -0.083540432312924
 Iteration     8 Dimension    64 NMult    61 NNew      3
 CISAX will form     3 AO SS matrices at one time.
 NMat=     3 NSing=     3 JSym2X= 0.
 Root      1 has converged.
 Root      2 has converged.
 Root      3 not converged, maximum delta is    0.011030368677476
 Root      4 not converged, maximum delta is    0.020727288118789
 Root      5 not converged, maximum delta is    0.025288740227961
 Excitation Energies [eV] at current iteration:
 Root      1 :     1.330204710653923   Change is   -0.000000143449702
 Root      2 :     1.916380264918342   Change is   -0.000001143589468
 Root      3 :     2.909490396721024   Change is   -0.000259708597534
 Root      4 :     2.961332764228834   Change is   -0.003475400290587
 Root      5 :     3.033752380557653   Change is   -0.007075360713227
 Iteration     9 Dimension    67 NMult    64 NNew      3
 CISAX will form     3 AO SS matrices at one time.
 NMat=     3 NSing=     3 JSym2X= 0.
 Root      1 has converged.
 Root      2 has converged.
 Root      3 not converged, maximum delta is    0.006740568648789
 Root      4 not converged, maximum delta is    0.002477398279768
 Root      5 not converged, maximum delta is    0.006121314768459
 Excitation Energies [eV] at current iteration:
 Root      1 :     1.330204552381574   Change is   -0.000000158272349
 Root      2 :     1.916379628999387   Change is   -0.000000635918955
 Root      3 :     2.909339962145977   Change is   -0.000150434575047
 Root      4 :     2.960922980274721   Change is   -0.000409783954113
 Root      5 :     3.033004234854701   Change is   -0.000748145702952
 Iteration    10 Dimension    70 NMult    67 NNew      3
 CISAX will form     3 AO SS matrices at one time.
 NMat=     3 NSing=     3 JSym2X= 0.
 Root      1 has converged.
 Root      2 has converged.
 Root      3 not converged, maximum delta is    0.001359151392216
 Root      4 not converged, maximum delta is    0.001062365188074
 Root      5 not converged, maximum delta is    0.002580598629500
 Excitation Energies [eV] at current iteration:
 Root      1 :     1.330204318694293   Change is   -0.000000233687281
 Root      2 :     1.916378978895406   Change is   -0.000000650103981
 Root      3 :     2.909309835717097   Change is   -0.000030126428880
 Root      4 :     2.960841808495232   Change is   -0.000081171779489
 Root      5 :     3.032842340686189   Change is   -0.000161894168512
 Iteration    11 Dimension    73 NMult    70 NNew      3
 CISAX will form     3 AO SS matrices at one time.
 NMat=     3 NSing=     3 JSym2X= 0.
 Root      1 has converged.
 Root      2 has converged.
 Root      3 has converged.
 Root      4 not converged, maximum delta is    0.001258826928414
 Root      5 not converged, maximum delta is    0.001866704997436
 Excitation Energies [eV] at current iteration:
 Root      1 :     1.330204148884234   Change is   -0.000000169810059
 Root      2 :     1.916377589995451   Change is   -0.000001388899955
 Root      3 :     2.909305621128138   Change is   -0.000004214588959
 Root      4 :     2.960809975202539   Change is   -0.000031833292694
 Root      5 :     3.032774502818781   Change is   -0.000067837867408
 Iteration    12 Dimension    75 NMult    73 NNew      2
 CISAX will form     2 AO SS matrices at one time.
 NMat=     2 NSing=     2 JSym2X= 0.
 Root      1 has converged.
 Root      2 has converged.
 Root      3 has converged.
 Root      4 has converged.
 Root      5 not converged, maximum delta is    0.001457727431109
 Excitation Energies [eV] at current iteration:
 Root      1 :     1.330204114779524   Change is   -0.000000034104709
 Root      2 :     1.916376781061334   Change is   -0.000000808934116
 Root      3 :     2.909305264238045   Change is   -0.000000356890093
 Root      4 :     2.960796008965689   Change is   -0.000013966236850
 Root      5 :     3.032741492789257   Change is   -0.000033010029524
 Iteration    13 Dimension    76 NMult    75 NNew      1
 CISAX will form     1 AO SS matrices at one time.
 NMat=     1 NSing=     1 JSym2X= 0.
 Root      1 has converged.
 Root      2 has converged.
 Root      3 has converged.
 Root      4 has converged.
 Root      5 has converged.
 Excitation Energies [eV] at current iteration:
 Root      1 :     1.330204094154325   Change is   -0.000000020625200
 Root      2 :     1.916376691506360   Change is   -0.000000089554974
 Root      3 :     2.909305196121935   Change is   -0.000000068116109
 Root      4 :     2.960792639639522   Change is   -0.000003369326167
 Root      5 :     3.032732685418897   Change is   -0.000008807370360
 Convergence achieved on expansion vectors.
 ***********************************************************************
 Excited states from <AA,BB:AA,BB> singles matrix:
 ***********************************************************************
 
 1PDM for each excited state written to RWF  633
 Ground to excited state transition densities written to RWF  633
 Ground to excited state transition electric dipole moments (Au):
       state          X           Y           Z        Dip. S.      Osc.
         1         2.2465      3.2311     -0.0429     15.4887      0.5048
         2        -0.6824      0.4439      0.0133      0.6629      0.0311
         3        -2.3497      2.5431      0.0377     11.9898      0.8546
         4         1.4971      0.0911     -0.1734      2.2798      0.1654
         5        -1.6059      0.1070      0.1783      2.6223      0.1948
 Ground to excited state transition velocity dipole moments (Au):
       state          X           Y           Z        Dip. S.      Osc.
         1         0.0413      0.0169     -0.0119      0.0021      0.0291
         2         0.0150     -0.0149     -0.0006      0.0004      0.0043
         3         0.0817     -0.1026     -0.0006      0.0172      0.1072
         4        -0.0629     -0.0170      0.0135      0.0044      0.0271
         5         0.0760      0.0214     -0.0019      0.0062      0.0374
 Ground to excited state transition magnetic dipole moments (Au):
       state          X           Y           Z
         1        -0.1072     -0.1215     -0.1171
         2         0.0249     -0.0469      1.5105
         3        -0.1192     -0.1522      0.6594
         4        -0.3287      0.3812      0.2557
         5        -0.4946      0.1812     -0.3099
 Ground to excited state transition velocity quadrupole moments (Au):
       state          XX          YY          ZZ          XY          XZ          YZ
         1        -0.7395      0.0484      0.0178     -0.2309      0.1510     -0.0533
         2        -0.2456     -0.0697      0.0078      0.1316     -0.0156     -0.0087
         3        -0.9323     -0.2478      0.0028      0.8493      0.0634     -0.0798
         4         1.5016     -0.5563      0.0561     -0.2154     -0.1697      0.1824
         5        -1.6710      0.7991     -0.0665      0.3132      0.1225     -0.0051
 <0|del|b> * <b|rxdel|0> + <0|del|b> * <b|delr+rdel|0>
 Rotatory Strengths (R) in cgs (10**-40 erg-esu-cm/Gauss)
       state          XX          YY          ZZ    R(velocity)    E-M Angle
         1        -3.5226    -57.7528    -12.5080    -24.5945      123.50
         2        -2.6280     -2.9511      7.2131      0.5447       89.71
         3        70.1965    -53.3643     19.4901     12.1074       86.51
         4       -28.5831     50.6199     92.7877     38.2749       61.94
         5         3.9730   -116.8705    -97.4261    -70.1079      133.33
 1/2[<0|r|b>*<b|rxdel|0> + (<0|rxdel|b>*<b|r|0>)*]
 Rotatory Strengths (R) in cgs (10**-40 erg-esu-cm/Gauss)
       state          XX          YY          ZZ     R(length)
         1       170.3192    277.6162     -3.5547    148.1269
         2        11.9976     14.7057    -14.2484      4.1516
         3      -198.0628    273.7906    -17.5726     19.3851
         4       348.0114    -24.5608     31.3441    118.2649
         5      -561.7384    -13.7122     39.0750   -178.7919
  1/2[<0|del|b>*<b|r|0> + (<0|r|b>*<b|del|0>)*] (Au)
       state          X           Y           Z        Dip. S.   Osc.(frdel)
         1         0.0929      0.0547      0.0005     -0.1481     -0.0987
         2        -0.0103     -0.0066     -0.0000      0.0169      0.0113
         3        -0.1919     -0.2609     -0.0000      0.4528      0.3019
         4        -0.0941     -0.0015     -0.0023      0.0980      0.0654
         5        -0.1221      0.0023     -0.0003      0.1202      0.0801

 Excitation energies and oscillator strengths:
 
 Excited State   1:      Singlet-A      1.3302 eV  932.07 nm  f=0.5048  <S**2>=0.000
     175 ->178         0.14050
     176 ->177         0.67466
 This state for optimization and/or second-order correction.
 Total Energy, E(CIS/TDA) =  -473.854305895    
 Copying the excited state density for this state as the 1-particle RhoCI density.
 
 Excited State   2:      Singlet-A      1.9164 eV  646.97 nm  f=0.0311  <S**2>=0.000
     175 ->177         0.52870
     176 ->178        -0.40469
     176 ->179         0.15935
 
 Excited State   3:      Singlet-A      2.9093 eV  426.16 nm  f=0.8546  <S**2>=0.000
     175 ->177         0.36087
     176 ->178         0.54204
     176 ->179         0.15312
 
 Excited State   4:      Singlet-A      2.9608 eV  418.75 nm  f=0.1654  <S**2>=0.000
     170 ->179         0.10119
     170 ->180         0.17612
     171 ->177         0.11362
     171 ->179         0.12271
     171 ->180         0.28148
     175 ->177        -0.13224
     176 ->179         0.35690
     176 ->180         0.31643
 
 Excited State   5:      Singlet-A      3.0327 eV  408.82 nm  f=0.1948  <S**2>=0.000
     170 ->177         0.10455
     170 ->179         0.10349
     170 ->180         0.24696
     171 ->177         0.10451
     171 ->179         0.13949
     171 ->180         0.25266
     171 ->189        -0.10290
     175 ->177         0.13890
     176 ->179        -0.35767
     176 ->180        -0.24379
 SavETr:  write IOETrn=   770 NScale= 10 NData=  16 NLR=1 NState=    5 LETran=     100.
 Leave Link  914 at Wed May  4 02:18:22 2022, MaxMem=  6710886400 cpu:             112.6 elap:               4.7
 (Enter /sw/apps/gaussian-16.0/g16/l601.exe)
 Copying SCF densities to generalized density rwf, IOpCl= 0 IROHF=0.

 **********************************************************************

            Population analysis using the SCF density.

 **********************************************************************

 Orbital symmetries:
       Occupied  (A) (A) (A) (A) (A) (A) (A) (A) (A) (A) (A) (A)
                 (A) (A) (A) (A) (A) (A) (A) (A) (A) (A) (A) (A)
                 (A) (A) (A) (A) (A) (A) (A) (A) (A) (A) (A) (A)
                 (A) (A) (A) (A) (A) (A) (A) (A) (A) (A) (A) (A)
                 (A) (A) (A) (A) (A) (A) (A) (A) (A) (A) (A) (A)
                 (A) (A) (A) (A) (A) (A) (A) (A) (A) (A) (A) (A)
                 (A) (A) (A) (A) (A) (A) (A) (A) (A) (A) (A) (A)
                 (A) (A) (A) (A) (A) (A) (A) (A) (A) (A) (A) (A)
                 (A) (A) (A) (A) (A) (A) (A) (A) (A) (A) (A) (A)
                 (A) (A) (A) (A) (A) (A) (A) (A) (A) (A) (A) (A)
                 (A) (A) (A) (A) (A) (A) (A) (A) (A) (A) (A) (A)
                 (A) (A) (A) (A) (A) (A) (A) (A) (A) (A) (A) (A)
                 (A) (A) (A) (A) (A) (A) (A) (A) (A) (A) (A) (A)
                 (A) (A) (A) (A) (A) (A) (A) (A) (A) (A) (A) (A)
                 (A) (A) (A) (A) (A) (A) (A) (A)
       Virtual   (A) (A) (A) (A) (A) (A) (A) (A) (A) (A) (A) (A)
                 (A) (A) (A) (A) (A) (A) (A) (A) (A) (A) (A) (A)
                 (A) (A) (A) (A) (A) (A) (A) (A) (A) (A) (A) (A)
                 (A) (A) (A) (A) (A) (A) (A) (A) (A) (A) (A) (A)
                 (A) (A) (A) (A) (A) (A) (A) (A) (A) (A) (A) (A)
                 (A) (A) (A) (A) (A) (A) (A) (A) (A) (A) (A) (A)
                 (A) (A) (A) (A) (A) (A) (A) (A) (A) (A) (A) (A)
                 (A) (A) (A) (A) (A) (A) (A) (A) (A) (A) (A) (A)
                 (A) (A) (A) (A) (A) (A) (A) (A) (A) (A) (A) (A)
                 (A) (A) (A) (A) (A) (A) (A) (A) (A) (A) (A) (A)
                 (A) (A) (A) (A) (A) (A) (A) (A) (A) (A) (A) (A)
                 (A) (A) (A) (A) (A) (A) (A) (A) (A) (A) (A) (A)
                 (A) (A) (A) (A) (A) (A) (A) (A) (A) (A) (A) (A)
                 (A) (A) (A) (A) (A) (A)
 The electronic state is 1-A.
 Alpha  occ. eigenvalues --   -1.81024  -1.78644  -1.76549  -1.72634  -1.70206
 Alpha  occ. eigenvalues --   -1.67292  -1.66356  -1.62442  -1.58530  -1.56182
 Alpha  occ. eigenvalues --   -1.53123  -1.52377  -1.49889  -1.49348  -1.48203
 Alpha  occ. eigenvalues --   -1.46005  -1.41868  -1.40951  -1.39966  -1.38718
 Alpha  occ. eigenvalues --   -1.36845  -1.35678  -1.33686  -1.30198  -1.27621
 Alpha  occ. eigenvalues --   -1.27066  -1.23720  -1.20254  -1.18701  -1.16719
 Alpha  occ. eigenvalues --   -1.16481  -1.15974  -1.15404  -1.14388  -1.12929
 Alpha  occ. eigenvalues --   -1.12852  -1.10379  -1.08813  -1.05298  -1.03801
 Alpha  occ. eigenvalues --   -1.01437  -1.00775  -0.98942  -0.98188  -0.96873
 Alpha  occ. eigenvalues --   -0.96346  -0.94993  -0.93678  -0.92605  -0.91166
 Alpha  occ. eigenvalues --   -0.90318  -0.89855  -0.89620  -0.87363  -0.85909
 Alpha  occ. eigenvalues --   -0.85340  -0.84694  -0.83597  -0.80406  -0.80363
 Alpha  occ. eigenvalues --   -0.79301  -0.78528  -0.78466  -0.77295  -0.76458
 Alpha  occ. eigenvalues --   -0.75846  -0.75352  -0.74796  -0.74431  -0.73609
 Alpha  occ. eigenvalues --   -0.73359  -0.72975  -0.72928  -0.72415  -0.70890
 Alpha  occ. eigenvalues --   -0.70507  -0.70062  -0.69791  -0.68820  -0.67696
 Alpha  occ. eigenvalues --   -0.66979  -0.66487  -0.66320  -0.65722  -0.65299
 Alpha  occ. eigenvalues --   -0.65080  -0.65070  -0.64414  -0.64049  -0.63680
 Alpha  occ. eigenvalues --   -0.63435  -0.62954  -0.62393  -0.61993  -0.61658
 Alpha  occ. eigenvalues --   -0.61339  -0.60650  -0.60229  -0.59873  -0.59418
 Alpha  occ. eigenvalues --   -0.59153  -0.59106  -0.58783  -0.58167  -0.57988
 Alpha  occ. eigenvalues --   -0.57719  -0.56967  -0.56678  -0.56231  -0.56069
 Alpha  occ. eigenvalues --   -0.55621  -0.55419  -0.55247  -0.54927  -0.54866
 Alpha  occ. eigenvalues --   -0.53997  -0.53838  -0.53724  -0.53029  -0.52845
 Alpha  occ. eigenvalues --   -0.52756  -0.52141  -0.51890  -0.51624  -0.51422
 Alpha  occ. eigenvalues --   -0.51090  -0.50849  -0.50631  -0.50432  -0.49754
 Alpha  occ. eigenvalues --   -0.49648  -0.49546  -0.49450  -0.49125  -0.48843
 Alpha  occ. eigenvalues --   -0.48702  -0.48253  -0.47961  -0.47701  -0.47526
 Alpha  occ. eigenvalues --   -0.47303  -0.47114  -0.46940  -0.46668  -0.46416
 Alpha  occ. eigenvalues --   -0.46092  -0.46054  -0.45637  -0.45539  -0.45189
 Alpha  occ. eigenvalues --   -0.45139  -0.44684  -0.44390  -0.43498  -0.43437
 Alpha  occ. eigenvalues --   -0.43101  -0.42804  -0.42781  -0.42507  -0.42183
 Alpha  occ. eigenvalues --   -0.42037  -0.41842  -0.41710  -0.38805  -0.38665
 Alpha  occ. eigenvalues --   -0.38185  -0.37402  -0.36890  -0.34852  -0.34220
 Alpha  occ. eigenvalues --   -0.33805  -0.32314  -0.31318  -0.31101  -0.26811
 Alpha  occ. eigenvalues --   -0.21696
 Alpha virt. eigenvalues --   -0.08151  -0.02179  -0.01152   0.01185   0.01952
 Alpha virt. eigenvalues --    0.02006   0.02404   0.02629   0.04574   0.04652
 Alpha virt. eigenvalues --    0.05580   0.06475   0.06643   0.07131   0.07647
 Alpha virt. eigenvalues --    0.08098   0.08350   0.08890   0.09045   0.09436
 Alpha virt. eigenvalues --    0.09904   0.10130   0.10201   0.10395   0.10600
 Alpha virt. eigenvalues --    0.11040   0.11117   0.11459   0.11776   0.12163
 Alpha virt. eigenvalues --    0.12488   0.12778   0.13320   0.13533   0.13783
 Alpha virt. eigenvalues --    0.13828   0.13986   0.14084   0.14132   0.14715
 Alpha virt. eigenvalues --    0.15368   0.15518   0.15675   0.15807   0.15835
 Alpha virt. eigenvalues --    0.16089   0.16230   0.16288   0.16712   0.16895
 Alpha virt. eigenvalues --    0.17052   0.17191   0.17337   0.17385   0.17625
 Alpha virt. eigenvalues --    0.18073   0.18165   0.18292   0.19216   0.19373
 Alpha virt. eigenvalues --    0.19396   0.19768   0.19929   0.20590   0.21528
 Alpha virt. eigenvalues --    0.21551   0.22143   0.22662   0.22918   0.23450
 Alpha virt. eigenvalues --    0.23686   0.24108   0.24499   0.24549   0.24579
 Alpha virt. eigenvalues --    0.24662   0.24696   0.24869   0.24978   0.25002
 Alpha virt. eigenvalues --    0.25033   0.25090   0.25180   0.25233   0.25383
 Alpha virt. eigenvalues --    0.25461   0.25494   0.25502   0.25540   0.25631
 Alpha virt. eigenvalues --    0.25766   0.25802   0.25829   0.25904   0.26016
 Alpha virt. eigenvalues --    0.26078   0.26084   0.26088   0.26211   0.26252
 Alpha virt. eigenvalues --    0.26279   0.26283   0.26309   0.26400   0.26515
 Alpha virt. eigenvalues --    0.26589   0.26701   0.26802   0.26828   0.27136
 Alpha virt. eigenvalues --    0.27179   0.27322   0.27632   0.27709   0.27914
 Alpha virt. eigenvalues --    0.28077   0.28144   0.28976   0.29198   0.29723
 Alpha virt. eigenvalues --    0.30127   0.30393   0.31032   0.31294   0.31624
 Alpha virt. eigenvalues --    0.31969   0.32349   0.33259   0.33482   0.34387
 Alpha virt. eigenvalues --    0.34618   0.35385   0.35393   0.35478   0.36294
 Alpha virt. eigenvalues --    0.36754   0.37324   0.37394   0.37577   0.38227
 Alpha virt. eigenvalues --    0.38881   0.39199   0.39884   0.40246   0.40715
 Alpha virt. eigenvalues --    0.40932   0.41432   0.41583   0.41666   0.42536
 Alpha virt. eigenvalues --    0.43382   0.44215   0.44839   0.45438   0.45922
 Alpha virt. eigenvalues --    0.47374   0.47655   0.48289   0.50571   0.52821
 Alpha virt. eigenvalues --    0.53585   0.55510
          Condensed to atoms (all electrons):
 Mulliken charges:
               1
     1  Mg   0.436197
     2  C   -0.054669
     3  C   -0.069780
     4  C   -0.044493
     5  C   -0.101212
     6  N   -0.277870
     7  C    0.170739
     8  C    0.003496
     9  C   -0.006945
    10  C    0.080379
    11  C   -0.049358
    12  C   -0.013768
    13  C    0.012752
    14  C    0.464338
    15  O   -0.518305
    16  O   -0.278092
    17  N   -0.330112
    18  C    0.070498
    19  C   -0.019742
    20  C   -0.042772
    21  C    0.106916
    22  C   -0.039873
    23  C    0.305242
    24  O   -0.539626
    25  C   -0.042516
    26  N   -0.279501
    27  C    0.086926
    28  C   -0.002541
    29  C    0.002905
    30  C    0.197366
    31  C   -0.051174
    32  C   -0.018218
    33  C   -0.048506
    34  N   -0.327998
    35  C    0.130743
    36  C    0.063648
    37  C   -0.058369
    38  C    0.143603
    39  C   -0.038020
    40  C    0.349115
    41  O   -0.487141
    42  C    0.062453
    43  C    0.471627
    44  O   -0.526134
    45  O   -0.261350
    46  C    0.078060
    47  C    0.106411
    48  C   -0.091898
    49  C   -0.011722
    50  C   -0.045732
    51  C   -0.027207
    52  C   -0.038140
    53  C   -0.018653
    54  C   -0.012626
    55  C   -0.058701
    56  C   -0.044359
    57  C   -0.037180
    58  C   -0.035849
    59  C   -0.017132
    60  C   -0.063030
    61  C   -0.033299
    62  C   -0.037630
    63  C   -0.042322
    64  C   -0.007425
    65  C   -0.057805
    66  C   -0.056459
    67  H    0.024799
    68  H    0.046370
    69  H    0.038409
    70  H    0.055498
    71  H    0.032184
    72  H    0.017809
    73  H    0.021007
    74  H    0.023507
    75  H    0.026451
    76  H    0.011597
    77  H    0.037292
    78  H    0.048177
    79  H    0.027422
    80  H    0.014741
    81  H    0.015617
    82  H    0.044240
    83  H    0.028135
    84  H    0.030418
    85  H    0.037231
    86  H    0.021154
    87  H    0.025202
    88  H    0.020095
    89  H    0.020058
    90  H    0.030054
    91  H    0.013908
    92  H    0.022008
    93  H    0.012375
    94  H    0.021411
    95  H    0.034671
    96  H    0.047364
    97  H    0.046017
    98  H    0.056609
    99  H    0.044201
   100  H    0.054766
   101  H    0.030279
   102  H    0.069221
   103  H    0.047810
   104  H    0.035282
   105  H    0.018949
   106  H    0.029088
   107  H    0.027199
   108  H    0.023939
   109  H    0.030177
   110  H    0.010955
   111  H    0.021272
   112  H    0.012533
   113  H    0.005203
   114  H    0.015502
   115  H    0.017489
   116  H    0.017138
   117  H    0.020721
   118  H    0.017957
   119  H    0.024143
   120  H    0.025204
   121  H    0.022730
   122  H    0.020230
   123  H    0.010062
   124  H    0.021664
   125  H    0.017261
   126  H    0.013125
   127  H    0.021848
   128  H    0.021439
   129  H    0.005662
   130  H    0.031101
   131  H    0.019264
   132  H    0.032990
   133  H    0.013754
   134  H    0.021081
   135  H    0.010504
   136  H    0.021569
   137  H    0.021378
   138  H    0.013134
   139  H    0.019781
   140  H    0.012400
 Sum of Mulliken charges =  -0.00000
 Mulliken charges with hydrogens summed into heavy atoms:
               1
     1  Mg   0.436197
     2  C   -0.054669
     3  C   -0.044982
     4  C    0.001878
     5  C   -0.062803
     6  N   -0.277870
     7  C    0.170739
     8  C    0.058994
     9  C    0.025239
    10  C    0.080379
    11  C    0.012965
    12  C    0.024280
    13  C    0.098221
    14  C    0.464338
    15  O   -0.518305
    16  O   -0.278092
    17  N   -0.330112
    18  C    0.070498
    19  C   -0.019742
    20  C   -0.042772
    21  C    0.106916
    22  C    0.017907
    23  C    0.305242
    24  O   -0.539626
    25  C    0.060277
    26  N   -0.279501
    27  C    0.086926
    28  C    0.034689
    29  C    0.024059
    30  C    0.197366
    31  C    0.014181
    32  C    0.025744
    33  C    0.007287
    34  N   -0.327998
    35  C    0.130743
    36  C    0.063648
    37  C   -0.058369
    38  C    0.143603
    39  C    0.090032
    40  C    0.349115
    41  O   -0.487141
    42  C    0.119063
    43  C    0.471627
    44  O   -0.526134
    45  O   -0.261350
    46  C    0.207305
    47  C    0.223443
    48  C   -0.056616
    49  C   -0.011722
    50  C    0.029503
    51  C    0.026909
    52  C   -0.005912
    53  C   -0.000918
    54  C    0.002876
    55  C   -0.003353
    56  C   -0.002258
    57  C    0.010754
    58  C   -0.005556
    59  C    0.004532
    60  C   -0.010797
    61  C   -0.006199
    62  C    0.012735
    63  C    0.004423
    64  C    0.013656
    65  C   -0.004354
    66  C   -0.011144
 Charge=              0.0000 electrons
 Dipole moment (field-independent basis, Debye):
    X=              2.0521    Y=             -2.9554    Z=             -2.5276  Tot=              4.3971
 N-N= 4.295736828634D+03 E-N= 0.000000000000D+00  KE=-9.265700130400D+03
 Leave Link  601 at Wed May  4 02:18:22 2022, MaxMem=  6710886400 cpu:               1.1 elap:               0.1
 (Enter /sw/apps/gaussian-16.0/g16/l9999.exe)
 1\1\GINC-BP1-COMPUTE062\SP\RZINDO CIS\STO-3G\C55H74Mg1N4O6\OF15641\04-
 May-2022\0\\#p ZINDO=(nstates=5)\\step_1201_chromophore_6 ZINDO\\0,1\M
 g,0,16.454,-2.838,27.046\C,0,15.661,-0.437,29.499\C,0,18.368,-4.482,29
 .421\C,0,17.629,-4.754,24.573\C,0,14.909,-0.664,24.546\N,0,17.222,-2.2
 07,29.146\C,0,16.578,-1.374,30.006\C,0,17.081,-1.482,31.54\C,0,18.073,
 -2.777,31.379\C,0,17.938,-3.172,29.836\C,0,19.524,-2.54,31.744\C,0,15.
 97,-1.629,32.575\C,0,15.811,-0.665,33.651\C,0,17.122,-0.078,34.25\O,0,
 17.341,1.108,34.436\O,0,18.012,-1.077,34.568\N,0,17.64,-4.555,27.089\C
 ,0,18.303,-5.141,28.139\C,0,18.889,-6.352,27.664\C,0,18.73,-6.383,26.2
 6\C,0,17.946,-5.243,25.882\C,0,19.823,-7.068,28.501\C,0,19.324,-7.385,
 25.301\O,0,19.077,-7.373,24.068\C,0,20.141,-8.701,25.86\N,0,16.217,-2.
 761,24.917\C,0,16.951,-3.654,24.146\C,0,16.901,-3.303,22.622\C,0,15.78
 7,-2.174,22.648\C,0,15.636,-1.833,24.104\C,0,18.263,-2.787,22.026\C,0,
 14.533,-2.414,21.837\C,0,13.261,-2.545,22.595\N,0,15.516,-0.978,26.95\
 C,0,14.838,-0.27,25.956\C,0,14.09,0.898,26.609\C,0,14.404,0.848,27.971
 \C,0,15.306,-0.306,28.134\C,0,13.16,1.835,25.958\C,0,14.117,1.581,29.2
 52\O,0,13.437,2.552,29.496\C,0,14.876,0.652,30.226\C,0,15.905,1.611,30
 .915\O,0,16.995,1.855,30.409\O,0,15.5,2.234,32.069\C,0,16.436,3.341,32
 .518\C,0,19.232,-0.68,35.339\C,0,19.097,-1.422,36.651\C,0,20.123,-1.64
 7,37.504\C,0,21.419,-0.907,37.383\C,0,20.001,-2.469,38.771\C,0,19.348,
 -3.886,38.542\C,0,20.222,-5.085,38.767\C,0,19.77,-6.035,39.779\C,0,20.
 094,-5.453,41.169\C,0,20.452,-7.493,39.597\C,0,22.011,-7.537,39.596\C,
 0,22.549,-8.735,40.41\C,0,24.014,-9.107,40.115\C,0,24.106,-10.264,39.0
 72\C,0,24.821,-9.487,41.39\C,0,26.327,-9.239,41.317\C,0,26.914,-9.021,
 42.713\C,0,28.062,-10.038,43.125\C,0,29.482,-9.622,42.748\C,0,27.919,-
 10.223,44.621\H,0,18.916,-5.06,30.168\H,0,18.011,-5.193,23.649\H,0,14.
 391,-0.02,23.833\H,0,17.583,-0.545,31.782\H,0,17.862,-3.607,32.052\H,0
 ,19.857,-3.203,32.543\H,0,19.633,-1.496,32.04\H,0,20.171,-2.717,30.885
 \H,0,15.929,-2.599,33.072\H,0,15.081,-1.587,31.945\H,0,15.511,-1.29,34
 .492\H,0,15.103,0.14,33.454\H,0,20.839,-7.007,28.112\H,0,19.641,-8.139
 ,28.59\H,0,19.785,-6.745,29.541\H,0,19.533,-9.365,26.475\H,0,21.045,-8
 .301,26.318\H,0,20.636,-9.281,25.081\H,0,16.567,-4.143,22.012\H,0,16.1
 77,-1.255,22.209\H,0,19.108,-3.213,22.567\H,0,18.416,-1.71,22.101\H,0,
 18.355,-3.078,20.98\H,0,14.749,-3.25,21.172\H,0,14.429,-1.48,21.284\H,
 0,13.407,-3.04,23.555\H,0,12.601,-3.198,22.023\H,0,12.778,-1.583,22.76
 5\H,0,12.746,1.195,25.179\H,0,13.634,2.72,25.532\H,0,12.522,2.119,26.7
 95\H,0,14.155,0.33,30.978\H,0,16.293,4.29,32.002\H,0,17.5,3.104,32.516
 \H,0,16.241,3.547,33.571\H,0,19.354,0.378,35.571\H,0,20.137,-1.08,34.8
 81\H,0,18.12,-1.807,36.943\H,0,21.178,-0.03,36.781\H,0,22.189,-1.471,3
 6.858\H,0,21.831,-0.599,38.344\H,0,19.227,-1.951,39.337\H,0,20.898,-2.
 599,39.376\H,0,19.101,-3.938,37.481\H,0,18.371,-3.925,39.022\H,0,21.23
 2,-4.835,39.093\H,0,20.39,-5.564,37.803\H,0,18.689,-6.123,39.673\H,0,2
 0.857,-6.094,41.611\H,0,19.221,-5.456,41.822\H,0,20.521,-4.452,41.102\
 H,0,20.201,-7.828,38.59\H,0,19.999,-8.063,40.408\H,0,22.444,-6.658,40.
 073\H,0,22.343,-7.706,38.571\H,0,21.807,-9.52,40.264\H,0,22.454,-8.471
 ,41.464\H,0,24.519,-8.329,39.542\H,0,24.925,-10.94,39.314\H,0,24.369,-
 9.856,38.096\H,0,23.152,-10.789,39.017\H,0,24.546,-10.51,41.65\H,0,24.
 463,-8.875,42.218\H,0,26.588,-8.437,40.626\H,0,26.604,-10.234,40.966\H
 ,0,26.199,-8.894,43.526\H,0,27.371,-8.055,42.497\H,0,27.961,-11.007,42
 .638\H,0,29.343,-8.735,42.131\H,0,30.049,-10.326,42.138\H,0,30.085,-9.
 289,43.593\H,0,28.289,-11.21,44.895\H,0,26.935,-10.031,45.048\H,0,28.5
 56,-9.49,45.117\\Version=ES64L-G16RevA.03\State=1-A\HF=-473.90319\RMSD
 =7.898e-09\PG=C01 [X(C55H74Mg1N4O6)]\\@


 BLACK HOLES SUCK.
 Job cpu time:       0 days  0 hours  2 minutes 39.6 seconds.
 Elapsed time:       0 days  0 hours  0 minutes  6.9 seconds.
 File lengths (MBytes):  RWF=   1273 Int=      0 D2E=      0 Chk=     38 Scr=      1
 Normal termination of Gaussian 16 at Wed May  4 02:18:23 2022.
