 Entering Gaussian System, Link 0=g16
 Initial command:
 /sw/apps/gaussian-16.0/g16/l1.exe "/tmp/Gau-104170.inp" -scrdir="/tmp/"
 Entering Link 1 = /sw/apps/gaussian-16.0/g16/l1.exe PID=    104175.
  
 Copyright (c) 1988,1990,1992,1993,1995,1998,2003,2009,2016,
            Gaussian, Inc.  All Rights Reserved.
  
 This is part of the Gaussian(R) 16 program.  It is based on
 the Gaussian(R) 09 system (copyright 2009, Gaussian, Inc.),
 the Gaussian(R) 03 system (copyright 2003, Gaussian, Inc.),
 the Gaussian(R) 98 system (copyright 1998, Gaussian, Inc.),
 the Gaussian(R) 94 system (copyright 1995, Gaussian, Inc.),
 the Gaussian 92(TM) system (copyright 1992, Gaussian, Inc.),
 the Gaussian 90(TM) system (copyright 1990, Gaussian, Inc.),
 the Gaussian 88(TM) system (copyright 1988, Gaussian, Inc.),
 the Gaussian 86(TM) system (copyright 1986, Carnegie Mellon
 University), and the Gaussian 82(TM) system (copyright 1983,
 Carnegie Mellon University). Gaussian is a federally registered
 trademark of Gaussian, Inc.
  
 This software contains proprietary and confidential information,
 including trade secrets, belonging to Gaussian, Inc.
  
 This software is provided under written license and may be
 used, copied, transmitted, or stored only in accord with that
 written license.
  
 The following legend is applicable only to US Government
 contracts under FAR:
  
                    RESTRICTED RIGHTS LEGEND
  
 Use, reproduction and disclosure by the US Government is
 subject to restrictions as set forth in subparagraphs (a)
 and (c) of the Commercial Computer Software - Restricted
 Rights clause in FAR 52.227-19.
  
 Gaussian, Inc.
 340 Quinnipiac St., Bldg. 40, Wallingford CT 06492
  
  
 ---------------------------------------------------------------
 Warning -- This program may not be used in any manner that
 competes with the business of Gaussian, Inc. or will provide
 assistance to any competitor of Gaussian, Inc.  The licensee
 of this program is prohibited from giving any competitor of
 Gaussian, Inc. access to this program.  By using this program,
 the user acknowledges that Gaussian, Inc. is engaged in the
 business of creating and licensing software in the field of
 computational chemistry and represents and warrants to the
 licensee that it is not a competitor of Gaussian, Inc. and that
 it will not use this program in any manner prohibited above.
 ---------------------------------------------------------------
  

 Cite this work as:
 Gaussian 16, Revision A.03,
 M. J. Frisch, G. W. Trucks, H. B. Schlegel, G. E. Scuseria, 
 M. A. Robb, J. R. Cheeseman, G. Scalmani, V. Barone, 
 G. A. Petersson, H. Nakatsuji, X. Li, M. Caricato, A. V. Marenich, 
 J. Bloino, B. G. Janesko, R. Gomperts, B. Mennucci, H. P. Hratchian, 
 J. V. Ortiz, A. F. Izmaylov, J. L. Sonnenberg, D. Williams-Young, 
 F. Ding, F. Lipparini, F. Egidi, J. Goings, B. Peng, A. Petrone, 
 T. Henderson, D. Ranasinghe, V. G. Zakrzewski, J. Gao, N. Rega, 
 G. Zheng, W. Liang, M. Hada, M. Ehara, K. Toyota, R. Fukuda, 
 J. Hasegawa, M. Ishida, T. Nakajima, Y. Honda, O. Kitao, H. Nakai, 
 T. Vreven, K. Throssell, J. A. Montgomery, Jr., J. E. Peralta, 
 F. Ogliaro, M. J. Bearpark, J. J. Heyd, E. N. Brothers, K. N. Kudin, 
 V. N. Staroverov, T. A. Keith, R. Kobayashi, J. Normand, 
 K. Raghavachari, A. P. Rendell, J. C. Burant, S. S. Iyengar, 
 J. Tomasi, M. Cossi, J. M. Millam, M. Klene, C. Adamo, R. Cammi, 
 J. W. Ochterski, R. L. Martin, K. Morokuma, O. Farkas, 
 J. B. Foresman, and D. J. Fox, Gaussian, Inc., Wallingford CT, 2016.
 
 ******************************************
 Gaussian 16:  ES64L-G16RevA.03 25-Dec-2016
                 5-May-2022 
 ******************************************
 %nproc=24
 Will use up to   24 processors via shared memory.
 %mem=75GB
 -----------------------------------
 #p cam-b3lyp/Def2SVP td=(nstates=5)
 -----------------------------------
 1/38=1,172=1/1;
 2/12=2,17=6,18=5,40=1/2;
 3/5=43,7=101,11=9,25=1,30=1,74=-40/1,2,3,8;
 4//1;
 5/5=2,38=5/2;
 8/6=1,10=1,108=5/1;
 9/41=5,42=1,70=2/14;
 6/7=2,8=2,9=2,10=2/1;
 99/5=1,9=1/99;
 Leave Link    1 at Thu May  5 10:54:28 2022, MaxMem= 10066329600 cpu:               1.0 elap:               0.0
 (Enter /sw/apps/gaussian-16.0/g16/l101.exe)
 ------------------------------------------------------
 step_851_chromophore_2 TDDFT with cam-b3lyp functional
 ------------------------------------------------------
 Symbolic Z-matrix:
 Charge =  0 Multiplicity = 1
 Mg                    3.219     0.954     44.372 
 C                     6.236     2.748     44.098 
 C                     1.619     3.835     43.001 
 C                     0.488    -0.746     44.196 
 C                     5.092    -1.773     45.291 
 N                     3.882     2.98      43.534 
 C                     5.171     3.47      43.455 
 C                     5.248     4.848     42.852 
 C                     3.718     5.22      42.576 
 C                     2.981     3.968     43.09 
 C                     3.199     6.503     43.416 
 C                     6.143     5.106     41.651 
 C                     6.696     3.903     40.885 
 C                     7.098     4.177     39.458 
 O                     7.686     5.192     39.085 
 O                     6.746     3.084     38.634 
 N                     1.317     1.454     43.623 
 C                     0.826     2.666     43.146 
 C                    -0.606     2.532     42.985 
 C                    -0.959     1.267     43.355 
 C                     0.3       0.54      43.684 
 C                    -1.367     3.783     42.58 
 C                    -2.385     0.67      43.296 
 O                    -3.374     1.341     42.929 
 C                    -2.664    -0.839     43.542 
 N                     2.941    -1.069     44.501 
 C                     1.667    -1.452     44.564 
 C                     1.57     -3.002     44.883 
 C                     3.107    -3.372     45.227 
 C                     3.77     -2.021     45.055 
 C                     0.527    -3.309     46.02 
 C                     3.754    -4.557     44.491 
 C                     4.454    -5.613     45.26 
 N                     5.276     0.512     44.612 
 C                     5.854    -0.61      45.065 
 C                     7.265    -0.409     45.277 
 C                     7.46      0.9       44.922 
 C                     6.195     1.421     44.44 
 C                     8.358    -1.352     45.609 
 C                     8.49      1.942     44.721 
 O                     9.707     1.935     44.891 
 C                     7.72      3.177     44.239 
 C                     8.017     4.277     45.132 
 O                     8.926     5.127     44.866 
 O                     6.995     4.549     46.028 
 C                     6.836     5.903     46.477 
 C                     6.993     3.228     37.227 
 C                     5.736     2.814     36.614 
 C                     5.563     2.149     35.424 
 C                     6.63      1.605     34.484 
 C                     4.089     1.745     35.249 
 C                     3.272     2.849     34.523 
 C                     2.905     2.74      33.033 
 C                     1.434     2.33      32.667 
 C                     1.245     0.805     32.834 
 C                     1.01      2.823     31.212 
 C                     0.05      4.038     31.309 
 C                    -1.025     3.856     30.171 
 C                    -0.7       4.869     29.041 
 C                    -1.139     6.26      29.512 
 C                    -1.361     4.427     27.755 
 C                    -0.387     4.28      26.602 
 C                    -0.713     3.182     25.546 
 C                    -1.272     3.827     24.211 
 C                    -2.579     3.147     23.775 
 C                    -0.229     4.114     23.092 
 H                     1.007     4.695     42.72 
 H                    -0.445    -1.295     44.339 
 H                     5.622    -2.544     45.855 
 H                     5.564     5.529     43.644 
 H                     3.496     5.31      41.513 
 H                     2.558     7.182     42.853 
 H                     4.079     7.006     43.819 
 H                     2.664     6.17      44.305 
 H                     6.979     5.76      41.896 
 H                     5.542     5.655     40.926 
 H                     6.096     2.993     40.908 
 H                     7.649     3.552     41.281 
 H                    -2.371     3.48      42.283 
 H                    -0.903     4.217     41.694 
 H                    -1.386     4.449     43.442 
 H                    -2.447    -1.036     44.592 
 H                    -2.22     -1.488     42.787 
 H                    -3.701    -1.133     43.383 
 H                     1.295    -3.484     43.945 
 H                     3.144    -3.601     46.292 
 H                     0.333    -4.381     46.056 
 H                    -0.406    -2.749     45.959 
 H                     0.86     -2.972     47.002 
 H                     4.522    -4.042     43.915 
 H                     3.103    -5.004     43.74 
 H                     4.046    -6.591     45.003 
 H                     4.412    -5.486     46.342 
 H                     5.524    -5.54      45.066 
 H                     7.971    -2.31      45.264 
 H                     8.619    -1.476     46.66 
 H                     9.201    -1.075     44.976 
 H                     8.271     3.445     43.338 
 H                     5.884     6.064     46.982 
 H                     6.899     6.551     45.603 
 H                     7.638     6.138     47.177 
 H                     7.752     2.462     37.066 
 H                     7.312     4.211     36.881 
 H                     4.859     3.068     37.208 
 H                     7.642     1.965     34.669 
 H                     6.39      2.205     33.607 
 H                     6.615     0.525     34.336 
 H                     3.599     1.466     36.182 
 H                     4.15      0.802     34.705 
 H                     3.735     3.824     34.674 
 H                     2.397     2.805     35.172 
 H                     3.601     2.063     32.539 
 H                     3.196     3.695     32.595 
 H                     0.786     2.739     33.443 
 H                     2.048     0.291     33.362 
 H                     1.091     0.337     31.861 
 H                     0.219     0.677     33.181 
 H                     0.707     1.989     30.58 
 H                     1.943     3.253     30.848 
 H                     0.66      4.937     31.22 
 H                    -0.354     4.125     32.317 
 H                    -1.97      4.153     30.627 
 H                    -1.143     2.863     29.736 
 H                     0.383     4.869     28.913 
 H                    -0.307     6.96      29.442 
 H                    -1.704     6.438     30.427 
 H                    -1.832     6.785     28.854 
 H                    -2.089     5.17      27.43 
 H                    -1.922     3.505     27.906 
 H                     0.584     4.077     27.053 
 H                    -0.282     5.236     26.089 
 H                    -1.499     2.576     25.997 
 H                     0.177     2.556     25.48 
 H                    -1.619     4.826     24.474 
 H                    -2.618     2.081     23.999 
 H                    -2.761     3.288     22.71 
 H                    -3.376     3.63      24.343 
 H                    -0.143     5.18      22.879 
 H                    -0.301     3.493     22.2 
 H                     0.782     3.898     23.436 
 
 ITRead=  0  0  0  0  0  0  0  0  0  0  0  0  0  0  0  0  0  0  0  0
 ITRead=  0  0  0  0  0  0  0  0  0  0  0  0  0  0  0  0  0  0  0  0
 ITRead=  0  0  0  0  0  0  0  0  0  0  0  0  0  0  0  0  0  0  0  0
 ITRead=  0  0  0  0  0  0  0  0  0  0  0  0  0  0  0  0  0  0  0  0
 ITRead=  0  0  0  0  0  0  0  0  0  0  0  0  0  0  0  0  0  0  0  0
 ITRead=  0  0  0  0  0  0  0  0  0  0  0  0  0  0  0  0  0  0  0  0
 ITRead=  0  0  0  0  0  0  0  0  0  0  0  0  0  0  0  0  0  0  0  0
 MicOpt= -1 -1 -1 -1 -1 -1 -1 -1 -1 -1 -1 -1 -1 -1 -1 -1 -1 -1 -1 -1
 MicOpt= -1 -1 -1 -1 -1 -1 -1 -1 -1 -1 -1 -1 -1 -1 -1 -1 -1 -1 -1 -1
 MicOpt= -1 -1 -1 -1 -1 -1 -1 -1 -1 -1 -1 -1 -1 -1 -1 -1 -1 -1 -1 -1
 MicOpt= -1 -1 -1 -1 -1 -1 -1 -1 -1 -1 -1 -1 -1 -1 -1 -1 -1 -1 -1 -1
 MicOpt= -1 -1 -1 -1 -1 -1 -1 -1 -1 -1 -1 -1 -1 -1 -1 -1 -1 -1 -1 -1
 MicOpt= -1 -1 -1 -1 -1 -1 -1 -1 -1 -1 -1 -1 -1 -1 -1 -1 -1 -1 -1 -1
 MicOpt= -1 -1 -1 -1 -1 -1 -1 -1 -1 -1 -1 -1 -1 -1 -1 -1 -1 -1 -1 -1
 NAtoms=    140 NQM=      140 NQMF=       0 NMMI=      0 NMMIF=      0
                NMic=       0 NMicF=      0.
                    Isotopes and Nuclear Properties:
 (Nuclear quadrupole moments (NQMom) in fm**2, nuclear magnetic moments (NMagM)
  in nuclear magnetons)

  Atom         1           2           3           4           5           6           7           8           9          10
 IAtWgt=          24          12          12          12          12          14          12          12          12          12
 AtmWgt=  23.9850450  12.0000000  12.0000000  12.0000000  12.0000000  14.0030740  12.0000000  12.0000000  12.0000000  12.0000000
 NucSpn=           0           0           0           0           0           2           0           0           0           0
 AtZEff=  -0.0000000  -0.0000000  -0.0000000  -0.0000000  -0.0000000  -0.0000000  -0.0000000  -0.0000000  -0.0000000  -0.0000000
 NQMom=    0.0000000   0.0000000   0.0000000   0.0000000   0.0000000   2.0440000   0.0000000   0.0000000   0.0000000   0.0000000
 NMagM=    0.0000000   0.0000000   0.0000000   0.0000000   0.0000000   0.4037610   0.0000000   0.0000000   0.0000000   0.0000000
 AtZNuc=  12.0000000   6.0000000   6.0000000   6.0000000   6.0000000   7.0000000   6.0000000   6.0000000   6.0000000   6.0000000

  Atom        11          12          13          14          15          16          17          18          19          20
 IAtWgt=          12          12          12          12          16          16          14          12          12          12
 AtmWgt=  12.0000000  12.0000000  12.0000000  12.0000000  15.9949146  15.9949146  14.0030740  12.0000000  12.0000000  12.0000000
 NucSpn=           0           0           0           0           0           0           2           0           0           0
 AtZEff=  -0.0000000  -0.0000000  -0.0000000  -0.0000000  -0.0000000  -0.0000000  -0.0000000  -0.0000000  -0.0000000  -0.0000000
 NQMom=    0.0000000   0.0000000   0.0000000   0.0000000   0.0000000   0.0000000   2.0440000   0.0000000   0.0000000   0.0000000
 NMagM=    0.0000000   0.0000000   0.0000000   0.0000000   0.0000000   0.0000000   0.4037610   0.0000000   0.0000000   0.0000000
 AtZNuc=   6.0000000   6.0000000   6.0000000   6.0000000   8.0000000   8.0000000   7.0000000   6.0000000   6.0000000   6.0000000

  Atom        21          22          23          24          25          26          27          28          29          30
 IAtWgt=          12          12          12          16          12          14          12          12          12          12
 AtmWgt=  12.0000000  12.0000000  12.0000000  15.9949146  12.0000000  14.0030740  12.0000000  12.0000000  12.0000000  12.0000000
 NucSpn=           0           0           0           0           0           2           0           0           0           0
 AtZEff=  -0.0000000  -0.0000000  -0.0000000  -0.0000000  -0.0000000  -0.0000000  -0.0000000  -0.0000000  -0.0000000  -0.0000000
 NQMom=    0.0000000   0.0000000   0.0000000   0.0000000   0.0000000   2.0440000   0.0000000   0.0000000   0.0000000   0.0000000
 NMagM=    0.0000000   0.0000000   0.0000000   0.0000000   0.0000000   0.4037610   0.0000000   0.0000000   0.0000000   0.0000000
 AtZNuc=   6.0000000   6.0000000   6.0000000   8.0000000   6.0000000   7.0000000   6.0000000   6.0000000   6.0000000   6.0000000

  Atom        31          32          33          34          35          36          37          38          39          40
 IAtWgt=          12          12          12          14          12          12          12          12          12          12
 AtmWgt=  12.0000000  12.0000000  12.0000000  14.0030740  12.0000000  12.0000000  12.0000000  12.0000000  12.0000000  12.0000000
 NucSpn=           0           0           0           2           0           0           0           0           0           0
 AtZEff=  -0.0000000  -0.0000000  -0.0000000  -0.0000000  -0.0000000  -0.0000000  -0.0000000  -0.0000000  -0.0000000  -0.0000000
 NQMom=    0.0000000   0.0000000   0.0000000   2.0440000   0.0000000   0.0000000   0.0000000   0.0000000   0.0000000   0.0000000
 NMagM=    0.0000000   0.0000000   0.0000000   0.4037610   0.0000000   0.0000000   0.0000000   0.0000000   0.0000000   0.0000000
 AtZNuc=   6.0000000   6.0000000   6.0000000   7.0000000   6.0000000   6.0000000   6.0000000   6.0000000   6.0000000   6.0000000

  Atom        41          42          43          44          45          46          47          48          49          50
 IAtWgt=          16          12          12          16          16          12          12          12          12          12
 AtmWgt=  15.9949146  12.0000000  12.0000000  15.9949146  15.9949146  12.0000000  12.0000000  12.0000000  12.0000000  12.0000000
 NucSpn=           0           0           0           0           0           0           0           0           0           0
 AtZEff=  -0.0000000  -0.0000000  -0.0000000  -0.0000000  -0.0000000  -0.0000000  -0.0000000  -0.0000000  -0.0000000  -0.0000000
 NQMom=    0.0000000   0.0000000   0.0000000   0.0000000   0.0000000   0.0000000   0.0000000   0.0000000   0.0000000   0.0000000
 NMagM=    0.0000000   0.0000000   0.0000000   0.0000000   0.0000000   0.0000000   0.0000000   0.0000000   0.0000000   0.0000000
 AtZNuc=   8.0000000   6.0000000   6.0000000   8.0000000   8.0000000   6.0000000   6.0000000   6.0000000   6.0000000   6.0000000

  Atom        51          52          53          54          55          56          57          58          59          60
 IAtWgt=          12          12          12          12          12          12          12          12          12          12
 AtmWgt=  12.0000000  12.0000000  12.0000000  12.0000000  12.0000000  12.0000000  12.0000000  12.0000000  12.0000000  12.0000000
 NucSpn=           0           0           0           0           0           0           0           0           0           0
 AtZEff=  -0.0000000  -0.0000000  -0.0000000  -0.0000000  -0.0000000  -0.0000000  -0.0000000  -0.0000000  -0.0000000  -0.0000000
 NQMom=    0.0000000   0.0000000   0.0000000   0.0000000   0.0000000   0.0000000   0.0000000   0.0000000   0.0000000   0.0000000
 NMagM=    0.0000000   0.0000000   0.0000000   0.0000000   0.0000000   0.0000000   0.0000000   0.0000000   0.0000000   0.0000000
 AtZNuc=   6.0000000   6.0000000   6.0000000   6.0000000   6.0000000   6.0000000   6.0000000   6.0000000   6.0000000   6.0000000

  Atom        61          62          63          64          65          66          67          68          69          70
 IAtWgt=          12          12          12          12          12          12           1           1           1           1
 AtmWgt=  12.0000000  12.0000000  12.0000000  12.0000000  12.0000000  12.0000000   1.0078250   1.0078250   1.0078250   1.0078250
 NucSpn=           0           0           0           0           0           0           1           1           1           1
 AtZEff=  -0.0000000  -0.0000000  -0.0000000  -0.0000000  -0.0000000  -0.0000000  -0.0000000  -0.0000000  -0.0000000  -0.0000000
 NQMom=    0.0000000   0.0000000   0.0000000   0.0000000   0.0000000   0.0000000   0.0000000   0.0000000   0.0000000   0.0000000
 NMagM=    0.0000000   0.0000000   0.0000000   0.0000000   0.0000000   0.0000000   2.7928460   2.7928460   2.7928460   2.7928460
 AtZNuc=   6.0000000   6.0000000   6.0000000   6.0000000   6.0000000   6.0000000   1.0000000   1.0000000   1.0000000   1.0000000

  Atom        71          72          73          74          75          76          77          78          79          80
 IAtWgt=           1           1           1           1           1           1           1           1           1           1
 AtmWgt=   1.0078250   1.0078250   1.0078250   1.0078250   1.0078250   1.0078250   1.0078250   1.0078250   1.0078250   1.0078250
 NucSpn=           1           1           1           1           1           1           1           1           1           1
 AtZEff=  -0.0000000  -0.0000000  -0.0000000  -0.0000000  -0.0000000  -0.0000000  -0.0000000  -0.0000000  -0.0000000  -0.0000000
 NQMom=    0.0000000   0.0000000   0.0000000   0.0000000   0.0000000   0.0000000   0.0000000   0.0000000   0.0000000   0.0000000
 NMagM=    2.7928460   2.7928460   2.7928460   2.7928460   2.7928460   2.7928460   2.7928460   2.7928460   2.7928460   2.7928460
 AtZNuc=   1.0000000   1.0000000   1.0000000   1.0000000   1.0000000   1.0000000   1.0000000   1.0000000   1.0000000   1.0000000

  Atom        81          82          83          84          85          86          87          88          89          90
 IAtWgt=           1           1           1           1           1           1           1           1           1           1
 AtmWgt=   1.0078250   1.0078250   1.0078250   1.0078250   1.0078250   1.0078250   1.0078250   1.0078250   1.0078250   1.0078250
 NucSpn=           1           1           1           1           1           1           1           1           1           1
 AtZEff=  -0.0000000  -0.0000000  -0.0000000  -0.0000000  -0.0000000  -0.0000000  -0.0000000  -0.0000000  -0.0000000  -0.0000000
 NQMom=    0.0000000   0.0000000   0.0000000   0.0000000   0.0000000   0.0000000   0.0000000   0.0000000   0.0000000   0.0000000
 NMagM=    2.7928460   2.7928460   2.7928460   2.7928460   2.7928460   2.7928460   2.7928460   2.7928460   2.7928460   2.7928460
 AtZNuc=   1.0000000   1.0000000   1.0000000   1.0000000   1.0000000   1.0000000   1.0000000   1.0000000   1.0000000   1.0000000

  Atom        91          92          93          94          95          96          97          98          99         100
 IAtWgt=           1           1           1           1           1           1           1           1           1           1
 AtmWgt=   1.0078250   1.0078250   1.0078250   1.0078250   1.0078250   1.0078250   1.0078250   1.0078250   1.0078250   1.0078250
 NucSpn=           1           1           1           1           1           1           1           1           1           1
 AtZEff=  -0.0000000  -0.0000000  -0.0000000  -0.0000000  -0.0000000  -0.0000000  -0.0000000  -0.0000000  -0.0000000  -0.0000000
 NQMom=    0.0000000   0.0000000   0.0000000   0.0000000   0.0000000   0.0000000   0.0000000   0.0000000   0.0000000   0.0000000
 NMagM=    2.7928460   2.7928460   2.7928460   2.7928460   2.7928460   2.7928460   2.7928460   2.7928460   2.7928460   2.7928460
 AtZNuc=   1.0000000   1.0000000   1.0000000   1.0000000   1.0000000   1.0000000   1.0000000   1.0000000   1.0000000   1.0000000

  Atom       101         102         103         104         105         106         107         108         109         110
 IAtWgt=           1           1           1           1           1           1           1           1           1           1
 AtmWgt=   1.0078250   1.0078250   1.0078250   1.0078250   1.0078250   1.0078250   1.0078250   1.0078250   1.0078250   1.0078250
 NucSpn=           1           1           1           1           1           1           1           1           1           1
 AtZEff=  -0.0000000  -0.0000000  -0.0000000  -0.0000000  -0.0000000  -0.0000000  -0.0000000  -0.0000000  -0.0000000  -0.0000000
 NQMom=    0.0000000   0.0000000   0.0000000   0.0000000   0.0000000   0.0000000   0.0000000   0.0000000   0.0000000   0.0000000
 NMagM=    2.7928460   2.7928460   2.7928460   2.7928460   2.7928460   2.7928460   2.7928460   2.7928460   2.7928460   2.7928460
 AtZNuc=   1.0000000   1.0000000   1.0000000   1.0000000   1.0000000   1.0000000   1.0000000   1.0000000   1.0000000   1.0000000

  Atom       111         112         113         114         115         116         117         118         119         120
 IAtWgt=           1           1           1           1           1           1           1           1           1           1
 AtmWgt=   1.0078250   1.0078250   1.0078250   1.0078250   1.0078250   1.0078250   1.0078250   1.0078250   1.0078250   1.0078250
 NucSpn=           1           1           1           1           1           1           1           1           1           1
 AtZEff=  -0.0000000  -0.0000000  -0.0000000  -0.0000000  -0.0000000  -0.0000000  -0.0000000  -0.0000000  -0.0000000  -0.0000000
 NQMom=    0.0000000   0.0000000   0.0000000   0.0000000   0.0000000   0.0000000   0.0000000   0.0000000   0.0000000   0.0000000
 NMagM=    2.7928460   2.7928460   2.7928460   2.7928460   2.7928460   2.7928460   2.7928460   2.7928460   2.7928460   2.7928460
 AtZNuc=   1.0000000   1.0000000   1.0000000   1.0000000   1.0000000   1.0000000   1.0000000   1.0000000   1.0000000   1.0000000

  Atom       121         122         123         124         125         126         127         128         129         130
 IAtWgt=           1           1           1           1           1           1           1           1           1           1
 AtmWgt=   1.0078250   1.0078250   1.0078250   1.0078250   1.0078250   1.0078250   1.0078250   1.0078250   1.0078250   1.0078250
 NucSpn=           1           1           1           1           1           1           1           1           1           1
 AtZEff=  -0.0000000  -0.0000000  -0.0000000  -0.0000000  -0.0000000  -0.0000000  -0.0000000  -0.0000000  -0.0000000  -0.0000000
 NQMom=    0.0000000   0.0000000   0.0000000   0.0000000   0.0000000   0.0000000   0.0000000   0.0000000   0.0000000   0.0000000
 NMagM=    2.7928460   2.7928460   2.7928460   2.7928460   2.7928460   2.7928460   2.7928460   2.7928460   2.7928460   2.7928460
 AtZNuc=   1.0000000   1.0000000   1.0000000   1.0000000   1.0000000   1.0000000   1.0000000   1.0000000   1.0000000   1.0000000

  Atom       131         132         133         134         135         136         137         138         139         140
 IAtWgt=           1           1           1           1           1           1           1           1           1           1
 AtmWgt=   1.0078250   1.0078250   1.0078250   1.0078250   1.0078250   1.0078250   1.0078250   1.0078250   1.0078250   1.0078250
 NucSpn=           1           1           1           1           1           1           1           1           1           1
 AtZEff=  -0.0000000  -0.0000000  -0.0000000  -0.0000000  -0.0000000  -0.0000000  -0.0000000  -0.0000000  -0.0000000  -0.0000000
 NQMom=    0.0000000   0.0000000   0.0000000   0.0000000   0.0000000   0.0000000   0.0000000   0.0000000   0.0000000   0.0000000
 NMagM=    2.7928460   2.7928460   2.7928460   2.7928460   2.7928460   2.7928460   2.7928460   2.7928460   2.7928460   2.7928460
 AtZNuc=   1.0000000   1.0000000   1.0000000   1.0000000   1.0000000   1.0000000   1.0000000   1.0000000   1.0000000   1.0000000
 Leave Link  101 at Thu May  5 10:54:28 2022, MaxMem= 10066329600 cpu:               3.6 elap:               0.2
 (Enter /sw/apps/gaussian-16.0/g16/l202.exe)
 Stoichiometry    C55H74MgN4O6
 Framework group  C1[X(C55H74MgN4O6)]
 Deg. of freedom   414
 Full point group                 C1      NOp   1
 Largest Abelian subgroup         C1      NOp   1
 Largest concise Abelian subgroup C1      NOp   1
                         Standard orientation:                         
 ---------------------------------------------------------------------
 Center     Atomic      Atomic             Coordinates (Angstroms)
 Number     Number       Type             X           Y           Z
 ---------------------------------------------------------------------
      1         12           0       -4.776022    1.275659    0.386369
      2          6           0       -5.042986   -2.234932    0.403130
      3          6           0       -2.566302    0.916663    3.166308
      4          6           0       -4.144909    4.428748    0.188724
      5          6           0       -6.606281    1.256609   -2.518628
      6          7           0       -3.828817   -0.461386    1.540478
      7          6           0       -4.024461   -1.811864    1.326481
      8          6           0       -3.247024   -2.683876    2.277065
      9          6           0       -2.507328   -1.632352    3.227121
     10          6           0       -2.999848   -0.284279    2.665878
     11          6           0       -2.951109   -1.735242    4.780673
     12          6           0       -2.309856   -3.752457    1.738698
     13          6           0       -1.932324   -3.708512    0.257040
     14          6           0       -0.643964   -4.405069   -0.100654
     15          8           0       -0.283520   -5.483357    0.371017
     16          8           0        0.053211   -3.666031   -1.083150
     17          7           0       -3.465512    2.501853    1.485285
     18          6           0       -2.680096    2.212810    2.597548
     19          6           0       -2.159389    3.462229    3.109716
     20          6           0       -2.622154    4.472332    2.317709
     21          6           0       -3.396684    3.841160    1.211555
     22          6           0       -1.362252    3.390877    4.401083
     23          6           0       -2.275971    5.972702    2.467421
     24          8           0       -1.548190    6.400165    3.389735
     25          6           0       -2.681499    7.028560    1.401519
     26          7           0       -5.155494    2.579996   -1.143716
     27          6           0       -4.931161    3.859846   -0.851497
     28          6           0       -5.462223    4.795017   -2.016442
     29          6           0       -6.267961    3.746868   -2.949060
     30          6           0       -6.063203    2.461394   -2.174473
     31          6           0       -6.306462    6.003817   -1.467872
     32          6           0       -5.941516    3.706961   -4.451182
     33          6           0       -7.035014    3.783437   -5.448634
     34          7           0       -5.636686   -0.188112   -0.878876
     35          6           0       -6.408241   -0.022622   -1.963077
     36          6           0       -6.960549   -1.281466   -2.394974
     37          6           0       -6.461718   -2.179291   -1.487996
     38          6           0       -5.574410   -1.459225   -0.594587
     39          6           0       -7.728245   -1.660372   -3.603772
     40          6           0       -6.380304   -3.617237   -1.152214
     41          8           0       -6.874173   -4.611242   -1.679553
     42          6           0       -5.510353   -3.684372    0.108392
     43          6           0       -6.256804   -4.370345    1.141789
     44          8           0       -6.112402   -5.616635    1.354972
     45          8           0       -6.783013   -3.516522    2.098541
     46          6           0       -6.942522   -4.018256    3.433838
     47          6           0        1.343446   -4.161677   -1.471767
     48          6           0        2.198891   -2.982415   -1.402721
     49          6           0        3.264701   -2.671702   -2.212512
     50          6           0        3.775600   -3.428718   -3.430681
     51          6           0        3.765689   -1.248810   -1.911006
     52          6           0        4.858198   -1.245323   -0.806563
     53          6           0        6.352758   -1.105778   -1.143442
     54          6           0        7.033009    0.288776   -0.901835
     55          6           0        6.675220    1.265298   -2.045350
     56          6           0        8.608987    0.168794   -0.697517
     57          6           0        8.978521    0.359528    0.797241
     58          6           0       10.320260    1.185686    0.828744
     59          6           0       11.469659    0.214930    1.209808
     60          6           0       11.371666   -0.067238    2.713212
     61          6           0       12.796124    0.805611    0.788302
     62          6           0       13.599616   -0.111720   -0.113140
     63          6           0       14.508820    0.572910   -1.176929
     64          6           0       16.032832    0.505658   -0.748450
     65          6           0       16.690330    1.891974   -0.829505
     66          6           0       16.856716   -0.690024   -1.308750
     67          1           0       -1.991656    0.941936    4.094881
     68          1           0       -4.116634    5.520207    0.204706
     69          1           0       -7.412224    1.296920   -3.255017
     70          1           0       -3.971857   -3.183439    2.921995
     71          1           0       -1.424316   -1.653447    3.108823
     72          1           0       -2.131014   -1.634263    5.492106
     73          1           0       -3.490120   -2.675529    4.903745
     74          1           0       -3.702923   -0.977685    5.000485
     75          1           0       -2.662247   -4.758127    1.964722
     76          1           0       -1.368477   -3.642114    2.277081
     77          1           0       -1.940421   -2.727701   -0.218958
     78          1           0       -2.625127   -4.267561   -0.372018
     79          1           0       -0.857033    4.347586    4.533354
     80          1           0       -0.577318    2.641006    4.299992
     81          1           0       -2.064646    3.191416    5.209674
     82          1           0       -3.768432    7.107481    1.428802
     83          1           0       -2.193529    6.878009    0.438409
     84          1           0       -2.296631    8.029247    1.595397
     85          1           0       -4.577404    5.134600   -2.554561
     86          1           0       -7.325342    3.996051   -2.860242
     87          1           0       -6.464153    6.729351   -2.265901
     88          1           0       -5.902292    6.488210   -0.579153
     89          1           0       -7.272657    5.697459   -1.066132
     90          1           0       -5.519952    2.706327   -4.539728
     91          1           0       -5.125775    4.372870   -4.731794
     92          1           0       -6.841171    4.595707   -6.149804
     93          1           0       -8.028402    3.916672   -5.019630
     94          1           0       -7.130599    2.816346   -5.942055
     95          1           0       -7.453408   -0.889482   -4.322626
     96          1           0       -8.816101   -1.656226   -3.535577
     97          1           0       -7.312245   -2.609059   -3.942895
     98          1           0       -4.762219   -4.423432   -0.176761
     99          1           0       -7.135402   -3.224855    4.155338
    100          1           0       -6.024498   -4.540284    3.703038
    101          1           0       -7.785941   -4.708727    3.451816
    102          1           0        1.163234   -4.426354   -2.513989
    103          1           0        1.746313   -4.993044   -0.893586
    104          1           0        1.916511   -2.286918   -0.613400
    105          1           0        3.383757   -4.438733   -3.550253
    106          1           0        4.771117   -3.671465   -3.060886
    107          1           0        3.742258   -2.877423   -4.370623
    108          1           0        2.968790   -0.550484   -1.654641
    109          1           0        4.109593   -0.892586   -2.882469
    110          1           0        4.749364   -2.118342   -0.163299
    111          1           0        4.474092   -0.388356   -0.252640
    112          1           0        6.520039   -1.414158   -2.174800
    113          1           0        6.845861   -1.912988   -0.601399
    114          1           0        6.541213    0.738744   -0.038686
    115          1           0        5.871323    0.937066   -2.703986
    116          1           0        7.562558    1.490556   -2.638106
    117          1           0        6.604723    2.247139   -1.575789
    118          1           0        9.153420    0.761151   -1.432019
    119          1           0        8.770636   -0.894317   -0.875138
    120          1           0        9.044651   -0.633974    1.240864
    121          1           0        8.147325    0.806746    1.341260
    122          1           0       10.194305    1.895121    1.647283
    123          1           0       10.601371    1.734921   -0.070431
    124          1           0       11.295951   -0.715169    0.667577
    125          1           0       11.326553   -1.141158    2.891497
    126          1           0       10.687471    0.454002    3.382779
    127          1           0       12.270644    0.143087    3.293245
    128          1           0       13.424831    0.982551    1.660700
    129          1           0       12.654084    1.779249    0.319838
    130          1           0       12.874125   -0.754466   -0.611128
    131          1           0       14.214657   -0.774401    0.495719
    132          1           0       14.195683    1.617023   -1.191256
    133          1           0       14.225898    0.139728   -2.136429
    134          1           0       16.042448    0.318277    0.325038
    135          1           0       16.313176    2.512527   -1.642353
    136          1           0       17.772732    1.810444   -0.924305
    137          1           0       16.448488    2.397286    0.107136
    138          1           0       17.210637   -1.348433   -0.514799
    139          1           0       17.619747   -0.441963   -2.045458
    140          1           0       16.219624   -1.375861   -1.866294
 ---------------------------------------------------------------------
 Rotational constants (GHZ):           0.0370262           0.0103277           0.0093751
 Leave Link  202 at Thu May  5 10:54:28 2022, MaxMem= 10066329600 cpu:               0.2 elap:               0.0
 (Enter /sw/apps/gaussian-16.0/g16/l301.exe)
 Standard basis: def2SVP (5D, 7F)
 Ernie: Thresh=  0.10000D-02 Tol=  0.10000D-05 Strict=F.
 There are  1364 symmetry adapted cartesian basis functions of A   symmetry.
 There are  1298 symmetry adapted basis functions of A   symmetry.
  1298 basis functions,  2180 primitive gaussians,  1364 cartesian basis functions
   246 alpha electrons      246 beta electrons
       nuclear repulsion energy      9564.3957630113 Hartrees.
 IExCor=20419 DFT=T Ex+Corr=CAM-B3LYP ExCW=0 ScaHFX=  1.000000
 ScaDFX=  1.000000  1.000000  1.000000  0.810000 ScalE2=  1.000000  1.000000
 IRadAn=      5 IRanWt=     -1 IRanGd=            0 ICorTp=0 IEmpDi=  4
 HFx  wShort=  0.000000 wLong=  0.330000 cFull=  0.190000 cShort=  0.000000 cLong=  0.460000
 DFx  wShort=  0.000000 wLong=  0.330000 cFull=  0.190000 cShort=  0.000000 cLong=  0.460000
 NAtoms=  140 NActive=  140 NUniq=  140 SFac= 1.00D+00 NAtFMM=   60 NAOKFM=T Big=T
 Integral buffers will be    131072 words long.
 Raffenetti 1 integral format.
 Two-electron integral symmetry is turned on.
 Leave Link  301 at Thu May  5 10:54:28 2022, MaxMem= 10066329600 cpu:               1.6 elap:               0.1
 (Enter /sw/apps/gaussian-16.0/g16/l302.exe)
 NPDir=0 NMtPBC=     1 NCelOv=     1 NCel=       1 NClECP=     1 NCelD=      1
         NCelK=      1 NCelE2=     1 NClLst=     1 CellRange=     0.0.
 One-electron integrals computed using PRISM.
 One-electron integral symmetry used in STVInt
   1 Symmetry operations used in ECPInt.
 ECPInt:  NShTT=  192510 NPrTT=  683786 LenC2=   96095 LenP2D=  208686.
 LDataN:  DoStor=T MaxTD1= 4 Len=   56
 NBasis=  1298 RedAO= T EigKep=  3.08D-04  NBF=  1298
 NBsUse=  1298 1.00D-06 EigRej= -1.00D+00 NBFU=  1298
 Precomputing XC quadrature grid using
 IXCGrd= 4 IRadAn=           5 IRanWt=          -1 IRanGd=           0 AccXCQ= 0.00D+00.
 Generated NRdTot=       0 NPtTot=           0 NUsed=           0 NTot=          32
 NSgBfM=  1024  1024  1024  1024  1024 MxSgAt=   140 MxSgA2=   140.
 Leave Link  302 at Thu May  5 10:54:33 2022, MaxMem= 10066329600 cpu:              98.1 elap:               4.1
 (Enter /sw/apps/gaussian-16.0/g16/l303.exe)
 DipDrv:  MaxL=1.
 Leave Link  303 at Thu May  5 10:54:33 2022, MaxMem= 10066329600 cpu:               6.3 elap:               0.3
 (Enter /sw/apps/gaussian-16.0/g16/l308.exe)
 Leave Link  308 at Thu May  5 10:54:33 2022, MaxMem= 10066329600 cpu:              12.7 elap:               0.6
 (Enter /sw/apps/gaussian-16.0/g16/l401.exe)
 ExpMin= 3.36D-02 ExpMax= 4.95D+03 ExpMxC= 7.45D+02 IAcc=3 IRadAn=         5 AccDes= 0.00D+00
 Harris functional with IExCor=20419 and IRadAn=       5 diagonalized for initial guess.
 HarFok:  IExCor=20419 AccDes= 0.00D+00 IRadAn=         5 IDoV= 1 UseB2=F ITyADJ=14
 ICtDFT=  3500011 ScaDFX=  1.000000  1.000000  1.000000  1.000000
 FoFCou: FMM=F IPFlag=           0 FMFlag=      100000 FMFlg1=        2001
         NFxFlg=           0 DoJE=T BraDBF=F KetDBF=T FulRan=T
         wScrn=  0.000000 ICntrl=       500 IOpCl=  0 I1Cent=   200000004 NGrid=           0
         NMat0=    1 NMatS0=      1 NMatT0=    0 NMatD0=    1 NMtDS0=    0 NMtDT0=    0
 Petite list used in FoFCou.
 Harris En= -2890.84815698097    
 JPrj=0 DoOrth=F DoCkMO=F.
 Leave Link  401 at Thu May  5 10:54:40 2022, MaxMem= 10066329600 cpu:             144.4 elap:               6.0
 (Enter /sw/apps/gaussian-16.0/g16/l502.exe)
 Integral symmetry usage will be decided dynamically.
 Closed shell SCF:
 Using DIIS extrapolation, IDIIS=  1040.
 NGot= 10066329600 LenX= 10062561258 LenY= 10060699398
 Requested convergence on RMS density matrix=1.00D-08 within 128 cycles.
 Requested convergence on MAX density matrix=1.00D-06.
 Requested convergence on             energy=1.00D-06.
 No special actions if energy rises.
 Fock matrices will be formed incrementally for  20 cycles.

 Cycle   1  Pass 1  IDiag  1:
 FoFJK:  IHMeth= 1 ICntrl=       0 DoSepK=T KAlg= 0 I1Cent=           0 FoldK=F
 IRaf=         1 NMat=       1 IRICut=       1 DoRegI=T DoRafI=F ISym2E= 0 IDoP0=0 IntGTp=1.
 FoFCou: FMM=T IPFlag=           0 FMFlag=      100000 FMFlg1=        2001
         NFxFlg=           0 DoJE=T BraDBF=F KetDBF=F FulRan=T
         wScrn=  0.000000 ICntrl=       500 IOpCl=  0 I1Cent=           0 NGrid=           0
         NMat0=    1 NMatS0=      1 NMatT0=    0 NMatD0=    1 NMtDS0=    0 NMtDT0=    0
 Symmetry not used in FoFCou.
 FMM levels:  10  Number of levels for PrismC:   9
 E= -3006.46253965957    
 DIIS: error= 1.91D-02 at cycle   1 NSaved=   1.
 NSaved= 1 IEnMin= 1 EnMin= -3006.46253965957     IErMin= 1 ErrMin= 1.91D-02
 ErrMax= 1.91D-02  0.00D+00 EMaxC= 1.00D-01 BMatC= 1.27D+00 BMatP= 1.27D+00
 IDIUse=3 WtCom= 8.09D-01 WtEn= 1.91D-01
 Coeff-Com:  0.100D+01
 Coeff-En:   0.100D+01
 Coeff:      0.100D+01
 Gap=     0.127 Goal=   None    Shift=    0.000
 GapD=    0.127 DampG=1.000 DampE=0.500 DampFc=0.5000 IDamp=-1.
 Damping current iteration by 5.00D-01
 RMSDP=1.59D-03 MaxDP=1.45D-01              OVMax= 1.82D-01

 Cycle   2  Pass 1  IDiag  1:
 RMSU=  7.81D-04    CP:  9.84D-01
 E= -3006.77459520137     Delta-E=       -0.312055541799 Rises=F Damp=T
 DIIS: error= 9.16D-03 at cycle   2 NSaved=   2.
 NSaved= 2 IEnMin= 2 EnMin= -3006.77459520137     IErMin= 2 ErrMin= 9.16D-03
 ErrMax= 9.16D-03  0.00D+00 EMaxC= 1.00D-01 BMatC= 2.31D-01 BMatP= 1.27D+00
 IDIUse=3 WtCom= 9.08D-01 WtEn= 9.16D-02
 Coeff-Com: -0.221D+00 0.122D+01
 Coeff-En:   0.000D+00 0.100D+01
 Coeff:     -0.201D+00 0.120D+01
 Gap=     0.142 Goal=   None    Shift=    0.000
 RMSDP=7.30D-04 MaxDP=7.86D-02 DE=-3.12D-01 OVMax= 1.83D-01

 Cycle   3  Pass 1  IDiag  1:
 RMSU=  7.17D-04    CP:  9.74D-01  1.13D+00
 E= -3007.00521833677     Delta-E=       -0.230623135403 Rises=F Damp=F
 DIIS: error= 1.02D-02 at cycle   3 NSaved=   3.
 NSaved= 3 IEnMin= 3 EnMin= -3007.00521833677     IErMin= 2 ErrMin= 9.16D-03
 ErrMax= 1.02D-02  0.00D+00 EMaxC= 1.00D-01 BMatC= 1.52D-01 BMatP= 2.31D-01
 IDIUse=3 WtCom= 8.98D-01 WtEn= 1.02D-01
 Coeff-Com: -0.266D+00 0.655D+00 0.611D+00
 Coeff-En:   0.000D+00 0.000D+00 0.100D+01
 Coeff:     -0.239D+00 0.589D+00 0.651D+00
 Gap=     0.128 Goal=   None    Shift=    0.000
 RMSDP=4.90D-04 MaxDP=5.25D-02 DE=-2.31D-01 OVMax= 1.00D-01

 Cycle   4  Pass 1  IDiag  1:
 RMSU=  2.66D-04    CP:  9.71D-01  1.46D+00  5.55D-01
 E= -3007.11112518147     Delta-E=       -0.105906844694 Rises=F Damp=F
 DIIS: error= 5.88D-03 at cycle   4 NSaved=   4.
 NSaved= 4 IEnMin= 4 EnMin= -3007.11112518147     IErMin= 4 ErrMin= 5.88D-03
 ErrMax= 5.88D-03  0.00D+00 EMaxC= 1.00D-01 BMatC= 3.26D-02 BMatP= 1.52D-01
 IDIUse=3 WtCom= 9.41D-01 WtEn= 5.88D-02
 Coeff-Com: -0.116D+00 0.238D+00 0.392D+00 0.486D+00
 Coeff-En:   0.000D+00 0.000D+00 0.180D+00 0.820D+00
 Coeff:     -0.109D+00 0.224D+00 0.380D+00 0.505D+00
 Gap=     0.125 Goal=   None    Shift=    0.000
 RMSDP=1.79D-04 MaxDP=2.62D-02 DE=-1.06D-01 OVMax= 3.93D-02

 Cycle   5  Pass 1  IDiag  1:
 RMSU=  8.25D-05    CP:  9.70D-01  1.42D+00  6.97D-01  5.58D-01
 E= -3007.13878743059     Delta-E=       -0.027662249127 Rises=F Damp=F
 DIIS: error= 1.06D-03 at cycle   5 NSaved=   5.
 NSaved= 5 IEnMin= 5 EnMin= -3007.13878743059     IErMin= 5 ErrMin= 1.06D-03
 ErrMax= 1.06D-03  0.00D+00 EMaxC= 1.00D-01 BMatC= 9.82D-04 BMatP= 3.26D-02
 IDIUse=3 WtCom= 9.89D-01 WtEn= 1.06D-02
 Coeff-Com: -0.463D-01 0.914D-01 0.176D+00 0.268D+00 0.511D+00
 Coeff-En:   0.000D+00 0.000D+00 0.000D+00 0.000D+00 0.100D+01
 Coeff:     -0.458D-01 0.904D-01 0.174D+00 0.265D+00 0.516D+00
 Gap=     0.125 Goal=   None    Shift=    0.000
 RMSDP=4.65D-05 MaxDP=7.50D-03 DE=-2.77D-02 OVMax= 1.67D-02

 Cycle   6  Pass 1  IDiag  1:
 RMSU=  3.20D-05    CP:  9.71D-01  1.42D+00  6.99D-01  6.12D-01  6.32D-01
 E= -3007.13960229514     Delta-E=       -0.000814864547 Rises=F Damp=F
 DIIS: error= 2.94D-04 at cycle   6 NSaved=   6.
 NSaved= 6 IEnMin= 6 EnMin= -3007.13960229514     IErMin= 6 ErrMin= 2.94D-04
 ErrMax= 2.94D-04  0.00D+00 EMaxC= 1.00D-01 BMatC= 1.47D-04 BMatP= 9.82D-04
 IDIUse=3 WtCom= 9.97D-01 WtEn= 2.94D-03
 Coeff-Com:  0.374D-03-0.275D-02 0.123D-01 0.375D-01 0.296D+00 0.657D+00
 Coeff-En:   0.000D+00 0.000D+00 0.000D+00 0.000D+00 0.124D+00 0.876D+00
 Coeff:      0.373D-03-0.274D-02 0.123D-01 0.374D-01 0.295D+00 0.658D+00
 Gap=     0.125 Goal=   None    Shift=    0.000
 RMSDP=1.95D-05 MaxDP=4.47D-03 DE=-8.15D-04 OVMax= 6.82D-03

 Cycle   7  Pass 1  IDiag  1:
 RMSU=  1.13D-05    CP:  9.70D-01  1.42D+00  7.03D-01  6.15D-01  7.80D-01
                    CP:  7.15D-01
 E= -3007.13975096697     Delta-E=       -0.000148671830 Rises=F Damp=F
 DIIS: error= 1.17D-04 at cycle   7 NSaved=   7.
 NSaved= 7 IEnMin= 7 EnMin= -3007.13975096697     IErMin= 7 ErrMin= 1.17D-04
 ErrMax= 1.17D-04  0.00D+00 EMaxC= 1.00D-01 BMatC= 1.82D-05 BMatP= 1.47D-04
 IDIUse=3 WtCom= 9.99D-01 WtEn= 1.17D-03
 Coeff-Com:  0.447D-02-0.977D-02-0.908D-02-0.609D-02 0.108D+00 0.350D+00
 Coeff-Com:  0.563D+00
 Coeff-En:   0.000D+00 0.000D+00 0.000D+00 0.000D+00 0.000D+00 0.000D+00
 Coeff-En:   0.100D+01
 Coeff:      0.447D-02-0.976D-02-0.907D-02-0.609D-02 0.108D+00 0.349D+00
 Coeff:      0.563D+00
 Gap=     0.125 Goal=   None    Shift=    0.000
 RMSDP=6.03D-06 MaxDP=5.84D-04 DE=-1.49D-04 OVMax= 2.88D-03

 Cycle   8  Pass 1  IDiag  1:
 RMSU=  4.30D-06    CP:  9.70D-01  1.42D+00  7.05D-01  6.17D-01  7.76D-01
                    CP:  8.18D-01  7.96D-01
 E= -3007.13977003779     Delta-E=       -0.000019070820 Rises=F Damp=F
 DIIS: error= 4.81D-05 at cycle   8 NSaved=   8.
 NSaved= 8 IEnMin= 8 EnMin= -3007.13977003779     IErMin= 8 ErrMin= 4.81D-05
 ErrMax= 4.81D-05  0.00D+00 EMaxC= 1.00D-01 BMatC= 2.83D-06 BMatP= 1.82D-05
 IDIUse=1 WtCom= 1.00D+00 WtEn= 0.00D+00
 Coeff-Com:  0.249D-02-0.495D-02-0.767D-02-0.124D-01-0.408D-02 0.434D-01
 Coeff-Com:  0.297D+00 0.686D+00
 Coeff:      0.249D-02-0.495D-02-0.767D-02-0.124D-01-0.408D-02 0.434D-01
 Coeff:      0.297D+00 0.686D+00
 Gap=     0.125 Goal=   None    Shift=    0.000
 RMSDP=2.81D-06 MaxDP=5.52D-04 DE=-1.91D-05 OVMax= 9.28D-04

 Cycle   9  Pass 1  IDiag  1:
 RMSU=  1.75D-06    CP:  9.70D-01  1.42D+00  7.05D-01  6.18D-01  7.91D-01
                    CP:  8.32D-01  9.43D-01  9.11D-01
 E= -3007.13977360448     Delta-E=       -0.000003566687 Rises=F Damp=F
 DIIS: error= 1.12D-05 at cycle   9 NSaved=   9.
 NSaved= 9 IEnMin= 9 EnMin= -3007.13977360448     IErMin= 9 ErrMin= 1.12D-05
 ErrMax= 1.12D-05  0.00D+00 EMaxC= 1.00D-01 BMatC= 3.59D-07 BMatP= 2.83D-06
 IDIUse=1 WtCom= 1.00D+00 WtEn= 0.00D+00
 Coeff-Com:  0.656D-03-0.120D-02-0.255D-02-0.556D-02-0.147D-01-0.278D-01
 Coeff-Com:  0.821D-01 0.322D+00 0.647D+00
 Coeff:      0.656D-03-0.120D-02-0.255D-02-0.556D-02-0.147D-01-0.278D-01
 Coeff:      0.821D-01 0.322D+00 0.647D+00
 Gap=     0.125 Goal=   None    Shift=    0.000
 RMSDP=1.18D-06 MaxDP=7.51D-05 DE=-3.57D-06 OVMax= 7.68D-04

 Cycle  10  Pass 1  IDiag  1:
 RMSU=  8.25D-07    CP:  9.70D-01  1.42D+00  7.05D-01  6.18D-01  7.95D-01
                    CP:  8.38D-01  9.75D-01  1.07D+00  9.65D-01
 E= -3007.13977426543     Delta-E=       -0.000000660957 Rises=F Damp=F
 DIIS: error= 7.08D-06 at cycle  10 NSaved=  10.
 NSaved=10 IEnMin=10 EnMin= -3007.13977426543     IErMin=10 ErrMin= 7.08D-06
 ErrMax= 7.08D-06  0.00D+00 EMaxC= 1.00D-01 BMatC= 1.01D-07 BMatP= 3.59D-07
 IDIUse=1 WtCom= 1.00D+00 WtEn= 0.00D+00
 Coeff-Com: -0.260D-03 0.562D-03 0.572D-03 0.801D-04-0.516D-02-0.269D-01
 Coeff-Com: -0.228D-01-0.134D-01 0.330D+00 0.737D+00
 Coeff:     -0.260D-03 0.562D-03 0.572D-03 0.801D-04-0.516D-02-0.269D-01
 Coeff:     -0.228D-01-0.134D-01 0.330D+00 0.737D+00
 Gap=     0.125 Goal=   None    Shift=    0.000
 RMSDP=7.37D-07 MaxDP=6.54D-05 DE=-6.61D-07 OVMax= 4.00D-04

 Cycle  11  Pass 1  IDiag  1:
 RMSU=  4.38D-07    CP:  9.70D-01  1.42D+00  7.05D-01  6.18D-01  7.96D-01
                    CP:  8.42D-01  1.00D+00  1.11D+00  1.20D+00  1.14D+00
 E= -3007.13977452738     Delta-E=       -0.000000261951 Rises=F Damp=F
 DIIS: error= 3.29D-06 at cycle  11 NSaved=  11.
 NSaved=11 IEnMin=11 EnMin= -3007.13977452738     IErMin=11 ErrMin= 3.29D-06
 ErrMax= 3.29D-06  0.00D+00 EMaxC= 1.00D-01 BMatC= 2.17D-08 BMatP= 1.01D-07
 IDIUse=1 WtCom= 1.00D+00 WtEn= 0.00D+00
 Coeff-Com: -0.275D-03 0.544D-03 0.869D-03 0.132D-02 0.170D-02-0.806D-02
 Coeff-Com: -0.273D-01-0.920D-01 0.226D-01 0.319D+00 0.782D+00
 Coeff:     -0.275D-03 0.544D-03 0.869D-03 0.132D-02 0.170D-02-0.806D-02
 Coeff:     -0.273D-01-0.920D-01 0.226D-01 0.319D+00 0.782D+00
 Gap=     0.125 Goal=   None    Shift=    0.000
 RMSDP=5.02D-07 MaxDP=3.15D-05 DE=-2.62D-07 OVMax= 3.62D-04

 Cycle  12  Pass 1  IDiag  1:
 RMSU=  2.27D-07    CP:  9.70D-01  1.42D+00  7.06D-01  6.18D-01  7.97D-01
                    CP:  8.43D-01  1.02D+00  1.15D+00  1.30D+00  1.49D+00
                    CP:  1.27D+00
 E= -3007.13977462148     Delta-E=       -0.000000094091 Rises=F Damp=F
 DIIS: error= 2.79D-06 at cycle  12 NSaved=  12.
 NSaved=12 IEnMin=12 EnMin= -3007.13977462148     IErMin=12 ErrMin= 2.79D-06
 ErrMax= 2.79D-06  0.00D+00 EMaxC= 1.00D-01 BMatC= 9.08D-09 BMatP= 2.17D-08
 IDIUse=1 WtCom= 1.00D+00 WtEn= 0.00D+00
 Coeff-Com: -0.627D-04 0.114D-03 0.262D-03 0.591D-03 0.240D-02 0.205D-02
 Coeff-Com: -0.383D-02-0.427D-01-0.519D-01-0.749D-01 0.393D+00 0.774D+00
 Coeff:     -0.627D-04 0.114D-03 0.262D-03 0.591D-03 0.240D-02 0.205D-02
 Coeff:     -0.383D-02-0.427D-01-0.519D-01-0.749D-01 0.393D+00 0.774D+00
 Gap=     0.125 Goal=   None    Shift=    0.000
 RMSDP=3.07D-07 MaxDP=1.72D-05 DE=-9.41D-08 OVMax= 1.72D-04

 Cycle  13  Pass 1  IDiag  1:
 RMSU=  1.16D-07    CP:  9.70D-01  1.42D+00  7.05D-01  6.18D-01  7.97D-01
                    CP:  8.43D-01  1.02D+00  1.17D+00  1.38D+00  1.65D+00
                    CP:  1.69D+00  1.33D+00
 E= -3007.13977466075     Delta-E=       -0.000000039270 Rises=F Damp=F
 DIIS: error= 1.28D-06 at cycle  13 NSaved=  13.
 NSaved=13 IEnMin=13 EnMin= -3007.13977466075     IErMin=13 ErrMin= 1.28D-06
 ErrMax= 1.28D-06  0.00D+00 EMaxC= 1.00D-01 BMatC= 2.40D-09 BMatP= 9.08D-09
 IDIUse=1 WtCom= 1.00D+00 WtEn= 0.00D+00
 Coeff-Com:  0.969D-04-0.198D-03-0.279D-03-0.308D-03 0.576D-03 0.418D-02
 Coeff-Com:  0.126D-01 0.183D-01-0.221D-01-0.216D+00-0.121D+00 0.316D+00
 Coeff-Com:  0.101D+01
 Coeff:      0.969D-04-0.198D-03-0.279D-03-0.308D-03 0.576D-03 0.418D-02
 Coeff:      0.126D-01 0.183D-01-0.221D-01-0.216D+00-0.121D+00 0.316D+00
 Coeff:      0.101D+01
 Gap=     0.125 Goal=   None    Shift=    0.000
 RMSDP=2.96D-07 MaxDP=1.94D-05 DE=-3.93D-08 OVMax= 2.03D-04

 Cycle  14  Pass 1  IDiag  1:
 RMSU=  6.16D-08    CP:  9.70D-01  1.42D+00  7.05D-01  6.18D-01  7.97D-01
                    CP:  8.44D-01  1.02D+00  1.18D+00  1.43D+00  1.83D+00
                    CP:  2.06D+00  1.95D+00  1.41D+00
 E= -3007.13977467882     Delta-E=       -0.000000018077 Rises=F Damp=F
 DIIS: error= 7.22D-07 at cycle  14 NSaved=  14.
 NSaved=14 IEnMin=14 EnMin= -3007.13977467882     IErMin=14 ErrMin= 7.22D-07
 ErrMax= 7.22D-07  0.00D+00 EMaxC= 1.00D-01 BMatC= 8.78D-10 BMatP= 2.40D-09
 IDIUse=1 WtCom= 1.00D+00 WtEn= 0.00D+00
 Coeff-Com:  0.700D-04-0.139D-03-0.229D-03-0.331D-03-0.377D-03 0.133D-02
 Coeff-Com:  0.791D-02 0.202D-01 0.802D-02-0.983D-01-0.160D+00-0.111D+00
 Coeff-Com:  0.564D+00 0.769D+00
 Coeff:      0.700D-04-0.139D-03-0.229D-03-0.331D-03-0.377D-03 0.133D-02
 Coeff:      0.791D-02 0.202D-01 0.802D-02-0.983D-01-0.160D+00-0.111D+00
 Coeff:      0.564D+00 0.769D+00
 Gap=     0.125 Goal=   None    Shift=    0.000
 RMSDP=1.42D-07 MaxDP=9.51D-06 DE=-1.81D-08 OVMax= 8.07D-05

 Cycle  15  Pass 1  IDiag  1:
 RMSU=  2.95D-08    CP:  9.70D-01  1.42D+00  7.05D-01  6.18D-01  7.97D-01
                    CP:  8.44D-01  1.02D+00  1.18D+00  1.45D+00  1.90D+00
                    CP:  2.26D+00  2.21D+00  1.82D+00  1.16D+00
 E= -3007.13977468270     Delta-E=       -0.000000003882 Rises=F Damp=F
 DIIS: error= 2.11D-07 at cycle  15 NSaved=  15.
 NSaved=15 IEnMin=15 EnMin= -3007.13977468270     IErMin=15 ErrMin= 2.11D-07
 ErrMax= 2.11D-07  0.00D+00 EMaxC= 1.00D-01 BMatC= 8.48D-11 BMatP= 8.78D-10
 IDIUse=1 WtCom= 1.00D+00 WtEn= 0.00D+00
 Coeff-Com:  0.752D-05-0.136D-04-0.328D-04-0.622D-04-0.247D-03-0.369D-03
 Coeff-Com:  0.669D-03 0.353D-02 0.899D-02 0.505D-03-0.296D-01-0.115D+00
 Coeff-Com:  0.488D-01 0.270D+00 0.813D+00
 Coeff:      0.752D-05-0.136D-04-0.328D-04-0.622D-04-0.247D-03-0.369D-03
 Coeff:      0.669D-03 0.353D-02 0.899D-02 0.505D-03-0.296D-01-0.115D+00
 Coeff:      0.488D-01 0.270D+00 0.813D+00
 Gap=     0.125 Goal=   None    Shift=    0.000
 RMSDP=4.13D-08 MaxDP=2.70D-06 DE=-3.88D-09 OVMax= 2.63D-05

 Cycle  16  Pass 1  IDiag  1:
 RMSU=  1.36D-08    CP:  9.70D-01  1.42D+00  7.05D-01  6.18D-01  7.97D-01
                    CP:  8.44D-01  1.03D+00  1.18D+00  1.46D+00  1.92D+00
                    CP:  2.31D+00  2.29D+00  1.95D+00  1.34D+00  1.14D+00
 E= -3007.13977468307     Delta-E=       -0.000000000369 Rises=F Damp=F
 DIIS: error= 1.10D-07 at cycle  16 NSaved=  16.
 NSaved=16 IEnMin=16 EnMin= -3007.13977468307     IErMin=16 ErrMin= 1.10D-07
 ErrMax= 1.10D-07  0.00D+00 EMaxC= 1.00D-01 BMatC= 3.04D-11 BMatP= 8.48D-11
 IDIUse=1 WtCom= 1.00D+00 WtEn= 0.00D+00
 Coeff-Com: -0.907D-05 0.186D-04 0.252D-04 0.293D-04-0.623D-04-0.443D-03
 Coeff-Com: -0.113D-02-0.218D-02 0.365D-02 0.176D-01 0.166D-01-0.432D-01
 Coeff-Com: -0.762D-01-0.231D-01 0.434D+00 0.674D+00
 Coeff:     -0.907D-05 0.186D-04 0.252D-04 0.293D-04-0.623D-04-0.443D-03
 Coeff:     -0.113D-02-0.218D-02 0.365D-02 0.176D-01 0.166D-01-0.432D-01
 Coeff:     -0.762D-01-0.231D-01 0.434D+00 0.674D+00
 Gap=     0.125 Goal=   None    Shift=    0.000
 RMSDP=1.70D-08 MaxDP=9.74D-07 DE=-3.69D-10 OVMax= 8.97D-06

 Cycle  17  Pass 1  IDiag  1:
 RMSU=  7.17D-09    CP:  9.70D-01  1.42D+00  7.05D-01  6.18D-01  7.97D-01
                    CP:  8.45D-01  1.03D+00  1.18D+00  1.46D+00  1.92D+00
                    CP:  2.33D+00  2.33D+00  2.00D+00  1.42D+00  1.33D+00
                    CP:  1.11D+00
 E= -3007.13977468324     Delta-E=       -0.000000000164 Rises=F Damp=F
 DIIS: error= 5.53D-08 at cycle  17 NSaved=  17.
 NSaved=17 IEnMin=17 EnMin= -3007.13977468324     IErMin=17 ErrMin= 5.53D-08
 ErrMax= 5.53D-08  0.00D+00 EMaxC= 1.00D-01 BMatC= 5.86D-12 BMatP= 3.04D-11
 IDIUse=1 WtCom= 1.00D+00 WtEn= 0.00D+00
 Coeff-Com: -0.646D-05 0.128D-04 0.206D-04 0.294D-04 0.225D-04-0.145D-03
 Coeff-Com: -0.716D-03-0.200D-02 0.286D-03 0.830D-02 0.162D-01 0.156D-02
 Coeff-Com: -0.446D-01-0.790D-01 0.528D-01 0.322D+00 0.725D+00
 Coeff:     -0.646D-05 0.128D-04 0.206D-04 0.294D-04 0.225D-04-0.145D-03
 Coeff:     -0.716D-03-0.200D-02 0.286D-03 0.830D-02 0.162D-01 0.156D-02
 Coeff:     -0.446D-01-0.790D-01 0.528D-01 0.322D+00 0.725D+00
 Gap=     0.125 Goal=   None    Shift=    0.000
 RMSDP=7.53D-09 MaxDP=5.75D-07 DE=-1.64D-10 OVMax= 4.29D-06

 SCF Done:  E(RCAM-B3LYP) =  -3007.13977468     A.U. after   17 cycles
            NFock= 17  Conv=0.75D-08     -V/T= 2.0106
 KE= 2.975562930810D+03 PE=-2.611989284419D+04 EE= 1.057279437569D+04
 Leave Link  502 at Thu May  5 11:00:45 2022, MaxMem= 10066329600 cpu:            8390.8 elap:             365.0
 (Enter /sw/apps/gaussian-16.0/g16/l801.exe)
 DoSCS=F DFT=T ScalE2(SS,OS)=  1.000000  1.000000
 ExpMin= 3.36D-02 ExpMax= 4.95D+03 ExpMxC= 7.45D+02 IAcc=3 IRadAn=         5 AccDes= 0.00D+00
 HarFok:  IExCor=  205 AccDes= 0.00D+00 IRadAn=         5 IDoV=-2 UseB2=F ITyADJ=14
 ICtDFT= 12500011 ScaDFX=  1.000000  1.000000  1.000000  1.000000
 GSVD:  LWork=       -5460 too small for GESVD, short by       25550 words or       25550 for optimal perf.
 Largest valence mixing into a core orbital is  1.39D-04
 Largest core mixing into a valence orbital is  5.18D-05
 Range of M.O.s used for correlation:    71  1298
 NBasis=  1298 NAE=   246 NBE=   246 NFC=    70 NFV=     0
 NROrb=   1228 NOA=   176 NOB=   176 NVA=  1052 NVB=  1052
 Leave Link  801 at Thu May  5 11:00:45 2022, MaxMem= 10066329600 cpu:               7.1 elap:               0.3
 (Enter /sw/apps/gaussian-16.0/g16/l914.exe)
 RHF ground state
 Two-electron integrals replicated using symmetry.
 MDV= 10066329600 DFT=T DoStab=F Mixed=T DoRPA=T DoScal=F NonHer=T
 Making orbital integer symmetry assigments:
 Orbital symmetries:
       Occupied  (A) (A) (A) (A) (A) (A) (A) (A) (A) (A) (A) (A)
                 (A) (A) (A) (A) (A) (A) (A) (A) (A) (A) (A) (A)
                 (A) (A) (A) (A) (A) (A) (A) (A) (A) (A) (A) (A)
                 (A) (A) (A) (A) (A) (A) (A) (A) (A) (A) (A) (A)
                 (A) (A) (A) (A) (A) (A) (A) (A) (A) (A) (A) (A)
                 (A) (A) (A) (A) (A) (A) (A) (A) (A) (A) (A) (A)
                 (A) (A) (A) (A) (A) (A) (A) (A) (A) (A) (A) (A)
                 (A) (A) (A) (A) (A) (A) (A) (A) (A) (A) (A) (A)
                 (A) (A) (A) (A) (A) (A) (A) (A) (A) (A) (A) (A)
                 (A) (A) (A) (A) (A) (A) (A) (A) (A) (A) (A) (A)
                 (A) (A) (A) (A) (A) (A) (A) (A) (A) (A) (A) (A)
                 (A) (A) (A) (A) (A) (A) (A) (A) (A) (A) (A) (A)
                 (A) (A) (A) (A) (A) (A) (A) (A) (A) (A) (A) (A)
                 (A) (A) (A) (A) (A) (A) (A) (A) (A) (A) (A) (A)
                 (A) (A) (A) (A) (A) (A) (A) (A) (A) (A) (A) (A)
                 (A) (A) (A) (A) (A) (A) (A) (A) (A) (A) (A) (A)
                 (A) (A) (A) (A) (A) (A) (A) (A) (A) (A) (A) (A)
                 (A) (A) (A) (A) (A) (A) (A) (A) (A) (A) (A) (A)
                 (A) (A) (A) (A) (A) (A) (A) (A) (A) (A) (A) (A)
                 (A) (A) (A) (A) (A) (A) (A) (A) (A) (A) (A) (A)
                 (A) (A) (A) (A) (A) (A)
       Virtual   (A) (A) (A) (A) (A) (A) (A) (A) (A) (A) (A) (A)
                 (A) (A) (A) (A) (A) (A) (A) (A) (A) (A) (A) (A)
                 (A) (A) (A) (A) (A) (A) (A) (A) (A) (A) (A) (A)
                 (A) (A) (A) (A) (A) (A) (A) (A) (A) (A) (A) (A)
                 (A) (A) (A) (A) (A) (A) (A) (A) (A) (A) (A) (A)
                 (A) (A) (A) (A) (A) (A) (A) (A) (A) (A) (A) (A)
                 (A) (A) (A) (A) (A) (A) (A) (A) (A) (A) (A) (A)
                 (A) (A) (A) (A) (A) (A) (A) (A) (A) (A) (A) (A)
                 (A) (A) (A) (A) (A) (A) (A) (A) (A) (A) (A) (A)
                 (A) (A) (A) (A) (A) (A) (A) (A) (A) (A) (A) (A)
                 (A) (A) (A) (A) (A) (A) (A) (A) (A) (A) (A) (A)
                 (A) (A) (A) (A) (A) (A) (A) (A) (A) (A) (A) (A)
                 (A) (A) (A) (A) (A) (A) (A) (A) (A) (A) (A) (A)
                 (A) (A) (A) (A) (A) (A) (A) (A) (A) (A) (A) (A)
                 (A) (A) (A) (A) (A) (A) (A) (A) (A) (A) (A) (A)
                 (A) (A) (A) (A) (A) (A) (A) (A) (A) (A) (A) (A)
                 (A) (A) (A) (A) (A) (A) (A) (A) (A) (A) (A) (A)
                 (A) (A) (A) (A) (A) (A) (A) (A) (A) (A) (A) (A)
                 (A) (A) (A) (A) (A) (A) (A) (A) (A) (A) (A) (A)
                 (A) (A) (A) (A) (A) (A) (A) (A) (A) (A) (A) (A)
                 (A) (A) (A) (A) (A) (A) (A) (A) (A) (A) (A) (A)
                 (A) (A) (A) (A) (A) (A) (A) (A) (A) (A) (A) (A)
                 (A) (A) (A) (A) (A) (A) (A) (A) (A) (A) (A) (A)
                 (A) (A) (A) (A) (A) (A) (A) (A) (A) (A) (A) (A)
                 (A) (A) (A) (A) (A) (A) (A) (A) (A) (A) (A) (A)
                 (A) (A) (A) (A) (A) (A) (A) (A) (A) (A) (A) (A)
                 (A) (A) (A) (A) (A) (A) (A) (A) (A) (A) (A) (A)
                 (A) (A) (A) (A) (A) (A) (A) (A) (A) (A) (A) (A)
                 (A) (A) (A) (A) (A) (A) (A) (A) (A) (A) (A) (A)
                 (A) (A) (A) (A) (A) (A) (A) (A) (A) (A) (A) (A)
                 (A) (A) (A) (A) (A) (A) (A) (A) (A) (A) (A) (A)
                 (A) (A) (A) (A) (A) (A) (A) (A) (A) (A) (A) (A)
                 (A) (A) (A) (A) (A) (A) (A) (A) (A) (A) (A) (A)
                 (A) (A) (A) (A) (A) (A) (A) (A) (A) (A) (A) (A)
                 (A) (A) (A) (A) (A) (A) (A) (A) (A) (A) (A) (A)
                 (A) (A) (A) (A) (A) (A) (A) (A) (A) (A) (A) (A)
                 (A) (A) (A) (A) (A) (A) (A) (A) (A) (A) (A) (A)
                 (A) (A) (A) (A) (A) (A) (A) (A) (A) (A) (A) (A)
                 (A) (A) (A) (A) (A) (A) (A) (A) (A) (A) (A) (A)
                 (A) (A) (A) (A) (A) (A) (A) (A) (A) (A) (A) (A)
                 (A) (A) (A) (A) (A) (A) (A) (A) (A) (A) (A) (A)
                 (A) (A) (A) (A) (A) (A) (A) (A) (A) (A) (A) (A)
                 (A) (A) (A) (A) (A) (A) (A) (A) (A) (A) (A) (A)
                 (A) (A) (A) (A) (A) (A) (A) (A) (A) (A) (A) (A)
                 (A) (A) (A) (A) (A) (A) (A) (A) (A) (A) (A) (A)
                 (A) (A) (A) (A) (A) (A) (A) (A) (A) (A) (A) (A)
                 (A) (A) (A) (A) (A) (A) (A) (A) (A) (A) (A) (A)
                 (A) (A) (A) (A) (A) (A) (A) (A) (A) (A) (A) (A)
                 (A) (A) (A) (A) (A) (A) (A) (A) (A) (A) (A) (A)
                 (A) (A) (A) (A) (A) (A) (A) (A) (A) (A) (A) (A)
                 (A) (A) (A) (A) (A) (A) (A) (A) (A) (A) (A) (A)
                 (A) (A) (A) (A) (A) (A) (A) (A) (A) (A) (A) (A)
                 (A) (A) (A) (A) (A) (A) (A) (A) (A) (A) (A) (A)
                 (A) (A) (A) (A) (A) (A) (A) (A) (A) (A) (A) (A)
                 (A) (A) (A) (A) (A) (A) (A) (A) (A) (A) (A) (A)
                 (A) (A) (A) (A) (A) (A) (A) (A) (A) (A) (A) (A)
                 (A) (A) (A) (A) (A) (A) (A) (A) (A) (A) (A) (A)
                 (A) (A) (A) (A) (A) (A) (A) (A) (A) (A) (A) (A)
                 (A) (A) (A) (A) (A) (A) (A) (A) (A) (A) (A) (A)
                 (A) (A) (A) (A) (A) (A) (A) (A) (A) (A) (A) (A)
                 (A) (A) (A) (A) (A) (A) (A) (A) (A) (A) (A) (A)
                 (A) (A) (A) (A) (A) (A) (A) (A) (A) (A) (A) (A)
                 (A) (A) (A) (A) (A) (A) (A) (A) (A) (A) (A) (A)
                 (A) (A) (A) (A) (A) (A) (A) (A) (A) (A) (A) (A)
                 (A) (A) (A) (A) (A) (A) (A) (A) (A) (A) (A) (A)
                 (A) (A) (A) (A) (A) (A) (A) (A) (A) (A) (A) (A)
                 (A) (A) (A) (A) (A) (A) (A) (A) (A) (A) (A) (A)
                 (A) (A) (A) (A) (A) (A) (A) (A) (A) (A) (A) (A)
                 (A) (A) (A) (A) (A) (A) (A) (A) (A) (A) (A) (A)
                 (A) (A) (A) (A) (A) (A) (A) (A) (A) (A) (A) (A)
                 (A) (A) (A) (A) (A) (A) (A) (A) (A) (A) (A) (A)
                 (A) (A) (A) (A) (A) (A) (A) (A) (A) (A) (A) (A)
                 (A) (A) (A) (A) (A) (A) (A) (A) (A) (A) (A) (A)
                 (A) (A) (A) (A) (A) (A) (A) (A) (A) (A) (A) (A)
                 (A) (A) (A) (A) (A) (A) (A) (A) (A) (A) (A) (A)
                 (A) (A) (A) (A) (A) (A) (A) (A) (A) (A) (A) (A)
                 (A) (A) (A) (A) (A) (A) (A) (A) (A) (A) (A) (A)
                 (A) (A) (A) (A) (A) (A) (A) (A) (A) (A) (A) (A)
                 (A) (A) (A) (A) (A) (A) (A) (A) (A) (A) (A) (A)
                 (A) (A) (A) (A) (A) (A) (A) (A) (A) (A) (A) (A)
                 (A) (A) (A) (A) (A) (A) (A) (A) (A) (A) (A) (A)
                 (A) (A) (A) (A) (A) (A) (A) (A) (A) (A) (A) (A)
                 (A) (A) (A) (A) (A) (A) (A) (A) (A) (A) (A) (A)
                 (A) (A) (A) (A) (A) (A) (A) (A) (A) (A) (A) (A)
                 (A) (A) (A) (A) (A) (A) (A) (A) (A) (A) (A) (A)
                 (A) (A) (A) (A) (A) (A) (A) (A) (A) (A) (A) (A)
                 (A) (A) (A) (A) (A) (A) (A) (A) (A) (A) (A) (A)
                 (A) (A) (A) (A) (A) (A) (A) (A)
    20 initial guesses have been made.
 Convergence on wavefunction:    0.001000000000000
 Davidson Disk Diagonalization:  ConvIn= 1.00D-03 SkipCon=T Conv= 1.00D-03.
 Max sub-space:  2000 roots to seek:    20 dimension of matrix:       370304
 Iteration     1 Dimension    20 NMult     0 NNew     20
 CISAX will form    20 AO SS matrices at one time.
 NMat=    20 NSing=    20 JSym2X= 0.
 FoFJK:  IHMeth= 1 ICntrl=       0 DoSepK=T KAlg= 0 I1Cent=           0 FoldK=F
 IRaf=         1 NMat=      40 IRICut=       1 DoRegI=T DoRafI=F ISym2E= 0 IDoP0=3 IntGTp=3.
 FoFCou: FMM=T IPFlag=           0 FMFlag=      100000 FMFlg1=        2001
         NFxFlg=           0 DoJE=F BraDBF=F KetDBF=F FulRan=T
         wScrn=  0.000000 ICntrl=       500 IOpCl=  0 I1Cent=           0 NGrid=           0
         NMat0=   20 NMatS0=     20 NMatT0=    0 NMatD0=   20 NMtDS0=    0 NMtDT0=    0
 Symmetry not used in FoFCou.
 FMM levels:  10  Number of levels for PrismC:   9
 New state      3 was old state      9
 New state      4 was old state      6
 New state      5 was old state      7
 Excitation Energies [eV] at current iteration:
 Root      1 :     2.238108683456642
 Root      2 :     2.684157759506651
 Root      3 :     3.770175387648637
 Root      4 :     3.935381525438077
 Root      5 :     4.049772574732325
 Root      6 :     4.188574414200653
 Root      7 :     4.297419790343253
 Root      8 :     4.341910903217188
 Root      9 :     4.359013537693373
 Root     10 :     4.389967758053766
 Root     11 :     4.524980579983851
 Root     12 :     4.796246064709540
 Root     13 :     4.846239459712321
 Root     14 :     4.948826160814773
 Root     15 :     4.987851296188937
 Root     16 :     5.174091506153599
 Root     17 :     5.341869123443676
 Root     18 :     5.467205663170471
 Root     19 :     5.684467961292081
 Root     20 :     6.041967510965704
 Iteration     2 Dimension    30 NMult    20 NNew     10
 CISAX will form    10 AO SS matrices at one time.
 NMat=    10 NSing=    10 JSym2X= 0.
 Root      1 not converged, maximum delta is    0.070916547862996
 Root      2 not converged, maximum delta is    0.049646969294658
 Root      3 not converged, maximum delta is    0.378824468995851
 Root      4 not converged, maximum delta is    0.200117211279223
 Root      5 not converged, maximum delta is    0.387414157566843
 Excitation Energies [eV] at current iteration:
 Root      1 :     1.761539640695941   Change is   -0.476569042760701
 Root      2 :     2.332279473589991   Change is   -0.351878285916660
 Root      3 :     3.556671765919795   Change is   -0.213503621728841
 Root      4 :     3.626275492398787   Change is   -0.309106033039289
 Root      5 :     3.733188651454071   Change is   -0.316583923278254
 Iteration     3 Dimension    40 NMult    30 NNew     10
 CISAX will form    10 AO SS matrices at one time.
 NMat=    10 NSing=    10 JSym2X= 0.
 Root      1 not converged, maximum delta is    0.016293902388828
 Root      2 not converged, maximum delta is    0.011257138698058
 Root      3 not converged, maximum delta is    0.170501762076560
 Root      4 not converged, maximum delta is    0.146601187405693
 Root      5 not converged, maximum delta is    0.187086829267240
 Excitation Energies [eV] at current iteration:
 Root      1 :     1.724917238770298   Change is   -0.036622401925642
 Root      2 :     2.314368088309289   Change is   -0.017911385280702
 Root      3 :     3.473846138281630   Change is   -0.082825627638166
 Root      4 :     3.578290151794637   Change is   -0.047985340604151
 Root      5 :     3.695071084008014   Change is   -0.038117567446057
 Iteration     4 Dimension    50 NMult    40 NNew     10
 CISAX will form    10 AO SS matrices at one time.
 NMat=    10 NSing=    10 JSym2X= 0.
 Root      1 not converged, maximum delta is    0.004100317290879
 Root      2 not converged, maximum delta is    0.003917383410262
 Root      3 not converged, maximum delta is    0.037098113420323
 Root      4 not converged, maximum delta is    0.151530094235123
 Root      5 not converged, maximum delta is    0.277960259907044
 Excitation Energies [eV] at current iteration:
 Root      1 :     1.720558653603255   Change is   -0.004358585167043
 Root      2 :     2.311533271537959   Change is   -0.002834816771330
 Root      3 :     3.457544841091545   Change is   -0.016301297190085
 Root      4 :     3.541375025396224   Change is   -0.036915126398413
 Root      5 :     3.644777395851795   Change is   -0.050293688156219
 Iteration     5 Dimension    60 NMult    50 NNew     10
 CISAX will form    10 AO SS matrices at one time.
 NMat=    10 NSing=    10 JSym2X= 0.
 Root      1 not converged, maximum delta is    0.001147053944957
 Root      2 not converged, maximum delta is    0.001025834746270
 Root      3 not converged, maximum delta is    0.019227818071158
 Root      4 not converged, maximum delta is    0.055771767330452
 Root      5 not converged, maximum delta is    0.218947755354353
 Excitation Energies [eV] at current iteration:
 Root      1 :     1.720170307266827   Change is   -0.000388346336428
 Root      2 :     2.311230571128777   Change is   -0.000302700409181
 Root      3 :     3.454754586679361   Change is   -0.002790254412184
 Root      4 :     3.528274535827545   Change is   -0.013100489568679
 Root      5 :     3.608876418591250   Change is   -0.035900977260545
 Iteration     6 Dimension    70 NMult    60 NNew     10
 CISAX will form    10 AO SS matrices at one time.
 NMat=    10 NSing=    10 JSym2X= 0.
 Root      1 has converged.
 Root      2 has converged.
 Root      3 not converged, maximum delta is    0.025924868790309
 Root      4 not converged, maximum delta is    0.144475355688368
 Root      5 not converged, maximum delta is    0.363146050767968
 Excitation Energies [eV] at current iteration:
 Root      1 :     1.720131230175503   Change is   -0.000039077091325
 Root      2 :     2.311204500400129   Change is   -0.000026070728648
 Root      3 :     3.453558726831984   Change is   -0.001195859847377
 Root      4 :     3.519118383471335   Change is   -0.009156152356210
 Root      5 :     3.556495534161666   Change is   -0.052380884429585
 Iteration     7 Dimension    76 NMult    70 NNew      6
 CISAX will form     6 AO SS matrices at one time.
 NMat=     6 NSing=     6 JSym2X= 0.
 Root      1 has converged.
 Root      2 has converged.
 Root      3 not converged, maximum delta is    0.007903677429635
 Root      4 not converged, maximum delta is    0.050158115318951
 Root      5 not converged, maximum delta is    0.078596382862707
 Excitation Energies [eV] at current iteration:
 Root      1 :     1.720131144818111   Change is   -0.000000085357392
 Root      2 :     2.311204459768097   Change is   -0.000000040632032
 Root      3 :     3.453235984632029   Change is   -0.000322742199955
 Root      4 :     3.516106260080560   Change is   -0.003012123390775
 Root      5 :     3.548458548226922   Change is   -0.008036985934743
 Iteration     8 Dimension    82 NMult    76 NNew      6
 CISAX will form     6 AO SS matrices at one time.
 NMat=     6 NSing=     6 JSym2X= 0.
 Root      1 has converged.
 Root      2 has converged.
 Root      3 not converged, maximum delta is    0.001143551974019
 Root      4 not converged, maximum delta is    0.007409673961074
 Root      5 not converged, maximum delta is    0.010379606056024
 Excitation Energies [eV] at current iteration:
 Root      1 :     1.720130932923400   Change is   -0.000000211894711
 Root      2 :     2.311204280752287   Change is   -0.000000179015811
 Root      3 :     3.453189868998385   Change is   -0.000046115633643
 Root      4 :     3.515609323058837   Change is   -0.000496937021723
 Root      5 :     3.547582549696461   Change is   -0.000875998530462
 Iteration     9 Dimension    88 NMult    82 NNew      6
 CISAX will form     6 AO SS matrices at one time.
 NMat=     6 NSing=     6 JSym2X= 0.
 Root      1 has converged.
 Root      2 has converged.
 Root      3 has converged.
 Root      4 has converged.
 Root      5 not converged, maximum delta is    0.001292578568180
 Excitation Energies [eV] at current iteration:
 Root      1 :     1.720130873831304   Change is   -0.000000059092096
 Root      2 :     2.311204200349770   Change is   -0.000000080402516
 Root      3 :     3.453183122363511   Change is   -0.000006746634875
 Root      4 :     3.515538887998324   Change is   -0.000070435060513
 Root      5 :     3.547481042528092   Change is   -0.000101507168369
 Iteration    10 Dimension    90 NMult    88 NNew      2
 CISAX will form     2 AO SS matrices at one time.
 NMat=     2 NSing=     2 JSym2X= 0.
 Root      1 has converged.
 Root      2 has converged.
 Root      3 has converged.
 Root      4 has converged.
 Root      5 has converged.
 Excitation Energies [eV] at current iteration:
 Root      1 :     1.720130869873218   Change is   -0.000000003958086
 Root      2 :     2.311204164590810   Change is   -0.000000035758960
 Root      3 :     3.453182429738381   Change is   -0.000000692625129
 Root      4 :     3.515529792713515   Change is   -0.000009095284810
 Root      5 :     3.547466837247601   Change is   -0.000014205280490
 Convergence achieved on expansion vectors.
 ***********************************************************************
 Excited states from <AA,BB:AA,BB> singles matrix:
 ***********************************************************************
 
 1PDM for each excited state written to RWF  633
 Ground to excited state transition densities written to RWF  633
 Ground to excited state transition electric dipole moments (Au):
       state          X           Y           Z        Dip. S.      Osc.
         1        -1.3736     -2.2781     -1.4584      9.2037      0.3879
         2         0.2348     -0.7357      0.5608      0.9109      0.0516
         3         1.0904     -1.3400      1.5538      5.3990      0.4568
         4        -0.0068     -0.0439     -0.1113      0.0144      0.0012
         5        -0.4997      0.6822     -0.7457      1.2711      0.1105
 Ground to excited state transition velocity dipole moments (Au):
       state          X           Y           Z        Dip. S.      Osc.
         1         0.0833      0.1408      0.0887      0.0346      0.3651
         2        -0.0188      0.0583     -0.0443      0.0057      0.0449
         3        -0.1320      0.1675     -0.1889      0.0812      0.4264
         4         0.0039      0.0041      0.0130      0.0002      0.0010
         5         0.0631     -0.0862      0.0915      0.0198      0.1012
 Ground to excited state transition magnetic dipole moments (Au):
       state          X           Y           Z
         1         0.0543      0.8297     -1.3816
         2        -0.3819     -0.4060     -0.2978
         3        -0.6674     -2.1280     -1.6330
         4        -0.3303     -0.0864      0.4058
         5        -0.4279      0.2592      0.2776
 Ground to excited state transition velocity quadrupole moments (Au):
       state          XX          YY          ZZ          XY          XZ          YZ
         1        -1.4695      0.5344      0.1421     -1.0485     -0.6724      0.3319
         2         0.2855      0.2133     -0.0196     -0.5666      0.4519     -0.0210
         3         1.8898      0.5025     -0.1361     -1.7290      1.6960     -0.5475
         4        -0.1070      0.2543      0.0538      0.1118     -0.0947      0.1408
         5        -0.9436     -0.1953      0.0617      0.9277     -0.8773      0.1716
 <0|del|b> * <b|rxdel|0> + <0|del|b> * <b|delr+rdel|0>
 Rotatory Strengths (R) in cgs (10**-40 erg-esu-cm/Gauss)
       state          XX          YY          ZZ    R(velocity)    E-M Angle
         1       -22.5782     14.7677     -5.5751     -4.4619       90.23
         2       -49.0704    -18.0610     39.3346     -9.2656       94.01
         3       -14.8421    396.4201   -157.5107     74.6891       87.07
         4        18.4791      8.4306     -7.0626      6.6157       61.15
         5        33.2675   -205.1508     41.9254    -43.3193      107.32
 1/2[<0|r|b>*<b|rxdel|0> + (<0|rxdel|b>*<b|r|0>)*]
 Rotatory Strengths (R) in cgs (10**-40 erg-esu-cm/Gauss)
       state          XX          YY          ZZ     R(length)
         1        52.6989   1336.6879  -1424.8968    -11.8367
         2        63.4184   -211.2263    118.0867     -9.9070
         3       514.6153  -2016.5643   1794.3937     97.4816
         4        -1.5769     -2.6808     31.9375      9.2266
         5      -151.1852   -125.0275    146.3573    -43.2851
  1/2[<0|del|b>*<b|r|0> + (<0|r|b>*<b|del|0>)*] (Au)
       state          X           Y           Z        Dip. S.   Osc.(frdel)
         1        -0.1145     -0.3206     -0.1293      0.5644      0.3763
         2        -0.0044     -0.0429     -0.0248      0.0722      0.0481
         3        -0.1440     -0.2244     -0.2935      0.6619      0.4413
         4        -0.0000     -0.0002     -0.0014      0.0017      0.0011
         5        -0.0315     -0.0588     -0.0682      0.1586      0.1057

 Excitation energies and oscillator strengths:
 
 Excited State   1:      Singlet-A      1.7201 eV  720.78 nm  f=0.3879  <S**2>=0.000
     245 -> 248        0.17827
     246 -> 247        0.68614
     245 <- 248        0.10777
 This state for optimization and/or second-order correction.
 Total Energy, E(TD-HF/TD-DFT) =  -3007.07656104    
 Copying the excited state density for this state as the 1-particle RhoCI density.
 
 Excited State   2:      Singlet-A      2.3112 eV  536.45 nm  f=0.0516  <S**2>=0.000
     245 -> 247        0.60608
     246 -> 248       -0.35395
 
 Excited State   3:      Singlet-A      3.4532 eV  359.04 nm  f=0.4568  <S**2>=0.000
     242 -> 247        0.31483
     245 -> 247        0.27797
     246 -> 248        0.52048
     246 -> 250       -0.12662
 
 Excited State   4:      Singlet-A      3.5155 eV  352.68 nm  f=0.0012  <S**2>=0.000
     240 -> 247       -0.18623
     240 -> 249       -0.14877
     240 -> 251        0.15575
     241 -> 247        0.26906
     241 -> 251       -0.13614
     242 -> 249       -0.23092
     243 -> 247        0.46429
 
 Excited State   5:      Singlet-A      3.5475 eV  349.50 nm  f=0.1105  <S**2>=0.000
     240 -> 247        0.35241
     240 -> 249        0.22870
     240 -> 251       -0.20072
     241 -> 249       -0.17787
     242 -> 247        0.28151
     242 -> 251       -0.14974
     243 -> 247        0.15611
     245 -> 247       -0.12334
     246 -> 248       -0.21079
 SavETr:  write IOETrn=   770 NScale= 10 NData=  16 NLR=1 NState=    5 LETran=     100.
[...]
 Alpha virt. eigenvalues --    1.15560   1.15807   1.16585   1.17052   1.17160
 Alpha virt. eigenvalues --    1.17419   1.17797   1.18698   1.18849   1.19416
 Alpha virt. eigenvalues --    1.19741   1.20025   1.20286   1.21602   1.21690
 Alpha virt. eigenvalues --    1.22212   1.22537   1.23019   1.23345   1.23668
 Alpha virt. eigenvalues --    1.24113   1.24337   1.24478   1.25247   1.26083
 Alpha virt. eigenvalues --    1.26276   1.26711   1.27070   1.27162   1.27880
 Alpha virt. eigenvalues --    1.28959   1.29135   1.29876   1.29939   1.30322
 Alpha virt. eigenvalues --    1.30547   1.31275   1.31660   1.32108   1.32332
 Alpha virt. eigenvalues --    1.33003   1.33708   1.34539   1.35248   1.35366
 Alpha virt. eigenvalues --    1.35858   1.36981   1.37700   1.37951   1.38410
 Alpha virt. eigenvalues --    1.38496   1.38926   1.39089   1.39493   1.39812
 Alpha virt. eigenvalues --    1.39993   1.40626   1.40933   1.41240   1.41413
 Alpha virt. eigenvalues --    1.42194   1.42312   1.42694   1.43370   1.43549
 Alpha virt. eigenvalues --    1.43738   1.44575   1.44685   1.44989   1.45151
 Alpha virt. eigenvalues --    1.45303   1.45752   1.45958   1.46565   1.47149
 Alpha virt. eigenvalues --    1.47309   1.47730   1.48563   1.48880   1.48943
 Alpha virt. eigenvalues --    1.49677   1.49956   1.50074   1.50993   1.51430
 Alpha virt. eigenvalues --    1.52195   1.52511   1.52867   1.53305   1.53974
 Alpha virt. eigenvalues --    1.54914   1.55443   1.55940   1.56268   1.57034
 Alpha virt. eigenvalues --    1.57304   1.57716   1.57973   1.58314   1.58406
 Alpha virt. eigenvalues --    1.58841   1.59140   1.59250   1.59446   1.59501
 Alpha virt. eigenvalues --    1.59602   1.59934   1.60116   1.60334   1.60342
 Alpha virt. eigenvalues --    1.60528   1.60833   1.60897   1.61645   1.61856
 Alpha virt. eigenvalues --    1.62024   1.62155   1.62698   1.62965   1.62983
 Alpha virt. eigenvalues --    1.63441   1.63592   1.63813   1.63990   1.64516
 Alpha virt. eigenvalues --    1.64808   1.65446   1.66138   1.66157   1.66585
 Alpha virt. eigenvalues --    1.66673   1.66918   1.67489   1.67860   1.68684
 Alpha virt. eigenvalues --    1.68809   1.69368   1.69978   1.71065   1.71311
 Alpha virt. eigenvalues --    1.71585   1.72667   1.73203   1.73667   1.73969
 Alpha virt. eigenvalues --    1.74644   1.74901   1.75495   1.75725   1.75899
 Alpha virt. eigenvalues --    1.75982   1.76048   1.76385   1.76583   1.76769
 Alpha virt. eigenvalues --    1.76970   1.77151   1.77786   1.77909   1.78162
 Alpha virt. eigenvalues --    1.78375   1.78836   1.78948   1.79134   1.79905
 Alpha virt. eigenvalues --    1.80053   1.80451   1.80752   1.80804   1.81132
 Alpha virt. eigenvalues --    1.81242   1.81420   1.81466   1.81641   1.81861
 Alpha virt. eigenvalues --    1.82197   1.82277   1.82677   1.83165   1.83288
 Alpha virt. eigenvalues --    1.83647   1.83932   1.84124   1.84161   1.84307
 Alpha virt. eigenvalues --    1.84442   1.84604   1.84795   1.84919   1.85094
 Alpha virt. eigenvalues --    1.85438   1.85678   1.85747   1.86100   1.86122
 Alpha virt. eigenvalues --    1.86466   1.86575   1.86754   1.87191   1.87495
 Alpha virt. eigenvalues --    1.87810   1.87976   1.88005   1.88315   1.88446
 Alpha virt. eigenvalues --    1.88826   1.89274   1.89379   1.89579   1.89740
 Alpha virt. eigenvalues --    1.89897   1.89959   1.90240   1.90502   1.90983
 Alpha virt. eigenvalues --    1.91115   1.91270   1.91445   1.91578   1.91647
 Alpha virt. eigenvalues --    1.91960   1.92232   1.92314   1.92667   1.92836
 Alpha virt. eigenvalues --    1.92975   1.93569   1.93658   1.93819   1.94007
 Alpha virt. eigenvalues --    1.94061   1.94266   1.94574   1.94800   1.94920
 Alpha virt. eigenvalues --    1.95168   1.95367   1.95487   1.95762   1.95982
 Alpha virt. eigenvalues --    1.96281   1.96471   1.96686   1.97224   1.97595
 Alpha virt. eigenvalues --    1.97617   1.97936   1.98380   1.98807   1.99137
 Alpha virt. eigenvalues --    1.99403   1.99427   1.99612   1.99867   2.00116
 Alpha virt. eigenvalues --    2.00549   2.00882   2.01198   2.01605   2.01768
 Alpha virt. eigenvalues --    2.01961   2.02406   2.02511   2.02818   2.02991
 Alpha virt. eigenvalues --    2.03029   2.03747   2.03887   2.04036   2.04281
 Alpha virt. eigenvalues --    2.04544   2.04646   2.05089   2.05287   2.05368
 Alpha virt. eigenvalues --    2.05849   2.06185   2.06333   2.06484   2.07065
 Alpha virt. eigenvalues --    2.07420   2.07770   2.08001   2.08104   2.08486
 Alpha virt. eigenvalues --    2.08785   2.09087   2.09517   2.09720   2.09767
 Alpha virt. eigenvalues --    2.10275   2.10728   2.11261   2.11528   2.11797
 Alpha virt. eigenvalues --    2.12018   2.12297   2.12422   2.12559   2.12786
 Alpha virt. eigenvalues --    2.13155   2.13644   2.13814   2.14061   2.14216
 Alpha virt. eigenvalues --    2.14382   2.14734   2.15219   2.15541   2.15640
 Alpha virt. eigenvalues --    2.16105   2.16276   2.16908   2.16995   2.17460
 Alpha virt. eigenvalues --    2.17611   2.17841   2.18609   2.18822   2.19104
 Alpha virt. eigenvalues --    2.19331   2.19697   2.20019   2.20350   2.20743
 Alpha virt. eigenvalues --    2.21305   2.21902   2.22301   2.22392   2.22698
 Alpha virt. eigenvalues --    2.22832   2.23013   2.23524   2.23747   2.24216
 Alpha virt. eigenvalues --    2.25177   2.25453   2.25748   2.26209   2.26478
 Alpha virt. eigenvalues --    2.27033   2.27398   2.28212   2.28549   2.29257
 Alpha virt. eigenvalues --    2.29303   2.29602   2.29968   2.31068   2.31332
 Alpha virt. eigenvalues --    2.32102   2.32458   2.32866   2.33375   2.33743
 Alpha virt. eigenvalues --    2.34334   2.34749   2.34807   2.35487   2.35679
 Alpha virt. eigenvalues --    2.35969   2.36329   2.37076   2.37388   2.37465
 Alpha virt. eigenvalues --    2.37733   2.37999   2.38170   2.38337   2.38791
 Alpha virt. eigenvalues --    2.39407   2.39596   2.39803   2.40051   2.41109
 Alpha virt. eigenvalues --    2.41328   2.41435   2.41657   2.41768   2.42206
 Alpha virt. eigenvalues --    2.42492   2.43458   2.43774   2.44287   2.44599
 Alpha virt. eigenvalues --    2.44689   2.45382   2.45658   2.45729   2.46282
 Alpha virt. eigenvalues --    2.46583   2.46935   2.46964   2.47587   2.47890
 Alpha virt. eigenvalues --    2.48069   2.48211   2.48773   2.48916   2.49014
 Alpha virt. eigenvalues --    2.49497   2.50133   2.50299   2.50624   2.51401
 Alpha virt. eigenvalues --    2.51441   2.51691   2.52392   2.53149   2.53463
 Alpha virt. eigenvalues --    2.53680   2.53887   2.54486   2.54639   2.55125
 Alpha virt. eigenvalues --    2.55303   2.55701   2.56000   2.56083   2.56519
 Alpha virt. eigenvalues --    2.57045   2.57828   2.57942   2.58622   2.58982
 Alpha virt. eigenvalues --    2.59268   2.59846   2.60204   2.60504   2.61266
 Alpha virt. eigenvalues --    2.61329   2.62369   2.62563   2.62636   2.62792
 Alpha virt. eigenvalues --    2.63479   2.64133   2.64815   2.64966   2.65468
 Alpha virt. eigenvalues --    2.66024   2.66116   2.66264   2.67283   2.67484
 Alpha virt. eigenvalues --    2.67724   2.68177   2.68418   2.68727   2.69182
 Alpha virt. eigenvalues --    2.69489   2.69875   2.70404   2.70901   2.72058
 Alpha virt. eigenvalues --    2.72710   2.73200   2.73688   2.73932   2.74404
 Alpha virt. eigenvalues --    2.74538   2.74895   2.75227   2.75552   2.75748
 Alpha virt. eigenvalues --    2.75858   2.76366   2.77302   2.77790   2.77850
 Alpha virt. eigenvalues --    2.78062   2.78760   2.78858   2.79135   2.79541
 Alpha virt. eigenvalues --    2.79888   2.80204   2.80799   2.80920   2.81554
 Alpha virt. eigenvalues --    2.82208   2.82426   2.82746   2.83558   2.83916
 Alpha virt. eigenvalues --    2.84205   2.84762   2.85459   2.86607   2.87121
 Alpha virt. eigenvalues --    2.87761   2.87912   2.88377   2.88793   2.89308
 Alpha virt. eigenvalues --    2.89427   2.90215   2.90823   2.91178   2.91630
 Alpha virt. eigenvalues --    2.92699   2.92996   2.93346   2.93487   2.94448
 Alpha virt. eigenvalues --    2.94585   2.94755   2.95083   2.95989   2.95993
 Alpha virt. eigenvalues --    2.96474   2.96689   2.97148   2.97315   2.97722
 Alpha virt. eigenvalues --    2.97956   2.98185   2.98528   2.98555   2.98730
 Alpha virt. eigenvalues --    2.99597   2.99630   3.00056   3.00597   3.00813
 Alpha virt. eigenvalues --    3.01463   3.01491   3.01864   3.02064   3.02215
 Alpha virt. eigenvalues --    3.02768   3.03275   3.03649   3.03696   3.04047
 Alpha virt. eigenvalues --    3.04606   3.04890   3.05153   3.05267   3.05373
 Alpha virt. eigenvalues --    3.05491   3.05635   3.06028   3.06379   3.06865
 Alpha virt. eigenvalues --    3.07752   3.07879   3.08358   3.08715   3.08975
 Alpha virt. eigenvalues --    3.09574   3.09729   3.10190   3.10336   3.10340
 Alpha virt. eigenvalues --    3.11089   3.11308   3.11332   3.12357   3.13287
 Alpha virt. eigenvalues --    3.13476   3.13832   3.14027   3.14134   3.14679
 Alpha virt. eigenvalues --    3.14883   3.15459   3.15547   3.16145   3.16611
 Alpha virt. eigenvalues --    3.17527   3.17946   3.18427   3.19262   3.20930
 Alpha virt. eigenvalues --    3.20979   3.21371   3.21706   3.21938   3.23341
 Alpha virt. eigenvalues --    3.23875   3.25013   3.25207   3.26391   3.28955
 Alpha virt. eigenvalues --    3.31363   3.32117   3.42696   3.44752   3.46402
 Alpha virt. eigenvalues --    3.46789   3.49782   3.51604   3.54994   3.56633
 Alpha virt. eigenvalues --    3.62628   3.62791   3.65463   3.66529   3.67862
 Alpha virt. eigenvalues --    3.70196   3.73166
          Condensed to atoms (all electrons):
 Mulliken charges:
               1
     1  Mg   0.820601
     2  C    0.040543
     3  C   -0.063980
     4  C   -0.071325
     5  C   -0.100892
     6  N   -0.273747
     7  C   -0.032312
     8  C    0.046488
     9  C   -0.095262
    10  C    0.065457
    11  C    0.055879
    12  C    0.079820
    13  C    0.047512
    14  C    0.153914
    15  O   -0.233288
    16  O   -0.359455
    17  N   -0.385992
    18  C    0.086900
    19  C   -0.141841
    20  C   -0.041704
    21  C    0.156615
    22  C    0.130827
    23  C    0.012238
    24  O   -0.215686
    25  C    0.047970
    26  N   -0.331657
    27  C    0.071783
    28  C   -0.052635
    29  C    0.025765
    30  C    0.021844
    31  C    0.053884
    32  C    0.047121
    33  C    0.011618
    34  N   -0.268978
    35  C    0.094068
    36  C   -0.183645
    37  C   -0.003005
    38  C    0.065964
    39  C    0.128567
    40  C    0.041249
    41  O   -0.161471
    42  C   -0.052931
    43  C    0.230517
    44  O   -0.257151
    45  O   -0.333847
    46  C    0.183419
    47  C    0.317410
    48  C   -0.132759
    49  C   -0.195374
    50  C    0.097149
    51  C    0.043868
    52  C    0.032693
    53  C    0.046628
    54  C   -0.140057
    55  C    0.056029
    56  C    0.067985
    57  C    0.008970
    58  C    0.048093
    59  C   -0.134487
    60  C    0.046702
    61  C    0.096624
    62  C   -0.028410
    63  C    0.069713
    64  C   -0.141079
    65  C    0.038538
    66  C    0.050295
    67  H   -0.027413
    68  H   -0.058943
    69  H   -0.030030
    70  H   -0.000684
    71  H    0.029164
    72  H    0.032708
    73  H    0.012337
    74  H    0.019932
    75  H    0.028579
    76  H    0.011134
    77  H    0.032864
    78  H    0.035513
    79  H    0.034034
    80  H    0.024560
    81  H    0.037137
    82  H    0.047934
    83  H    0.045512
    84  H    0.015024
    85  H    0.021892
    86  H    0.000729
    87  H    0.023845
    88  H    0.013949
    89  H    0.008050
    90  H    0.006690
    91  H    0.004864
    92  H    0.022695
    93  H    0.005976
    94  H    0.016626
    95  H   -0.000186
    96  H    0.037552
    97  H    0.042588
    98  H    0.052913
    99  H    0.034592
   100  H    0.030805
   101  H    0.040327
   102  H    0.012863
   103  H    0.046248
   104  H   -0.006031
   105  H    0.003218
   106  H    0.017326
   107  H    0.044265
   108  H    0.011333
   109  H   -0.012639
   110  H    0.001301
   111  H   -0.006463
   112  H   -0.013908
   113  H   -0.015497
   114  H   -0.000913
   115  H    0.019825
   116  H   -0.013487
   117  H   -0.001158
   118  H    0.006050
   119  H   -0.008860
   120  H    0.001753
   121  H   -0.005178
   122  H   -0.007225
   123  H    0.002839
   124  H    0.001871
   125  H   -0.001891
   126  H    0.009874
   127  H   -0.015609
   128  H   -0.015204
   129  H   -0.012752
   130  H   -0.015079
   131  H   -0.003347
   132  H   -0.014596
   133  H    0.000398
   134  H   -0.001430
   135  H    0.011262
   136  H    0.002980
   137  H    0.007092
   138  H    0.008758
   139  H    0.011088
   140  H   -0.010633
 Sum of Mulliken charges =  -0.00000
 Mulliken charges with hydrogens summed into heavy atoms:
               1
     1  Mg   0.820601
     2  C    0.040543
     3  C   -0.091392
     4  C   -0.130269
     5  C   -0.130921
     6  N   -0.273747
     7  C   -0.032312
     8  C    0.045804
     9  C   -0.066098
    10  C    0.065457
    11  C    0.120856
    12  C    0.119533
    13  C    0.115889
    14  C    0.153914
    15  O   -0.233288
    16  O   -0.359455
    17  N   -0.385992
    18  C    0.086900
    19  C   -0.141841
    20  C   -0.041704
    21  C    0.156615
    22  C    0.226558
    23  C    0.012238
    24  O   -0.215686
    25  C    0.156440
    26  N   -0.331657
    27  C    0.071783
    28  C   -0.030743
    29  C    0.026493
    30  C    0.021844
    31  C    0.099728
    32  C    0.058675
    33  C    0.056915
    34  N   -0.268978
    35  C    0.094068
    36  C   -0.183645
    37  C   -0.003005
    38  C    0.065964
    39  C    0.208521
    40  C    0.041249
    41  O   -0.161471
    42  C   -0.000018
    43  C    0.230517
    44  O   -0.257151
    45  O   -0.333847
    46  C    0.289143
    47  C    0.376521
    48  C   -0.138789
    49  C   -0.195374
    50  C    0.161958
    51  C    0.042562
    52  C    0.027531
    53  C    0.017223
    54  C   -0.140971
    55  C    0.061209
    56  C    0.065175
    57  C    0.005545
    58  C    0.043707
    59  C   -0.132617
    60  C    0.039075
    61  C    0.068669
    62  C   -0.046837
    63  C    0.055515
    64  C   -0.142509
    65  C    0.059872
    66  C    0.059507
 Electronic spatial extent (au):  <R**2>=         117168.2303
 Charge=             -0.0000 electrons
 Dipole moment (field-independent basis, Debye):
    X=             -0.1732    Y=              6.2741    Z=             -0.5757  Tot=              6.3028
 Quadrupole moment (field-independent basis, Debye-Ang):
   XX=           -392.1860   YY=           -455.4644   ZZ=           -385.1341
   XY=            -58.4025   XZ=             -7.1376   YZ=            -27.9863
 Traceless Quadrupole moment (field-independent basis, Debye-Ang):
   XX=             18.7422   YY=            -44.5362   ZZ=             25.7940
   XY=            -58.4025   XZ=             -7.1376   YZ=            -27.9863
 Octapole moment (field-independent basis, Debye-Ang**2):
  XXX=           -178.1966  YYY=            282.8476  ZZZ=             18.6956  XYY=            125.1614
  XXY=            289.1712  XXZ=             77.7406  XZZ=           -131.3855  YZZ=           -111.6335
  YYZ=           -148.1179  XYZ=            143.8548
 Hexadecapole moment (field-independent basis, Debye-Ang**3):
 XXXX=        -126466.2092 YYYY=         -27072.8552 ZZZZ=         -12154.1622 XXXY=          -2724.6279
 XXXZ=            338.4974 YYYX=          -2055.2503 YYYZ=           -833.0167 ZZZX=           -184.7753
 ZZZY=           -483.3065 XXYY=         -26057.6405 XXZZ=         -22046.2221 YYZZ=          -6484.5717
 XXYZ=           -712.7797 YYXZ=           -107.6086 ZZXY=            168.0400
 N-N= 9.564395763011D+03 E-N=-2.611989286815D+04  KE= 2.975562930810D+03
 Leave Link  601 at Thu May  5 11:20:12 2022, MaxMem= 10066329600 cpu:               9.7 elap:               0.5
 (Enter /sw/apps/gaussian-16.0/g16/l9999.exe)
 1\1\GINC-BP1-COMPUTE168\SP\RCAM-B3LYP TD-FC\def2SVP\C55H74Mg1N4O6\OF15
 641\05-May-2022\0\\#p cam-b3lyp/Def2SVP td=(nstates=5)\\step_851_chrom
 ophore_2 TDDFT with cam-b3lyp functional\\0,1\Mg,0,3.219,0.954,44.372\
 C,0,6.236,2.748,44.098\C,0,1.619,3.835,43.001\C,0,0.488,-0.746,44.196\
 C,0,5.092,-1.773,45.291\N,0,3.882,2.98,43.534\C,0,5.171,3.47,43.455\C,
 0,5.248,4.848,42.852\C,0,3.718,5.22,42.576\C,0,2.981,3.968,43.09\C,0,3
 .199,6.503,43.416\C,0,6.143,5.106,41.651\C,0,6.696,3.903,40.885\C,0,7.
 098,4.177,39.458\O,0,7.686,5.192,39.085\O,0,6.746,3.084,38.634\N,0,1.3
 17,1.454,43.623\C,0,0.826,2.666,43.146\C,0,-0.606,2.532,42.985\C,0,-0.
 959,1.267,43.355\C,0,0.3,0.54,43.684\C,0,-1.367,3.783,42.58\C,0,-2.385
 ,0.67,43.296\O,0,-3.374,1.341,42.929\C,0,-2.664,-0.839,43.542\N,0,2.94
 1,-1.069,44.501\C,0,1.667,-1.452,44.564\C,0,1.57,-3.002,44.883\C,0,3.1
 07,-3.372,45.227\C,0,3.77,-2.021,45.055\C,0,0.527,-3.309,46.02\C,0,3.7
 54,-4.557,44.491\C,0,4.454,-5.613,45.26\N,0,5.276,0.512,44.612\C,0,5.8
 54,-0.61,45.065\C,0,7.265,-0.409,45.277\C,0,7.46,0.9,44.922\C,0,6.195,
 1.421,44.44\C,0,8.358,-1.352,45.609\C,0,8.49,1.942,44.721\O,0,9.707,1.
 935,44.891\C,0,7.72,3.177,44.239\C,0,8.017,4.277,45.132\O,0,8.926,5.12
 7,44.866\O,0,6.995,4.549,46.028\C,0,6.836,5.903,46.477\C,0,6.993,3.228
 ,37.227\C,0,5.736,2.814,36.614\C,0,5.563,2.149,35.424\C,0,6.63,1.605,3
 4.484\C,0,4.089,1.745,35.249\C,0,3.272,2.849,34.523\C,0,2.905,2.74,33.
 033\C,0,1.434,2.33,32.667\C,0,1.245,0.805,32.834\C,0,1.01,2.823,31.212
 \C,0,0.05,4.038,31.309\C,0,-1.025,3.856,30.171\C,0,-0.7,4.869,29.041\C
 ,0,-1.139,6.26,29.512\C,0,-1.361,4.427,27.755\C,0,-0.387,4.28,26.602\C
 ,0,-0.713,3.182,25.546\C,0,-1.272,3.827,24.211\C,0,-2.579,3.147,23.775
 \C,0,-0.229,4.114,23.092\H,0,1.007,4.695,42.72\H,0,-0.445,-1.295,44.33
 9\H,0,5.622,-2.544,45.855\H,0,5.564,5.529,43.644\H,0,3.496,5.31,41.513
 \H,0,2.558,7.182,42.853\H,0,4.079,7.006,43.819\H,0,2.664,6.17,44.305\H
 ,0,6.979,5.76,41.896\H,0,5.542,5.655,40.926\H,0,6.096,2.993,40.908\H,0
 ,7.649,3.552,41.281\H,0,-2.371,3.48,42.283\H,0,-0.903,4.217,41.694\H,0
 ,-1.386,4.449,43.442\H,0,-2.447,-1.036,44.592\H,0,-2.22,-1.488,42.787\
 H,0,-3.701,-1.133,43.383\H,0,1.295,-3.484,43.945\H,0,3.144,-3.601,46.2
 92\H,0,0.333,-4.381,46.056\H,0,-0.406,-2.749,45.959\H,0,0.86,-2.972,47
 .002\H,0,4.522,-4.042,43.915\H,0,3.103,-5.004,43.74\H,0,4.046,-6.591,4
 5.003\H,0,4.412,-5.486,46.342\H,0,5.524,-5.54,45.066\H,0,7.971,-2.31,4
 5.264\H,0,8.619,-1.476,46.66\H,0,9.201,-1.075,44.976\H,0,8.271,3.445,4
 3.338\H,0,5.884,6.064,46.982\H,0,6.899,6.551,45.603\H,0,7.638,6.138,47
 .177\H,0,7.752,2.462,37.066\H,0,7.312,4.211,36.881\H,0,4.859,3.068,37.
 208\H,0,7.642,1.965,34.669\H,0,6.39,2.205,33.607\H,0,6.615,0.525,34.33
 6\H,0,3.599,1.466,36.182\H,0,4.15,0.802,34.705\H,0,3.735,3.824,34.674\
 H,0,2.397,2.805,35.172\H,0,3.601,2.063,32.539\H,0,3.196,3.695,32.595\H
 ,0,0.786,2.739,33.443\H,0,2.048,0.291,33.362\H,0,1.091,0.337,31.861\H,
 0,0.219,0.677,33.181\H,0,0.707,1.989,30.58\H,0,1.943,3.253,30.848\H,0,
 0.66,4.937,31.22\H,0,-0.354,4.125,32.317\H,0,-1.97,4.153,30.627\H,0,-1
 .143,2.863,29.736\H,0,0.383,4.869,28.913\H,0,-0.307,6.96,29.442\H,0,-1
 .704,6.438,30.427\H,0,-1.832,6.785,28.854\H,0,-2.089,5.17,27.43\H,0,-1
 .922,3.505,27.906\H,0,0.584,4.077,27.053\H,0,-0.282,5.236,26.089\H,0,-
 1.499,2.576,25.997\H,0,0.177,2.556,25.48\H,0,-1.619,4.826,24.474\H,0,-
 2.618,2.081,23.999\H,0,-2.761,3.288,22.71\H,0,-3.376,3.63,24.343\H,0,-
 0.143,5.18,22.879\H,0,-0.301,3.493,22.2\H,0,0.782,3.898,23.436\\Versio
 n=ES64L-G16RevA.03\State=1-A\HF=-3007.1397747\RMSD=7.530e-09\PG=C01 [X
 (C55H74Mg1N4O6)]\\@


 IF I HAVE SEEN FARTHER, IT IS BY STANDING ON THE
 SHOULDERS OF GIANTS. -- SIR ISAAC NEWTON
 Job cpu time:       0 days 10 hours  7 minutes  8.2 seconds.
 Elapsed time:       0 days  0 hours 25 minutes 44.5 seconds.
 File lengths (MBytes):  RWF=   8929 Int=      0 D2E=      0 Chk=    390 Scr=      1
 Normal termination of Gaussian 16 at Thu May  5 11:20:13 2022.
