 Entering Gaussian System, Link 0=g16
 Initial command:
 /sw/apps/gaussian-16.0/g16/l1.exe "/tmp/Gau-112026.inp" -scrdir="/tmp/"
 Entering Link 1 = /sw/apps/gaussian-16.0/g16/l1.exe PID=    112027.
  
 Copyright (c) 1988,1990,1992,1993,1995,1998,2003,2009,2016,
            Gaussian, Inc.  All Rights Reserved.
  
 This is part of the Gaussian(R) 16 program.  It is based on
 the Gaussian(R) 09 system (copyright 2009, Gaussian, Inc.),
 the Gaussian(R) 03 system (copyright 2003, Gaussian, Inc.),
 the Gaussian(R) 98 system (copyright 1998, Gaussian, Inc.),
 the Gaussian(R) 94 system (copyright 1995, Gaussian, Inc.),
 the Gaussian 92(TM) system (copyright 1992, Gaussian, Inc.),
 the Gaussian 90(TM) system (copyright 1990, Gaussian, Inc.),
 the Gaussian 88(TM) system (copyright 1988, Gaussian, Inc.),
 the Gaussian 86(TM) system (copyright 1986, Carnegie Mellon
 University), and the Gaussian 82(TM) system (copyright 1983,
 Carnegie Mellon University). Gaussian is a federally registered
 trademark of Gaussian, Inc.
  
 This software contains proprietary and confidential information,
 including trade secrets, belonging to Gaussian, Inc.
  
 This software is provided under written license and may be
 used, copied, transmitted, or stored only in accord with that
 written license.
  
 The following legend is applicable only to US Government
 contracts under FAR:
  
                    RESTRICTED RIGHTS LEGEND
  
 Use, reproduction and disclosure by the US Government is
 subject to restrictions as set forth in subparagraphs (a)
 and (c) of the Commercial Computer Software - Restricted
 Rights clause in FAR 52.227-19.
  
 Gaussian, Inc.
 340 Quinnipiac St., Bldg. 40, Wallingford CT 06492
  
  
 ---------------------------------------------------------------
 Warning -- This program may not be used in any manner that
 competes with the business of Gaussian, Inc. or will provide
 assistance to any competitor of Gaussian, Inc.  The licensee
 of this program is prohibited from giving any competitor of
 Gaussian, Inc. access to this program.  By using this program,
 the user acknowledges that Gaussian, Inc. is engaged in the
 business of creating and licensing software in the field of
 computational chemistry and represents and warrants to the
 licensee that it is not a competitor of Gaussian, Inc. and that
 it will not use this program in any manner prohibited above.
 ---------------------------------------------------------------
  

 Cite this work as:
 Gaussian 16, Revision A.03,
 M. J. Frisch, G. W. Trucks, H. B. Schlegel, G. E. Scuseria, 
 M. A. Robb, J. R. Cheeseman, G. Scalmani, V. Barone, 
 G. A. Petersson, H. Nakatsuji, X. Li, M. Caricato, A. V. Marenich, 
 J. Bloino, B. G. Janesko, R. Gomperts, B. Mennucci, H. P. Hratchian, 
 J. V. Ortiz, A. F. Izmaylov, J. L. Sonnenberg, D. Williams-Young, 
 F. Ding, F. Lipparini, F. Egidi, J. Goings, B. Peng, A. Petrone, 
 T. Henderson, D. Ranasinghe, V. G. Zakrzewski, J. Gao, N. Rega, 
 G. Zheng, W. Liang, M. Hada, M. Ehara, K. Toyota, R. Fukuda, 
 J. Hasegawa, M. Ishida, T. Nakajima, Y. Honda, O. Kitao, H. Nakai, 
 T. Vreven, K. Throssell, J. A. Montgomery, Jr., J. E. Peralta, 
 F. Ogliaro, M. J. Bearpark, J. J. Heyd, E. N. Brothers, K. N. Kudin, 
 V. N. Staroverov, T. A. Keith, R. Kobayashi, J. Normand, 
 K. Raghavachari, A. P. Rendell, J. C. Burant, S. S. Iyengar, 
 J. Tomasi, M. Cossi, J. M. Millam, M. Klene, C. Adamo, R. Cammi, 
 J. W. Ochterski, R. L. Martin, K. Morokuma, O. Farkas, 
 J. B. Foresman, and D. J. Fox, Gaussian, Inc., Wallingford CT, 2016.
 
 ******************************************
 Gaussian 16:  ES64L-G16RevA.03 25-Dec-2016
                 5-May-2022 
 ******************************************
 %nproc=24
 Will use up to   24 processors via shared memory.
 %mem=50gb
 --------------------
 #p ZINDO=(nstates=5)
 --------------------
 1/38=1,172=1/1;
 2/12=2,17=6,18=5,40=1/2;
 3/5=2,25=1,41=400000/1,2,3,8;
 4/5=3,35=1/1;
 5/5=2,35=1,38=5/2;
 8/6=1,108=5/1;
 9/41=5,42=1,49=10/14;
 6/7=2,8=2,9=2,10=2/1;
 99/5=1,9=1/99;
 Leave Link    1 at Thu May  5 12:15:27 2022, MaxMem=  6710886400 cpu:               0.8 elap:               0.0
 (Enter /sw/apps/gaussian-16.0/g16/l101.exe)
 ----------------------------
 step_851_chromophore_2 ZINDO
 ----------------------------
 Symbolic Z-matrix:
 Charge =  0 Multiplicity = 1
 Mg                    3.219     0.954     44.372 
 C                     6.236     2.748     44.098 
 C                     1.619     3.835     43.001 
 C                     0.488    -0.746     44.196 
 C                     5.092    -1.773     45.291 
 N                     3.882     2.98      43.534 
 C                     5.171     3.47      43.455 
 C                     5.248     4.848     42.852 
 C                     3.718     5.22      42.576 
 C                     2.981     3.968     43.09 
 C                     3.199     6.503     43.416 
 C                     6.143     5.106     41.651 
 C                     6.696     3.903     40.885 
 C                     7.098     4.177     39.458 
 O                     7.686     5.192     39.085 
 O                     6.746     3.084     38.634 
 N                     1.317     1.454     43.623 
 C                     0.826     2.666     43.146 
 C                    -0.606     2.532     42.985 
 C                    -0.959     1.267     43.355 
 C                     0.3       0.54      43.684 
 C                    -1.367     3.783     42.58 
 C                    -2.385     0.67      43.296 
 O                    -3.374     1.341     42.929 
 C                    -2.664    -0.839     43.542 
 N                     2.941    -1.069     44.501 
 C                     1.667    -1.452     44.564 
 C                     1.57     -3.002     44.883 
 C                     3.107    -3.372     45.227 
 C                     3.77     -2.021     45.055 
 C                     0.527    -3.309     46.02 
 C                     3.754    -4.557     44.491 
 C                     4.454    -5.613     45.26 
 N                     5.276     0.512     44.612 
 C                     5.854    -0.61      45.065 
 C                     7.265    -0.409     45.277 
 C                     7.46      0.9       44.922 
 C                     6.195     1.421     44.44 
 C                     8.358    -1.352     45.609 
 C                     8.49      1.942     44.721 
 O                     9.707     1.935     44.891 
 C                     7.72      3.177     44.239 
 C                     8.017     4.277     45.132 
 O                     8.926     5.127     44.866 
 O                     6.995     4.549     46.028 
 C                     6.836     5.903     46.477 
 C                     6.993     3.228     37.227 
 C                     5.736     2.814     36.614 
 C                     5.563     2.149     35.424 
 C                     6.63      1.605     34.484 
 C                     4.089     1.745     35.249 
 C                     3.272     2.849     34.523 
 C                     2.905     2.74      33.033 
 C                     1.434     2.33      32.667 
 C                     1.245     0.805     32.834 
 C                     1.01      2.823     31.212 
 C                     0.05      4.038     31.309 
 C                    -1.025     3.856     30.171 
 C                    -0.7       4.869     29.041 
 C                    -1.139     6.26      29.512 
 C                    -1.361     4.427     27.755 
 C                    -0.387     4.28      26.602 
 C                    -0.713     3.182     25.546 
 C                    -1.272     3.827     24.211 
 C                    -2.579     3.147     23.775 
 C                    -0.229     4.114     23.092 
 H                     1.007     4.695     42.72 
 H                    -0.445    -1.295     44.339 
 H                     5.622    -2.544     45.855 
 H                     5.564     5.529     43.644 
 H                     3.496     5.31      41.513 
 H                     2.558     7.182     42.853 
 H                     4.079     7.006     43.819 
 H                     2.664     6.17      44.305 
 H                     6.979     5.76      41.896 
 H                     5.542     5.655     40.926 
 H                     6.096     2.993     40.908 
 H                     7.649     3.552     41.281 
 H                    -2.371     3.48      42.283 
 H                    -0.903     4.217     41.694 
 H                    -1.386     4.449     43.442 
 H                    -2.447    -1.036     44.592 
 H                    -2.22     -1.488     42.787 
 H                    -3.701    -1.133     43.383 
 H                     1.295    -3.484     43.945 
 H                     3.144    -3.601     46.292 
 H                     0.333    -4.381     46.056 
 H                    -0.406    -2.749     45.959 
 H                     0.86     -2.972     47.002 
 H                     4.522    -4.042     43.915 
 H                     3.103    -5.004     43.74 
 H                     4.046    -6.591     45.003 
 H                     4.412    -5.486     46.342 
 H                     5.524    -5.54      45.066 
 H                     7.971    -2.31      45.264 
 H                     8.619    -1.476     46.66 
 H                     9.201    -1.075     44.976 
 H                     8.271     3.445     43.338 
 H                     5.884     6.064     46.982 
 H                     6.899     6.551     45.603 
 H                     7.638     6.138     47.177 
 H                     7.752     2.462     37.066 
 H                     7.312     4.211     36.881 
 H                     4.859     3.068     37.208 
 H                     7.642     1.965     34.669 
 H                     6.39      2.205     33.607 
 H                     6.615     0.525     34.336 
 H                     3.599     1.466     36.182 
 H                     4.15      0.802     34.705 
 H                     3.735     3.824     34.674 
 H                     2.397     2.805     35.172 
 H                     3.601     2.063     32.539 
 H                     3.196     3.695     32.595 
 H                     0.786     2.739     33.443 
 H                     2.048     0.291     33.362 
 H                     1.091     0.337     31.861 
 H                     0.219     0.677     33.181 
 H                     0.707     1.989     30.58 
 H                     1.943     3.253     30.848 
 H                     0.66      4.937     31.22 
 H                    -0.354     4.125     32.317 
 H                    -1.97      4.153     30.627 
 H                    -1.143     2.863     29.736 
 H                     0.383     4.869     28.913 
 H                    -0.307     6.96      29.442 
 H                    -1.704     6.438     30.427 
 H                    -1.832     6.785     28.854 
 H                    -2.089     5.17      27.43 
 H                    -1.922     3.505     27.906 
 H                     0.584     4.077     27.053 
 H                    -0.282     5.236     26.089 
 H                    -1.499     2.576     25.997 
 H                     0.177     2.556     25.48 
 H                    -1.619     4.826     24.474 
 H                    -2.618     2.081     23.999 
 H                    -2.761     3.288     22.71 
 H                    -3.376     3.63      24.343 
 H                    -0.143     5.18      22.879 
 H                    -0.301     3.493     22.2 
 H                     0.782     3.898     23.436 
 
 ITRead=  0  0  0  0  0  0  0  0  0  0  0  0  0  0  0  0  0  0  0  0
 ITRead=  0  0  0  0  0  0  0  0  0  0  0  0  0  0  0  0  0  0  0  0
 ITRead=  0  0  0  0  0  0  0  0  0  0  0  0  0  0  0  0  0  0  0  0
 ITRead=  0  0  0  0  0  0  0  0  0  0  0  0  0  0  0  0  0  0  0  0
 ITRead=  0  0  0  0  0  0  0  0  0  0  0  0  0  0  0  0  0  0  0  0
 ITRead=  0  0  0  0  0  0  0  0  0  0  0  0  0  0  0  0  0  0  0  0
 ITRead=  0  0  0  0  0  0  0  0  0  0  0  0  0  0  0  0  0  0  0  0
 MicOpt= -1 -1 -1 -1 -1 -1 -1 -1 -1 -1 -1 -1 -1 -1 -1 -1 -1 -1 -1 -1
 MicOpt= -1 -1 -1 -1 -1 -1 -1 -1 -1 -1 -1 -1 -1 -1 -1 -1 -1 -1 -1 -1
 MicOpt= -1 -1 -1 -1 -1 -1 -1 -1 -1 -1 -1 -1 -1 -1 -1 -1 -1 -1 -1 -1
 MicOpt= -1 -1 -1 -1 -1 -1 -1 -1 -1 -1 -1 -1 -1 -1 -1 -1 -1 -1 -1 -1
 MicOpt= -1 -1 -1 -1 -1 -1 -1 -1 -1 -1 -1 -1 -1 -1 -1 -1 -1 -1 -1 -1
 MicOpt= -1 -1 -1 -1 -1 -1 -1 -1 -1 -1 -1 -1 -1 -1 -1 -1 -1 -1 -1 -1
 MicOpt= -1 -1 -1 -1 -1 -1 -1 -1 -1 -1 -1 -1 -1 -1 -1 -1 -1 -1 -1 -1
 NAtoms=    140 NQM=      140 NQMF=       0 NMMI=      0 NMMIF=      0
                NMic=       0 NMicF=      0.
                    Isotopes and Nuclear Properties:
 (Nuclear quadrupole moments (NQMom) in fm**2, nuclear magnetic moments (NMagM)
  in nuclear magnetons)

  Atom         1           2           3           4           5           6           7           8           9          10
 IAtWgt=          24          12          12          12          12          14          12          12          12          12
 AtmWgt=  23.9850450  12.0000000  12.0000000  12.0000000  12.0000000  14.0030740  12.0000000  12.0000000  12.0000000  12.0000000
 NucSpn=           0           0           0           0           0           2           0           0           0           0
 AtZEff=  -0.0000000  -0.0000000  -0.0000000  -0.0000000  -0.0000000  -0.0000000  -0.0000000  -0.0000000  -0.0000000  -0.0000000
 NQMom=    0.0000000   0.0000000   0.0000000   0.0000000   0.0000000   2.0440000   0.0000000   0.0000000   0.0000000   0.0000000
 NMagM=    0.0000000   0.0000000   0.0000000   0.0000000   0.0000000   0.4037610   0.0000000   0.0000000   0.0000000   0.0000000
 AtZNuc=  12.0000000   6.0000000   6.0000000   6.0000000   6.0000000   7.0000000   6.0000000   6.0000000   6.0000000   6.0000000

  Atom        11          12          13          14          15          16          17          18          19          20
 IAtWgt=          12          12          12          12          16          16          14          12          12          12
 AtmWgt=  12.0000000  12.0000000  12.0000000  12.0000000  15.9949146  15.9949146  14.0030740  12.0000000  12.0000000  12.0000000
 NucSpn=           0           0           0           0           0           0           2           0           0           0
 AtZEff=  -0.0000000  -0.0000000  -0.0000000  -0.0000000  -0.0000000  -0.0000000  -0.0000000  -0.0000000  -0.0000000  -0.0000000
 NQMom=    0.0000000   0.0000000   0.0000000   0.0000000   0.0000000   0.0000000   2.0440000   0.0000000   0.0000000   0.0000000
 NMagM=    0.0000000   0.0000000   0.0000000   0.0000000   0.0000000   0.0000000   0.4037610   0.0000000   0.0000000   0.0000000
 AtZNuc=   6.0000000   6.0000000   6.0000000   6.0000000   8.0000000   8.0000000   7.0000000   6.0000000   6.0000000   6.0000000

  Atom        21          22          23          24          25          26          27          28          29          30
 IAtWgt=          12          12          12          16          12          14          12          12          12          12
 AtmWgt=  12.0000000  12.0000000  12.0000000  15.9949146  12.0000000  14.0030740  12.0000000  12.0000000  12.0000000  12.0000000
 NucSpn=           0           0           0           0           0           2           0           0           0           0
 AtZEff=  -0.0000000  -0.0000000  -0.0000000  -0.0000000  -0.0000000  -0.0000000  -0.0000000  -0.0000000  -0.0000000  -0.0000000
 NQMom=    0.0000000   0.0000000   0.0000000   0.0000000   0.0000000   2.0440000   0.0000000   0.0000000   0.0000000   0.0000000
 NMagM=    0.0000000   0.0000000   0.0000000   0.0000000   0.0000000   0.4037610   0.0000000   0.0000000   0.0000000   0.0000000
 AtZNuc=   6.0000000   6.0000000   6.0000000   8.0000000   6.0000000   7.0000000   6.0000000   6.0000000   6.0000000   6.0000000

  Atom        31          32          33          34          35          36          37          38          39          40
 IAtWgt=          12          12          12          14          12          12          12          12          12          12
 AtmWgt=  12.0000000  12.0000000  12.0000000  14.0030740  12.0000000  12.0000000  12.0000000  12.0000000  12.0000000  12.0000000
 NucSpn=           0           0           0           2           0           0           0           0           0           0
 AtZEff=  -0.0000000  -0.0000000  -0.0000000  -0.0000000  -0.0000000  -0.0000000  -0.0000000  -0.0000000  -0.0000000  -0.0000000
 NQMom=    0.0000000   0.0000000   0.0000000   2.0440000   0.0000000   0.0000000   0.0000000   0.0000000   0.0000000   0.0000000
 NMagM=    0.0000000   0.0000000   0.0000000   0.4037610   0.0000000   0.0000000   0.0000000   0.0000000   0.0000000   0.0000000
 AtZNuc=   6.0000000   6.0000000   6.0000000   7.0000000   6.0000000   6.0000000   6.0000000   6.0000000   6.0000000   6.0000000

  Atom        41          42          43          44          45          46          47          48          49          50
 IAtWgt=          16          12          12          16          16          12          12          12          12          12
 AtmWgt=  15.9949146  12.0000000  12.0000000  15.9949146  15.9949146  12.0000000  12.0000000  12.0000000  12.0000000  12.0000000
 NucSpn=           0           0           0           0           0           0           0           0           0           0
 AtZEff=  -0.0000000  -0.0000000  -0.0000000  -0.0000000  -0.0000000  -0.0000000  -0.0000000  -0.0000000  -0.0000000  -0.0000000
 NQMom=    0.0000000   0.0000000   0.0000000   0.0000000   0.0000000   0.0000000   0.0000000   0.0000000   0.0000000   0.0000000
 NMagM=    0.0000000   0.0000000   0.0000000   0.0000000   0.0000000   0.0000000   0.0000000   0.0000000   0.0000000   0.0000000
 AtZNuc=   8.0000000   6.0000000   6.0000000   8.0000000   8.0000000   6.0000000   6.0000000   6.0000000   6.0000000   6.0000000

  Atom        51          52          53          54          55          56          57          58          59          60
 IAtWgt=          12          12          12          12          12          12          12          12          12          12
 AtmWgt=  12.0000000  12.0000000  12.0000000  12.0000000  12.0000000  12.0000000  12.0000000  12.0000000  12.0000000  12.0000000
 NucSpn=           0           0           0           0           0           0           0           0           0           0
 AtZEff=  -0.0000000  -0.0000000  -0.0000000  -0.0000000  -0.0000000  -0.0000000  -0.0000000  -0.0000000  -0.0000000  -0.0000000
 NQMom=    0.0000000   0.0000000   0.0000000   0.0000000   0.0000000   0.0000000   0.0000000   0.0000000   0.0000000   0.0000000
 NMagM=    0.0000000   0.0000000   0.0000000   0.0000000   0.0000000   0.0000000   0.0000000   0.0000000   0.0000000   0.0000000
 AtZNuc=   6.0000000   6.0000000   6.0000000   6.0000000   6.0000000   6.0000000   6.0000000   6.0000000   6.0000000   6.0000000

  Atom        61          62          63          64          65          66          67          68          69          70
 IAtWgt=          12          12          12          12          12          12           1           1           1           1
 AtmWgt=  12.0000000  12.0000000  12.0000000  12.0000000  12.0000000  12.0000000   1.0078250   1.0078250   1.0078250   1.0078250
 NucSpn=           0           0           0           0           0           0           1           1           1           1
 AtZEff=  -0.0000000  -0.0000000  -0.0000000  -0.0000000  -0.0000000  -0.0000000  -0.0000000  -0.0000000  -0.0000000  -0.0000000
 NQMom=    0.0000000   0.0000000   0.0000000   0.0000000   0.0000000   0.0000000   0.0000000   0.0000000   0.0000000   0.0000000
 NMagM=    0.0000000   0.0000000   0.0000000   0.0000000   0.0000000   0.0000000   2.7928460   2.7928460   2.7928460   2.7928460
 AtZNuc=   6.0000000   6.0000000   6.0000000   6.0000000   6.0000000   6.0000000   1.0000000   1.0000000   1.0000000   1.0000000

  Atom        71          72          73          74          75          76          77          78          79          80
 IAtWgt=           1           1           1           1           1           1           1           1           1           1
 AtmWgt=   1.0078250   1.0078250   1.0078250   1.0078250   1.0078250   1.0078250   1.0078250   1.0078250   1.0078250   1.0078250
 NucSpn=           1           1           1           1           1           1           1           1           1           1
 AtZEff=  -0.0000000  -0.0000000  -0.0000000  -0.0000000  -0.0000000  -0.0000000  -0.0000000  -0.0000000  -0.0000000  -0.0000000
 NQMom=    0.0000000   0.0000000   0.0000000   0.0000000   0.0000000   0.0000000   0.0000000   0.0000000   0.0000000   0.0000000
 NMagM=    2.7928460   2.7928460   2.7928460   2.7928460   2.7928460   2.7928460   2.7928460   2.7928460   2.7928460   2.7928460
 AtZNuc=   1.0000000   1.0000000   1.0000000   1.0000000   1.0000000   1.0000000   1.0000000   1.0000000   1.0000000   1.0000000

  Atom        81          82          83          84          85          86          87          88          89          90
 IAtWgt=           1           1           1           1           1           1           1           1           1           1
 AtmWgt=   1.0078250   1.0078250   1.0078250   1.0078250   1.0078250   1.0078250   1.0078250   1.0078250   1.0078250   1.0078250
 NucSpn=           1           1           1           1           1           1           1           1           1           1
 AtZEff=  -0.0000000  -0.0000000  -0.0000000  -0.0000000  -0.0000000  -0.0000000  -0.0000000  -0.0000000  -0.0000000  -0.0000000
 NQMom=    0.0000000   0.0000000   0.0000000   0.0000000   0.0000000   0.0000000   0.0000000   0.0000000   0.0000000   0.0000000
 NMagM=    2.7928460   2.7928460   2.7928460   2.7928460   2.7928460   2.7928460   2.7928460   2.7928460   2.7928460   2.7928460
 AtZNuc=   1.0000000   1.0000000   1.0000000   1.0000000   1.0000000   1.0000000   1.0000000   1.0000000   1.0000000   1.0000000

  Atom        91          92          93          94          95          96          97          98          99         100
 IAtWgt=           1           1           1           1           1           1           1           1           1           1
 AtmWgt=   1.0078250   1.0078250   1.0078250   1.0078250   1.0078250   1.0078250   1.0078250   1.0078250   1.0078250   1.0078250
 NucSpn=           1           1           1           1           1           1           1           1           1           1
 AtZEff=  -0.0000000  -0.0000000  -0.0000000  -0.0000000  -0.0000000  -0.0000000  -0.0000000  -0.0000000  -0.0000000  -0.0000000
 NQMom=    0.0000000   0.0000000   0.0000000   0.0000000   0.0000000   0.0000000   0.0000000   0.0000000   0.0000000   0.0000000
 NMagM=    2.7928460   2.7928460   2.7928460   2.7928460   2.7928460   2.7928460   2.7928460   2.7928460   2.7928460   2.7928460
 AtZNuc=   1.0000000   1.0000000   1.0000000   1.0000000   1.0000000   1.0000000   1.0000000   1.0000000   1.0000000   1.0000000

  Atom       101         102         103         104         105         106         107         108         109         110
 IAtWgt=           1           1           1           1           1           1           1           1           1           1
 AtmWgt=   1.0078250   1.0078250   1.0078250   1.0078250   1.0078250   1.0078250   1.0078250   1.0078250   1.0078250   1.0078250
 NucSpn=           1           1           1           1           1           1           1           1           1           1
 AtZEff=  -0.0000000  -0.0000000  -0.0000000  -0.0000000  -0.0000000  -0.0000000  -0.0000000  -0.0000000  -0.0000000  -0.0000000
 NQMom=    0.0000000   0.0000000   0.0000000   0.0000000   0.0000000   0.0000000   0.0000000   0.0000000   0.0000000   0.0000000
 NMagM=    2.7928460   2.7928460   2.7928460   2.7928460   2.7928460   2.7928460   2.7928460   2.7928460   2.7928460   2.7928460
 AtZNuc=   1.0000000   1.0000000   1.0000000   1.0000000   1.0000000   1.0000000   1.0000000   1.0000000   1.0000000   1.0000000

  Atom       111         112         113         114         115         116         117         118         119         120
 IAtWgt=           1           1           1           1           1           1           1           1           1           1
 AtmWgt=   1.0078250   1.0078250   1.0078250   1.0078250   1.0078250   1.0078250   1.0078250   1.0078250   1.0078250   1.0078250
 NucSpn=           1           1           1           1           1           1           1           1           1           1
 AtZEff=  -0.0000000  -0.0000000  -0.0000000  -0.0000000  -0.0000000  -0.0000000  -0.0000000  -0.0000000  -0.0000000  -0.0000000
 NQMom=    0.0000000   0.0000000   0.0000000   0.0000000   0.0000000   0.0000000   0.0000000   0.0000000   0.0000000   0.0000000
 NMagM=    2.7928460   2.7928460   2.7928460   2.7928460   2.7928460   2.7928460   2.7928460   2.7928460   2.7928460   2.7928460
 AtZNuc=   1.0000000   1.0000000   1.0000000   1.0000000   1.0000000   1.0000000   1.0000000   1.0000000   1.0000000   1.0000000

  Atom       121         122         123         124         125         126         127         128         129         130
 IAtWgt=           1           1           1           1           1           1           1           1           1           1
 AtmWgt=   1.0078250   1.0078250   1.0078250   1.0078250   1.0078250   1.0078250   1.0078250   1.0078250   1.0078250   1.0078250
 NucSpn=           1           1           1           1           1           1           1           1           1           1
 AtZEff=  -0.0000000  -0.0000000  -0.0000000  -0.0000000  -0.0000000  -0.0000000  -0.0000000  -0.0000000  -0.0000000  -0.0000000
 NQMom=    0.0000000   0.0000000   0.0000000   0.0000000   0.0000000   0.0000000   0.0000000   0.0000000   0.0000000   0.0000000
 NMagM=    2.7928460   2.7928460   2.7928460   2.7928460   2.7928460   2.7928460   2.7928460   2.7928460   2.7928460   2.7928460
 AtZNuc=   1.0000000   1.0000000   1.0000000   1.0000000   1.0000000   1.0000000   1.0000000   1.0000000   1.0000000   1.0000000

  Atom       131         132         133         134         135         136         137         138         139         140
 IAtWgt=           1           1           1           1           1           1           1           1           1           1
 AtmWgt=   1.0078250   1.0078250   1.0078250   1.0078250   1.0078250   1.0078250   1.0078250   1.0078250   1.0078250   1.0078250
 NucSpn=           1           1           1           1           1           1           1           1           1           1
 AtZEff=  -0.0000000  -0.0000000  -0.0000000  -0.0000000  -0.0000000  -0.0000000  -0.0000000  -0.0000000  -0.0000000  -0.0000000
 NQMom=    0.0000000   0.0000000   0.0000000   0.0000000   0.0000000   0.0000000   0.0000000   0.0000000   0.0000000   0.0000000
 NMagM=    2.7928460   2.7928460   2.7928460   2.7928460   2.7928460   2.7928460   2.7928460   2.7928460   2.7928460   2.7928460
 AtZNuc=   1.0000000   1.0000000   1.0000000   1.0000000   1.0000000   1.0000000   1.0000000   1.0000000   1.0000000   1.0000000
 Leave Link  101 at Thu May  5 12:15:27 2022, MaxMem=  6710886400 cpu:               3.4 elap:               0.2
 (Enter /sw/apps/gaussian-16.0/g16/l202.exe)
 Stoichiometry    C55H74MgN4O6
 Framework group  C1[X(C55H74MgN4O6)]
 Deg. of freedom   414
 Full point group                 C1      NOp   1
 Largest Abelian subgroup         C1      NOp   1
 Largest concise Abelian subgroup C1      NOp   1
                         Standard orientation:                         
 ---------------------------------------------------------------------
 Center     Atomic      Atomic             Coordinates (Angstroms)
 Number     Number       Type             X           Y           Z
 ---------------------------------------------------------------------
      1         12           0       -4.776022    1.275659    0.386369
      2          6           0       -5.042986   -2.234932    0.403130
      3          6           0       -2.566302    0.916663    3.166308
      4          6           0       -4.144909    4.428748    0.188724
      5          6           0       -6.606281    1.256609   -2.518628
      6          7           0       -3.828817   -0.461386    1.540478
      7          6           0       -4.024461   -1.811864    1.326481
      8          6           0       -3.247024   -2.683876    2.277065
      9          6           0       -2.507328   -1.632352    3.227121
     10          6           0       -2.999848   -0.284279    2.665878
     11          6           0       -2.951109   -1.735242    4.780673
     12          6           0       -2.309856   -3.752457    1.738698
     13          6           0       -1.932324   -3.708512    0.257040
     14          6           0       -0.643964   -4.405069   -0.100654
     15          8           0       -0.283520   -5.483357    0.371017
     16          8           0        0.053211   -3.666031   -1.083150
     17          7           0       -3.465512    2.501853    1.485285
     18          6           0       -2.680096    2.212810    2.597548
     19          6           0       -2.159389    3.462229    3.109716
     20          6           0       -2.622154    4.472332    2.317709
     21          6           0       -3.396684    3.841160    1.211555
     22          6           0       -1.362252    3.390877    4.401083
     23          6           0       -2.275971    5.972702    2.467421
     24          8           0       -1.548190    6.400165    3.389735
     25          6           0       -2.681499    7.028560    1.401519
     26          7           0       -5.155494    2.579996   -1.143716
     27          6           0       -4.931161    3.859846   -0.851497
     28          6           0       -5.462223    4.795017   -2.016442
     29          6           0       -6.267961    3.746868   -2.949060
     30          6           0       -6.063203    2.461394   -2.174473
     31          6           0       -6.306462    6.003817   -1.467872
     32          6           0       -5.941516    3.706961   -4.451182
     33          6           0       -7.035014    3.783437   -5.448634
     34          7           0       -5.636686   -0.188112   -0.878876
     35          6           0       -6.408241   -0.022622   -1.963077
     36          6           0       -6.960549   -1.281466   -2.394974
     37          6           0       -6.461718   -2.179291   -1.487996
     38          6           0       -5.574410   -1.459225   -0.594587
     39          6           0       -7.728245   -1.660372   -3.603772
     40          6           0       -6.380304   -3.617237   -1.152214
     41          8           0       -6.874173   -4.611242   -1.679553
     42          6           0       -5.510353   -3.684372    0.108392
     43          6           0       -6.256804   -4.370345    1.141789
     44          8           0       -6.112402   -5.616635    1.354972
     45          8           0       -6.783013   -3.516522    2.098541
     46          6           0       -6.942522   -4.018256    3.433838
     47          6           0        1.343446   -4.161677   -1.471767
     48          6           0        2.198891   -2.982415   -1.402721
     49          6           0        3.264701   -2.671702   -2.212512
     50          6           0        3.775600   -3.428718   -3.430681
     51          6           0        3.765689   -1.248810   -1.911006
     52          6           0        4.858198   -1.245323   -0.806563
     53          6           0        6.352758   -1.105778   -1.143442
     54          6           0        7.033009    0.288776   -0.901835
     55          6           0        6.675220    1.265298   -2.045350
     56          6           0        8.608987    0.168794   -0.697517
     57          6           0        8.978521    0.359528    0.797241
     58          6           0       10.320260    1.185686    0.828744
     59          6           0       11.469659    0.214930    1.209808
     60          6           0       11.371666   -0.067238    2.713212
     61          6           0       12.796124    0.805611    0.788302
     62          6           0       13.599616   -0.111720   -0.113140
     63          6           0       14.508820    0.572910   -1.176929
     64          6           0       16.032832    0.505658   -0.748450
     65          6           0       16.690330    1.891974   -0.829505
     66          6           0       16.856716   -0.690024   -1.308750
     67          1           0       -1.991656    0.941936    4.094881
     68          1           0       -4.116634    5.520207    0.204706
     69          1           0       -7.412224    1.296920   -3.255017
     70          1           0       -3.971857   -3.183439    2.921995
     71          1           0       -1.424316   -1.653447    3.108823
     72          1           0       -2.131014   -1.634263    5.492106
     73          1           0       -3.490120   -2.675529    4.903745
     74          1           0       -3.702923   -0.977685    5.000485
     75          1           0       -2.662247   -4.758127    1.964722
     76          1           0       -1.368477   -3.642114    2.277081
     77          1           0       -1.940421   -2.727701   -0.218958
     78          1           0       -2.625127   -4.267561   -0.372018
     79          1           0       -0.857033    4.347586    4.533354
     80          1           0       -0.577318    2.641006    4.299992
     81          1           0       -2.064646    3.191416    5.209674
     82          1           0       -3.768432    7.107481    1.428802
     83          1           0       -2.193529    6.878009    0.438409
     84          1           0       -2.296631    8.029247    1.595397
     85          1           0       -4.577404    5.134600   -2.554561
     86          1           0       -7.325342    3.996051   -2.860242
     87          1           0       -6.464153    6.729351   -2.265901
     88          1           0       -5.902292    6.488210   -0.579153
     89          1           0       -7.272657    5.697459   -1.066132
     90          1           0       -5.519952    2.706327   -4.539728
     91          1           0       -5.125775    4.372870   -4.731794
     92          1           0       -6.841171    4.595707   -6.149804
     93          1           0       -8.028402    3.916672   -5.019630
     94          1           0       -7.130599    2.816346   -5.942055
     95          1           0       -7.453408   -0.889482   -4.322626
     96          1           0       -8.816101   -1.656226   -3.535577
     97          1           0       -7.312245   -2.609059   -3.942895
     98          1           0       -4.762219   -4.423432   -0.176761
     99          1           0       -7.135402   -3.224855    4.155338
    100          1           0       -6.024498   -4.540284    3.703038
    101          1           0       -7.785941   -4.708727    3.451816
    102          1           0        1.163234   -4.426354   -2.513989
    103          1           0        1.746313   -4.993044   -0.893586
    104          1           0        1.916511   -2.286918   -0.613400
    105          1           0        3.383757   -4.438733   -3.550253
    106          1           0        4.771117   -3.671465   -3.060886
    107          1           0        3.742258   -2.877423   -4.370623
    108          1           0        2.968790   -0.550484   -1.654641
    109          1           0        4.109593   -0.892586   -2.882469
    110          1           0        4.749364   -2.118342   -0.163299
    111          1           0        4.474092   -0.388356   -0.252640
    112          1           0        6.520039   -1.414158   -2.174800
    113          1           0        6.845861   -1.912988   -0.601399
    114          1           0        6.541213    0.738744   -0.038686
    115          1           0        5.871323    0.937066   -2.703986
    116          1           0        7.562558    1.490556   -2.638106
    117          1           0        6.604723    2.247139   -1.575789
    118          1           0        9.153420    0.761151   -1.432019
    119          1           0        8.770636   -0.894317   -0.875138
    120          1           0        9.044651   -0.633974    1.240864
    121          1           0        8.147325    0.806746    1.341260
    122          1           0       10.194305    1.895121    1.647283
    123          1           0       10.601371    1.734921   -0.070431
    124          1           0       11.295951   -0.715169    0.667577
    125          1           0       11.326553   -1.141158    2.891497
    126          1           0       10.687471    0.454002    3.382779
    127          1           0       12.270644    0.143087    3.293245
    128          1           0       13.424831    0.982551    1.660700
    129          1           0       12.654084    1.779249    0.319838
    130          1           0       12.874125   -0.754466   -0.611128
    131          1           0       14.214657   -0.774401    0.495719
    132          1           0       14.195683    1.617023   -1.191256
    133          1           0       14.225898    0.139728   -2.136429
    134          1           0       16.042448    0.318277    0.325038
    135          1           0       16.313176    2.512527   -1.642353
    136          1           0       17.772732    1.810444   -0.924305
    137          1           0       16.448488    2.397286    0.107136
    138          1           0       17.210637   -1.348433   -0.514799
    139          1           0       17.619747   -0.441963   -2.045458
    140          1           0       16.219624   -1.375861   -1.866294
 ---------------------------------------------------------------------
 Rotational constants (GHZ):           0.0370262           0.0103277           0.0093751
 Leave Link  202 at Thu May  5 12:15:27 2022, MaxMem=  6710886400 cpu:               0.2 elap:               0.0
 (Enter /sw/apps/gaussian-16.0/g16/l301.exe)
 Standard basis: VSTO-6G (5D, 7F)
 Ernie: Thresh=  0.10000D-02 Tol=  0.10000D-05 Strict=F.
 There are   338 symmetry adapted cartesian basis functions of A   symmetry.
 There are   338 symmetry adapted basis functions of A   symmetry.
   338 basis functions,  2028 primitive gaussians,   338 cartesian basis functions
   176 alpha electrons      176 beta electrons
       nuclear repulsion energy      4797.4588933449 Hartrees.
 IExCor=    0 DFT=F Ex=HF Corr=None ExCW=0 ScaHFX=  1.000000
 ScaDFX=  1.000000  1.000000  1.000000  1.000000 ScalE2=  1.000000  1.000000
 IRadAn=      5 IRanWt=     -1 IRanGd=            0 ICorTp=0 IEmpDi=  4
 Integral buffers will be    131072 words long.
 Regular integral format.
 Two-electron integral symmetry is turned off.
 Leave Link  301 at Thu May  5 12:15:27 2022, MaxMem=  6710886400 cpu:               1.2 elap:               0.1
 (Enter /sw/apps/gaussian-16.0/g16/l302.exe)
 Do NDO integrals.
 NPDir=0 NMtPBC=     1 NCelOv=     1 NCel=       1 NClECP=     1 NCelD=      1
         NCelK=      1 NCelE2=     1 NClLst=     1 CellRange=     0.0.
 One-electron integrals computed using PRISM.
 Generate ZINDO/S integrals.
 NDO Nuclear repulsion=  4319.904902631688 Hartrees.
 NBasis=   338 RedAO= F EigKep=  0.00D+00  NBF=   338
 NBsUse=   338 1.00D-04 EigRej=  0.00D+00 NBFU=   338
 Leave Link  302 at Thu May  5 12:15:28 2022, MaxMem=  6710886400 cpu:               8.2 elap:               0.4
 (Enter /sw/apps/gaussian-16.0/g16/l303.exe)
 DipDrv:  MaxL=1.
 DipDrv:  will hold  3 matrices at once.
 Leave Link  303 at Thu May  5 12:15:28 2022, MaxMem=  6710886400 cpu:               0.6 elap:               0.0
 (Enter /sw/apps/gaussian-16.0/g16/l308.exe)
 Leave Link  308 at Thu May  5 12:15:28 2022, MaxMem=  6710886400 cpu:               4.6 elap:               0.2
 (Enter /sw/apps/gaussian-16.0/g16/l401.exe)
 Simple Huckel Guess.
 JPrj=0 DoOrth=F DoCkMO=F.
 Leave Link  401 at Thu May  5 12:15:28 2022, MaxMem=  6710886400 cpu:               2.8 elap:               0.1
 (Enter /sw/apps/gaussian-16.0/g16/l502.exe)
 Two-electron integral symmetry not used.
 Closed shell SCF:
 Using DIIS extrapolation, IDIIS=  1040.
 Overlap will be assumed to be unity.
 NGot=  6710886400 LenX=  6710643598 LenY=  6710528913
 Requested convergence on RMS density matrix=1.00D-08 within 128 cycles.
 Requested convergence on MAX density matrix=1.00D-06.
 Requested convergence on             energy=1.00D-06.
 No special actions if energy rises.
 Fock matrices will be formed incrementally for  20 cycles.

 Cycle   1  Pass 1  IDiag  1:
 E= -472.328364825470    
 DIIS: error= 6.68D-02 at cycle   1 NSaved=   1.
 NSaved= 1 IEnMin= 1 EnMin= -472.328364825470     IErMin= 1 ErrMin= 6.68D-02
 ErrMax= 6.68D-02  0.00D+00 EMaxC= 1.00D-01 BMatC= 8.36D-01 BMatP= 8.36D-01
 IDIUse=3 WtCom= 3.32D-01 WtEn= 6.68D-01
 Coeff-Com:  0.100D+01
 Coeff-En:   0.100D+01
 Coeff:      0.100D+01
 GapD=    2.000 DampG=2.000 DampE=0.500 DampFc=1.0000 IDamp=-1.
 RMSDP=4.09D-03 MaxDP=1.97D-01              OVMax= 0.00D+00

 Cycle   2  Pass 1  IDiag  1:
 RMSU=  4.08D-03    CP:  9.95D-01
 E= -474.172993195782     Delta-E=       -1.844628370312 Rises=F Damp=F
 DIIS: error= 2.46D-02 at cycle   2 NSaved=   2.
 NSaved= 2 IEnMin= 2 EnMin= -474.172993195782     IErMin= 2 ErrMin= 2.46D-02
 ErrMax= 2.46D-02  0.00D+00 EMaxC= 1.00D-01 BMatC= 5.72D-02 BMatP= 8.36D-01
 IDIUse=3 WtCom= 7.54D-01 WtEn= 2.46D-01
 Coeff-Com: -0.515D-01 0.105D+01
 Coeff-En:   0.000D+00 0.100D+01
 Coeff:     -0.389D-01 0.104D+01
 RMSDP=1.16D-03 MaxDP=6.62D-02 DE=-1.84D+00 OVMax= 0.00D+00

 Cycle   3  Pass 1  IDiag  1:
 RMSU=  1.12D-03    CP:  9.93D-01  1.07D+00
 E= -474.280368809676     Delta-E=       -0.107375613895 Rises=F Damp=F
 DIIS: error= 1.37D-02 at cycle   3 NSaved=   3.
 NSaved= 3 IEnMin= 3 EnMin= -474.280368809676     IErMin= 3 ErrMin= 1.37D-02
 ErrMax= 1.37D-02  0.00D+00 EMaxC= 1.00D-01 BMatC= 8.42D-03 BMatP= 5.72D-02
 IDIUse=3 WtCom= 8.63D-01 WtEn= 1.37D-01
 Coeff-Com: -0.704D-01 0.243D+00 0.827D+00
 Coeff-En:   0.000D+00 0.000D+00 0.100D+01
 Coeff:     -0.607D-01 0.210D+00 0.851D+00
 RMSDP=4.08D-04 MaxDP=2.41D-02 DE=-1.07D-01 OVMax= 0.00D+00

 Cycle   4  Pass 1  IDiag  1:
 RMSU=  2.55D-04    CP:  9.93D-01  1.15D+00  9.22D-01
 E= -474.295320874763     Delta-E=       -0.014952065087 Rises=F Damp=F
 DIIS: error= 1.50D-03 at cycle   4 NSaved=   4.
 NSaved= 4 IEnMin= 4 EnMin= -474.295320874763     IErMin= 4 ErrMin= 1.50D-03
 ErrMax= 1.50D-03  0.00D+00 EMaxC= 1.00D-01 BMatC= 3.27D-04 BMatP= 8.42D-03
 IDIUse=3 WtCom= 9.85D-01 WtEn= 1.50D-02
 Coeff-Com:  0.132D-02-0.416D-01 0.119D-01 0.103D+01
 Coeff-En:   0.000D+00 0.000D+00 0.000D+00 0.100D+01
 Coeff:      0.130D-02-0.410D-01 0.117D-01 0.103D+01
 RMSDP=1.36D-04 MaxDP=6.04D-03 DE=-1.50D-02 OVMax= 0.00D+00

 Cycle   5  Pass 1  IDiag  1:
 RMSU=  8.75D-05    CP:  9.92D-01  1.15D+00  1.01D+00  1.08D+00
 E= -474.296453751323     Delta-E=       -0.001132876559 Rises=F Damp=F
 DIIS: error= 4.98D-04 at cycle   5 NSaved=   5.
 NSaved= 5 IEnMin= 5 EnMin= -474.296453751323     IErMin= 5 ErrMin= 4.98D-04
 ErrMax= 4.98D-04  0.00D+00 EMaxC= 1.00D-01 BMatC= 5.54D-05 BMatP= 3.27D-04
 IDIUse=3 WtCom= 9.95D-01 WtEn= 4.98D-03
 Coeff-Com:  0.618D-02-0.251D-01-0.910D-01 0.185D+00 0.925D+00
 Coeff-En:   0.000D+00 0.000D+00 0.000D+00 0.000D+00 0.100D+01
 Coeff:      0.615D-02-0.250D-01-0.905D-01 0.184D+00 0.925D+00
 RMSDP=7.24D-05 MaxDP=3.16D-03 DE=-1.13D-03 OVMax= 0.00D+00

 Cycle   6  Pass 1  IDiag  1:
 RMSU=  4.38D-05    CP:  9.92D-01  1.15D+00  1.02D+00  1.30D+00  1.00D+00
 E= -474.296667613366     Delta-E=       -0.000213862044 Rises=F Damp=F
 DIIS: error= 2.41D-04 at cycle   6 NSaved=   6.
 NSaved= 6 IEnMin= 6 EnMin= -474.296667613366     IErMin= 6 ErrMin= 2.41D-04
 ErrMax= 2.41D-04  0.00D+00 EMaxC= 1.00D-01 BMatC= 1.12D-05 BMatP= 5.54D-05
 IDIUse=3 WtCom= 9.98D-01 WtEn= 2.41D-03
 Coeff-Com:  0.459D-03 0.392D-02-0.224D-01-0.108D+00 0.207D+00 0.920D+00
 Coeff-En:   0.000D+00 0.000D+00 0.000D+00 0.000D+00 0.000D+00 0.100D+01
 Coeff:      0.458D-03 0.391D-02-0.224D-01-0.108D+00 0.206D+00 0.920D+00
 RMSDP=3.00D-05 MaxDP=1.18D-03 DE=-2.14D-04 OVMax= 0.00D+00

 Cycle   7  Pass 1  IDiag  1:
 RMSU=  1.47D-05    CP:  9.92D-01  1.15D+00  1.03D+00  1.35D+00  1.18D+00
                    CP:  1.34D+00
 E= -474.296718085097     Delta-E=       -0.000050471731 Rises=F Damp=F
 DIIS: error= 9.81D-05 at cycle   7 NSaved=   7.
 NSaved= 7 IEnMin= 7 EnMin= -474.296718085097     IErMin= 7 ErrMin= 9.81D-05
 ErrMax= 9.81D-05  0.00D+00 EMaxC= 1.00D-01 BMatC= 1.74D-06 BMatP= 1.12D-05
 IDIUse=1 WtCom= 1.00D+00 WtEn= 0.00D+00
 Coeff-Com: -0.663D-03 0.306D-02 0.788D-02-0.266D-01-0.467D-01-0.189D+00
 Coeff-Com:  0.125D+01
 Coeff:     -0.663D-03 0.306D-02 0.788D-02-0.266D-01-0.467D-01-0.189D+00
 Coeff:      0.125D+01
 RMSDP=3.11D-05 MaxDP=1.09D-03 DE=-5.05D-05 OVMax= 0.00D+00

 Cycle   8  Pass 1  IDiag  1:
 RMSU=  9.47D-06    CP:  9.92D-01  1.15D+00  1.03D+00  1.39D+00  1.24D+00
                    CP:  1.87D+00  1.93D+00
 E= -474.296744305248     Delta-E=       -0.000026220151 Rises=F Damp=F
 DIIS: error= 7.91D-05 at cycle   8 NSaved=   8.
 NSaved= 8 IEnMin= 8 EnMin= -474.296744305248     IErMin= 8 ErrMin= 7.91D-05
 ErrMax= 7.91D-05  0.00D+00 EMaxC= 1.00D-01 BMatC= 1.49D-06 BMatP= 1.74D-06
 IDIUse=1 WtCom= 1.00D+00 WtEn= 0.00D+00
 Coeff-Com: -0.982D-05-0.144D-02 0.455D-02 0.266D-01 0.211D-02-0.419D+00
 Coeff-Com:  0.388D+00 0.999D+00
 Coeff:     -0.982D-05-0.144D-02 0.455D-02 0.266D-01 0.211D-02-0.419D+00
 Coeff:      0.388D+00 0.999D+00
 RMSDP=2.37D-05 MaxDP=7.46D-04 DE=-2.62D-05 OVMax= 0.00D+00

 Cycle   9  Pass 1  IDiag  1:
 RMSU=  3.56D-06    CP:  9.92D-01  1.15D+00  1.03D+00  1.42D+00  1.28D+00
                    CP:  2.23D+00  2.89D+00  1.72D+00
 E= -474.296761212881     Delta-E=       -0.000016907633 Rises=F Damp=F
 DIIS: error= 4.60D-05 at cycle   9 NSaved=   9.
 NSaved= 9 IEnMin= 9 EnMin= -474.296761212881     IErMin= 9 ErrMin= 4.60D-05
 ErrMax= 4.60D-05  0.00D+00 EMaxC= 1.00D-01 BMatC= 7.49D-07 BMatP= 1.49D-06
 IDIUse=1 WtCom= 1.00D+00 WtEn= 0.00D+00
 Coeff-Com:  0.428D-03-0.162D-02-0.588D-02 0.356D-02 0.785D-01 0.263D-01
 Coeff-Com: -0.453D+00-0.113D+01 0.249D+01
 Coeff:      0.428D-03-0.162D-02-0.588D-02 0.356D-02 0.785D-01 0.263D-01
 Coeff:     -0.453D+00-0.113D+01 0.249D+01
 RMSDP=4.95D-05 MaxDP=1.51D-03 DE=-1.69D-05 OVMax= 0.00D+00

 Cycle  10  Pass 1  IDiag  1:
 RMSU=  2.75D-05    CP:  9.92D-01  1.15D+00  1.03D+00  1.47D+00  1.32D+00
                    CP:  2.98D+00  3.00D+00  3.00D+00  3.00D+00
 E= -474.296784096155     Delta-E=       -0.000022883273 Rises=F Damp=F
 DIIS: error= 2.90D-05 at cycle  10 NSaved=  10.
 NSaved=10 IEnMin=10 EnMin= -474.296784096155     IErMin=10 ErrMin= 2.90D-05
 ErrMax= 2.90D-05  0.00D+00 EMaxC= 1.00D-01 BMatC= 2.44D-07 BMatP= 7.49D-07
 IDIUse=1 WtCom= 1.00D+00 WtEn= 0.00D+00
 Coeff-Com: -0.152D-03 0.138D-02-0.400D-03-0.204D-01 0.421D-02 0.117D+00
 Coeff-Com:  0.161D+00-0.527D+00-0.477D+00 0.174D+01
 Coeff:     -0.152D-03 0.138D-02-0.400D-03-0.204D-01 0.421D-02 0.117D+00
 Coeff:      0.161D+00-0.527D+00-0.477D+00 0.174D+01
 RMSDP=3.64D-05 MaxDP=1.14D-03 DE=-2.29D-05 OVMax= 0.00D+00

 Cycle  11  Pass 1  IDiag  1:
 RMSU=  2.49D-05    CP:  9.92D-01  1.15D+00  1.03D+00  1.50D+00  1.35D+00
                    CP:  3.00D+00  3.00D+00  3.00D+00  3.00D+00  1.87D+00
 E= -474.296792028507     Delta-E=       -0.000007932353 Rises=F Damp=F
 DIIS: error= 1.17D-05 at cycle  11 NSaved=  11.
 NSaved=11 IEnMin=11 EnMin= -474.296792028507     IErMin=11 ErrMin= 1.17D-05
 ErrMax= 1.17D-05  0.00D+00 EMaxC= 1.00D-01 BMatC= 3.79D-08 BMatP= 2.44D-07
 IDIUse=1 WtCom= 1.00D+00 WtEn= 0.00D+00
 Coeff-Com: -0.107D-03 0.468D-03 0.148D-02-0.355D-02-0.132D-01-0.144D-01
 Coeff-Com:  0.148D+00 0.249D+00-0.679D+00 0.674D-01 0.124D+01
 Coeff:     -0.107D-03 0.468D-03 0.148D-02-0.355D-02-0.132D-01-0.144D-01
 Coeff:      0.148D+00 0.249D+00-0.679D+00 0.674D-01 0.124D+01
 RMSDP=1.41D-05 MaxDP=4.40D-04 DE=-7.93D-06 OVMax= 0.00D+00

 Cycle  12  Pass 1  IDiag  1:
 RMSU=  1.55D-06    CP:  9.92D-01  1.15D+00  1.03D+00  1.51D+00  1.35D+00
                    CP:  3.00D+00  3.00D+00  3.00D+00  3.00D+00  2.20D+00
                    CP:  1.40D+00
 E= -474.296793069110     Delta-E=       -0.000001040603 Rises=F Damp=F
 DIIS: error= 6.84D-06 at cycle  12 NSaved=  12.
 NSaved=12 IEnMin=12 EnMin= -474.296793069110     IErMin=12 ErrMin= 6.84D-06
 ErrMax= 6.84D-06  0.00D+00 EMaxC= 1.00D-01 BMatC= 6.48D-09 BMatP= 3.79D-08
 IDIUse=1 WtCom= 1.00D+00 WtEn= 0.00D+00
 Coeff-Com:  0.495D-04-0.378D-03-0.154D-04 0.467D-02 0.300D-02-0.310D-01
 Coeff-Com: -0.522D-01 0.104D+00 0.197D+00-0.435D+00-0.127D+00 0.134D+01
 Coeff:      0.495D-04-0.378D-03-0.154D-04 0.467D-02 0.300D-02-0.310D-01
 Coeff:     -0.522D-01 0.104D+00 0.197D+00-0.435D+00-0.127D+00 0.134D+01
 RMSDP=3.60D-06 MaxDP=1.01D-04 DE=-1.04D-06 OVMax= 0.00D+00

 Cycle  13  Pass 1  IDiag  1:
 RMSU=  6.69D-07    CP:  9.92D-01  1.15D+00  1.03D+00  1.52D+00  1.35D+00
                    CP:  3.00D+00  3.00D+00  3.00D+00  3.00D+00  2.28D+00
                    CP:  1.50D+00  1.85D+00
 E= -474.296793179751     Delta-E=       -0.000000110641 Rises=F Damp=F
 DIIS: error= 3.21D-06 at cycle  13 NSaved=  13.
 NSaved=13 IEnMin=13 EnMin= -474.296793179751     IErMin=13 ErrMin= 3.21D-06
 ErrMax= 3.21D-06  0.00D+00 EMaxC= 1.00D-01 BMatC= 1.26D-09 BMatP= 6.48D-09
 IDIUse=1 WtCom= 1.00D+00 WtEn= 0.00D+00
 Coeff-Com:  0.942D-05-0.316D-04-0.209D-03 0.150D-03 0.202D-02 0.244D-02
 Coeff-Com: -0.149D-01-0.430D-01 0.833D-01 0.318D-02-0.130D+00-0.924D-01
 Coeff-Com:  0.119D+01
 Coeff:      0.942D-05-0.316D-04-0.209D-03 0.150D-03 0.202D-02 0.244D-02
 Coeff:     -0.149D-01-0.430D-01 0.833D-01 0.318D-02-0.130D+00-0.924D-01
 Coeff:      0.119D+01
 RMSDP=1.06D-06 MaxDP=3.43D-05 DE=-1.11D-07 OVMax= 0.00D+00

 Cycle  14  Pass 1  IDiag  1:
 RMSU=  3.08D-07    CP:  9.92D-01  1.15D+00  1.03D+00  1.52D+00  1.35D+00
                    CP:  3.00D+00  3.00D+00  3.00D+00  3.00D+00  2.29D+00
                    CP:  1.52D+00  2.20D+00  1.55D+00
 E= -474.296793198785     Delta-E=       -0.000000019034 Rises=F Damp=F
 DIIS: error= 1.52D-06 at cycle  14 NSaved=  14.
 NSaved=14 IEnMin=14 EnMin= -474.296793198785     IErMin=14 ErrMin= 1.52D-06
 ErrMax= 1.52D-06  0.00D+00 EMaxC= 1.00D-01 BMatC= 4.96D-10 BMatP= 1.26D-09
 IDIUse=1 WtCom= 1.00D+00 WtEn= 0.00D+00
 Coeff-Com: -0.176D-04 0.124D-03 0.326D-04-0.145D-02-0.137D-02 0.899D-02
 Coeff-Com:  0.196D-01-0.348D-01-0.566D-01 0.118D+00 0.720D-01-0.402D+00
 Coeff-Com: -0.221D+00 0.150D+01
 Coeff:     -0.176D-04 0.124D-03 0.326D-04-0.145D-02-0.137D-02 0.899D-02
 Coeff:      0.196D-01-0.348D-01-0.566D-01 0.118D+00 0.720D-01-0.402D+00
 Coeff:     -0.221D+00 0.150D+01
 RMSDP=7.88D-07 MaxDP=2.66D-05 DE=-1.90D-08 OVMax= 0.00D+00

 Cycle  15  Pass 1  IDiag  1:
 RMSU=  1.36D-07    CP:  9.92D-01  1.15D+00  1.03D+00  1.52D+00  1.35D+00
                    CP:  3.00D+00  3.00D+00  3.00D+00  3.00D+00  2.30D+00
                    CP:  1.53D+00  2.49D+00  2.14D+00  2.22D+00
 E= -474.296793208663     Delta-E=       -0.000000009878 Rises=F Damp=F
 DIIS: error= 8.58D-07 at cycle  15 NSaved=  15.
 NSaved=15 IEnMin=15 EnMin= -474.296793208663     IErMin=15 ErrMin= 8.58D-07
 ErrMax= 8.58D-07  0.00D+00 EMaxC= 1.00D-01 BMatC= 1.82D-10 BMatP= 4.96D-10
 IDIUse=1 WtCom= 1.00D+00 WtEn= 0.00D+00
 Coeff-Com: -0.255D-05 0.407D-05 0.956D-04 0.538D-04-0.106D-02-0.107D-02
 Coeff-Com:  0.637D-02 0.121D-01-0.193D-01-0.192D-01 0.614D-01 0.605D-01
 Coeff-Com: -0.514D+00 0.569D-01 0.136D+01
 Coeff:     -0.255D-05 0.407D-05 0.956D-04 0.538D-04-0.106D-02-0.107D-02
 Coeff:      0.637D-02 0.121D-01-0.193D-01-0.192D-01 0.614D-01 0.605D-01
 Coeff:     -0.514D+00 0.569D-01 0.136D+01
 RMSDP=5.12D-07 MaxDP=1.67D-05 DE=-9.88D-09 OVMax= 0.00D+00

 Cycle  16  Pass 1  IDiag  1:
 RMSU=  9.97D-08    CP:  9.92D-01  1.15D+00  1.03D+00  1.52D+00  1.35D+00
                    CP:  3.00D+00  3.00D+00  3.00D+00  3.00D+00  2.30D+00
                    CP:  1.54D+00  2.67D+00  2.53D+00  3.00D+00  1.79D+00
 E= -474.296793212186     Delta-E=       -0.000000003522 Rises=F Damp=F
 DIIS: error= 4.28D-07 at cycle  16 NSaved=  16.
 NSaved=16 IEnMin=16 EnMin= -474.296793212186     IErMin=16 ErrMin= 4.28D-07
 ErrMax= 4.28D-07  0.00D+00 EMaxC= 1.00D-01 BMatC= 4.27D-11 BMatP= 1.82D-10
 IDIUse=1 WtCom= 1.00D+00 WtEn= 0.00D+00
 Coeff-Com:  0.632D-05-0.439D-04-0.708D-05 0.504D-03 0.315D-03-0.271D-02
 Coeff-Com: -0.634D-02 0.755D-02 0.247D-01-0.446D-01-0.167D-01 0.124D+00
 Coeff-Com:  0.582D-01-0.414D+00-0.142D+00 0.141D+01
 Coeff:      0.632D-05-0.439D-04-0.708D-05 0.504D-03 0.315D-03-0.271D-02
 Coeff:     -0.634D-02 0.755D-02 0.247D-01-0.446D-01-0.167D-01 0.124D+00
 Coeff:      0.582D-01-0.414D+00-0.142D+00 0.141D+01
 RMSDP=3.08D-07 MaxDP=1.05D-05 DE=-3.52D-09 OVMax= 0.00D+00

 Cycle  17  Pass 1  IDiag  1:
 RMSU=  9.72D-08    CP:  9.92D-01  1.15D+00  1.03D+00  1.52D+00  1.35D+00
                    CP:  3.00D+00  3.00D+00  3.00D+00  3.00D+00  2.30D+00
                    CP:  1.54D+00  2.76D+00  2.74D+00  3.00D+00  2.51D+00
                    CP:  2.65D+00
 E= -474.296793213079     Delta-E=       -0.000000000893 Rises=F Damp=F
 DIIS: error= 4.15D-07 at cycle  17 NSaved=  17.
 NSaved=17 IEnMin=17 EnMin= -474.296793213079     IErMin=17 ErrMin= 4.15D-07
 ErrMax= 4.15D-07  0.00D+00 EMaxC= 1.00D-01 BMatC= 8.44D-12 BMatP= 4.27D-11
 IDIUse=1 WtCom= 1.00D+00 WtEn= 0.00D+00
 Coeff-Com: -0.610D-06 0.618D-05-0.174D-04-0.895D-04 0.126D-03 0.661D-03
 Coeff-Com: -0.224D-03-0.400D-02 0.120D-02 0.837D-02-0.400D-02-0.367D-01
 Coeff-Com:  0.876D-01 0.837D-01-0.271D+00-0.217D+00 0.135D+01
 Coeff:     -0.610D-06 0.618D-05-0.174D-04-0.895D-04 0.126D-03 0.661D-03
 Coeff:     -0.224D-03-0.400D-02 0.120D-02 0.837D-02-0.400D-02-0.367D-01
 Coeff:      0.876D-01 0.837D-01-0.271D+00-0.217D+00 0.135D+01
 RMSDP=9.46D-08 MaxDP=2.86D-06 DE=-8.93D-10 OVMax= 0.00D+00

 Cycle  18  Pass 1  IDiag  1:
 RMSU=  3.86D-08    CP:  9.92D-01  1.15D+00  1.03D+00  1.52D+00  1.35D+00
                    CP:  3.00D+00  3.00D+00  3.00D+00  3.00D+00  2.30D+00
                    CP:  1.54D+00  2.78D+00  2.79D+00  3.00D+00  2.79D+00
                    CP:  3.00D+00  1.18D+00
 E= -474.296793213250     Delta-E=       -0.000000000171 Rises=F Damp=F
 DIIS: error= 2.03D-07 at cycle  18 NSaved=  18.
 NSaved=18 IEnMin=18 EnMin= -474.296793213250     IErMin=18 ErrMin= 2.03D-07
 ErrMax= 2.03D-07  0.00D+00 EMaxC= 1.00D-01 BMatC= 2.03D-12 BMatP= 8.44D-12
 IDIUse=1 WtCom= 1.00D+00 WtEn= 0.00D+00
 Coeff-Com: -0.198D-05 0.135D-04 0.331D-05-0.151D-03-0.110D-03 0.856D-03
 Coeff-Com:  0.179D-02-0.169D-02-0.802D-02 0.125D-01 0.724D-02-0.379D-01
 Coeff-Com: -0.252D-01 0.123D+00 0.506D-01-0.425D+00-0.624D-01 0.137D+01
 Coeff:     -0.198D-05 0.135D-04 0.331D-05-0.151D-03-0.110D-03 0.856D-03
 Coeff:      0.179D-02-0.169D-02-0.802D-02 0.125D-01 0.724D-02-0.379D-01
 Coeff:     -0.252D-01 0.123D+00 0.506D-01-0.425D+00-0.624D-01 0.137D+01
 RMSDP=6.35D-08 MaxDP=2.06D-06 DE=-1.71D-10 OVMax= 0.00D+00

 Cycle  19  Pass 1  IDiag  1:
 RMSU=  1.09D-08    CP:  9.92D-01  1.15D+00  1.03D+00  1.52D+00  1.35D+00
                    CP:  3.00D+00  3.00D+00  3.00D+00  3.00D+00  2.30D+00
                    CP:  1.54D+00  2.80D+00  2.82D+00  3.00D+00  2.96D+00
                    CP:  3.00D+00  1.31D+00  2.12D+00
 E= -474.296793213274     Delta-E=       -0.000000000025 Rises=F Damp=F
 DIIS: error= 5.90D-08 at cycle  19 NSaved=  19.
 NSaved=19 IEnMin=19 EnMin= -474.296793213274     IErMin=19 ErrMin= 5.90D-08
 ErrMax= 5.90D-08  0.00D+00 EMaxC= 1.00D-01 BMatC= 2.03D-13 BMatP= 2.03D-12
 IDIUse=1 WtCom= 1.00D+00 WtEn= 0.00D+00
 Coeff-Com:  0.983D-07-0.911D-06 0.337D-05 0.125D-04-0.178D-04-0.100D-03
 Coeff-Com: -0.642D-04 0.840D-03-0.237D-03-0.130D-02 0.432D-03 0.625D-02
 Coeff-Com: -0.115D-01-0.162D-01 0.408D-01 0.482D-01-0.181D+00-0.833D-01
 Coeff-Com:  0.120D+01
 Coeff:      0.983D-07-0.911D-06 0.337D-05 0.125D-04-0.178D-04-0.100D-03
 Coeff:     -0.642D-04 0.840D-03-0.237D-03-0.130D-02 0.432D-03 0.625D-02
 Coeff:     -0.115D-01-0.162D-01 0.408D-01 0.482D-01-0.181D+00-0.833D-01
 Coeff:      0.120D+01
 RMSDP=1.13D-08 MaxDP=6.22D-07 DE=-2.46D-11 OVMax= 0.00D+00

 Cycle  20  Pass 1  IDiag  1:
 RMSU=  4.08D-09    CP:  9.92D-01  1.15D+00  1.03D+00  1.52D+00  1.35D+00
                    CP:  3.00D+00  3.00D+00  3.00D+00  3.00D+00  2.30D+00
                    CP:  1.54D+00  2.80D+00  2.82D+00  3.00D+00  2.98D+00
                    CP:  3.00D+00  1.33D+00  2.34D+00  9.93D-01
 E= -474.296793213280     Delta-E=       -0.000000000005 Rises=F Damp=F
 DIIS: error= 2.32D-08 at cycle  20 NSaved=  20.
 NSaved=20 IEnMin=20 EnMin= -474.296793213280     IErMin=20 ErrMin= 2.32D-08
 ErrMax= 2.32D-08  0.00D+00 EMaxC= 1.00D-01 BMatC= 3.24D-14 BMatP= 2.03D-13
 IDIUse=1 WtCom= 1.00D+00 WtEn= 0.00D+00
 Coeff-Com:  0.315D-06-0.213D-05-0.577D-06 0.227D-04 0.215D-04-0.134D-03
 Coeff-Com: -0.294D-03 0.331D-03 0.111D-02-0.180D-02-0.121D-02 0.570D-02
 Coeff-Com:  0.426D-02-0.194D-01-0.826D-02 0.623D-01 0.195D-01-0.211D+00
 Coeff-Com: -0.592D-02 0.115D+01
 Coeff:      0.315D-06-0.213D-05-0.577D-06 0.227D-04 0.215D-04-0.134D-03
 Coeff:     -0.294D-03 0.331D-03 0.111D-02-0.180D-02-0.121D-02 0.570D-02
 Coeff:      0.426D-02-0.194D-01-0.826D-02 0.623D-01 0.195D-01-0.211D+00
 Coeff:     -0.592D-02 0.115D+01
 RMSDP=3.57D-09 MaxDP=2.10D-07 DE=-5.46D-12 OVMax= 0.00D+00

 SCF Done:  E(RZINDO/S) =  -474.296793213     A.U. after   20 cycles
            NFock= 20  Conv=0.36D-08     -V/T= 0.9491
 KE=-9.313301494299D+03 PE=-8.457755029667D-08 EE= 4.519099798539D+03
 Leave Link  502 at Thu May  5 12:15:29 2022, MaxMem=  6710886400 cpu:              18.3 elap:               0.8
 (Enter /sw/apps/gaussian-16.0/g16/l801.exe)
 Range of M.O.s used for correlation:     1   338
 NBasis=   338 NAE=   176 NBE=   176 NFC=     0 NFV=     0
 NROrb=    338 NOA=   176 NOB=   176 NVA=   162 NVB=   162
 Leave Link  801 at Thu May  5 12:15:29 2022, MaxMem=  6710886400 cpu:               0.4 elap:               0.0
 (Enter /sw/apps/gaussian-16.0/g16/l914.exe)
 RHF ground state
 Two-electron integral symmetry not used.
 MDV=  6710886400 DFT=F DoStab=F Mixed=F DoRPA=F DoScal=F NonHer=F
 Making orbital integer symmetry assigments:
 Orbital symmetries:
       Occupied  (A) (A) (A) (A) (A) (A) (A) (A) (A) (A) (A) (A)
                 (A) (A) (A) (A) (A) (A) (A) (A) (A) (A) (A) (A)
                 (A) (A) (A) (A) (A) (A) (A) (A) (A) (A) (A) (A)
                 (A) (A) (A) (A) (A) (A) (A) (A) (A) (A) (A) (A)
                 (A) (A) (A) (A) (A) (A) (A) (A) (A) (A) (A) (A)
                 (A) (A) (A) (A) (A) (A) (A) (A) (A) (A) (A) (A)
                 (A) (A) (A) (A) (A) (A) (A) (A) (A) (A) (A) (A)
                 (A) (A) (A) (A) (A) (A) (A) (A) (A) (A) (A) (A)
                 (A) (A) (A) (A) (A) (A) (A) (A) (A) (A) (A) (A)
                 (A) (A) (A) (A) (A) (A) (A) (A) (A) (A) (A) (A)
                 (A) (A) (A) (A) (A) (A) (A) (A) (A) (A) (A) (A)
                 (A) (A) (A) (A) (A) (A) (A) (A) (A) (A) (A) (A)
                 (A) (A) (A) (A) (A) (A) (A) (A) (A) (A) (A) (A)
                 (A) (A) (A) (A) (A) (A) (A) (A) (A) (A) (A) (A)
                 (A) (A) (A) (A) (A) (A) (A) (A)
       Virtual   (A) (A) (A) (A) (A) (A) (A) (A) (A) (A) (A) (A)
                 (A) (A) (A) (A) (A) (A) (A) (A) (A) (A) (A) (A)
                 (A) (A) (A) (A) (A) (A) (A) (A) (A) (A) (A) (A)
                 (A) (A) (A) (A) (A) (A) (A) (A) (A) (A) (A) (A)
                 (A) (A) (A) (A) (A) (A) (A) (A) (A) (A) (A) (A)
                 (A) (A) (A) (A) (A) (A) (A) (A) (A) (A) (A) (A)
                 (A) (A) (A) (A) (A) (A) (A) (A) (A) (A) (A) (A)
                 (A) (A) (A) (A) (A) (A) (A) (A) (A) (A) (A) (A)
                 (A) (A) (A) (A) (A) (A) (A) (A) (A) (A) (A) (A)
                 (A) (A) (A) (A) (A) (A) (A) (A) (A) (A) (A) (A)
                 (A) (A) (A) (A) (A) (A) (A) (A) (A) (A) (A) (A)
                 (A) (A) (A) (A) (A) (A) (A) (A) (A) (A) (A) (A)
                 (A) (A) (A) (A) (A) (A) (A) (A) (A) (A) (A) (A)
                 (A) (A) (A) (A) (A) (A)
    20 initial guesses have been made.
 Convergence on wavefunction:    0.001000000000000
 Davidson Disk Diagonalization:  ConvIn= 1.00D-03 SkipCon=T Conv= 1.00D-03.
 Max sub-space:  2000 roots to seek:    20 dimension of matrix:        57024
 Iteration     1 Dimension    20 NMult     0 NNew     20
 CISAX will form    20 AO SS matrices at one time.
 NMat=    20 NSing=    20 JSym2X= 0.
 New state      3 was old state      7
 New state      5 was old state      3
 Excitation Energies [eV] at current iteration:
 Root      1 :     1.629739230578187
 Root      2 :     2.146509536585325
 Root      3 :     2.988739178587192
 Root      4 :     3.249838339537876
 Root      5 :     3.428585755584629
 Root      6 :     3.647090181719606
 Root      7 :     3.684175927121891
 Root      8 :     3.796395017593854
 Root      9 :     3.854636298778442
 Root     10 :     3.963631877402401
 Root     11 :     4.167484084812604
 Root     12 :     4.221375134665593
 Root     13 :     4.401466960273814
 Root     14 :     4.433533201211630
 Root     15 :     4.526684823971418
 Root     16 :     4.544158490405852
 Root     17 :     4.572806637736025
 Root     18 :     4.714402343837152
 Root     19 :     4.841625756707593
 Root     20 :     5.645347863764551
 Iteration     2 Dimension    40 NMult    20 NNew     20
 CISAX will form    20 AO SS matrices at one time.
 NMat=    20 NSing=    20 JSym2X= 0.
 Root      1 not converged, maximum delta is    0.043589409802193
 Root      2 not converged, maximum delta is    0.034705184588501
 Root      3 not converged, maximum delta is    0.120353109915152
 Root      4 not converged, maximum delta is    0.215596189903184
 Root      5 not converged, maximum delta is    0.343588315116957
 Excitation Energies [eV] at current iteration:
 Root      1 :     1.276949609216864   Change is   -0.352789621361323
 Root      2 :     1.956439983190095   Change is   -0.190069553395230
 Root      3 :     2.944930970387103   Change is   -0.043808208200089
 Root      4 :     3.017276367985581   Change is   -0.232561971552295
 Root      5 :     3.097034869311044   Change is   -0.331550886273585
 Root      6 :     3.432174560660238   Change is   -0.214915621059369
 Root      7 :     3.477952428943001   Change is   -0.206223498178890
 Root      8 :     3.533940305202302   Change is   -0.262454712391553
 Root      9 :     3.673284555970346   Change is   -0.181351742808096
 Root     10 :     3.690175217439580   Change is   -0.853983272966272
 Root     11 :     3.745038176333831   Change is   -0.218593701068570
 Root     12 :     3.817521633266999   Change is   -0.349962451545606
 Root     13 :     3.859998018951879   Change is   -0.361377115713715
 Root     14 :     3.922558990360179   Change is   -0.919066766347414
 Root     15 :     4.224511701225079   Change is   -0.209021499986551
 Root     16 :     4.288799083929229   Change is   -0.284007553806796
 Root     17 :     4.394686395631721   Change is   -0.319715948205431
 Root     18 :     4.396816874626396   Change is   -0.004650085647419
 Root     19 :     4.487345578673228   Change is   -0.039339245298190
 Root     20 :     5.636145583380449   Change is   -0.009202280384102
 Iteration     3 Dimension    45 NMult    40 NNew      5
 CISAX will form     5 AO SS matrices at one time.
 NMat=     5 NSing=     5 JSym2X= 0.
 Root      1 not converged, maximum delta is    0.016313923381536
 Root      2 not converged, maximum delta is    0.022823232407225
 Root      3 not converged, maximum delta is    0.058509712681134
 Root      4 not converged, maximum delta is    0.058313813650312
 Root      5 not converged, maximum delta is    0.029733817218761
 Excitation Energies [eV] at current iteration:
 Root      1 :     1.259872768664388   Change is   -0.017076840552475
 Root      2 :     1.929370741211665   Change is   -0.027069241978430
 Root      3 :     2.938488039788014   Change is   -0.006442930599089
 Root      4 :     2.987448690420469   Change is   -0.029827677565111
 Root      5 :     3.080282643825778   Change is   -0.016752225485266
 Iteration     4 Dimension    50 NMult    45 NNew      5
 CISAX will form     5 AO SS matrices at one time.
 NMat=     5 NSing=     5 JSym2X= 0.
 Root      1 not converged, maximum delta is    0.002892175679289
 Root      2 not converged, maximum delta is    0.003074245797365
 Root      3 not converged, maximum delta is    0.004794265730289
 Root      4 not converged, maximum delta is    0.007849621517122
 Root      5 not converged, maximum delta is    0.011048337860500
 Excitation Energies [eV] at current iteration:
 Root      1 :     1.259061412957581   Change is   -0.000811355706807
 Root      2 :     1.928677728541581   Change is   -0.000693012670084
 Root      3 :     2.937587963817479   Change is   -0.000900075970535
 Root      4 :     2.984250941523646   Change is   -0.003197748896824
 Root      5 :     3.076376174941603   Change is   -0.003906468884174
 Iteration     5 Dimension    55 NMult    50 NNew      5
 CISAX will form     5 AO SS matrices at one time.
 NMat=     5 NSing=     5 JSym2X= 0.
 Root      1 has converged.
 Root      2 has converged.
 Root      3 not converged, maximum delta is    0.011121596197431
 Root      4 not converged, maximum delta is    0.016898077874653
 Root      5 not converged, maximum delta is    0.035450454099588
 Excitation Energies [eV] at current iteration:
 Root      1 :     1.259006998619329   Change is   -0.000054414338252
 Root      2 :     1.928637882803474   Change is   -0.000039845738107
 Root      3 :     2.936922826788442   Change is   -0.000665137029037
 Root      4 :     2.982541442122474   Change is   -0.001709499401172
 Root      5 :     3.070620041510714   Change is   -0.005756133430889
 Iteration     6 Dimension    58 NMult    55 NNew      3
 CISAX will form     3 AO SS matrices at one time.
 NMat=     3 NSing=     3 JSym2X= 0.
 Root      1 has converged.
 Root      2 has converged.
 Root      3 not converged, maximum delta is    0.072963092233311
 Root      4 not converged, maximum delta is    0.084186461936160
 Root      5 not converged, maximum delta is    0.314086935917829
 Excitation Energies [eV] at current iteration:
 Root      1 :     1.259006650239272   Change is   -0.000000348380057
 Root      2 :     1.928637017348105   Change is   -0.000000865455369
 Root      3 :     2.933574242898198   Change is   -0.003348583890244
 Root      4 :     2.975637871339557   Change is   -0.006903570782917
 Root      5 :     2.995311741606855   Change is   -0.075308299903859
 Iteration     7 Dimension    61 NMult    58 NNew      3
 CISAX will form     3 AO SS matrices at one time.
 NMat=     3 NSing=     3 JSym2X= 0.
 Root      1 has converged.
 Root      2 has converged.
 Root      3 not converged, maximum delta is    0.179979764337827
 New state      4 was old state      5
 Root      4 not converged, maximum delta is    0.258041727753749
 New state      5 was old state      4
 Root      5 not converged, maximum delta is    0.217705452103117
 Excitation Energies [eV] at current iteration:
 Root      1 :     1.259006545634871   Change is   -0.000000104604401
 Root      2 :     1.928636708899580   Change is   -0.000000308448525
 Root      3 :     2.922393830786549   Change is   -0.011180412111649
 Root      4 :     2.950492488209891   Change is   -0.044819253396964
 Root      5 :     2.971223958253419   Change is   -0.004413913086137
 Iteration     8 Dimension    64 NMult    61 NNew      3
 CISAX will form     3 AO SS matrices at one time.
 NMat=     3 NSing=     3 JSym2X= 0.
 Root      1 has converged.
 Root      2 has converged.
 Root      3 not converged, maximum delta is    0.039676849342871
 Root      4 not converged, maximum delta is    0.038046688365012
 Root      5 not converged, maximum delta is    0.018577990177593
 Excitation Energies [eV] at current iteration:
 Root      1 :     1.259006541567337   Change is   -0.000000004067533
 Root      2 :     1.928636419926804   Change is   -0.000000288972776
 Root      3 :     2.919324040153490   Change is   -0.003069790633058
 Root      4 :     2.948256507122688   Change is   -0.002235981087203
 Root      5 :     2.969000970554993   Change is   -0.002222987698427
 Iteration     9 Dimension    67 NMult    64 NNew      3
 CISAX will form     3 AO SS matrices at one time.
 NMat=     3 NSing=     3 JSym2X= 0.
 Root      1 has converged.
 Root      2 has converged.
 Root      3 not converged, maximum delta is    0.004400596453836
 Root      4 not converged, maximum delta is    0.003664491609873
 Root      5 not converged, maximum delta is    0.004758602354619
 Excitation Energies [eV] at current iteration:
 Root      1 :     1.259006535778169   Change is   -0.000000005789169
 Root      2 :     1.928636248370662   Change is   -0.000000171556142
 Root      3 :     2.918945510267283   Change is   -0.000378529886208
 Root      4 :     2.948026216531009   Change is   -0.000230290591679
 Root      5 :     2.968535292142394   Change is   -0.000465678412599
 Iteration    10 Dimension    70 NMult    67 NNew      3
 CISAX will form     3 AO SS matrices at one time.
 NMat=     3 NSing=     3 JSym2X= 0.
 Root      1 has converged.
 Root      2 has converged.
 Root      3 has converged.
 Root      4 not converged, maximum delta is    0.001146166975416
 Root      5 not converged, maximum delta is    0.003951840894785
 Excitation Energies [eV] at current iteration:
 Root      1 :     1.259006493977337   Change is   -0.000000041800832
 Root      2 :     1.928635894744830   Change is   -0.000000353625832
 Root      3 :     2.918906552202574   Change is   -0.000038958064709
 Root      4 :     2.947988587444745   Change is   -0.000037629086264
 Root      5 :     2.968307692372510   Change is   -0.000227599769883
 Iteration    11 Dimension    72 NMult    70 NNew      2
 CISAX will form     2 AO SS matrices at one time.
 NMat=     2 NSing=     2 JSym2X= 0.
 Root      1 has converged.
 Root      2 has converged.
 Root      3 has converged.
 Root      4 not converged, maximum delta is    0.001550377375621
 Root      5 not converged, maximum delta is    0.006321833798647
 Excitation Energies [eV] at current iteration:
 Root      1 :     1.259006471240511   Change is   -0.000000022736825
 Root      2 :     1.928635471220354   Change is   -0.000000423524476
 Root      3 :     2.918901744545755   Change is   -0.000004807656819
 Root      4 :     2.947971375917269   Change is   -0.000017211527476
 Root      5 :     2.968077131495703   Change is   -0.000230560876807
 Iteration    12 Dimension    74 NMult    72 NNew      2
 CISAX will form     2 AO SS matrices at one time.
 NMat=     2 NSing=     2 JSym2X= 0.
 Root      1 has converged.
 Root      2 has converged.
 Root      3 has converged.
 Root      4 has converged.
 Root      5 not converged, maximum delta is    0.002687198018295
 Excitation Energies [eV] at current iteration:
 Root      1 :     1.259006459566623   Change is   -0.000000011673888
 Root      2 :     1.928635386514651   Change is   -0.000000084705702
 Root      3 :     2.918900994045984   Change is   -0.000000750499771
 Root      4 :     2.947966267481692   Change is   -0.000005108435577
 Root      5 :     2.967993314443959   Change is   -0.000083817051744
 Iteration    13 Dimension    75 NMult    74 NNew      1
 CISAX will form     1 AO SS matrices at one time.
 NMat=     1 NSing=     1 JSym2X= 0.
 Root      1 has converged.
 Root      2 has converged.
 Root      3 has converged.
 Root      4 has converged.
 Root      5 has converged.
 Excitation Energies [eV] at current iteration:
 Root      1 :     1.259006419618426   Change is   -0.000000039948197
 Root      2 :     1.928635295369162   Change is   -0.000000091145489
 Root      3 :     2.918900990715144   Change is   -0.000000003330839
 Root      4 :     2.947965675470362   Change is   -0.000000592011331
 Root      5 :     2.967980476180645   Change is   -0.000012838263314
 Convergence achieved on expansion vectors.
 ***********************************************************************
 Excited states from <AA,BB:AA,BB> singles matrix:
 ***********************************************************************
 
 1PDM for each excited state written to RWF  633
 Ground to excited state transition densities written to RWF  633
 Ground to excited state transition electric dipole moments (Au):
       state          X           Y           Z        Dip. S.      Osc.
         1        -2.2305     -2.8948     -2.4677     19.4443      0.5998
         2        -0.1914     -0.2987      0.0759      0.1316      0.0062
         3         0.1567     -0.6872      0.5101      0.7571      0.0541
         4         0.3853     -0.9743      0.7780      1.7029      0.1230
         5        -0.7526      0.5639     -0.8650      1.6326      0.1187
 Ground to excited state transition velocity dipole moments (Au):
       state          X           Y           Z        Dip. S.      Osc.
         1        -0.0411     -0.0156     -0.0498      0.0044      0.0637
         2         0.0020      0.0142     -0.0091      0.0003      0.0027
         3        -0.0069      0.0240     -0.0174      0.0009      0.0058
         4        -0.0091      0.0276     -0.0231      0.0014      0.0085
         5         0.0281     -0.0153      0.0157      0.0013      0.0078
 Ground to excited state transition magnetic dipole moments (Au):
       state          X           Y           Z
         1         0.0081     -0.4194      0.0696
         2        -0.4362     -0.0484      0.2088
         3        -0.2999     -0.4922     -0.6541
         4         0.2240     -0.1447     -0.0561
         5         0.5927      0.7313      0.2638
 Ground to excited state transition velocity quadrupole moments (Au):
       state          XX          YY          ZZ          XY          XZ          YZ
         1         0.6435     -0.0616     -0.0474      0.0657      0.4333      0.0588
         2        -0.0236      0.0976     -0.0484     -0.1471      0.0947      0.0667
         3         0.1030      0.0570      0.0552     -0.4351      0.2163     -0.1446
         4         0.1176     -0.0306      0.0608     -0.2992      0.2951     -0.1109
         5        -0.2659     -0.1585      0.1534     -0.0674     -0.1396     -0.1613
 <0|del|b> * <b|rxdel|0> + <0|del|b> * <b|delr+rdel|0>
 Rotatory Strengths (R) in cgs (10**-40 erg-esu-cm/Gauss)
       state          XX          YY          ZZ    R(velocity)    E-M Angle
         1        50.3698    -22.4948     14.2843     14.0531       84.40
         2       -12.9803    -19.8331     -1.6090    -11.4741      114.63
         3         6.3899     22.7164    -18.3226      3.5946       86.47
         4       -12.8629    -21.6495      3.6422    -10.2901      117.90
         5       -33.1989     56.1819     39.4165     20.7998       73.97
 1/2[<0|r|b>*<b|rxdel|0> + (<0|rxdel|b>*<b|r|0>)*]
 Rotatory Strengths (R) in cgs (10**-40 erg-esu-cm/Gauss)
       state          XX          YY          ZZ     R(length)
         1        12.7385   -858.4910    121.3990   -241.4512
         2       -59.0514    -10.2263    -11.2076    -26.8284
         3        33.2237   -239.1969    235.9736     10.0002
         4       -61.0279    -99.7059     30.8404    -43.2978
         5       315.4615   -291.6329    161.3864     61.7383
  1/2[<0|del|b>*<b|r|0> + (<0|r|b>*<b|del|0>)*] (Au)
       state          X           Y           Z        Dip. S.   Osc.(frdel)
         1         0.0917      0.0453      0.1230     -0.2600     -0.1733
         2        -0.0004     -0.0043     -0.0007      0.0053      0.0035
         3        -0.0011     -0.0165     -0.0089      0.0265      0.0177
         4        -0.0035     -0.0269     -0.0179      0.0483      0.0322
         5        -0.0212     -0.0086     -0.0136      0.0434      0.0289

 Excitation energies and oscillator strengths:
 
 Excited State   1:      Singlet-A      1.2590 eV  984.78 nm  f=0.5998  <S**2>=0.000
     175 ->178         0.18720
     176 ->177         0.66486
 This state for optimization and/or second-order correction.
 Total Energy, E(CIS/TDA) =  -474.250525579    
 Copying the excited state density for this state as the 1-particle RhoCI density.
 
 Excited State   2:      Singlet-A      1.9286 eV  642.86 nm  f=0.0062  <S**2>=0.000
     175 ->177         0.49458
     176 ->178        -0.48372
 
 Excited State   3:      Singlet-A      2.9189 eV  424.76 nm  f=0.0541  <S**2>=0.000
     168 ->177         0.20207
     168 ->178        -0.10568
     168 ->179        -0.28382
     168 ->180         0.23611
     168 ->181         0.10334
     168 ->182        -0.16372
     168 ->185        -0.16709
     175 ->177         0.10438
     176 ->178         0.12339
     176 ->179         0.24352
     176 ->180        -0.15543
     176 ->181         0.24904
 
 Excited State   4:      Singlet-A      2.9480 eV  420.58 nm  f=0.1230  <S**2>=0.000
     168 ->177        -0.14688
     168 ->179         0.20077
     168 ->180        -0.17501
     168 ->182         0.12236
     168 ->185         0.11363
     175 ->177         0.15394
     176 ->178         0.17141
     176 ->180        -0.20904
     176 ->181         0.46625
 
 Excited State   5:      Singlet-A      2.9680 eV  417.74 nm  f=0.1187  <S**2>=0.000
     170 ->177        -0.21614
     170 ->179        -0.25949
     170 ->180        -0.12404
     170 ->182         0.18662
     170 ->185        -0.13409
     170 ->187        -0.12592
     175 ->177        -0.15185
     176 ->178        -0.15698
     176 ->179         0.37447
     176 ->182        -0.12781
 SavETr:  write IOETrn=   770 NScale= 10 NData=  16 NLR=1 NState=    5 LETran=     100.
 Leave Link  914 at Thu May  5 12:15:34 2022, MaxMem=  6710886400 cpu:             116.2 elap:               4.9
 (Enter /sw/apps/gaussian-16.0/g16/l601.exe)
 Copying SCF densities to generalized density rwf, IOpCl= 0 IROHF=0.

 **********************************************************************

            Population analysis using the SCF density.

 **********************************************************************

 Orbital symmetries:
       Occupied  (A) (A) (A) (A) (A) (A) (A) (A) (A) (A) (A) (A)
                 (A) (A) (A) (A) (A) (A) (A) (A) (A) (A) (A) (A)
                 (A) (A) (A) (A) (A) (A) (A) (A) (A) (A) (A) (A)
                 (A) (A) (A) (A) (A) (A) (A) (A) (A) (A) (A) (A)
                 (A) (A) (A) (A) (A) (A) (A) (A) (A) (A) (A) (A)
                 (A) (A) (A) (A) (A) (A) (A) (A) (A) (A) (A) (A)
                 (A) (A) (A) (A) (A) (A) (A) (A) (A) (A) (A) (A)
                 (A) (A) (A) (A) (A) (A) (A) (A) (A) (A) (A) (A)
                 (A) (A) (A) (A) (A) (A) (A) (A) (A) (A) (A) (A)
                 (A) (A) (A) (A) (A) (A) (A) (A) (A) (A) (A) (A)
                 (A) (A) (A) (A) (A) (A) (A) (A) (A) (A) (A) (A)
                 (A) (A) (A) (A) (A) (A) (A) (A) (A) (A) (A) (A)
                 (A) (A) (A) (A) (A) (A) (A) (A) (A) (A) (A) (A)
                 (A) (A) (A) (A) (A) (A) (A) (A) (A) (A) (A) (A)
                 (A) (A) (A) (A) (A) (A) (A) (A)
       Virtual   (A) (A) (A) (A) (A) (A) (A) (A) (A) (A) (A) (A)
                 (A) (A) (A) (A) (A) (A) (A) (A) (A) (A) (A) (A)
                 (A) (A) (A) (A) (A) (A) (A) (A) (A) (A) (A) (A)
                 (A) (A) (A) (A) (A) (A) (A) (A) (A) (A) (A) (A)
                 (A) (A) (A) (A) (A) (A) (A) (A) (A) (A) (A) (A)
                 (A) (A) (A) (A) (A) (A) (A) (A) (A) (A) (A) (A)
                 (A) (A) (A) (A) (A) (A) (A) (A) (A) (A) (A) (A)
                 (A) (A) (A) (A) (A) (A) (A) (A) (A) (A) (A) (A)
                 (A) (A) (A) (A) (A) (A) (A) (A) (A) (A) (A) (A)
                 (A) (A) (A) (A) (A) (A) (A) (A) (A) (A) (A) (A)
                 (A) (A) (A) (A) (A) (A) (A) (A) (A) (A) (A) (A)
                 (A) (A) (A) (A) (A) (A) (A) (A) (A) (A) (A) (A)
                 (A) (A) (A) (A) (A) (A) (A) (A) (A) (A) (A) (A)
                 (A) (A) (A) (A) (A) (A)
 The electronic state is 1-A.
 Alpha  occ. eigenvalues --   -1.87163  -1.81486  -1.79559  -1.72880  -1.72387
 Alpha  occ. eigenvalues --   -1.70519  -1.65412  -1.59909  -1.59321  -1.56782
 Alpha  occ. eigenvalues --   -1.54848  -1.52434  -1.49581  -1.48507  -1.47005
 Alpha  occ. eigenvalues --   -1.43881  -1.43196  -1.41480  -1.39346  -1.38091
 Alpha  occ. eigenvalues --   -1.36136  -1.34864  -1.32183  -1.31120  -1.29055
 Alpha  occ. eigenvalues --   -1.27877  -1.26120  -1.22797  -1.21472  -1.17945
 Alpha  occ. eigenvalues --   -1.17447  -1.16956  -1.16085  -1.14725  -1.13493
 Alpha  occ. eigenvalues --   -1.13377  -1.11005  -1.09902  -1.06670  -1.04607
 Alpha  occ. eigenvalues --   -1.02623  -1.01595  -0.99664  -0.98413  -0.96938
 Alpha  occ. eigenvalues --   -0.96156  -0.94827  -0.94086  -0.93200  -0.92187
 Alpha  occ. eigenvalues --   -0.90927  -0.90564  -0.89823  -0.88787  -0.88235
 Alpha  occ. eigenvalues --   -0.86504  -0.84494  -0.84011  -0.83321  -0.81028
 Alpha  occ. eigenvalues --   -0.80391  -0.79067  -0.78478  -0.76950  -0.76541
 Alpha  occ. eigenvalues --   -0.76355  -0.75694  -0.73979  -0.73727  -0.73291
 Alpha  occ. eigenvalues --   -0.73086  -0.72651  -0.72190  -0.70956  -0.70535
 Alpha  occ. eigenvalues --   -0.70036  -0.69922  -0.68807  -0.68532  -0.68188
 Alpha  occ. eigenvalues --   -0.67774  -0.67481  -0.66924  -0.66291  -0.65779
 Alpha  occ. eigenvalues --   -0.65502  -0.65177  -0.64677  -0.64117  -0.63958
 Alpha  occ. eigenvalues --   -0.63608  -0.63429  -0.62687  -0.62520  -0.62292
 Alpha  occ. eigenvalues --   -0.61692  -0.61393  -0.61120  -0.60375  -0.60014
 Alpha  occ. eigenvalues --   -0.59773  -0.59515  -0.59064  -0.58499  -0.58279
 Alpha  occ. eigenvalues --   -0.57888  -0.57552  -0.57075  -0.56672  -0.56385
 Alpha  occ. eigenvalues --   -0.56188  -0.55949  -0.55699  -0.55532  -0.55188
 Alpha  occ. eigenvalues --   -0.55035  -0.54587  -0.54440  -0.53801  -0.53421
 Alpha  occ. eigenvalues --   -0.52997  -0.52700  -0.52579  -0.52197  -0.51825
 Alpha  occ. eigenvalues --   -0.51266  -0.51001  -0.50850  -0.50472  -0.50319
 Alpha  occ. eigenvalues --   -0.50177  -0.49864  -0.49484  -0.49229  -0.49113
 Alpha  occ. eigenvalues --   -0.48867  -0.48392  -0.48063  -0.47959  -0.47841
 Alpha  occ. eigenvalues --   -0.47481  -0.47356  -0.47208  -0.47038  -0.46473
 Alpha  occ. eigenvalues --   -0.46189  -0.45769  -0.45646  -0.45390  -0.45245
 Alpha  occ. eigenvalues --   -0.45077  -0.44988  -0.44763  -0.44259  -0.44205
 Alpha  occ. eigenvalues --   -0.44013  -0.43569  -0.43047  -0.42823  -0.42220
 Alpha  occ. eigenvalues --   -0.41402  -0.41059  -0.40687  -0.39500  -0.38835
 Alpha  occ. eigenvalues --   -0.38332  -0.37232  -0.36291  -0.35536  -0.34858
 Alpha  occ. eigenvalues --   -0.34652  -0.33314  -0.33233  -0.30803  -0.27647
 Alpha  occ. eigenvalues --   -0.22025
 Alpha virt. eigenvalues --   -0.08679  -0.02883  -0.01010   0.00218   0.00585
 Alpha virt. eigenvalues --    0.01452   0.02006   0.02215   0.04120   0.04741
 Alpha virt. eigenvalues --    0.05724   0.06321   0.06952   0.07508   0.07678
 Alpha virt. eigenvalues --    0.07968   0.08366   0.08626   0.09090   0.09307
 Alpha virt. eigenvalues --    0.09702   0.09754   0.09937   0.10023   0.10378
 Alpha virt. eigenvalues --    0.10905   0.11053   0.11517   0.11548   0.11728
 Alpha virt. eigenvalues --    0.12198   0.12649   0.12910   0.13330   0.13548
 Alpha virt. eigenvalues --    0.13620   0.13950   0.14018   0.14271   0.14601
 Alpha virt. eigenvalues --    0.14705   0.15017   0.15426   0.15630   0.15738
 Alpha virt. eigenvalues --    0.15783   0.16016   0.16232   0.16420   0.17025
 Alpha virt. eigenvalues --    0.17219   0.17356   0.17611   0.17798   0.17872
 Alpha virt. eigenvalues --    0.18064   0.18490   0.18656   0.19114   0.19448
 Alpha virt. eigenvalues --    0.19696   0.19929   0.19996   0.20038   0.20429
 Alpha virt. eigenvalues --    0.21217   0.21717   0.22363   0.22944   0.23069
 Alpha virt. eigenvalues --    0.23133   0.23465   0.23640   0.23746   0.23852
 Alpha virt. eigenvalues --    0.23934   0.24078   0.24177   0.24199   0.24394
 Alpha virt. eigenvalues --    0.24609   0.24763   0.24832   0.24894   0.24923
 Alpha virt. eigenvalues --    0.24961   0.25163   0.25175   0.25248   0.25268
 Alpha virt. eigenvalues --    0.25278   0.25298   0.25347   0.25407   0.25516
 Alpha virt. eigenvalues --    0.25555   0.25634   0.25695   0.25765   0.25883
 Alpha virt. eigenvalues --    0.26029   0.26091   0.26121   0.26188   0.26202
 Alpha virt. eigenvalues --    0.26492   0.26747   0.26799   0.26864   0.27014
 Alpha virt. eigenvalues --    0.27082   0.27643   0.27682   0.27773   0.27837
 Alpha virt. eigenvalues --    0.27997   0.28192   0.28376   0.28508   0.28640
 Alpha virt. eigenvalues --    0.29638   0.30552   0.31061   0.31249   0.31349
 Alpha virt. eigenvalues --    0.31823   0.32668   0.32674   0.33485   0.33597
 Alpha virt. eigenvalues --    0.34212   0.34944   0.35253   0.35568   0.36144
 Alpha virt. eigenvalues --    0.36713   0.36971   0.37095   0.37120   0.38135
 Alpha virt. eigenvalues --    0.38490   0.38957   0.39514   0.40018   0.40575
 Alpha virt. eigenvalues --    0.40952   0.41465   0.41814   0.41876   0.43064
 Alpha virt. eigenvalues --    0.43278   0.43742   0.45060   0.45236   0.45823
 Alpha virt. eigenvalues --    0.46771   0.47664   0.47776   0.50124   0.52507
 Alpha virt. eigenvalues --    0.53457   0.57086
          Condensed to atoms (all electrons):
 Mulliken charges:
               1
     1  Mg   0.441843
     2  C   -0.052388
     3  C   -0.069109
     4  C   -0.092938
     5  C   -0.059920
     6  N   -0.303073
     7  C    0.119077
     8  C    0.010997
     9  C   -0.007786
    10  C    0.136022
    11  C   -0.055234
    12  C   -0.010616
    13  C    0.007738
    14  C    0.462287
    15  O   -0.517630
    16  O   -0.278425
    17  N   -0.331728
    18  C    0.105035
    19  C    0.053127
    20  C   -0.031470
    21  C    0.127772
    22  C   -0.038925
    23  C    0.318181
    24  O   -0.519498
    25  C   -0.031332
    26  N   -0.257649
    27  C    0.143705
    28  C   -0.006752
    29  C    0.005052
    30  C    0.102841
    31  C   -0.052982
    32  C   -0.022436
    33  C   -0.049594
    34  N   -0.299432
    35  C    0.088961
    36  C    0.029443
    37  C   -0.071509
    38  C    0.106767
    39  C   -0.037543
    40  C    0.330268
    41  O   -0.515700
    42  C    0.056411
    43  C    0.486588
    44  O   -0.529343
    45  O   -0.275130
    46  C    0.081828
    47  C    0.109323
    48  C   -0.086987
    49  C   -0.027392
    50  C   -0.040977
    51  C   -0.021107
    52  C   -0.032489
    53  C   -0.030463
    54  C   -0.017768
    55  C   -0.067064
    56  C   -0.042646
    57  C   -0.039341
    58  C   -0.037151
    59  C   -0.001269
    60  C   -0.064036
    61  C   -0.029211
    62  C   -0.040286
    63  C   -0.036700
    64  C   -0.009919
    65  C   -0.053721
    66  C   -0.057829
    67  H    0.027815
    68  H    0.026821
    69  H    0.017404
    70  H    0.035296
    71  H    0.041897
    72  H    0.029479
    73  H    0.022182
    74  H    0.023015
    75  H    0.037811
    76  H    0.024280
    77  H    0.035859
    78  H    0.047686
    79  H    0.036678
    80  H    0.030267
    81  H    0.040239
    82  H    0.039278
    83  H    0.041424
    84  H    0.030757
    85  H    0.036352
    86  H    0.025995
    87  H    0.021321
    88  H    0.022618
    89  H    0.020556
    90  H    0.016017
    91  H    0.021529
    92  H    0.022255
    93  H    0.017171
    94  H    0.020030
    95  H    0.014196
    96  H    0.041939
    97  H    0.039525
    98  H    0.070901
    99  H    0.031864
   100  H    0.040428
   101  H    0.045880
   102  H    0.037154
   103  H    0.064554
   104  H    0.032468
   105  H    0.022535
   106  H    0.028006
   107  H    0.040015
   108  H    0.024631
   109  H    0.011397
   110  H    0.022107
   111  H    0.013267
   112  H    0.014727
   113  H    0.011624
   114  H    0.021713
   115  H    0.031947
   116  H    0.010624
   117  H    0.016284
   118  H    0.035037
   119  H    0.015427
   120  H    0.022448
   121  H    0.020030
   122  H    0.013540
   123  H    0.027969
   124  H    0.025555
   125  H    0.011402
   126  H    0.026903
   127  H    0.006431
   128  H    0.014084
   129  H    0.018924
   130  H    0.010853
   131  H    0.018069
   132  H    0.016562
   133  H    0.025223
   134  H    0.015510
   135  H    0.019481
   136  H    0.016806
   137  H    0.015805
   138  H    0.022396
   139  H    0.024800
   140  H    0.008163
 Sum of Mulliken charges =  -0.00000
 Mulliken charges with hydrogens summed into heavy atoms:
               1
     1  Mg   0.441843
     2  C   -0.052388
     3  C   -0.041294
     4  C   -0.066117
     5  C   -0.042516
     6  N   -0.303073
     7  C    0.119077
     8  C    0.046294
     9  C    0.034111
    10  C    0.136022
    11  C    0.019443
    12  C    0.051475
    13  C    0.091283
    14  C    0.462287
    15  O   -0.517630
    16  O   -0.278425
    17  N   -0.331728
    18  C    0.105035
    19  C    0.053127
    20  C   -0.031470
    21  C    0.127772
    22  C    0.068259
    23  C    0.318181
    24  O   -0.519498
    25  C    0.080126
    26  N   -0.257649
    27  C    0.143705
    28  C    0.029599
    29  C    0.031047
    30  C    0.102841
    31  C    0.011513
    32  C    0.015109
    33  C    0.009863
    34  N   -0.299432
    35  C    0.088961
    36  C    0.029443
    37  C   -0.071509
    38  C    0.106767
    39  C    0.058118
    40  C    0.330268
    41  O   -0.515700
    42  C    0.127311
    43  C    0.486588
    44  O   -0.529343
    45  O   -0.275130
    46  C    0.200001
    47  C    0.211030
    48  C   -0.054520
    49  C   -0.027392
    50  C    0.049580
    51  C    0.014921
    52  C    0.002885
    53  C   -0.004112
    54  C    0.003945
    55  C   -0.008209
    56  C    0.007817
    57  C    0.003137
    58  C    0.004358
    59  C    0.024286
    60  C   -0.019301
    61  C    0.003797
    62  C   -0.011365
    63  C    0.005085
    64  C    0.005590
    65  C   -0.001629
    66  C   -0.002471
 Charge=             -0.0000 electrons
 Dipole moment (field-independent basis, Debye):
    X=              0.1021    Y=              8.9758    Z=             -0.7376  Tot=              9.0067
 N-N= 4.319904902632D+03 E-N= 0.000000000000D+00  KE=-9.313301494299D+03
 Leave Link  601 at Thu May  5 12:15:34 2022, MaxMem=  6710886400 cpu:               0.8 elap:               0.1
 (Enter /sw/apps/gaussian-16.0/g16/l9999.exe)
 1\1\GINC-BP1-COMPUTE168\SP\RZINDO CIS\STO-3G\C55H74Mg1N4O6\OF15641\05-
 May-2022\0\\#p ZINDO=(nstates=5)\\step_851_chromophore_2 ZINDO\\0,1\Mg
 ,0,3.219,0.954,44.372\C,0,6.236,2.748,44.098\C,0,1.619,3.835,43.001\C,
 0,0.488,-0.746,44.196\C,0,5.092,-1.773,45.291\N,0,3.882,2.98,43.534\C,
 0,5.171,3.47,43.455\C,0,5.248,4.848,42.852\C,0,3.718,5.22,42.576\C,0,2
 .981,3.968,43.09\C,0,3.199,6.503,43.416\C,0,6.143,5.106,41.651\C,0,6.6
 96,3.903,40.885\C,0,7.098,4.177,39.458\O,0,7.686,5.192,39.085\O,0,6.74
 6,3.084,38.634\N,0,1.317,1.454,43.623\C,0,0.826,2.666,43.146\C,0,-0.60
 6,2.532,42.985\C,0,-0.959,1.267,43.355\C,0,0.3,0.54,43.684\C,0,-1.367,
 3.783,42.58\C,0,-2.385,0.67,43.296\O,0,-3.374,1.341,42.929\C,0,-2.664,
 -0.839,43.542\N,0,2.941,-1.069,44.501\C,0,1.667,-1.452,44.564\C,0,1.57
 ,-3.002,44.883\C,0,3.107,-3.372,45.227\C,0,3.77,-2.021,45.055\C,0,0.52
 7,-3.309,46.02\C,0,3.754,-4.557,44.491\C,0,4.454,-5.613,45.26\N,0,5.27
 6,0.512,44.612\C,0,5.854,-0.61,45.065\C,0,7.265,-0.409,45.277\C,0,7.46
 ,0.9,44.922\C,0,6.195,1.421,44.44\C,0,8.358,-1.352,45.609\C,0,8.49,1.9
 42,44.721\O,0,9.707,1.935,44.891\C,0,7.72,3.177,44.239\C,0,8.017,4.277
 ,45.132\O,0,8.926,5.127,44.866\O,0,6.995,4.549,46.028\C,0,6.836,5.903,
 46.477\C,0,6.993,3.228,37.227\C,0,5.736,2.814,36.614\C,0,5.563,2.149,3
 5.424\C,0,6.63,1.605,34.484\C,0,4.089,1.745,35.249\C,0,3.272,2.849,34.
 523\C,0,2.905,2.74,33.033\C,0,1.434,2.33,32.667\C,0,1.245,0.805,32.834
 \C,0,1.01,2.823,31.212\C,0,0.05,4.038,31.309\C,0,-1.025,3.856,30.171\C
 ,0,-0.7,4.869,29.041\C,0,-1.139,6.26,29.512\C,0,-1.361,4.427,27.755\C,
 0,-0.387,4.28,26.602\C,0,-0.713,3.182,25.546\C,0,-1.272,3.827,24.211\C
 ,0,-2.579,3.147,23.775\C,0,-0.229,4.114,23.092\H,0,1.007,4.695,42.72\H
 ,0,-0.445,-1.295,44.339\H,0,5.622,-2.544,45.855\H,0,5.564,5.529,43.644
 \H,0,3.496,5.31,41.513\H,0,2.558,7.182,42.853\H,0,4.079,7.006,43.819\H
 ,0,2.664,6.17,44.305\H,0,6.979,5.76,41.896\H,0,5.542,5.655,40.926\H,0,
 6.096,2.993,40.908\H,0,7.649,3.552,41.281\H,0,-2.371,3.48,42.283\H,0,-
 0.903,4.217,41.694\H,0,-1.386,4.449,43.442\H,0,-2.447,-1.036,44.592\H,
 0,-2.22,-1.488,42.787\H,0,-3.701,-1.133,43.383\H,0,1.295,-3.484,43.945
 \H,0,3.144,-3.601,46.292\H,0,0.333,-4.381,46.056\H,0,-0.406,-2.749,45.
 959\H,0,0.86,-2.972,47.002\H,0,4.522,-4.042,43.915\H,0,3.103,-5.004,43
 .74\H,0,4.046,-6.591,45.003\H,0,4.412,-5.486,46.342\H,0,5.524,-5.54,45
 .066\H,0,7.971,-2.31,45.264\H,0,8.619,-1.476,46.66\H,0,9.201,-1.075,44
 .976\H,0,8.271,3.445,43.338\H,0,5.884,6.064,46.982\H,0,6.899,6.551,45.
 603\H,0,7.638,6.138,47.177\H,0,7.752,2.462,37.066\H,0,7.312,4.211,36.8
 81\H,0,4.859,3.068,37.208\H,0,7.642,1.965,34.669\H,0,6.39,2.205,33.607
 \H,0,6.615,0.525,34.336\H,0,3.599,1.466,36.182\H,0,4.15,0.802,34.705\H
 ,0,3.735,3.824,34.674\H,0,2.397,2.805,35.172\H,0,3.601,2.063,32.539\H,
 0,3.196,3.695,32.595\H,0,0.786,2.739,33.443\H,0,2.048,0.291,33.362\H,0
 ,1.091,0.337,31.861\H,0,0.219,0.677,33.181\H,0,0.707,1.989,30.58\H,0,1
 .943,3.253,30.848\H,0,0.66,4.937,31.22\H,0,-0.354,4.125,32.317\H,0,-1.
 97,4.153,30.627\H,0,-1.143,2.863,29.736\H,0,0.383,4.869,28.913\H,0,-0.
 307,6.96,29.442\H,0,-1.704,6.438,30.427\H,0,-1.832,6.785,28.854\H,0,-2
 .089,5.17,27.43\H,0,-1.922,3.505,27.906\H,0,0.584,4.077,27.053\H,0,-0.
 282,5.236,26.089\H,0,-1.499,2.576,25.997\H,0,0.177,2.556,25.48\H,0,-1.
 619,4.826,24.474\H,0,-2.618,2.081,23.999\H,0,-2.761,3.288,22.71\H,0,-3
 .376,3.63,24.343\H,0,-0.143,5.18,22.879\H,0,-0.301,3.493,22.2\H,0,0.78
 2,3.898,23.436\\Version=ES64L-G16RevA.03\State=1-A\HF=-474.2967932\RMS
 D=3.575e-09\PG=C01 [X(C55H74Mg1N4O6)]\\@


 MUD THROWN IS GROUND LOST -- FROM A TEA BAG
 Job cpu time:       0 days  0 hours  2 minutes 39.0 seconds.
 Elapsed time:       0 days  0 hours  0 minutes  6.9 seconds.
 File lengths (MBytes):  RWF=   1272 Int=      0 D2E=      0 Chk=     38 Scr=      1
 Normal termination of Gaussian 16 at Thu May  5 12:15:34 2022.
