 Entering Gaussian System, Link 0=g16
 Initial command:
 /sw/apps/gaussian-16.0/g16/l1.exe "/tmp/Gau-141683.inp" -scrdir="/tmp/"
 Entering Link 1 = /sw/apps/gaussian-16.0/g16/l1.exe PID=    141684.
  
 Copyright (c) 1988,1990,1992,1993,1995,1998,2003,2009,2016,
            Gaussian, Inc.  All Rights Reserved.
  
 This is part of the Gaussian(R) 16 program.  It is based on
 the Gaussian(R) 09 system (copyright 2009, Gaussian, Inc.),
 the Gaussian(R) 03 system (copyright 2003, Gaussian, Inc.),
 the Gaussian(R) 98 system (copyright 1998, Gaussian, Inc.),
 the Gaussian(R) 94 system (copyright 1995, Gaussian, Inc.),
 the Gaussian 92(TM) system (copyright 1992, Gaussian, Inc.),
 the Gaussian 90(TM) system (copyright 1990, Gaussian, Inc.),
 the Gaussian 88(TM) system (copyright 1988, Gaussian, Inc.),
 the Gaussian 86(TM) system (copyright 1986, Carnegie Mellon
 University), and the Gaussian 82(TM) system (copyright 1983,
 Carnegie Mellon University). Gaussian is a federally registered
 trademark of Gaussian, Inc.
  
 This software contains proprietary and confidential information,
 including trade secrets, belonging to Gaussian, Inc.
  
 This software is provided under written license and may be
 used, copied, transmitted, or stored only in accord with that
 written license.
  
 The following legend is applicable only to US Government
 contracts under FAR:
  
                    RESTRICTED RIGHTS LEGEND
  
 Use, reproduction and disclosure by the US Government is
 subject to restrictions as set forth in subparagraphs (a)
 and (c) of the Commercial Computer Software - Restricted
 Rights clause in FAR 52.227-19.
  
 Gaussian, Inc.
 340 Quinnipiac St., Bldg. 40, Wallingford CT 06492
  
  
 ---------------------------------------------------------------
 Warning -- This program may not be used in any manner that
 competes with the business of Gaussian, Inc. or will provide
 assistance to any competitor of Gaussian, Inc.  The licensee
 of this program is prohibited from giving any competitor of
 Gaussian, Inc. access to this program.  By using this program,
 the user acknowledges that Gaussian, Inc. is engaged in the
 business of creating and licensing software in the field of
 computational chemistry and represents and warrants to the
 licensee that it is not a competitor of Gaussian, Inc. and that
 it will not use this program in any manner prohibited above.
 ---------------------------------------------------------------
  

 Cite this work as:
 Gaussian 16, Revision A.03,
 M. J. Frisch, G. W. Trucks, H. B. Schlegel, G. E. Scuseria, 
 M. A. Robb, J. R. Cheeseman, G. Scalmani, V. Barone, 
 G. A. Petersson, H. Nakatsuji, X. Li, M. Caricato, A. V. Marenich, 
 J. Bloino, B. G. Janesko, R. Gomperts, B. Mennucci, H. P. Hratchian, 
 J. V. Ortiz, A. F. Izmaylov, J. L. Sonnenberg, D. Williams-Young, 
 F. Ding, F. Lipparini, F. Egidi, J. Goings, B. Peng, A. Petrone, 
 T. Henderson, D. Ranasinghe, V. G. Zakrzewski, J. Gao, N. Rega, 
 G. Zheng, W. Liang, M. Hada, M. Ehara, K. Toyota, R. Fukuda, 
 J. Hasegawa, M. Ishida, T. Nakajima, Y. Honda, O. Kitao, H. Nakai, 
 T. Vreven, K. Throssell, J. A. Montgomery, Jr., J. E. Peralta, 
 F. Ogliaro, M. J. Bearpark, J. J. Heyd, E. N. Brothers, K. N. Kudin, 
 V. N. Staroverov, T. A. Keith, R. Kobayashi, J. Normand, 
 K. Raghavachari, A. P. Rendell, J. C. Burant, S. S. Iyengar, 
 J. Tomasi, M. Cossi, J. M. Millam, M. Klene, C. Adamo, R. Cammi, 
 J. W. Ochterski, R. L. Martin, K. Morokuma, O. Farkas, 
 J. B. Foresman, and D. J. Fox, Gaussian, Inc., Wallingford CT, 2016.
 
 ******************************************
 Gaussian 16:  ES64L-G16RevA.03 25-Dec-2016
                29-Apr-2022 
 ******************************************
 %nproc=24
 Will use up to   24 processors via shared memory.
 %mem=75GB
 ------------------------------
 #p blyp/Def2SVP td=(nstates=5)
 ------------------------------
 1/38=1,172=1/1;
 2/12=2,17=6,18=5,40=1/2;
 3/5=43,7=101,11=9,25=1,30=1,74=402/1,2,3,8;
 4//1;
 5/5=2,38=5/2;
 8/6=1,10=1,108=5/1;
 9/41=5,42=1,70=2/14;
 6/7=2,8=2,9=2,10=2/1;
 99/5=1,9=1/99;
 Leave Link    1 at Fri Apr 29 16:15:12 2022, MaxMem= 10066329600 cpu:               1.0 elap:               0.0
 (Enter /sw/apps/gaussian-16.0/g16/l101.exe)
 -------------------------------------------------
 step_351_chromophore_7 TDDFT with blyp functional
 -------------------------------------------------
 Symbolic Z-matrix:
 Charge =  0 Multiplicity = 1
 Mg                    25.36     0.518     29.725 
 C                     27.385    0.153     32.534 
 C                     22.634    0.841     31.785 
 C                     23.335    0.288     26.855 
 C                     28.066   -0.547     27.687 
 N                     25.162    0.626     31.981 
 C                     26.048    0.418     32.896 
 C                     25.549    0.718     34.249 
 C                     23.952    0.718     34.02 
 C                     23.856    0.661     32.436 
 C                     23.154   -0.481     34.603 
 C                     26.18     2.073     34.797 
 C                     27.117    1.82      36.001 
 C                     27.159    2.721     37.307 
 O                     27.432    3.905     37.325 
 O                     26.733    2.04      38.441 
 N                     23.346    0.61      29.362 
 C                     22.352    0.803     30.341 
 C                     21.09     0.999     29.742 
 C                     21.263    0.699     28.343 
 C                     22.678    0.467     28.145 
 C                     19.834    1.183     30.579 
 C                     20.203    0.561     27.302 
 O                     20.471    0.13      26.211 
 C                     18.817    1.036     27.561 
 N                     25.638   -0.042     27.591 
 C                     24.707    0.033     26.61 
 C                     25.311   -0.295     25.217 
 C                     26.809   -0.327     25.494 
 C                     26.83    -0.301     27.027 
 C                     24.769   -1.543     24.557 
 C                     27.548    0.96      24.937 
 C                     29.09     0.802     24.893 
 N                     27.334    0.042     29.979 
 C                     28.331   -0.398     29.046 
 C                     29.542   -0.634     29.775 
 C                     29.234   -0.427     31.139 
 C                     27.902   -0.042     31.209 
 C                     30.743   -1.148     29.104 
 C                     29.757   -0.47      32.514 
 O                     30.916   -0.598     32.945 
 C                     28.558   -0.025     33.407 
 C                     28.314   -1.205     34.339 
 O                     27.618   -2.193     34.059 
 O                     28.973   -0.935     35.496 
 C                     28.774   -1.823     36.701 
 C                     26.759    2.892     39.606 
 C                     26.389    2.19      40.942 
 C                     25.221    1.787     41.412 
 C                     23.936    1.916     40.689 
 C                     25.076    1.152     42.797 
 C                     24.869    2.167     43.938 
 C                     23.831    1.62      44.979 
 C                     23.935    2.504     46.276 
 C                     23.461    1.668     47.503 
 C                     23.223    3.827     46.022 
 C                     23.776    4.919     46.99 
 C                     22.649    5.491     47.83 
 C                     23.04     6.97      48.13 
 C                     22.519    7.51      49.405 
 C                     22.584    7.85      46.94 
 C                     23.372    9.156     46.84 
 C                     22.416    10.357    47.232 
 C                     23.054    11.285    48.338 
 C                     21.935    11.501    49.483 
 C                     23.604    12.572    47.703 
 H                     21.831    0.851     32.525 
 H                     22.761    0.518     25.954 
 H                     28.933   -0.838     27.09 
 H                     26.006   -0.069     34.85 
 H                     23.554    1.642     34.439 
 H                     23.868   -1.231     34.943 
 H                     22.346   -0.856     33.974 
 H                     22.609   -0.085     35.46 
 H                     25.37     2.773     35.003 
 H                     26.789    2.493     33.997 
 H                     28.114    2.101     35.661 
 H                     27.109    0.783     36.336 
 H                     19.491    2.203     30.401 
 H                     19.926    1.169     31.665 
 H                     19.055    0.476     30.295 
 H                     18.349    0.369     28.285 
 H                     18.223    0.999     26.648 
 H                     18.736    2.003     28.058 
 H                     25.115    0.545     24.551 
 H                     27.31    -1.262     25.244 
 H                     23.95    -1.934     25.161 
 H                     25.491   -2.345     24.402 
 H                     24.316   -1.292     23.598 
 H                     27.352    1.839     25.552 
 H                     27.182    1.105     23.921 
 H                     29.575    1.556     25.513 
 H                     29.483    0.954     23.888 
 H                     29.477   -0.192     25.114 
 H                     31.594   -0.499     29.309 
 H                     30.834   -1.272     28.025 
 H                     30.918   -2.108     29.589 
 H                     28.818    0.903     33.915 
 H                     27.834   -1.49      37.141 
 H                     29.603   -1.922     37.401 
 H                     28.588   -2.861     36.425 
 H                     26.249    3.854     39.55 
 H                     27.824    3.078     39.743 
 H                     27.259    2.11      41.593 
 H                     23.796    2.918     40.284 
 H                     23.034    1.639     41.235 
 H                     23.923    1.235     39.837 
 H                     26.008    0.632     43.018 
 H                     24.289    0.398     42.818 
 H                     24.524    3.108     43.51 
 H                     25.847    2.259     44.412 
 H                     23.982    0.573     45.242 
 H                     22.792    1.655     44.651 
 H                     25.014    2.635     46.353 
 H                     22.682    0.933     47.297 
 H                     23.127    2.328     48.303 
 H                     24.391    1.188     47.808 
 H                     22.188    3.581     46.26 
 H                     23.364    4.181     45.001 
 H                     24.154    5.749     46.393 
 H                     24.521    4.484     47.656 
 H                     22.586    4.851     48.71 
 H                     21.639    5.569     47.427 
 H                     24.11     7.079     48.306 
 H                     21.923    6.726     49.873 
 H                     21.778    8.275     49.171 
 H                     23.356    7.837     50.022 
 H                     21.506    7.993     47.023 
 H                     22.709    7.33      45.99 
 H                     23.692    9.344     45.815 
 H                     24.31     9.061     47.386 
 H                     21.447    10.124    47.674 
 H                     22.151    10.949    46.357 
 H                     23.878    10.718    48.77 
 H                     21.909    10.744    50.267 
 H                     20.929    11.657    49.093 
 H                     22.265    12.391    50.019 
 H                     23.4      13.402    48.379 
 H                     23.24     12.874    46.721 
 H                     24.687    12.625    47.591 
 
 ITRead=  0  0  0  0  0  0  0  0  0  0  0  0  0  0  0  0  0  0  0  0
 ITRead=  0  0  0  0  0  0  0  0  0  0  0  0  0  0  0  0  0  0  0  0
 ITRead=  0  0  0  0  0  0  0  0  0  0  0  0  0  0  0  0  0  0  0  0
 ITRead=  0  0  0  0  0  0  0  0  0  0  0  0  0  0  0  0  0  0  0  0
 ITRead=  0  0  0  0  0  0  0  0  0  0  0  0  0  0  0  0  0  0  0  0
 ITRead=  0  0  0  0  0  0  0  0  0  0  0  0  0  0  0  0  0  0  0  0
 ITRead=  0  0  0  0  0  0  0  0  0  0  0  0  0  0  0  0  0  0  0  0
 MicOpt= -1 -1 -1 -1 -1 -1 -1 -1 -1 -1 -1 -1 -1 -1 -1 -1 -1 -1 -1 -1
 MicOpt= -1 -1 -1 -1 -1 -1 -1 -1 -1 -1 -1 -1 -1 -1 -1 -1 -1 -1 -1 -1
 MicOpt= -1 -1 -1 -1 -1 -1 -1 -1 -1 -1 -1 -1 -1 -1 -1 -1 -1 -1 -1 -1
 MicOpt= -1 -1 -1 -1 -1 -1 -1 -1 -1 -1 -1 -1 -1 -1 -1 -1 -1 -1 -1 -1
 MicOpt= -1 -1 -1 -1 -1 -1 -1 -1 -1 -1 -1 -1 -1 -1 -1 -1 -1 -1 -1 -1
 MicOpt= -1 -1 -1 -1 -1 -1 -1 -1 -1 -1 -1 -1 -1 -1 -1 -1 -1 -1 -1 -1
 MicOpt= -1 -1 -1 -1 -1 -1 -1 -1 -1 -1 -1 -1 -1 -1 -1 -1 -1 -1 -1 -1
 NAtoms=    140 NQM=      140 NQMF=       0 NMMI=      0 NMMIF=      0
                NMic=       0 NMicF=      0.
                    Isotopes and Nuclear Properties:
 (Nuclear quadrupole moments (NQMom) in fm**2, nuclear magnetic moments (NMagM)
  in nuclear magnetons)

  Atom         1           2           3           4           5           6           7           8           9          10
 IAtWgt=          24          12          12          12          12          14          12          12          12          12
 AtmWgt=  23.9850450  12.0000000  12.0000000  12.0000000  12.0000000  14.0030740  12.0000000  12.0000000  12.0000000  12.0000000
 NucSpn=           0           0           0           0           0           2           0           0           0           0
 AtZEff=  -0.0000000  -0.0000000  -0.0000000  -0.0000000  -0.0000000  -0.0000000  -0.0000000  -0.0000000  -0.0000000  -0.0000000
 NQMom=    0.0000000   0.0000000   0.0000000   0.0000000   0.0000000   2.0440000   0.0000000   0.0000000   0.0000000   0.0000000
 NMagM=    0.0000000   0.0000000   0.0000000   0.0000000   0.0000000   0.4037610   0.0000000   0.0000000   0.0000000   0.0000000
 AtZNuc=  12.0000000   6.0000000   6.0000000   6.0000000   6.0000000   7.0000000   6.0000000   6.0000000   6.0000000   6.0000000

  Atom        11          12          13          14          15          16          17          18          19          20
 IAtWgt=          12          12          12          12          16          16          14          12          12          12
 AtmWgt=  12.0000000  12.0000000  12.0000000  12.0000000  15.9949146  15.9949146  14.0030740  12.0000000  12.0000000  12.0000000
 NucSpn=           0           0           0           0           0           0           2           0           0           0
 AtZEff=  -0.0000000  -0.0000000  -0.0000000  -0.0000000  -0.0000000  -0.0000000  -0.0000000  -0.0000000  -0.0000000  -0.0000000
 NQMom=    0.0000000   0.0000000   0.0000000   0.0000000   0.0000000   0.0000000   2.0440000   0.0000000   0.0000000   0.0000000
 NMagM=    0.0000000   0.0000000   0.0000000   0.0000000   0.0000000   0.0000000   0.4037610   0.0000000   0.0000000   0.0000000
 AtZNuc=   6.0000000   6.0000000   6.0000000   6.0000000   8.0000000   8.0000000   7.0000000   6.0000000   6.0000000   6.0000000

  Atom        21          22          23          24          25          26          27          28          29          30
 IAtWgt=          12          12          12          16          12          14          12          12          12          12
 AtmWgt=  12.0000000  12.0000000  12.0000000  15.9949146  12.0000000  14.0030740  12.0000000  12.0000000  12.0000000  12.0000000
 NucSpn=           0           0           0           0           0           2           0           0           0           0
 AtZEff=  -0.0000000  -0.0000000  -0.0000000  -0.0000000  -0.0000000  -0.0000000  -0.0000000  -0.0000000  -0.0000000  -0.0000000
 NQMom=    0.0000000   0.0000000   0.0000000   0.0000000   0.0000000   2.0440000   0.0000000   0.0000000   0.0000000   0.0000000
 NMagM=    0.0000000   0.0000000   0.0000000   0.0000000   0.0000000   0.4037610   0.0000000   0.0000000   0.0000000   0.0000000
 AtZNuc=   6.0000000   6.0000000   6.0000000   8.0000000   6.0000000   7.0000000   6.0000000   6.0000000   6.0000000   6.0000000

  Atom        31          32          33          34          35          36          37          38          39          40
 IAtWgt=          12          12          12          14          12          12          12          12          12          12
 AtmWgt=  12.0000000  12.0000000  12.0000000  14.0030740  12.0000000  12.0000000  12.0000000  12.0000000  12.0000000  12.0000000
 NucSpn=           0           0           0           2           0           0           0           0           0           0
 AtZEff=  -0.0000000  -0.0000000  -0.0000000  -0.0000000  -0.0000000  -0.0000000  -0.0000000  -0.0000000  -0.0000000  -0.0000000
 NQMom=    0.0000000   0.0000000   0.0000000   2.0440000   0.0000000   0.0000000   0.0000000   0.0000000   0.0000000   0.0000000
 NMagM=    0.0000000   0.0000000   0.0000000   0.4037610   0.0000000   0.0000000   0.0000000   0.0000000   0.0000000   0.0000000
 AtZNuc=   6.0000000   6.0000000   6.0000000   7.0000000   6.0000000   6.0000000   6.0000000   6.0000000   6.0000000   6.0000000

  Atom        41          42          43          44          45          46          47          48          49          50
 IAtWgt=          16          12          12          16          16          12          12          12          12          12
 AtmWgt=  15.9949146  12.0000000  12.0000000  15.9949146  15.9949146  12.0000000  12.0000000  12.0000000  12.0000000  12.0000000
 NucSpn=           0           0           0           0           0           0           0           0           0           0
 AtZEff=  -0.0000000  -0.0000000  -0.0000000  -0.0000000  -0.0000000  -0.0000000  -0.0000000  -0.0000000  -0.0000000  -0.0000000
 NQMom=    0.0000000   0.0000000   0.0000000   0.0000000   0.0000000   0.0000000   0.0000000   0.0000000   0.0000000   0.0000000
 NMagM=    0.0000000   0.0000000   0.0000000   0.0000000   0.0000000   0.0000000   0.0000000   0.0000000   0.0000000   0.0000000
 AtZNuc=   8.0000000   6.0000000   6.0000000   8.0000000   8.0000000   6.0000000   6.0000000   6.0000000   6.0000000   6.0000000

  Atom        51          52          53          54          55          56          57          58          59          60
 IAtWgt=          12          12          12          12          12          12          12          12          12          12
 AtmWgt=  12.0000000  12.0000000  12.0000000  12.0000000  12.0000000  12.0000000  12.0000000  12.0000000  12.0000000  12.0000000
 NucSpn=           0           0           0           0           0           0           0           0           0           0
 AtZEff=  -0.0000000  -0.0000000  -0.0000000  -0.0000000  -0.0000000  -0.0000000  -0.0000000  -0.0000000  -0.0000000  -0.0000000
 NQMom=    0.0000000   0.0000000   0.0000000   0.0000000   0.0000000   0.0000000   0.0000000   0.0000000   0.0000000   0.0000000
 NMagM=    0.0000000   0.0000000   0.0000000   0.0000000   0.0000000   0.0000000   0.0000000   0.0000000   0.0000000   0.0000000
 AtZNuc=   6.0000000   6.0000000   6.0000000   6.0000000   6.0000000   6.0000000   6.0000000   6.0000000   6.0000000   6.0000000

  Atom        61          62          63          64          65          66          67          68          69          70
 IAtWgt=          12          12          12          12          12          12           1           1           1           1
 AtmWgt=  12.0000000  12.0000000  12.0000000  12.0000000  12.0000000  12.0000000   1.0078250   1.0078250   1.0078250   1.0078250
 NucSpn=           0           0           0           0           0           0           1           1           1           1
 AtZEff=  -0.0000000  -0.0000000  -0.0000000  -0.0000000  -0.0000000  -0.0000000  -0.0000000  -0.0000000  -0.0000000  -0.0000000
 NQMom=    0.0000000   0.0000000   0.0000000   0.0000000   0.0000000   0.0000000   0.0000000   0.0000000   0.0000000   0.0000000
 NMagM=    0.0000000   0.0000000   0.0000000   0.0000000   0.0000000   0.0000000   2.7928460   2.7928460   2.7928460   2.7928460
 AtZNuc=   6.0000000   6.0000000   6.0000000   6.0000000   6.0000000   6.0000000   1.0000000   1.0000000   1.0000000   1.0000000

  Atom        71          72          73          74          75          76          77          78          79          80
 IAtWgt=           1           1           1           1           1           1           1           1           1           1
 AtmWgt=   1.0078250   1.0078250   1.0078250   1.0078250   1.0078250   1.0078250   1.0078250   1.0078250   1.0078250   1.0078250
 NucSpn=           1           1           1           1           1           1           1           1           1           1
 AtZEff=  -0.0000000  -0.0000000  -0.0000000  -0.0000000  -0.0000000  -0.0000000  -0.0000000  -0.0000000  -0.0000000  -0.0000000
 NQMom=    0.0000000   0.0000000   0.0000000   0.0000000   0.0000000   0.0000000   0.0000000   0.0000000   0.0000000   0.0000000
 NMagM=    2.7928460   2.7928460   2.7928460   2.7928460   2.7928460   2.7928460   2.7928460   2.7928460   2.7928460   2.7928460
 AtZNuc=   1.0000000   1.0000000   1.0000000   1.0000000   1.0000000   1.0000000   1.0000000   1.0000000   1.0000000   1.0000000

  Atom        81          82          83          84          85          86          87          88          89          90
 IAtWgt=           1           1           1           1           1           1           1           1           1           1
 AtmWgt=   1.0078250   1.0078250   1.0078250   1.0078250   1.0078250   1.0078250   1.0078250   1.0078250   1.0078250   1.0078250
 NucSpn=           1           1           1           1           1           1           1           1           1           1
 AtZEff=  -0.0000000  -0.0000000  -0.0000000  -0.0000000  -0.0000000  -0.0000000  -0.0000000  -0.0000000  -0.0000000  -0.0000000
 NQMom=    0.0000000   0.0000000   0.0000000   0.0000000   0.0000000   0.0000000   0.0000000   0.0000000   0.0000000   0.0000000
 NMagM=    2.7928460   2.7928460   2.7928460   2.7928460   2.7928460   2.7928460   2.7928460   2.7928460   2.7928460   2.7928460
 AtZNuc=   1.0000000   1.0000000   1.0000000   1.0000000   1.0000000   1.0000000   1.0000000   1.0000000   1.0000000   1.0000000

  Atom        91          92          93          94          95          96          97          98          99         100
 IAtWgt=           1           1           1           1           1           1           1           1           1           1
 AtmWgt=   1.0078250   1.0078250   1.0078250   1.0078250   1.0078250   1.0078250   1.0078250   1.0078250   1.0078250   1.0078250
 NucSpn=           1           1           1           1           1           1           1           1           1           1
 AtZEff=  -0.0000000  -0.0000000  -0.0000000  -0.0000000  -0.0000000  -0.0000000  -0.0000000  -0.0000000  -0.0000000  -0.0000000
 NQMom=    0.0000000   0.0000000   0.0000000   0.0000000   0.0000000   0.0000000   0.0000000   0.0000000   0.0000000   0.0000000
 NMagM=    2.7928460   2.7928460   2.7928460   2.7928460   2.7928460   2.7928460   2.7928460   2.7928460   2.7928460   2.7928460
 AtZNuc=   1.0000000   1.0000000   1.0000000   1.0000000   1.0000000   1.0000000   1.0000000   1.0000000   1.0000000   1.0000000

  Atom       101         102         103         104         105         106         107         108         109         110
 IAtWgt=           1           1           1           1           1           1           1           1           1           1
 AtmWgt=   1.0078250   1.0078250   1.0078250   1.0078250   1.0078250   1.0078250   1.0078250   1.0078250   1.0078250   1.0078250
 NucSpn=           1           1           1           1           1           1           1           1           1           1
 AtZEff=  -0.0000000  -0.0000000  -0.0000000  -0.0000000  -0.0000000  -0.0000000  -0.0000000  -0.0000000  -0.0000000  -0.0000000
 NQMom=    0.0000000   0.0000000   0.0000000   0.0000000   0.0000000   0.0000000   0.0000000   0.0000000   0.0000000   0.0000000
 NMagM=    2.7928460   2.7928460   2.7928460   2.7928460   2.7928460   2.7928460   2.7928460   2.7928460   2.7928460   2.7928460
 AtZNuc=   1.0000000   1.0000000   1.0000000   1.0000000   1.0000000   1.0000000   1.0000000   1.0000000   1.0000000   1.0000000

  Atom       111         112         113         114         115         116         117         118         119         120
 IAtWgt=           1           1           1           1           1           1           1           1           1           1
 AtmWgt=   1.0078250   1.0078250   1.0078250   1.0078250   1.0078250   1.0078250   1.0078250   1.0078250   1.0078250   1.0078250
 NucSpn=           1           1           1           1           1           1           1           1           1           1
 AtZEff=  -0.0000000  -0.0000000  -0.0000000  -0.0000000  -0.0000000  -0.0000000  -0.0000000  -0.0000000  -0.0000000  -0.0000000
 NQMom=    0.0000000   0.0000000   0.0000000   0.0000000   0.0000000   0.0000000   0.0000000   0.0000000   0.0000000   0.0000000
 NMagM=    2.7928460   2.7928460   2.7928460   2.7928460   2.7928460   2.7928460   2.7928460   2.7928460   2.7928460   2.7928460
 AtZNuc=   1.0000000   1.0000000   1.0000000   1.0000000   1.0000000   1.0000000   1.0000000   1.0000000   1.0000000   1.0000000

  Atom       121         122         123         124         125         126         127         128         129         130
 IAtWgt=           1           1           1           1           1           1           1           1           1           1
 AtmWgt=   1.0078250   1.0078250   1.0078250   1.0078250   1.0078250   1.0078250   1.0078250   1.0078250   1.0078250   1.0078250
 NucSpn=           1           1           1           1           1           1           1           1           1           1
 AtZEff=  -0.0000000  -0.0000000  -0.0000000  -0.0000000  -0.0000000  -0.0000000  -0.0000000  -0.0000000  -0.0000000  -0.0000000
 NQMom=    0.0000000   0.0000000   0.0000000   0.0000000   0.0000000   0.0000000   0.0000000   0.0000000   0.0000000   0.0000000
 NMagM=    2.7928460   2.7928460   2.7928460   2.7928460   2.7928460   2.7928460   2.7928460   2.7928460   2.7928460   2.7928460
 AtZNuc=   1.0000000   1.0000000   1.0000000   1.0000000   1.0000000   1.0000000   1.0000000   1.0000000   1.0000000   1.0000000

  Atom       131         132         133         134         135         136         137         138         139         140
 IAtWgt=           1           1           1           1           1           1           1           1           1           1
 AtmWgt=   1.0078250   1.0078250   1.0078250   1.0078250   1.0078250   1.0078250   1.0078250   1.0078250   1.0078250   1.0078250
 NucSpn=           1           1           1           1           1           1           1           1           1           1
 AtZEff=  -0.0000000  -0.0000000  -0.0000000  -0.0000000  -0.0000000  -0.0000000  -0.0000000  -0.0000000  -0.0000000  -0.0000000
 NQMom=    0.0000000   0.0000000   0.0000000   0.0000000   0.0000000   0.0000000   0.0000000   0.0000000   0.0000000   0.0000000
 NMagM=    2.7928460   2.7928460   2.7928460   2.7928460   2.7928460   2.7928460   2.7928460   2.7928460   2.7928460   2.7928460
 AtZNuc=   1.0000000   1.0000000   1.0000000   1.0000000   1.0000000   1.0000000   1.0000000   1.0000000   1.0000000   1.0000000
 Leave Link  101 at Fri Apr 29 16:15:13 2022, MaxMem= 10066329600 cpu:               3.4 elap:               0.2
 (Enter /sw/apps/gaussian-16.0/g16/l202.exe)
 Stoichiometry    C55H74MgN4O6
 Framework group  C1[X(C55H74MgN4O6)]
 Deg. of freedom   414
 Full point group                 C1      NOp   1
 Largest Abelian subgroup         C1      NOp   1
 Largest concise Abelian subgroup C1      NOp   1
                         Standard orientation:                         
 ---------------------------------------------------------------------
 Center     Atomic      Atomic             Coordinates (Angstroms)
 Number     Number       Type             X           Y           Z
 ---------------------------------------------------------------------
      1         12           0        6.043858    0.653979    0.386331
      2          6           0        3.757986   -1.970052    0.269770
      3          6           0        3.717607    2.690068   -1.104274
      4          6           0        8.588319    3.057136    0.010864
      5          6           0        8.598774   -1.663856    1.229032
      6          7           0        3.877243    0.319870   -0.192079
      7          6           0        3.187013   -0.770514   -0.203450
      8          6           0        1.767316   -0.541183   -0.522009
      9          6           0        1.810805    0.928045   -1.187087
     10          6           0        3.300563    1.378065   -0.871453
     11          6           0        1.586775    1.016343   -2.722114
     12          6           0        0.863417   -0.696673    0.779251
     13          6           0       -0.076275   -1.920749    0.678200
     14          6           0       -1.597852   -1.920465    1.129867
     15          8           0       -1.986623   -1.697221    2.259348
     16          8           0       -2.472699   -2.090912    0.063666
     17          7           0        6.136900    2.561464   -0.354798
     18          6           0        5.050191    3.277946   -0.892796
     19          6           0        5.408933    4.618961   -1.143486
     20          6           0        6.836809    4.689364   -0.960883
     21          6           0        7.251630    3.393746   -0.466362
     22          6           0        4.430028    5.598472   -1.771390
     23          6           0        7.743452    5.827435   -1.291213
     24          8           0        8.937940    5.686479   -1.256620
     25          6           0        7.192386    7.178765   -1.580931
     26          7           0        8.258097    0.708308    0.583895
     27          6           0        9.050274    1.801956    0.478363
     28          6           0       10.528062    1.478403    0.830931
     29          6           0       10.439970    0.072351    1.411461
     30          6           0        9.000377   -0.311105    1.048501
     31          6           0       11.509915    1.624952   -0.309839
     32          6           0       10.603582    0.064774    2.988138
     33          6           0       10.862941   -1.351588    3.563737
     34          7           0        6.178522   -1.343616    0.809707
     35          6           0        7.306228   -2.171899    1.126450
     36          6           0        6.834067   -3.515451    1.286416
     37          6           0        5.455994   -3.494684    0.972259
     38          6           0        5.117860   -2.180552    0.678881
     39          6           0        7.763717   -4.617699    1.565049
     40          6           0        4.241092   -4.311037    0.818688
     41          8           0        4.005356   -5.492842    1.123958
     42          6           0        3.127508   -3.292234    0.424929
     43          6           0        2.629975   -3.772052   -0.932567
     44          8           0        3.152079   -3.479188   -2.019120
     45          8           0        1.527347   -4.531355   -0.701263
     46          6           0        0.680502   -5.002085   -1.859467
     47          6           0       -3.847581   -2.061381    0.502566
     48          6           0       -4.898159   -2.339140   -0.608170
     49          6           0       -5.325739   -1.580315   -1.602601
     50          6           0       -4.830843   -0.215153   -1.888968
     51          6           0       -6.420787   -2.042616   -2.566770
     52          6           0       -7.853341   -1.736432   -2.088234
     53          6           0       -8.752016   -1.289455   -3.293608
     54          6           0      -10.252799   -1.348570   -2.826022
     55          6           0      -11.167198   -1.560729   -4.070194
     56          6           0      -10.539606   -0.132046   -1.954472
     57          6           0      -11.755350   -0.425531   -1.021129
     58          6           0      -12.854724    0.592861   -1.260228
     59          6           0      -13.594438    0.759583    0.101884
     60          6           0      -15.024876    1.122585   -0.001768
     61          6           0      -12.828866    1.803080    0.952442
     62          6           0      -13.093655    1.647829    2.449895
     63          6           0      -13.969066    2.873821    2.940405
     64          6           0      -15.249173    2.406352    3.736810
     65          6           0      -16.512200    3.201936    3.119031
     66          6           0      -15.032835    2.585110    5.247882
     67          1           0        2.936708    3.223502   -1.650308
     68          1           0        9.291335    3.876724    0.178856
     69          1           0        9.348030   -2.400283    1.527481
     70          1           0        1.520935   -1.404560   -1.141117
     71          1           0        1.063595    1.543878   -0.686920
     72          1           0        1.599289    0.004085   -3.125938
     73          1           0        2.215491    1.736664   -3.246502
     74          1           0        0.593298    1.445813   -2.851914
     75          1           0        0.347195    0.247094    0.956319
     76          1           0        1.534011   -0.873341    1.619712
     77          1           0        0.252849   -2.608422    1.457529
     78          1           0       -0.038978   -2.406626   -0.296578
     79          1           0        4.214238    6.349788   -1.010672
     80          1           0        3.429420    5.245732   -2.021215
     81          1           0        4.851812    6.077124   -2.654757
     82          1           0        6.691573    7.151374   -2.548673
     83          1           0        7.994935    7.913174   -1.646757
     84          1           0        6.391555    7.512037   -0.920433
     85          1           0       10.845128    2.147734    1.630329
     86          1           0       11.043930   -0.680346    0.905096
     87          1           0       10.990285    2.046909   -1.170301
     88          1           0       12.003619    0.706151   -0.626973
     89          1           0       12.272958    2.359985   -0.054137
     90          1           0        9.709974    0.436056    3.491026
     91          1           0       11.465110    0.694762    3.207505
     92          1           0       10.079744   -1.633684    4.267417
     93          1           0       11.792886   -1.393157    4.130353
     94          1           0       11.034427   -2.142059    2.834084
     95          1           0        7.443120   -5.163716    2.451904
     96          1           0        8.824079   -4.483299    1.778279
     97          1           0        7.654257   -5.271707    0.700328
     98          1           0        2.366029   -3.278860    1.203914
     99          1           0        0.055983   -4.145993   -2.114753
    100          1           0        0.148236   -5.946215   -1.748316
    101          1           0        1.270280   -5.181314   -2.758497
    102          1           0       -4.175603   -1.215131    1.106670
    103          1           0       -3.924904   -2.963614    1.108855
    104          1           0       -5.386677   -3.300029   -0.449603
    105          1           0       -4.806656    0.404949   -0.993134
    106          1           0       -5.343740    0.339624   -2.674847
    107          1           0       -3.805090   -0.265021   -2.256635
    108          1           0       -6.351666   -3.127508   -2.644857
    109          1           0       -6.269045   -1.650155   -3.572392
    110          1           0       -7.808885   -0.953472   -1.331474
    111          1           0       -8.223135   -2.681408   -1.688361
    112          1           0       -8.627044   -1.902373   -4.186297
    113          1           0       -8.568240   -0.275902   -3.650351
    114          1           0      -10.253907   -2.270304   -2.244872
    115          1           0      -10.808842   -1.112262   -4.997534
    116          1           0      -12.174291   -1.199397   -3.864378
    117          1           0      -11.190364   -2.648556   -4.136680
    118          1           0      -10.789297    0.628087   -2.694903
    119          1           0       -9.690053    0.133350   -1.325613
    120          1           0      -11.438088   -0.284982    0.012207
    121          1           0      -12.150979   -1.420167   -1.226027
    122          1           0      -13.467252    0.179608   -2.061476
    123          1           0      -12.612309    1.616149   -1.547821
    124          1           0      -13.681599   -0.187135    0.634693
    125          1           0      -15.260420    1.224745   -1.061475
    126          1           0      -15.144443    2.138737    0.375326
    127          1           0      -15.623016    0.360515    0.497897
    128          1           0      -13.070040    2.793360    0.564367
    129          1           0      -11.751307    1.718886    0.809956
    130          1           0      -12.165008    1.690020    3.019284
    131          1           0      -13.471676    0.646520    2.653524
    132          1           0      -14.406808    3.530777    2.188470
    133          1           0      -13.379985    3.557075    3.550701
    134          1           0      -15.372906    1.346764    3.515331
    135          1           0      -16.991401    2.733068    2.259432
    136          1           0      -16.307934    4.249414    2.896464
    137          1           0      -17.279504    3.131455    3.890116
    138          1           0      -15.967720    2.929124    5.689625
    139          1           0      -14.256063    3.267227    5.593375
    140          1           0      -14.830418    1.675179    5.812943
 ---------------------------------------------------------------------
 Rotational constants (GHZ):           0.0483356           0.0078647           0.0073514
 Leave Link  202 at Fri Apr 29 16:15:13 2022, MaxMem= 10066329600 cpu:               0.2 elap:               0.0
 (Enter /sw/apps/gaussian-16.0/g16/l301.exe)
 Standard basis: def2SVP (5D, 7F)
 Ernie: Thresh=  0.10000D-02 Tol=  0.10000D-05 Strict=F.
 There are  1364 symmetry adapted cartesian basis functions of A   symmetry.
 There are  1298 symmetry adapted basis functions of A   symmetry.
  1298 basis functions,  2180 primitive gaussians,  1364 cartesian basis functions
   246 alpha electrons      246 beta electrons
       nuclear repulsion energy      9320.6577371136 Hartrees.
 IExCor=  402 DFT=T Ex=B Corr=LYP ExCW=0 ScaHFX=  0.000000
 ScaDFX=  1.000000  1.000000  1.000000  1.000000 ScalE2=  1.000000  1.000000
 IRadAn=      5 IRanWt=     -1 IRanGd=            0 ICorTp=0 IEmpDi=  4
 NAtoms=  140 NActive=  140 NUniq=  140 SFac= 1.00D+00 NAtFMM=   60 NAOKFM=T Big=T
 Integral buffers will be    131072 words long.
 Regular integral format.
 Two-electron integral symmetry is turned on.
 Leave Link  301 at Fri Apr 29 16:15:13 2022, MaxMem= 10066329600 cpu:               1.3 elap:               0.1
 (Enter /sw/apps/gaussian-16.0/g16/l302.exe)
 NPDir=0 NMtPBC=     1 NCelOv=     1 NCel=       1 NClECP=     1 NCelD=      1
         NCelK=      1 NCelE2=     1 NClLst=     1 CellRange=     0.0.
 One-electron integrals computed using PRISM.
 One-electron integral symmetry used in STVInt
   1 Symmetry operations used in ECPInt.
 ECPInt:  NShTT=  192510 NPrTT=  683786 LenC2=   88829 LenP2D=  197450.
 LDataN:  DoStor=T MaxTD1= 4 Len=   56
 NBasis=  1298 RedAO= T EigKep=  2.87D-04  NBF=  1298
 NBsUse=  1298 1.00D-06 EigRej= -1.00D+00 NBFU=  1298
 Precomputing XC quadrature grid using
 IXCGrd= 4 IRadAn=           5 IRanWt=          -1 IRanGd=           0 AccXCQ= 0.00D+00.
 Generated NRdTot=       0 NPtTot=           0 NUsed=           0 NTot=          32
 NSgBfM=   959   943   943   948   959 MxSgAt=   140 MxSgA2=   139.
 Leave Link  302 at Fri Apr 29 16:15:17 2022, MaxMem= 10066329600 cpu:              90.7 elap:               3.8
 (Enter /sw/apps/gaussian-16.0/g16/l303.exe)
 DipDrv:  MaxL=1.
 Leave Link  303 at Fri Apr 29 16:15:17 2022, MaxMem= 10066329600 cpu:               5.6 elap:               0.3
 (Enter /sw/apps/gaussian-16.0/g16/l308.exe)
 Leave Link  308 at Fri Apr 29 16:15:18 2022, MaxMem= 10066329600 cpu:              12.8 elap:               0.6
 (Enter /sw/apps/gaussian-16.0/g16/l401.exe)
 ExpMin= 3.36D-02 ExpMax= 4.95D+03 ExpMxC= 7.45D+02 IAcc=3 IRadAn=         5 AccDes= 0.00D+00
 Harris functional with IExCor=  402 and IRadAn=       5 diagonalized for initial guess.
 HarFok:  IExCor=  402 AccDes= 0.00D+00 IRadAn=         5 IDoV= 1 UseB2=F ITyADJ=14
 ICtDFT=  3500011 ScaDFX=  1.000000  1.000000  1.000000  1.000000
 FoFCou: FMM=F IPFlag=           0 FMFlag=      100000 FMFlg1=        2001
         NFxFlg=           0 DoJE=T BraDBF=F KetDBF=T FulRan=T
         wScrn=  0.000000 ICntrl=       500 IOpCl=  0 I1Cent=   200000004 NGrid=           0
         NMat0=    1 NMatS0=      1 NMatT0=    0 NMatD0=    1 NMtDS0=    0 NMtDT0=    0
 Petite list used in FoFCou.
 Harris En= -3008.76500568170    
 JPrj=0 DoOrth=F DoCkMO=F.
 Leave Link  401 at Fri Apr 29 16:15:23 2022, MaxMem= 10066329600 cpu:             141.3 elap:               5.9
 (Enter /sw/apps/gaussian-16.0/g16/l502.exe)
 Integral symmetry usage will be decided dynamically.
 Closed shell SCF:
 Using DIIS extrapolation, IDIIS=  1040.
 NGot= 10066329600 LenX= 10062561258 LenY= 10060699398
 Requested convergence on RMS density matrix=1.00D-08 within 128 cycles.
 Requested convergence on MAX density matrix=1.00D-06.
 Requested convergence on             energy=1.00D-06.
 No special actions if energy rises.
 Fock matrices will be formed incrementally for  20 cycles.

 Cycle   1  Pass 1  IDiag  1:
 FoFJK:  IHMeth= 1 ICntrl=     500 DoSepK=F KAlg= 0 I1Cent=           0 FoldK=F
 IRaf= 490000000 NMat=       1 IRICut=       1 DoRegI=T DoRafI=F ISym2E= 0 IDoP0=0 IntGTp=1.
 FoFCou: FMM=T IPFlag=           0 FMFlag=      100000 FMFlg1=        2001
         NFxFlg=           0 DoJE=T BraDBF=F KetDBF=F FulRan=T
         wScrn=  0.000000 ICntrl=       500 IOpCl=  0 I1Cent=           0 NGrid=           0
         NMat0=    1 NMatS0=      1 NMatT0=    0 NMatD0=    1 NMtDS0=    0 NMtDT0=    0
 Symmetry not used in FoFCou.
 FMM levels:  10  Number of levels for PrismC:   9
 E= -3005.67541638112    
 DIIS: error= 1.88D-02 at cycle   1 NSaved=   1.
 NSaved= 1 IEnMin= 1 EnMin= -3005.67541638112     IErMin= 1 ErrMin= 1.88D-02
 ErrMax= 1.88D-02  0.00D+00 EMaxC= 1.00D-01 BMatC= 1.54D+00 BMatP= 1.54D+00
 IDIUse=3 WtCom= 8.12D-01 WtEn= 1.88D-01
 Coeff-Com:  0.100D+01
 Coeff-En:   0.100D+01
 Coeff:      0.100D+01
 Gap=     0.059 Goal=   None    Shift=    0.000
 GapD=    0.059 DampG=0.500 DampE=0.500 DampFc=0.2500 IDamp=-1.
 Damping current iteration by 2.50D-01
 RMSDP=4.14D-03 MaxDP=1.53D+00              OVMax= 9.47D-01

 Cycle   2  Pass 1  IDiag  1:
 RMSU=  1.03D-03    CP:  9.92D-01
 E= -3006.17472679702     Delta-E=       -0.499310415900 Rises=F Damp=T
 DIIS: error= 7.31D-03 at cycle   2 NSaved=   2.
 NSaved= 2 IEnMin= 2 EnMin= -3006.17472679702     IErMin= 2 ErrMin= 7.31D-03
 ErrMax= 7.31D-03  0.00D+00 EMaxC= 1.00D-01 BMatC= 2.56D-01 BMatP= 1.54D+00
 IDIUse=3 WtCom= 9.27D-01 WtEn= 7.31D-02
 Coeff-Com: -0.293D+00 0.129D+01
 Coeff-En:   0.795D-01 0.920D+00
 Coeff:     -0.266D+00 0.127D+01
 Gap=     0.066 Goal=   None    Shift=    0.000
 RMSDP=1.68D-03 MaxDP=3.03D-01 DE=-4.99D-01 OVMax= 5.86D-01

 Cycle   3  Pass 1  IDiag  1:
 RMSU=  1.65D-03    CP:  9.67D-01  1.13D+00
 E= -3004.62690894429     Delta-E=        1.547817852730 Rises=F Damp=F
 DIIS: error= 4.01D-02 at cycle   3 NSaved=   3.
 NSaved= 3 IEnMin= 2 EnMin= -3006.17472679702     IErMin= 2 ErrMin= 7.31D-03
 ErrMax= 4.01D-02  0.00D+00 EMaxC= 1.00D-01 BMatC= 1.80D+00 BMatP= 2.56D-01
 IDIUse=2 WtCom= 0.00D+00 WtEn= 1.00D+00
 Coeff-En:   0.000D+00 0.739D+00 0.261D+00
 Coeff:      0.000D+00 0.739D+00 0.261D+00
 Gap=    -0.081 Goal=   None    Shift=    0.000
 RMSDP=2.19D-03 MaxDP=4.58D-01 DE= 1.55D+00 OVMax= 7.22D-01

 Cycle   4  Pass 1  IDiag  1:
 RMSU=  1.18D-03    CP:  9.71D-01  1.89D+00 -1.39D-02
 E= -3004.78155841603     Delta-E=       -0.154649471740 Rises=F Damp=F
 DIIS: error= 3.94D-02 at cycle   4 NSaved=   4.
 NSaved= 4 IEnMin= 2 EnMin= -3006.17472679702     IErMin= 2 ErrMin= 7.31D-03
 ErrMax= 3.94D-02  0.00D+00 EMaxC= 1.00D-01 BMatC= 1.47D+00 BMatP= 2.56D-01
 IDIUse=2 WtCom= 0.00D+00 WtEn= 1.00D+00
 EnCoef did     1 forward-backward iterations
 Coeff-En:   0.135D+00 0.000D+00 0.416D+00 0.449D+00
 Coeff:      0.135D+00 0.000D+00 0.416D+00 0.449D+00
 Gap=     0.066 Goal=   None    Shift=    0.000
 RMSDP=1.91D-03 MaxDP=4.34D-01 DE=-1.55D-01 OVMax= 6.82D-01

 Cycle   5  Pass 1  IDiag  1:
 RMSU=  1.26D-03    CP:  9.74D-01  9.59D-01  1.59D-01  1.21D-01
 E= -3005.65687383380     Delta-E=       -0.875315417763 Rises=F Damp=F
 DIIS: error= 2.42D-02 at cycle   5 NSaved=   5.
 NSaved= 5 IEnMin= 2 EnMin= -3006.17472679702     IErMin= 2 ErrMin= 7.31D-03
 ErrMax= 2.42D-02  0.00D+00 EMaxC= 1.00D-01 BMatC= 1.10D+00 BMatP= 2.56D-01
 IDIUse=2 WtCom= 0.00D+00 WtEn= 1.00D+00
 EnCoef did     4 forward-backward iterations
 Coeff-En:   0.691D-01 0.000D+00 0.345D+00 0.389D+00 0.196D+00
 Coeff:      0.691D-01 0.000D+00 0.345D+00 0.389D+00 0.196D+00
 Gap=    -0.175 Goal=   None    Shift=    0.000
 RMSDP=1.26D-03 MaxDP=3.82D-01 DE=-8.75D-01 OVMax= 5.80D-01

 Cycle   6  Pass 1  IDiag  1:
 RMSU=  7.61D-04    CP:  9.78D-01  8.09D-01  2.12D-01  1.49D-01  2.20D-01
 E= -3007.02992291263     Delta-E=       -1.373049078838 Rises=F Damp=F
 DIIS: error= 1.83D-02 at cycle   6 NSaved=   6.
 NSaved= 6 IEnMin= 6 EnMin= -3007.02992291263     IErMin= 2 ErrMin= 7.31D-03
 ErrMax= 1.83D-02  0.00D+00 EMaxC= 1.00D-01 BMatC= 3.04D-01 BMatP= 2.56D-01
 IDIUse=2 WtCom= 0.00D+00 WtEn= 1.00D+00
 EnCoef did     2 forward-backward iterations
 Coeff-En:   0.000D+00 0.000D+00 0.000D+00 0.358D-01 0.235D+00 0.729D+00
 Coeff:      0.000D+00 0.000D+00 0.000D+00 0.358D-01 0.235D+00 0.729D+00
 Gap=     0.061 Goal=   None    Shift=    0.000
 RMSDP=1.26D-03 MaxDP=2.59D-01 DE=-1.37D+00 OVMax= 4.60D-01

 Cycle   7  Pass 1  IDiag  1:
 RMSU=  1.02D-03    CP:  9.77D-01  1.32D+00  2.08D-01  1.35D-01  8.55D-02
                    CP:  3.50D-01
 E= -3006.91364313134     Delta-E=        0.116279781296 Rises=F Damp=F
 DIIS: error= 2.21D-02 at cycle   7 NSaved=   7.
 NSaved= 7 IEnMin= 6 EnMin= -3007.02992291263     IErMin= 2 ErrMin= 7.31D-03
 ErrMax= 2.21D-02  0.00D+00 EMaxC= 1.00D-01 BMatC= 4.85D-01 BMatP= 2.56D-01
 IDIUse=2 WtCom= 0.00D+00 WtEn= 1.00D+00
 EnCoef did     8 forward-backward iterations
 Coeff-En:   0.000D+00 0.000D+00 0.000D+00 0.000D+00 0.113D+00 0.560D+00
 Coeff-En:   0.327D+00
 Coeff:      0.000D+00 0.000D+00 0.000D+00 0.000D+00 0.113D+00 0.560D+00
 Coeff:      0.327D+00
 Gap=     0.038 Goal=   None    Shift=    0.000
 RMSDP=7.40D-04 MaxDP=9.34D-02 DE= 1.16D-01 OVMax= 2.03D-01

 Cycle   8  Pass 1  IDiag  1:
 RMSU=  4.33D-04    CP:  9.80D-01  1.33D+00  1.24D-01  1.31D-01  1.81D-01
                    CP:  4.23D-01  4.44D-01
 E= -3007.28332638446     Delta-E=       -0.369683253119 Rises=F Damp=F
 DIIS: error= 1.09D-02 at cycle   8 NSaved=   8.
 NSaved= 8 IEnMin= 8 EnMin= -3007.28332638446     IErMin= 2 ErrMin= 7.31D-03
 ErrMax= 1.09D-02  0.00D+00 EMaxC= 1.00D-01 BMatC= 1.01D-01 BMatP= 2.56D-01
 IDIUse=3 WtCom= 8.91D-01 WtEn= 1.09D-01
 EnCoef did     3 forward-backward iterations
 Coeff-Com:  0.414D-01-0.841D-02 0.200D-01 0.809D-02 0.531D-02 0.269D+00
 Coeff-Com:  0.225D+00 0.440D+00
 Coeff-En:   0.000D+00 0.000D+00 0.000D+00 0.000D+00 0.000D+00 0.223D+00
 Coeff-En:   0.138D+00 0.639D+00
 Coeff:      0.369D-01-0.750D-02 0.178D-01 0.721D-02 0.473D-02 0.264D+00
 Coeff:      0.215D+00 0.461D+00
 Gap=     0.065 Goal=   None    Shift=    0.000
 RMSDP=3.92D-04 MaxDP=1.39D-01 DE=-3.70D-01 OVMax= 8.60D-02

 Cycle   9  Pass 1  IDiag  1:
 RMSU=  1.74D-04    CP:  9.79D-01  1.12D+00  1.95D-01  1.12D-01  1.65D-01
                    CP:  5.23D-01  5.05D-01  4.87D-01
 E= -3007.35553912525     Delta-E=       -0.072212740792 Rises=F Damp=F
 DIIS: error= 2.98D-03 at cycle   9 NSaved=   9.
 NSaved= 9 IEnMin= 9 EnMin= -3007.35553912525     IErMin= 9 ErrMin= 2.98D-03
 ErrMax= 2.98D-03  0.00D+00 EMaxC= 1.00D-01 BMatC= 1.34D-02 BMatP= 1.01D-01
 IDIUse=3 WtCom= 9.70D-01 WtEn= 2.98D-02
 Coeff-Com:  0.360D-01-0.317D-01 0.527D-02 0.953D-02-0.162D-01 0.135D+00
 Coeff-Com:  0.104D+00 0.337D+00 0.420D+00
 Coeff-En:   0.000D+00 0.000D+00 0.000D+00 0.000D+00 0.000D+00 0.000D+00
 Coeff-En:   0.000D+00 0.163D+00 0.837D+00
 Coeff:      0.349D-01-0.307D-01 0.511D-02 0.924D-02-0.157D-01 0.131D+00
 Coeff:      0.101D+00 0.332D+00 0.433D+00
 Gap=     0.043 Goal=   None    Shift=    0.000
 RMSDP=2.08D-04 MaxDP=3.16D-02 DE=-7.22D-02 OVMax= 1.20D-01

 Cycle  10  Pass 1  IDiag  1:
 RMSU=  1.23D-04    CP:  9.79D-01  1.17D+00  1.64D-01  1.43D-01  1.43D-01
                    CP:  5.47D-01  4.56D-01  5.96D-01  2.76D-01
 E= -3007.36455167073     Delta-E=       -0.009012545477 Rises=F Damp=F
 DIIS: error= 1.47D-03 at cycle  10 NSaved=  10.
 NSaved=10 IEnMin=10 EnMin= -3007.36455167073     IErMin=10 ErrMin= 1.47D-03
 ErrMax= 1.47D-03  0.00D+00 EMaxC= 1.00D-01 BMatC= 5.63D-03 BMatP= 1.34D-02
 IDIUse=3 WtCom= 9.85D-01 WtEn= 1.47D-02
 Coeff-Com:  0.708D-02-0.189D-02 0.272D-02 0.189D-02-0.105D-01 0.598D-01
 Coeff-Com:  0.282D-01 0.149D+00 0.381D+00 0.382D+00
 Coeff-En:   0.000D+00 0.000D+00 0.000D+00 0.000D+00 0.000D+00 0.000D+00
 Coeff-En:   0.000D+00 0.000D+00 0.359D+00 0.641D+00
 Coeff:      0.698D-02-0.186D-02 0.268D-02 0.187D-02-0.104D-01 0.589D-01
 Coeff:      0.278D-01 0.147D+00 0.381D+00 0.386D+00
 Gap=     0.044 Goal=   None    Shift=    0.000
 RMSDP=1.24D-04 MaxDP=1.67D-02 DE=-9.01D-03 OVMax= 9.36D-02

 Cycle  11  Pass 1  IDiag  1:
 RMSU=  6.07D-05    CP:  9.79D-01  1.14D+00  1.73D-01  1.28D-01  1.58D-01
                    CP:  5.42D-01  4.62D-01  5.57D-01  5.67D-01  2.94D-01
 E= -3007.36950809688     Delta-E=       -0.004956426159 Rises=F Damp=F
 DIIS: error= 9.09D-04 at cycle  11 NSaved=  11.
 NSaved=11 IEnMin=11 EnMin= -3007.36950809688     IErMin=11 ErrMin= 9.09D-04
 ErrMax= 9.09D-04  0.00D+00 EMaxC= 1.00D-01 BMatC= 1.77D-03 BMatP= 5.63D-03
 IDIUse=3 WtCom= 9.91D-01 WtEn= 9.09D-03
 EnCoef did     6 forward-backward iterations
 Coeff-Com: -0.767D-02 0.133D-01 0.164D-02-0.499D-03-0.412D-02 0.173D-01
 Coeff-Com: -0.834D-02 0.237D-01 0.233D+00 0.362D+00 0.369D+00
 Coeff-En:   0.000D+00 0.000D+00 0.000D+00 0.000D+00 0.000D+00 0.000D+00
 Coeff-En:   0.000D+00 0.000D+00 0.458D-01 0.298D+00 0.656D+00
 Coeff:     -0.760D-02 0.132D-01 0.163D-02-0.495D-03-0.408D-02 0.171D-01
 Coeff:     -0.827D-02 0.235D-01 0.232D+00 0.362D+00 0.372D+00
 Gap=     0.044 Goal=   None    Shift=    0.000
 RMSDP=6.56D-05 MaxDP=7.61D-03 DE=-4.96D-03 OVMax= 5.32D-02

 Cycle  12  Pass 1  IDiag  1:
 RMSU=  2.94D-05    CP:  9.79D-01  1.14D+00  1.76D-01  1.26D-01  1.57D-01
                    CP:  5.53D-01  4.57D-01  5.56D-01  5.31D-01  5.25D-01
                    CP:  1.84D-01
 E= -3007.37123875543     Delta-E=       -0.001730658541 Rises=F Damp=F
 DIIS: error= 5.12D-04 at cycle  12 NSaved=  12.
 NSaved=12 IEnMin=12 EnMin= -3007.37123875543     IErMin=12 ErrMin= 5.12D-04
 ErrMax= 5.12D-04  0.00D+00 EMaxC= 1.00D-01 BMatC= 3.79D-04 BMatP= 1.77D-03
 IDIUse=3 WtCom= 9.95D-01 WtEn= 5.12D-03
 Coeff-Com: -0.739D-02 0.112D-01 0.635D-03-0.541D-03-0.157D-02 0.780D-02
 Coeff-Com: -0.983D-02 0.157D-04 0.147D+00 0.247D+00 0.317D+00 0.289D+00
 Coeff-En:   0.000D+00 0.000D+00 0.000D+00 0.000D+00 0.000D+00 0.000D+00
 Coeff-En:   0.000D+00 0.000D+00 0.000D+00 0.000D+00 0.249D+00 0.751D+00
 Coeff:     -0.735D-02 0.111D-01 0.631D-03-0.538D-03-0.156D-02 0.776D-02
 Coeff:     -0.978D-02 0.157D-04 0.146D+00 0.246D+00 0.316D+00 0.292D+00
 Gap=     0.043 Goal=   None    Shift=    0.000
 RMSDP=3.40D-05 MaxDP=3.05D-03 DE=-1.73D-03 OVMax= 2.55D-02

 Cycle  13  Pass 1  IDiag  1:
 RMSU=  1.43D-05    CP:  9.79D-01  1.14D+00  1.74D-01  1.28D-01  1.54D-01
                    CP:  5.60D-01  4.54D-01  5.50D-01  5.41D-01  5.16D-01
                    CP:  4.73D-01  1.84D-01
 E= -3007.37166444280     Delta-E=       -0.000425687376 Rises=F Damp=F
 DIIS: error= 1.86D-04 at cycle  13 NSaved=  13.
 NSaved=13 IEnMin=13 EnMin= -3007.37166444280     IErMin=13 ErrMin= 1.86D-04
 ErrMax= 1.86D-04  0.00D+00 EMaxC= 1.00D-01 BMatC= 9.05D-05 BMatP= 3.79D-04
 IDIUse=3 WtCom= 9.98D-01 WtEn= 1.86D-03
 Coeff-Com: -0.621D-02 0.989D-02 0.196D-03-0.836D-03-0.168D-03 0.369D-02
 Coeff-Com: -0.664D-02-0.551D-02 0.841D-01 0.142D+00 0.210D+00 0.267D+00
 Coeff-Com:  0.302D+00
 Coeff-En:   0.000D+00 0.000D+00 0.000D+00 0.000D+00 0.000D+00 0.000D+00
 Coeff-En:   0.000D+00 0.000D+00 0.000D+00 0.000D+00 0.000D+00 0.253D+00
 Coeff-En:   0.747D+00
 Coeff:     -0.620D-02 0.987D-02 0.195D-03-0.834D-03-0.168D-03 0.368D-02
 Coeff:     -0.663D-02-0.550D-02 0.839D-01 0.142D+00 0.210D+00 0.267D+00
 Coeff:      0.303D+00
 Gap=     0.044 Goal=   None    Shift=    0.000
 RMSDP=1.50D-05 MaxDP=1.53D-03 DE=-4.26D-04 OVMax= 1.30D-02

 Cycle  14  Pass 1  IDiag  1:
 RMSU=  5.44D-06    CP:  9.79D-01  1.14D+00  1.75D-01  1.26D-01  1.56D-01
                    CP:  5.56D-01  4.56D-01  5.51D-01  5.48D-01  4.95D-01
                    CP:  4.14D-01  4.43D-01  3.37D-01
 E= -3007.37178993657     Delta-E=       -0.000125493767 Rises=F Damp=F
 DIIS: error= 5.13D-05 at cycle  14 NSaved=  14.
 NSaved=14 IEnMin=14 EnMin= -3007.37178993657     IErMin=14 ErrMin= 5.13D-05
 ErrMax= 5.13D-05  0.00D+00 EMaxC= 1.00D-01 BMatC= 9.18D-06 BMatP= 9.05D-05
 IDIUse=1 WtCom= 1.00D+00 WtEn= 0.00D+00
 Coeff-Com: -0.299D-02 0.508D-02-0.190D-03-0.200D-03 0.343D-04 0.130D-02
 Coeff-Com: -0.256D-02-0.244D-02 0.375D-01 0.583D-01 0.969D-01 0.143D+00
 Coeff-Com:  0.229D+00 0.438D+00
 Coeff:     -0.299D-02 0.508D-02-0.190D-03-0.200D-03 0.343D-04 0.130D-02
 Coeff:     -0.256D-02-0.244D-02 0.375D-01 0.583D-01 0.969D-01 0.143D+00
 Coeff:      0.229D+00 0.438D+00
 Gap=     0.044 Goal=   None    Shift=    0.000
 RMSDP=4.31D-06 MaxDP=4.85D-04 DE=-1.25D-04 OVMax= 2.68D-03

 Cycle  15  Pass 1  IDiag  1:
 RMSU=  2.04D-06    CP:  9.79D-01  1.14D+00  1.75D-01  1.27D-01  1.56D-01
                    CP:  5.56D-01  4.57D-01  5.51D-01  5.49D-01  4.99D-01
                    CP:  4.19D-01  3.97D-01  4.45D-01  4.73D-01
 E= -3007.37179973547     Delta-E=       -0.000009798901 Rises=F Damp=F
 DIIS: error= 3.23D-05 at cycle  15 NSaved=  15.
 NSaved=15 IEnMin=15 EnMin= -3007.37179973547     IErMin=15 ErrMin= 3.23D-05
 ErrMax= 3.23D-05  0.00D+00 EMaxC= 1.00D-01 BMatC= 2.31D-06 BMatP= 9.18D-06
 IDIUse=1 WtCom= 1.00D+00 WtEn= 0.00D+00
 Coeff-Com: -0.155D-02 0.280D-02-0.251D-03 0.124D-04 0.301D-04 0.555D-03
 Coeff-Com: -0.927D-03-0.890D-03 0.182D-01 0.254D-01 0.459D-01 0.745D-01
 Coeff-Com:  0.134D+00 0.347D+00 0.356D+00
 Coeff:     -0.155D-02 0.280D-02-0.251D-03 0.124D-04 0.301D-04 0.555D-03
 Coeff:     -0.927D-03-0.890D-03 0.182D-01 0.254D-01 0.459D-01 0.745D-01
 Coeff:      0.134D+00 0.347D+00 0.356D+00
 Gap=     0.044 Goal=   None    Shift=    0.000
 RMSDP=1.83D-06 MaxDP=1.80D-04 DE=-9.80D-06 OVMax= 8.17D-04

 Cycle  16  Pass 1  IDiag  1:
 RMSU=  9.22D-07    CP:  9.79D-01  1.14D+00  1.75D-01  1.27D-01  1.56D-01
                    CP:  5.55D-01  4.57D-01  5.52D-01  5.48D-01  4.96D-01
                    CP:  4.21D-01  3.94D-01  4.27D-01  5.77D-01  4.23D-01
 E= -3007.37180177684     Delta-E=       -0.000002041366 Rises=F Damp=F
 DIIS: error= 2.05D-05 at cycle  16 NSaved=  16.
 NSaved=16 IEnMin=16 EnMin= -3007.37180177684     IErMin=16 ErrMin= 2.05D-05
 ErrMax= 2.05D-05  0.00D+00 EMaxC= 1.00D-01 BMatC= 4.87D-07 BMatP= 2.31D-06
 IDIUse=1 WtCom= 1.00D+00 WtEn= 0.00D+00
 Coeff-Com: -0.770D-03 0.142D-02-0.210D-03 0.104D-03 0.118D-04 0.259D-03
 Coeff-Com: -0.199D-03-0.494D-03 0.646D-02 0.793D-02 0.142D-01 0.275D-01
 Coeff-Com:  0.449D-01 0.132D+00 0.218D+00 0.548D+00
 Coeff:     -0.770D-03 0.142D-02-0.210D-03 0.104D-03 0.118D-04 0.259D-03
 Coeff:     -0.199D-03-0.494D-03 0.646D-02 0.793D-02 0.142D-01 0.275D-01
 Coeff:      0.449D-01 0.132D+00 0.218D+00 0.548D+00
 Gap=     0.044 Goal=   None    Shift=    0.000
 RMSDP=7.90D-07 MaxDP=7.58D-05 DE=-2.04D-06 OVMax= 3.30D-04

 Cycle  17  Pass 1  IDiag  1:
 RMSU=  5.80D-07    CP:  9.79D-01  1.14D+00  1.75D-01  1.27D-01  1.56D-01
                    CP:  5.56D-01  4.57D-01  5.52D-01  5.48D-01  4.97D-01
                    CP:  4.19D-01  3.99D-01  4.37D-01  5.57D-01  5.39D-01
                    CP:  7.43D-01
 E= -3007.37180219048     Delta-E=       -0.000000413644 Rises=F Damp=F
 DIIS: error= 1.77D-05 at cycle  17 NSaved=  17.
 NSaved=17 IEnMin=17 EnMin= -3007.37180219048     IErMin=17 ErrMin= 1.77D-05
 ErrMax= 1.77D-05  0.00D+00 EMaxC= 1.00D-01 BMatC= 2.28D-07 BMatP= 4.87D-07
 IDIUse=1 WtCom= 1.00D+00 WtEn= 0.00D+00
 Coeff-Com: -0.303D-03 0.606D-03-0.994D-04 0.572D-04-0.425D-05 0.599D-04
 Coeff-Com:  0.152D-03-0.433D-03-0.150D-02-0.287D-02-0.676D-02-0.704D-02
 Coeff-Com: -0.222D-01-0.637D-01-0.222D-01 0.448D+00 0.678D+00
 Coeff:     -0.303D-03 0.606D-03-0.994D-04 0.572D-04-0.425D-05 0.599D-04
 Coeff:      0.152D-03-0.433D-03-0.150D-02-0.287D-02-0.676D-02-0.704D-02
 Coeff:     -0.222D-01-0.637D-01-0.222D-01 0.448D+00 0.678D+00
 Gap=     0.044 Goal=   None    Shift=    0.000
 RMSDP=5.48D-07 MaxDP=8.01D-05 DE=-4.14D-07 OVMax= 1.52D-04

 Cycle  18  Pass 1  IDiag  1:
 RMSU=  4.09D-07    CP:  9.79D-01  1.14D+00  1.75D-01  1.27D-01  1.56D-01
                    CP:  5.56D-01  4.57D-01  5.52D-01  5.48D-01  4.96D-01
                    CP:  4.20D-01  4.01D-01  4.41D-01  5.66D-01  5.30D-01
                    CP:  1.04D+00  8.55D-01
 E= -3007.37180235449     Delta-E=       -0.000000164006 Rises=F Damp=F
 DIIS: error= 6.38D-06 at cycle  18 NSaved=  18.
 NSaved=18 IEnMin=18 EnMin= -3007.37180235449     IErMin=18 ErrMin= 6.38D-06
 ErrMax= 6.38D-06  0.00D+00 EMaxC= 1.00D-01 BMatC= 6.80D-08 BMatP= 2.28D-07
 IDIUse=1 WtCom= 1.00D+00 WtEn= 0.00D+00
 Coeff-Com: -0.134D-03 0.294D-03-0.275D-04 0.845D-05 0.183D-06-0.599D-05
 Coeff-Com:  0.149D-03-0.307D-03-0.240D-02-0.362D-02-0.835D-02-0.122D-01
 Coeff-Com: -0.292D-01-0.923D-01-0.963D-01 0.163D+00 0.529D+00 0.552D+00
 Coeff:     -0.134D-03 0.294D-03-0.275D-04 0.845D-05 0.183D-06-0.599D-05
 Coeff:      0.149D-03-0.307D-03-0.240D-02-0.362D-02-0.835D-02-0.122D-01
 Coeff:     -0.292D-01-0.923D-01-0.963D-01 0.163D+00 0.529D+00 0.552D+00
 Gap=     0.044 Goal=   None    Shift=    0.000
 RMSDP=3.11D-07 MaxDP=2.89D-05 DE=-1.64D-07 OVMax= 1.12D-04

 Cycle  19  Pass 1  IDiag  1:
 RMSU=  1.64D-07    CP:  9.79D-01  1.14D+00  1.75D-01  1.27D-01  1.56D-01
                    CP:  5.56D-01  4.57D-01  5.52D-01  5.48D-01  4.97D-01
                    CP:  4.19D-01  4.01D-01  4.43D-01  5.65D-01  5.46D-01
                    CP:  1.13D+00  1.10D+00  6.01D-01
 E= -3007.37180241436     Delta-E=       -0.000000059872 Rises=F Damp=F
 DIIS: error= 3.08D-06 at cycle  19 NSaved=  19.
 NSaved=19 IEnMin=19 EnMin= -3007.37180241436     IErMin=19 ErrMin= 3.08D-06
 ErrMax= 3.08D-06  0.00D+00 EMaxC= 1.00D-01 BMatC= 1.60D-08 BMatP= 6.80D-08
 IDIUse=1 WtCom= 1.00D+00 WtEn= 0.00D+00
 Coeff-Com: -0.698D-04 0.157D-03-0.501D-05-0.446D-05 0.147D-05-0.110D-04
 Coeff-Com:  0.710D-04-0.120D-03-0.986D-03-0.146D-02-0.394D-02-0.683D-02
 Coeff-Com: -0.160D-01-0.546D-01-0.675D-01 0.219D-01 0.235D+00 0.413D+00
 Coeff-Com:  0.482D+00
 Coeff:     -0.698D-04 0.157D-03-0.501D-05-0.446D-05 0.147D-05-0.110D-04
 Coeff:      0.710D-04-0.120D-03-0.986D-03-0.146D-02-0.394D-02-0.683D-02
 Coeff:     -0.160D-01-0.546D-01-0.675D-01 0.219D-01 0.235D+00 0.413D+00
 Coeff:      0.482D+00
 Gap=     0.044 Goal=   None    Shift=    0.000
 RMSDP=1.33D-07 MaxDP=1.28D-05 DE=-5.99D-08 OVMax= 3.41D-05

 Cycle  20  Pass 1  IDiag  1:
 RMSU=  7.13D-08    CP:  9.79D-01  1.14D+00  1.75D-01  1.27D-01  1.56D-01
                    CP:  5.56D-01  4.57D-01  5.52D-01  5.48D-01  4.97D-01
                    CP:  4.19D-01  4.01D-01  4.43D-01  5.64D-01  5.46D-01
                    CP:  1.18D+00  1.11D+00  7.10D-01  5.79D-01
 E= -3007.37180242871     Delta-E=       -0.000000014350 Rises=F Damp=F
 DIIS: error= 1.44D-06 at cycle  20 NSaved=  20.
 NSaved=20 IEnMin=20 EnMin= -3007.37180242871     IErMin=20 ErrMin= 1.44D-06
 ErrMax= 1.44D-06  0.00D+00 EMaxC= 1.00D-01 BMatC= 2.85D-09 BMatP= 1.60D-08
 IDIUse=1 WtCom= 1.00D+00 WtEn= 0.00D+00
 Coeff-Com: -0.187D-04 0.489D-04-0.509D-06-0.241D-05-0.768D-07-0.119D-04
 Coeff-Com:  0.351D-04-0.102D-04-0.300D-03-0.454D-03-0.158D-02-0.333D-02
 Coeff-Com: -0.760D-02-0.271D-01-0.361D-01-0.165D-01 0.774D-01 0.213D+00
 Coeff-Com:  0.350D+00 0.453D+00
 Coeff:     -0.187D-04 0.489D-04-0.509D-06-0.241D-05-0.768D-07-0.119D-04
 Coeff:      0.351D-04-0.102D-04-0.300D-03-0.454D-03-0.158D-02-0.333D-02
 Coeff:     -0.760D-02-0.271D-01-0.361D-01-0.165D-01 0.774D-01 0.213D+00
 Coeff:      0.350D+00 0.453D+00
 Gap=     0.044 Goal=   None    Shift=    0.000
 RMSDP=6.66D-08 MaxDP=1.13D-05 DE=-1.44D-08 OVMax= 1.57D-05

 Cycle  21  Pass 1  IDiag  1:
 Restarting incremental Fock formation.
 E= -3007.37180243168     Delta-E=       -0.000000002976 Rises=F Damp=F
 DIIS: error= 6.37D-07 at cycle  21 NSaved=  20.
 NSaved=20 IEnMin=20 EnMin= -3007.37180243168     IErMin=20 ErrMin= 6.37D-07
 ErrMax= 6.37D-07  0.00D+00 EMaxC= 1.00D-01 BMatC= 4.36D-10 BMatP= 2.85D-09
 IDIUse=1 WtCom= 1.00D+00 WtEn= 0.00D+00
 Coeff-Com: -0.148D-05 0.857D-05-0.292D-06 0.159D-06-0.714D-05 0.150D-04
 Coeff-Com:  0.175D-04-0.231D-04-0.424D-04-0.473D-03-0.137D-02-0.314D-02
 Coeff-Com: -0.119D-01-0.168D-01-0.185D-01 0.174D-01 0.948D-01 0.188D+00
 Coeff-Com:  0.342D+00 0.409D+00
 Coeff:     -0.148D-05 0.857D-05-0.292D-06 0.159D-06-0.714D-05 0.150D-04
 Coeff:      0.175D-04-0.231D-04-0.424D-04-0.473D-03-0.137D-02-0.314D-02
 Coeff:     -0.119D-01-0.168D-01-0.185D-01 0.174D-01 0.948D-01 0.188D+00
 Coeff:      0.342D+00 0.409D+00
 Gap=     0.044 Goal=   None    Shift=    0.000
 RMSDP=2.29D-08 MaxDP=2.74D-06 DE=-2.98D-09 OVMax= 6.76D-06

 Cycle  22  Pass 1  IDiag  1:
 RMSU=  2.29D-08    CP:  1.00D+00
 E= -3007.37180243205     Delta-E=       -0.000000000367 Rises=F Damp=F
 DIIS: error= 2.14D-07 at cycle  22 NSaved=  20.
 NSaved=20 IEnMin=20 EnMin= -3007.37180243205     IErMin=20 ErrMin= 2.14D-07
 ErrMax= 2.14D-07  0.00D+00 EMaxC= 1.00D-01 BMatC= 2.72D-11 BMatP= 4.36D-10
 IDIUse=1 WtCom= 1.00D+00 WtEn= 0.00D+00
 Coeff-Com:  0.293D-06 0.260D-05 0.383D-07-0.362D-05 0.731D-05 0.130D-04
 Coeff-Com:  0.112D-04 0.113D-04-0.189D-03-0.636D-03-0.149D-02-0.580D-02
 Coeff-Com: -0.826D-02-0.104D-01 0.570D-02 0.448D-01 0.932D-01 0.180D+00
 Coeff-Com:  0.267D+00 0.436D+00
 Coeff:      0.293D-06 0.260D-05 0.383D-07-0.362D-05 0.731D-05 0.130D-04
 Coeff:      0.112D-04 0.113D-04-0.189D-03-0.636D-03-0.149D-02-0.580D-02
 Coeff:     -0.826D-02-0.104D-01 0.570D-02 0.448D-01 0.932D-01 0.180D+00
 Coeff:      0.267D+00 0.436D+00
 Gap=     0.044 Goal=   None    Shift=    0.000
 RMSDP=6.75D-09 MaxDP=1.81D-06 DE=-3.67D-10 OVMax= 1.45D-06

 Cycle  23  Pass 1  IDiag  1:
 RMSU=  6.72D-09    CP:  1.00D+00  1.01D+00
 E= -3007.37180243188     Delta-E=        0.000000000169 Rises=F Damp=F
 DIIS: error= 9.72D-08 at cycle  23 NSaved=  20.
 NSaved=20 IEnMin=19 EnMin= -3007.37180243205     IErMin=20 ErrMin= 9.72D-08
 ErrMax= 9.72D-08  0.00D+00 EMaxC= 1.00D-01 BMatC= 6.38D-12 BMatP= 2.72D-11
 IDIUse=1 WtCom= 1.00D+00 WtEn= 0.00D+00
 Coeff-Com:  0.919D-06-0.298D-06-0.161D-05 0.273D-05 0.713D-05 0.142D-04
 Coeff-Com:  0.183D-04-0.467D-04-0.206D-03-0.495D-03-0.202D-02-0.292D-02
 Coeff-Com: -0.445D-02 0.288D-03 0.146D-01 0.327D-01 0.687D-01 0.124D+00
 Coeff-Com:  0.341D+00 0.429D+00
 Coeff:      0.919D-06-0.298D-06-0.161D-05 0.273D-05 0.713D-05 0.142D-04
 Coeff:      0.183D-04-0.467D-04-0.206D-03-0.495D-03-0.202D-02-0.292D-02
 Coeff:     -0.445D-02 0.288D-03 0.146D-01 0.327D-01 0.687D-01 0.124D+00
 Coeff:      0.341D+00 0.429D+00
 Gap=     0.044 Goal=   None    Shift=    0.000
 RMSDP=3.02D-09 MaxDP=3.02D-07 DE= 1.69D-10 OVMax= 6.35D-07

 SCF Done:  E(RB-LYP) =  -3007.37180243     A.U. after   23 cycles
            NFock= 23  Conv=0.30D-08     -V/T= 2.0099
 KE= 2.977815754486D+03 PE=-2.563720540773D+04 EE= 1.033136011370D+04
 Leave Link  502 at Fri Apr 29 16:19:27 2022, MaxMem= 10066329600 cpu:            5821.1 elap:             243.5
 (Enter /sw/apps/gaussian-16.0/g16/l801.exe)
 DoSCS=F DFT=T ScalE2(SS,OS)=  1.000000  1.000000
 ExpMin= 3.36D-02 ExpMax= 4.95D+03 ExpMxC= 7.45D+02 IAcc=3 IRadAn=         5 AccDes= 0.00D+00
 HarFok:  IExCor=  205 AccDes= 0.00D+00 IRadAn=         5 IDoV=-2 UseB2=F ITyADJ=14
 ICtDFT= 12500011 ScaDFX=  1.000000  1.000000  1.000000  1.000000
 GSVD:  LWork=       -5460 too small for GESVD, short by       25550 words or       25550 for optimal perf.
 Largest valence mixing into a core orbital is  1.76D-04
 Largest core mixing into a valence orbital is  6.45D-05
 Range of M.O.s used for correlation:    71  1298
 NBasis=  1298 NAE=   246 NBE=   246 NFC=    70 NFV=     0
 NROrb=   1228 NOA=   176 NOB=   176 NVA=  1052 NVB=  1052

 **** Warning!!: The smallest alpha delta epsilon is  0.43614340D-01

 Leave Link  801 at Fri Apr 29 16:19:27 2022, MaxMem= 10066329600 cpu:               7.5 elap:               0.3
 (Enter /sw/apps/gaussian-16.0/g16/l914.exe)
 RHF ground state
 Two-electron integrals replicated using symmetry.
 MDV= 10066329600 DFT=T DoStab=F Mixed=F DoRPA=T DoScal=T NonHer=F
 Making orbital integer symmetry assigments:
 Orbital symmetries:
       Occupied  (A) (A) (A) (A) (A) (A) (A) (A) (A) (A) (A) (A)
                 (A) (A) (A) (A) (A) (A) (A) (A) (A) (A) (A) (A)
                 (A) (A) (A) (A) (A) (A) (A) (A) (A) (A) (A) (A)
                 (A) (A) (A) (A) (A) (A) (A) (A) (A) (A) (A) (A)
                 (A) (A) (A) (A) (A) (A) (A) (A) (A) (A) (A) (A)
                 (A) (A) (A) (A) (A) (A) (A) (A) (A) (A) (A) (A)
                 (A) (A) (A) (A) (A) (A) (A) (A) (A) (A) (A) (A)
                 (A) (A) (A) (A) (A) (A) (A) (A) (A) (A) (A) (A)
                 (A) (A) (A) (A) (A) (A) (A) (A) (A) (A) (A) (A)
                 (A) (A) (A) (A) (A) (A) (A) (A) (A) (A) (A) (A)
                 (A) (A) (A) (A) (A) (A) (A) (A) (A) (A) (A) (A)
                 (A) (A) (A) (A) (A) (A) (A) (A) (A) (A) (A) (A)
                 (A) (A) (A) (A) (A) (A) (A) (A) (A) (A) (A) (A)
                 (A) (A) (A) (A) (A) (A) (A) (A) (A) (A) (A) (A)
                 (A) (A) (A) (A) (A) (A) (A) (A) (A) (A) (A) (A)
                 (A) (A) (A) (A) (A) (A) (A) (A) (A) (A) (A) (A)
                 (A) (A) (A) (A) (A) (A) (A) (A) (A) (A) (A) (A)
                 (A) (A) (A) (A) (A) (A) (A) (A) (A) (A) (A) (A)
                 (A) (A) (A) (A) (A) (A) (A) (A) (A) (A) (A) (A)
                 (A) (A) (A) (A) (A) (A) (A) (A) (A) (A) (A) (A)
                 (A) (A) (A) (A) (A) (A)
       Virtual   (A) (A) (A) (A) (A) (A) (A) (A) (A) (A) (A) (A)
                 (A) (A) (A) (A) (A) (A) (A) (A) (A) (A) (A) (A)
                 (A) (A) (A) (A) (A) (A) (A) (A) (A) (A) (A) (A)
                 (A) (A) (A) (A) (A) (A) (A) (A) (A) (A) (A) (A)
                 (A) (A) (A) (A) (A) (A) (A) (A) (A) (A) (A) (A)
                 (A) (A) (A) (A) (A) (A) (A) (A) (A) (A) (A) (A)
                 (A) (A) (A) (A) (A) (A) (A) (A) (A) (A) (A) (A)
                 (A) (A) (A) (A) (A) (A) (A) (A) (A) (A) (A) (A)
                 (A) (A) (A) (A) (A) (A) (A) (A) (A) (A) (A) (A)
                 (A) (A) (A) (A) (A) (A) (A) (A) (A) (A) (A) (A)
                 (A) (A) (A) (A) (A) (A) (A) (A) (A) (A) (A) (A)
                 (A) (A) (A) (A) (A) (A) (A) (A) (A) (A) (A) (A)
                 (A) (A) (A) (A) (A) (A) (A) (A) (A) (A) (A) (A)
                 (A) (A) (A) (A) (A) (A) (A) (A) (A) (A) (A) (A)
                 (A) (A) (A) (A) (A) (A) (A) (A) (A) (A) (A) (A)
                 (A) (A) (A) (A) (A) (A) (A) (A) (A) (A) (A) (A)
                 (A) (A) (A) (A) (A) (A) (A) (A) (A) (A) (A) (A)
                 (A) (A) (A) (A) (A) (A) (A) (A) (A) (A) (A) (A)
                 (A) (A) (A) (A) (A) (A) (A) (A) (A) (A) (A) (A)
                 (A) (A) (A) (A) (A) (A) (A) (A) (A) (A) (A) (A)
                 (A) (A) (A) (A) (A) (A) (A) (A) (A) (A) (A) (A)
                 (A) (A) (A) (A) (A) (A) (A) (A) (A) (A) (A) (A)
                 (A) (A) (A) (A) (A) (A) (A) (A) (A) (A) (A) (A)
                 (A) (A) (A) (A) (A) (A) (A) (A) (A) (A) (A) (A)
                 (A) (A) (A) (A) (A) (A) (A) (A) (A) (A) (A) (A)
                 (A) (A) (A) (A) (A) (A) (A) (A) (A) (A) (A) (A)
                 (A) (A) (A) (A) (A) (A) (A) (A) (A) (A) (A) (A)
                 (A) (A) (A) (A) (A) (A) (A) (A) (A) (A) (A) (A)
                 (A) (A) (A) (A) (A) (A) (A) (A) (A) (A) (A) (A)
                 (A) (A) (A) (A) (A) (A) (A) (A) (A) (A) (A) (A)
                 (A) (A) (A) (A) (A) (A) (A) (A) (A) (A) (A) (A)
                 (A) (A) (A) (A) (A) (A) (A) (A) (A) (A) (A) (A)
                 (A) (A) (A) (A) (A) (A) (A) (A) (A) (A) (A) (A)
                 (A) (A) (A) (A) (A) (A) (A) (A) (A) (A) (A) (A)
                 (A) (A) (A) (A) (A) (A) (A) (A) (A) (A) (A) (A)
                 (A) (A) (A) (A) (A) (A) (A) (A) (A) (A) (A) (A)
                 (A) (A) (A) (A) (A) (A) (A) (A) (A) (A) (A) (A)
                 (A) (A) (A) (A) (A) (A) (A) (A) (A) (A) (A) (A)
                 (A) (A) (A) (A) (A) (A) (A) (A) (A) (A) (A) (A)
                 (A) (A) (A) (A) (A) (A) (A) (A) (A) (A) (A) (A)
                 (A) (A) (A) (A) (A) (A) (A) (A) (A) (A) (A) (A)
                 (A) (A) (A) (A) (A) (A) (A) (A) (A) (A) (A) (A)
                 (A) (A) (A) (A) (A) (A) (A) (A) (A) (A) (A) (A)
                 (A) (A) (A) (A) (A) (A) (A) (A) (A) (A) (A) (A)
                 (A) (A) (A) (A) (A) (A) (A) (A) (A) (A) (A) (A)
                 (A) (A) (A) (A) (A) (A) (A) (A) (A) (A) (A) (A)
                 (A) (A) (A) (A) (A) (A) (A) (A) (A) (A) (A) (A)
                 (A) (A) (A) (A) (A) (A) (A) (A) (A) (A) (A) (A)
                 (A) (A) (A) (A) (A) (A) (A) (A) (A) (A) (A) (A)
                 (A) (A) (A) (A) (A) (A) (A) (A) (A) (A) (A) (A)
                 (A) (A) (A) (A) (A) (A) (A) (A) (A) (A) (A) (A)
                 (A) (A) (A) (A) (A) (A) (A) (A) (A) (A) (A) (A)
                 (A) (A) (A) (A) (A) (A) (A) (A) (A) (A) (A) (A)
                 (A) (A) (A) (A) (A) (A) (A) (A) (A) (A) (A) (A)
                 (A) (A) (A) (A) (A) (A) (A) (A) (A) (A) (A) (A)
                 (A) (A) (A) (A) (A) (A) (A) (A) (A) (A) (A) (A)
                 (A) (A) (A) (A) (A) (A) (A) (A) (A) (A) (A) (A)
                 (A) (A) (A) (A) (A) (A) (A) (A) (A) (A) (A) (A)
                 (A) (A) (A) (A) (A) (A) (A) (A) (A) (A) (A) (A)
                 (A) (A) (A) (A) (A) (A) (A) (A) (A) (A) (A) (A)
                 (A) (A) (A) (A) (A) (A) (A) (A) (A) (A) (A) (A)
                 (A) (A) (A) (A) (A) (A) (A) (A) (A) (A) (A) (A)
                 (A) (A) (A) (A) (A) (A) (A) (A) (A) (A) (A) (A)
                 (A) (A) (A) (A) (A) (A) (A) (A) (A) (A) (A) (A)
                 (A) (A) (A) (A) (A) (A) (A) (A) (A) (A) (A) (A)
                 (A) (A) (A) (A) (A) (A) (A) (A) (A) (A) (A) (A)
                 (A) (A) (A) (A) (A) (A) (A) (A) (A) (A) (A) (A)
                 (A) (A) (A) (A) (A) (A) (A) (A) (A) (A) (A) (A)
                 (A) (A) (A) (A) (A) (A) (A) (A) (A) (A) (A) (A)
                 (A) (A) (A) (A) (A) (A) (A) (A) (A) (A) (A) (A)
                 (A) (A) (A) (A) (A) (A) (A) (A) (A) (A) (A) (A)
                 (A) (A) (A) (A) (A) (A) (A) (A) (A) (A) (A) (A)
                 (A) (A) (A) (A) (A) (A) (A) (A) (A) (A) (A) (A)
                 (A) (A) (A) (A) (A) (A) (A) (A) (A) (A) (A) (A)
                 (A) (A) (A) (A) (A) (A) (A) (A) (A) (A) (A) (A)
                 (A) (A) (A) (A) (A) (A) (A) (A) (A) (A) (A) (A)
                 (A) (A) (A) (A) (A) (A) (A) (A) (A) (A) (A) (A)
                 (A) (A) (A) (A) (A) (A) (A) (A) (A) (A) (A) (A)
                 (A) (A) (A) (A) (A) (A) (A) (A) (A) (A) (A) (A)
                 (A) (A) (A) (A) (A) (A) (A) (A) (A) (A) (A) (A)
                 (A) (A) (A) (A) (A) (A) (A) (A) (A) (A) (A) (A)
                 (A) (A) (A) (A) (A) (A) (A) (A) (A) (A) (A) (A)
                 (A) (A) (A) (A) (A) (A) (A) (A) (A) (A) (A) (A)
                 (A) (A) (A) (A) (A) (A) (A) (A) (A) (A) (A) (A)
                 (A) (A) (A) (A) (A) (A) (A) (A) (A) (A) (A) (A)
                 (A) (A) (A) (A) (A) (A) (A) (A) (A) (A) (A) (A)
                 (A) (A) (A) (A) (A) (A) (A) (A) (A) (A) (A) (A)
                 (A) (A) (A) (A) (A) (A) (A) (A)
    20 initial guesses have been made.
 Convergence on wavefunction:    0.001000000000000
 Davidson Disk Diagonalization:  ConvIn= 1.00D-03 SkipCon=T Conv= 1.00D-03.
 Max sub-space:  2000 roots to seek:    20 dimension of matrix:       370304
 Iteration     1 Dimension    20 NMult     0 NNew     20
 CISAX will form    20 AO SS matrices at one time.
 NMat=    20 NSing=    20 JSym2X= 0.
 FoFJK:  IHMeth= 1 ICntrl=     500 DoSepK=F KAlg= 0 I1Cent=           0 FoldK=F
 IRaf= 490000000 NMat=      20 IRICut=       1 DoRegI=T DoRafI=F ISym2E= 0 IDoP0=0 IntGTp=1.
 FoFCou: FMM=T IPFlag=           0 FMFlag=      100000 FMFlg1=        2001
         NFxFlg=           0 DoJE=F BraDBF=F KetDBF=F FulRan=T
         wScrn=  0.000000 ICntrl=       500 IOpCl=  0 I1Cent=           0 NGrid=           0
         NMat0=   20 NMatS0=     20 NMatT0=    0 NMatD0=   20 NMtDS0=    0 NMtDT0=    0
 Symmetry not used in FoFCou.
 FMM levels:  10  Number of levels for PrismC:   9
 New state      1 was old state      3
 New state      2 was old state      4
 New state      3 was old state      1
 New state      4 was old state      2
 New state      5 was old state      7
 Excitation Energies [eV] at current iteration:
 Root      1 :     1.801101932386046
 Root      2 :     2.014323966363424
 Root      3 :     2.127826989994333
 Root      4 :     2.295208018267625
 Root      5 :     2.401954738514097
 Root      6 :     2.729962238170974
 Root      7 :     2.882970086504451
 Root      8 :     2.934951472988103
 Root      9 :     2.974123035675270
 Root     10 :     2.992611277061413
 Root     11 :     3.021706116217677
 Root     12 :     3.142733674981970
 Root     13 :     3.219397307047797
 Root     14 :     3.262936285305831
 Root     15 :     3.267631107267456
 Root     16 :     3.493355447206311
 Root     17 :     3.958946302070284
 Root     18 :     4.040697059292287
 Root     19 :     4.263671174430268
 Root     20 :     4.393458330277593
 Iteration     2 Dimension    40 NMult    20 NNew     20
 CISAX will form    20 AO SS matrices at one time.
 NMat=    20 NSing=    20 JSym2X= 0.
 Root      1 not converged, maximum delta is    0.110249209088955
 New state      2 was old state      3
 Root      2 not converged, maximum delta is    0.317268125580185
 New state      3 was old state      2
 Root      3 not converged, maximum delta is    0.272443551018724
 Root      4 not converged, maximum delta is    0.214773326108381
 Root      5 not converged, maximum delta is    0.043224490569718
 Excitation Energies [eV] at current iteration:
 Root      1 :     1.778713047229084   Change is   -0.022388885156962
 Root      2 :     1.888126744399952   Change is   -0.239700245594382
 Root      3 :     2.014347987971132   Change is    0.000024021607708
 Root      4 :     2.057286586206589   Change is   -0.237921432061036
 Root      5 :     2.400184007328180   Change is   -0.001770731185918
 Root      6 :     2.485366242128006   Change is   -0.244595996042967
 Root      7 :     2.647620205929945   Change is   -0.344991071131468
 Root      8 :     2.868212306764201   Change is   -0.105910728911069
 Root      9 :     2.887881208804783   Change is    0.004911122300332
 Root     10 :     2.917850282703569   Change is   -0.017101190284535
 Root     11 :     2.965136107870225   Change is   -0.177597567111745
 Root     12 :     3.021221588817963   Change is   -0.000484527399714
 Root     13 :     3.163670229674330   Change is   -0.103960877593126
 Root     14 :     3.172009148920828   Change is   -0.047388158126969
 Root     15 :     3.222959653119859   Change is   -0.270395794086452
 Root     16 :     3.263195620283230   Change is    0.000259334977399
 Root     17 :     3.512632971287695   Change is   -0.528064088004593
 Root     18 :     3.642142560051518   Change is   -0.316803742018766
 Root     19 :     3.929063378137841   Change is   -0.334607796292426
 Root     20 :     3.969690536775682
 Iteration     3 Dimension    45 NMult    40 NNew      5
 CISAX will form     5 AO SS matrices at one time.
 NMat=     5 NSing=     5 JSym2X= 0.
 Root      1 not converged, maximum delta is    0.072751578691509
 Root      2 not converged, maximum delta is    0.061753979971373
 Root      3 not converged, maximum delta is    0.229402673128118
 Root      4 not converged, maximum delta is    0.288927166998176
 Root      5 not converged, maximum delta is    0.014328051750201
 Excitation Energies [eV] at current iteration:
 Root      1 :     1.769338254155051   Change is   -0.009374793074033
 Root      2 :     1.847682729404715   Change is   -0.040444014995236
 Root      3 :     1.997278718871855   Change is   -0.017069269099277
 Root      4 :     2.028440928958018   Change is   -0.028845657248571
 Root      5 :     2.399944844271044   Change is   -0.000239163057136
 Iteration     4 Dimension    50 NMult    45 NNew      5
 CISAX will form     5 AO SS matrices at one time.
 NMat=     5 NSing=     5 JSym2X= 0.
 Root      1 not converged, maximum delta is    0.038729442767850
 Root      2 not converged, maximum delta is    0.031491842363549
 Root      3 not converged, maximum delta is    0.127876739372174
 Root      4 not converged, maximum delta is    0.098911801289045
 Root      5 not converged, maximum delta is    0.009322451309388
 Excitation Energies [eV] at current iteration:
 Root      1 :     1.764358741114954   Change is   -0.004979513040096
 Root      2 :     1.832957496884607   Change is   -0.014725232520109
 Root      3 :     1.984261831893442   Change is   -0.013016886978413
 Root      4 :     2.022283290832258   Change is   -0.006157638125760
 Root      5 :     2.399813137599106   Change is   -0.000131706671938
 Iteration     5 Dimension    55 NMult    50 NNew      5
 CISAX will form     5 AO SS matrices at one time.
 NMat=     5 NSing=     5 JSym2X= 0.
 Root      1 not converged, maximum delta is    0.013402327742120
 Root      2 not converged, maximum delta is    0.012615778717817
 Root      3 not converged, maximum delta is    0.035239432243999
 Root      4 not converged, maximum delta is    0.027134508220563
 Root      5 not converged, maximum delta is    0.005219700292973
 Excitation Energies [eV] at current iteration:
 Root      1 :     1.762548175518190   Change is   -0.001810565596764
 Root      2 :     1.828271657537709   Change is   -0.004685839346897
 Root      3 :     1.978944277204095   Change is   -0.005317554689347
 Root      4 :     2.020549538237443   Change is   -0.001733752594815
 Root      5 :     2.399754272542426   Change is   -0.000058865056680
 Iteration     6 Dimension    60 NMult    55 NNew      5
 CISAX will form     5 AO SS matrices at one time.
 NMat=     5 NSing=     5 JSym2X= 0.
 Root      1 not converged, maximum delta is    0.006281045721778
 Root      2 not converged, maximum delta is    0.006178457783177
 Root      3 not converged, maximum delta is    0.014179364138444
 Root      4 not converged, maximum delta is    0.011132489566838
 Root      5 not converged, maximum delta is    0.002595097193020
 Excitation Energies [eV] at current iteration:
 Root      1 :     1.761649937999520   Change is   -0.000898237518671
 Root      2 :     1.826037859781805   Change is   -0.002233797755904
 Root      3 :     1.976444739376559   Change is   -0.002499537827536
 Root      4 :     2.019764814338939   Change is   -0.000784723898505
 Root      5 :     2.399728281635439   Change is   -0.000025990906988
 Iteration     7 Dimension    65 NMult    60 NNew      5
[...]
 Alpha virt. eigenvalues --    1.08840   1.09131   1.09557   1.10327   1.10458
 Alpha virt. eigenvalues --    1.10745   1.11063   1.11809   1.12548   1.13251
 Alpha virt. eigenvalues --    1.13506   1.13868   1.14496   1.14733   1.15764
 Alpha virt. eigenvalues --    1.15885   1.16220   1.16332   1.16620   1.16976
 Alpha virt. eigenvalues --    1.17473   1.17862   1.18201   1.18911   1.19278
 Alpha virt. eigenvalues --    1.19629   1.20285   1.20968   1.21369   1.21624
 Alpha virt. eigenvalues --    1.21683   1.22343   1.22597   1.22688   1.23346
 Alpha virt. eigenvalues --    1.23589   1.24429   1.24533   1.25070   1.25202
 Alpha virt. eigenvalues --    1.25499   1.26154   1.26217   1.26521   1.27208
 Alpha virt. eigenvalues --    1.28056   1.28412   1.28973   1.29052   1.29992
 Alpha virt. eigenvalues --    1.30510   1.30900   1.31435   1.31683   1.31943
 Alpha virt. eigenvalues --    1.32557   1.33612   1.33925   1.34256   1.34558
 Alpha virt. eigenvalues --    1.34691   1.35244   1.35487   1.35719   1.36136
 Alpha virt. eigenvalues --    1.36665   1.36845   1.37261   1.37624   1.37825
 Alpha virt. eigenvalues --    1.38118   1.38344   1.38969   1.39073   1.40127
 Alpha virt. eigenvalues --    1.40300   1.40482   1.40609   1.41033   1.41553
 Alpha virt. eigenvalues --    1.41769   1.42594   1.43084   1.43195   1.45052
 Alpha virt. eigenvalues --    1.45196   1.45357   1.45495   1.45580   1.46186
 Alpha virt. eigenvalues --    1.46494   1.46879   1.47203   1.47491   1.47948
 Alpha virt. eigenvalues --    1.48412   1.48622   1.48845   1.48882   1.49002
 Alpha virt. eigenvalues --    1.49158   1.49472   1.49718   1.50230   1.50475
 Alpha virt. eigenvalues --    1.50568   1.50847   1.51496   1.51579   1.51790
 Alpha virt. eigenvalues --    1.51816   1.52327   1.52410   1.52476   1.52959
 Alpha virt. eigenvalues --    1.52998   1.53381   1.53849   1.53906   1.54058
 Alpha virt. eigenvalues --    1.55395   1.55808   1.56348   1.56563   1.56890
 Alpha virt. eigenvalues --    1.57531   1.57823   1.58063   1.58490   1.58874
 Alpha virt. eigenvalues --    1.60205   1.60248   1.60411   1.60802   1.61446
 Alpha virt. eigenvalues --    1.61554   1.61974   1.62296   1.62850   1.62947
 Alpha virt. eigenvalues --    1.63300   1.63661   1.63924   1.63978   1.64770
 Alpha virt. eigenvalues --    1.64943   1.65147   1.65536   1.65997   1.66346
 Alpha virt. eigenvalues --    1.66474   1.66852   1.67014   1.67164   1.67488
 Alpha virt. eigenvalues --    1.67715   1.67799   1.68145   1.68182   1.68396
 Alpha virt. eigenvalues --    1.68616   1.68706   1.68905   1.69023   1.69317
 Alpha virt. eigenvalues --    1.69976   1.70081   1.70463   1.70716   1.70809
 Alpha virt. eigenvalues --    1.71146   1.71379   1.71557   1.71874   1.72112
 Alpha virt. eigenvalues --    1.72290   1.72382   1.72449   1.72802   1.73002
 Alpha virt. eigenvalues --    1.73436   1.73601   1.73659   1.74020   1.74040
 Alpha virt. eigenvalues --    1.74358   1.74660   1.74823   1.75062   1.75151
 Alpha virt. eigenvalues --    1.75289   1.75357   1.75440   1.75832   1.75932
 Alpha virt. eigenvalues --    1.76225   1.76262   1.76391   1.76585   1.76680
 Alpha virt. eigenvalues --    1.76864   1.77009   1.77071   1.77399   1.77481
 Alpha virt. eigenvalues --    1.77620   1.78232   1.78350   1.78663   1.78891
 Alpha virt. eigenvalues --    1.78972   1.79232   1.79278   1.79507   1.79679
 Alpha virt. eigenvalues --    1.80042   1.80181   1.80263   1.80660   1.80750
 Alpha virt. eigenvalues --    1.80997   1.81283   1.81432   1.81731   1.82231
 Alpha virt. eigenvalues --    1.82252   1.82470   1.82918   1.83113   1.83393
 Alpha virt. eigenvalues --    1.83517   1.83682   1.84189   1.84514   1.84658
 Alpha virt. eigenvalues --    1.84789   1.84958   1.85058   1.85232   1.85271
 Alpha virt. eigenvalues --    1.85557   1.85854   1.86250   1.86268   1.86988
 Alpha virt. eigenvalues --    1.87290   1.87448   1.88106   1.88275   1.88483
 Alpha virt. eigenvalues --    1.88734   1.88984   1.89143   1.89307   1.89515
 Alpha virt. eigenvalues --    1.89839   1.89952   1.90181   1.90694   1.90870
 Alpha virt. eigenvalues --    1.90994   1.91094   1.91174   1.91441   1.91725
 Alpha virt. eigenvalues --    1.91837   1.92755   1.93759   1.93919   1.94273
 Alpha virt. eigenvalues --    1.94624   1.94789   1.94899   1.95207   1.95326
 Alpha virt. eigenvalues --    1.95778   1.96239   1.96308   1.96446   1.97174
 Alpha virt. eigenvalues --    1.97237   1.97466   1.97996   1.98087   1.98342
 Alpha virt. eigenvalues --    1.99176   1.99273   1.99337   1.99584   2.00099
 Alpha virt. eigenvalues --    2.00588   2.00677   2.01024   2.01570   2.01800
 Alpha virt. eigenvalues --    2.01961   2.02158   2.02479   2.02912   2.03156
 Alpha virt. eigenvalues --    2.03448   2.03754   2.04046   2.04271   2.04284
 Alpha virt. eigenvalues --    2.04407   2.04828   2.05185   2.05569   2.05804
 Alpha virt. eigenvalues --    2.06155   2.06544   2.06761   2.07533   2.07804
 Alpha virt. eigenvalues --    2.08098   2.08616   2.08935   2.09751   2.10197
 Alpha virt. eigenvalues --    2.10309   2.10590   2.11490   2.11572   2.12104
 Alpha virt. eigenvalues --    2.12372   2.12443   2.12657   2.13188   2.13494
 Alpha virt. eigenvalues --    2.13570   2.14076   2.14898   2.15111   2.15393
 Alpha virt. eigenvalues --    2.15484   2.15788   2.16406   2.16579   2.16779
 Alpha virt. eigenvalues --    2.17169   2.17753   2.18699   2.18958   2.19616
 Alpha virt. eigenvalues --    2.20110   2.20652   2.20725   2.21432   2.21626
 Alpha virt. eigenvalues --    2.21699   2.22315   2.22715   2.23113   2.23476
 Alpha virt. eigenvalues --    2.23547   2.24439   2.24619   2.25005   2.25184
 Alpha virt. eigenvalues --    2.25771   2.25881   2.26172   2.26524   2.27208
 Alpha virt. eigenvalues --    2.27331   2.27939   2.28054   2.28796   2.29107
 Alpha virt. eigenvalues --    2.29293   2.29502   2.30443   2.30526   2.30794
 Alpha virt. eigenvalues --    2.31376   2.31530   2.31813   2.32121   2.32488
 Alpha virt. eigenvalues --    2.32671   2.33266   2.33679   2.34282   2.34714
 Alpha virt. eigenvalues --    2.34893   2.35102   2.35297   2.35744   2.35888
 Alpha virt. eigenvalues --    2.35970   2.36310   2.36647   2.37060   2.37592
 Alpha virt. eigenvalues --    2.38039   2.38256   2.38613   2.39073   2.39321
 Alpha virt. eigenvalues --    2.39671   2.39792   2.40082   2.40149   2.40988
 Alpha virt. eigenvalues --    2.41357   2.41796   2.41913   2.43239   2.43291
 Alpha virt. eigenvalues --    2.43756   2.44092   2.44468   2.44870   2.46277
 Alpha virt. eigenvalues --    2.46704   2.47224   2.47301   2.48176   2.48510
 Alpha virt. eigenvalues --    2.48743   2.48935   2.49812   2.50025   2.50608
 Alpha virt. eigenvalues --    2.50722   2.51635   2.51715   2.52050   2.52249
 Alpha virt. eigenvalues --    2.52623   2.52747   2.53223   2.53239   2.53373
 Alpha virt. eigenvalues --    2.53938   2.54820   2.55131   2.55250   2.55584
 Alpha virt. eigenvalues --    2.55907   2.55968   2.56128   2.56269   2.56783
 Alpha virt. eigenvalues --    2.57126   2.57440   2.58040   2.58337   2.58447
 Alpha virt. eigenvalues --    2.59006   2.59133   2.59172   2.60643   2.60809
 Alpha virt. eigenvalues --    2.61498   2.61588   2.62041   2.62090   2.62335
 Alpha virt. eigenvalues --    2.63311   2.63639   2.63692   2.64149   2.64858
 Alpha virt. eigenvalues --    2.65326   2.65695   2.65823   2.66710   2.67370
 Alpha virt. eigenvalues --    2.67572   2.67708   2.68179   2.68725   2.69122
 Alpha virt. eigenvalues --    2.69388   2.70077   2.70246   2.70532   2.71035
 Alpha virt. eigenvalues --    2.71363   2.71869   2.73397   2.74049   2.74523
 Alpha virt. eigenvalues --    2.74851   2.75308   2.75572   2.75898   2.76589
 Alpha virt. eigenvalues --    2.77745   2.77806   2.77904   2.78211   2.78890
 Alpha virt. eigenvalues --    2.79709   2.80113   2.80298   2.80304   2.81017
 Alpha virt. eigenvalues --    2.81233   2.82137   2.82374   2.82788   2.83175
 Alpha virt. eigenvalues --    2.84005   2.84171   2.84311   2.84667   2.84817
 Alpha virt. eigenvalues --    2.85138   2.85263   2.85496   2.85831   2.85889
 Alpha virt. eigenvalues --    2.86044   2.86323   2.86466   2.87099   2.87260
 Alpha virt. eigenvalues --    2.87578   2.87852   2.88237   2.88504   2.88566
 Alpha virt. eigenvalues --    2.88727   2.89144   2.90079   2.90357   2.90710
 Alpha virt. eigenvalues --    2.90750   2.90850   2.91035   2.91378   2.91488
 Alpha virt. eigenvalues --    2.91837   2.92117   2.92368   2.92763   2.93208
 Alpha virt. eigenvalues --    2.93491   2.93551   2.93906   2.94112   2.94377
 Alpha virt. eigenvalues --    2.94630   2.95248   2.95654   2.95780   2.96654
 Alpha virt. eigenvalues --    2.97300   2.97515   2.97961   2.98764   2.99264
 Alpha virt. eigenvalues --    2.99410   3.00783   3.01116   3.02355   3.02618
 Alpha virt. eigenvalues --    3.02684   3.05200   3.05484   3.05588   3.06095
 Alpha virt. eigenvalues --    3.06845   3.07306   3.07623   3.09476   3.10488
 Alpha virt. eigenvalues --    3.11173   3.11370   3.11416   3.11928   3.13712
 Alpha virt. eigenvalues --    3.18333   3.20679   3.25006   3.28257   3.30270
 Alpha virt. eigenvalues --    3.31050   3.32567   3.36492   3.39295   3.42459
 Alpha virt. eigenvalues --    3.44779   3.48716   3.49540   3.54023   3.54568
 Alpha virt. eigenvalues --    3.57437   3.57828
          Condensed to atoms (all electrons):
 Mulliken charges:
               1
     1  Mg   0.696835
     2  C    0.035561
     3  C   -0.042283
     4  C   -0.043598
     5  C   -0.061946
     6  N   -0.173593
     7  C   -0.109379
     8  C   -0.001872
     9  C   -0.021621
    10  C    0.029896
    11  C    0.125897
    12  C    0.163021
    13  C    0.091330
    14  C    0.058978
    15  O   -0.187633
    16  O   -0.263381
    17  N   -0.332587
    18  C    0.150486
    19  C   -0.128252
    20  C    0.025849
    21  C    0.112685
    22  C    0.165266
    23  C   -0.096868
    24  O   -0.152203
    25  C    0.144879
    26  N   -0.161455
    27  C   -0.014044
    28  C    0.051607
    29  C   -0.005005
    30  C    0.010890
    31  C    0.145804
    32  C    0.103328
    33  C    0.065372
    34  N   -0.314718
    35  C    0.126850
    36  C   -0.154871
    37  C    0.110857
    38  C    0.073983
    39  C    0.156590
    40  C   -0.051669
    41  O   -0.145264
    42  C    0.035691
    43  C    0.129129
    44  O   -0.195717
    45  O   -0.263308
    46  C    0.210088
    47  C    0.317193
    48  C   -0.137236
    49  C   -0.127687
    50  C    0.153348
    51  C    0.150166
    52  C    0.075762
    53  C    0.065271
    54  C   -0.114560
    55  C    0.119634
    56  C    0.127650
    57  C    0.098055
    58  C    0.103387
    59  C   -0.138825
    60  C    0.163401
    61  C    0.090478
    62  C    0.115763
    63  C    0.093908
    64  C   -0.086053
    65  C    0.070072
    66  C    0.105420
    67  H   -0.056989
    68  H   -0.030648
    69  H   -0.080014
    70  H   -0.021634
    71  H   -0.019948
    72  H    0.008497
    73  H    0.000051
    74  H   -0.022992
    75  H   -0.010043
    76  H   -0.009228
    77  H    0.014593
    78  H   -0.001544
    79  H   -0.005604
    80  H   -0.017877
    81  H    0.004112
    82  H   -0.007469
    83  H   -0.007378
    84  H   -0.002973
    85  H   -0.031348
    86  H   -0.025871
    87  H   -0.004826
    88  H   -0.010651
    89  H   -0.011777
    90  H   -0.012535
    91  H   -0.011660
    92  H   -0.003511
    93  H   -0.021358
    94  H   -0.009144
    95  H    0.001280
    96  H   -0.014135
    97  H    0.015909
    98  H    0.006048
    99  H    0.018088
   100  H    0.035581
   101  H    0.013880
   102  H    0.008718
   103  H   -0.026524
   104  H   -0.039908
   105  H   -0.006737
   106  H   -0.018247
   107  H    0.000485
   108  H   -0.035575
   109  H   -0.031052
   110  H   -0.012655
   111  H   -0.019890
   112  H   -0.040287
   113  H   -0.037195
   114  H   -0.042742
   115  H   -0.006970
   116  H   -0.022940
   117  H   -0.014224
   118  H   -0.031601
   119  H   -0.033691
   120  H   -0.028115
   121  H   -0.022616
   122  H   -0.042866
   123  H   -0.031758
   124  H   -0.047722
   125  H   -0.039720
   126  H   -0.030372
   127  H   -0.008572
   128  H   -0.031850
   129  H   -0.048408
   130  H   -0.037289
   131  H   -0.026440
   132  H   -0.033093
   133  H   -0.037385
   134  H   -0.032288
   135  H   -0.003654
   136  H   -0.002727
   137  H   -0.026213
   138  H   -0.031545
   139  H   -0.016732
   140  H   -0.021233
 Sum of Mulliken charges =  -0.00000
 Mulliken charges with hydrogens summed into heavy atoms:
               1
     1  Mg   0.696835
     2  C    0.035561
     3  C   -0.099272
     4  C   -0.074246
     5  C   -0.141961
     6  N   -0.173593
     7  C   -0.109379
     8  C   -0.023505
     9  C   -0.041569
    10  C    0.029896
    11  C    0.111453
    12  C    0.143751
    13  C    0.104379
    14  C    0.058978
    15  O   -0.187633
    16  O   -0.263381
    17  N   -0.332587
    18  C    0.150486
    19  C   -0.128252
    20  C    0.025849
    21  C    0.112685
    22  C    0.145896
    23  C   -0.096868
    24  O   -0.152203
    25  C    0.127060
    26  N   -0.161455
    27  C   -0.014044
    28  C    0.020259
    29  C   -0.030876
    30  C    0.010890
    31  C    0.118549
    32  C    0.079132
    33  C    0.031359
    34  N   -0.314718
    35  C    0.126850
    36  C   -0.154871
    37  C    0.110857
    38  C    0.073983
    39  C    0.159644
    40  C   -0.051669
    41  O   -0.145264
    42  C    0.041739
    43  C    0.129129
    44  O   -0.195717
    45  O   -0.263308
    46  C    0.277637
    47  C    0.299387
    48  C   -0.177144
    49  C   -0.127687
    50  C    0.128849
    51  C    0.083539
    52  C    0.043217
    53  C   -0.012212
    54  C   -0.157301
    55  C    0.075499
    56  C    0.062358
    57  C    0.047323
    58  C    0.028763
    59  C   -0.186547
    60  C    0.084738
    61  C    0.010221
    62  C    0.052034
    63  C    0.023430
    64  C   -0.118340
    65  C    0.037478
    66  C    0.035909
 Electronic spatial extent (au):  <R**2>=         144164.2134
 Charge=             -0.0000 electrons
 Dipole moment (field-independent basis, Debye):
    X=             -2.2744    Y=              1.9308    Z=             -0.5742  Tot=              3.0382
 Quadrupole moment (field-independent basis, Debye-Ang):
   XX=           -387.8469   YY=           -416.8082   ZZ=           -407.3629
   XY=             -4.4458   XZ=             31.4645   YZ=              5.6030
 Traceless Quadrupole moment (field-independent basis, Debye-Ang):
   XX=             16.1591   YY=            -12.8022   ZZ=             -3.3569
   XY=             -4.4458   XZ=             31.4645   YZ=              5.6030
 Octapole moment (field-independent basis, Debye-Ang**2):
  XXX=            347.8275  YYY=             52.7443  ZZZ=            -16.2152  XYY=           -156.6147
  XXY=           -358.1778  XXZ=            220.8178  XZZ=             50.7820  YZZ=              0.8870
  YYZ=            -72.0340  XYZ=             16.1443
 Hexadecapole moment (field-independent basis, Debye-Ang**3):
 XXXX=        -170542.8203 YYYY=         -20209.7831 ZZZZ=          -9074.2502 XXXY=          -2005.6866
 XXXZ=           2849.7918 YYYX=            332.1285 YYYZ=            214.5590 ZZZX=            178.2739
 ZZZY=            -54.3341 XXYY=         -33365.5449 XXZZ=         -30256.5972 YYZZ=          -4791.4510
 XXYZ=             28.6456 YYXZ=             89.8763 ZZXY=            129.6996
 N-N= 9.320657737114D+03 E-N=-2.563720543579D+04  KE= 2.977815754486D+03
 Leave Link  601 at Fri Apr 29 16:28:20 2022, MaxMem= 10066329600 cpu:              13.6 elap:               0.7
 (Enter /sw/apps/gaussian-16.0/g16/l9999.exe)
 1\1\GINC-BP1-COMPUTE156\SP\RBLYP TD-FC\def2SVP\C55H74Mg1N4O6\OF15641\2
 9-Apr-2022\0\\#p blyp/Def2SVP td=(nstates=5)\\step_351_chromophore_7 T
 DDFT with blyp functional\\0,1\Mg,0,25.36,0.518,29.725\C,0,27.385,0.15
 3,32.534\C,0,22.634,0.841,31.785\C,0,23.335,0.288,26.855\C,0,28.066,-0
 .547,27.687\N,0,25.162,0.626,31.981\C,0,26.048,0.418,32.896\C,0,25.549
 ,0.718,34.249\C,0,23.952,0.718,34.02\C,0,23.856,0.661,32.436\C,0,23.15
 4,-0.481,34.603\C,0,26.18,2.073,34.797\C,0,27.117,1.82,36.001\C,0,27.1
 59,2.721,37.307\O,0,27.432,3.905,37.325\O,0,26.733,2.04,38.441\N,0,23.
 346,0.61,29.362\C,0,22.352,0.803,30.341\C,0,21.09,0.999,29.742\C,0,21.
 263,0.699,28.343\C,0,22.678,0.467,28.145\C,0,19.834,1.183,30.579\C,0,2
 0.203,0.561,27.302\O,0,20.471,0.13,26.211\C,0,18.817,1.036,27.561\N,0,
 25.638,-0.042,27.591\C,0,24.707,0.033,26.61\C,0,25.311,-0.295,25.217\C
 ,0,26.809,-0.327,25.494\C,0,26.83,-0.301,27.027\C,0,24.769,-1.543,24.5
 57\C,0,27.548,0.96,24.937\C,0,29.09,0.802,24.893\N,0,27.334,0.042,29.9
 79\C,0,28.331,-0.398,29.046\C,0,29.542,-0.634,29.775\C,0,29.234,-0.427
 ,31.139\C,0,27.902,-0.042,31.209\C,0,30.743,-1.148,29.104\C,0,29.757,-
 0.47,32.514\O,0,30.916,-0.598,32.945\C,0,28.558,-0.025,33.407\C,0,28.3
 14,-1.205,34.339\O,0,27.618,-2.193,34.059\O,0,28.973,-0.935,35.496\C,0
 ,28.774,-1.823,36.701\C,0,26.759,2.892,39.606\C,0,26.389,2.19,40.942\C
 ,0,25.221,1.787,41.412\C,0,23.936,1.916,40.689\C,0,25.076,1.152,42.797
 \C,0,24.869,2.167,43.938\C,0,23.831,1.62,44.979\C,0,23.935,2.504,46.27
 6\C,0,23.461,1.668,47.503\C,0,23.223,3.827,46.022\C,0,23.776,4.919,46.
 99\C,0,22.649,5.491,47.83\C,0,23.04,6.97,48.13\C,0,22.519,7.51,49.405\
 C,0,22.584,7.85,46.94\C,0,23.372,9.156,46.84\C,0,22.416,10.357,47.232\
 C,0,23.054,11.285,48.338\C,0,21.935,11.501,49.483\C,0,23.604,12.572,47
 .703\H,0,21.831,0.851,32.525\H,0,22.761,0.518,25.954\H,0,28.933,-0.838
 ,27.09\H,0,26.006,-0.069,34.85\H,0,23.554,1.642,34.439\H,0,23.868,-1.2
 31,34.943\H,0,22.346,-0.856,33.974\H,0,22.609,-0.085,35.46\H,0,25.37,2
 .773,35.003\H,0,26.789,2.493,33.997\H,0,28.114,2.101,35.661\H,0,27.109
 ,0.783,36.336\H,0,19.491,2.203,30.401\H,0,19.926,1.169,31.665\H,0,19.0
 55,0.476,30.295\H,0,18.349,0.369,28.285\H,0,18.223,0.999,26.648\H,0,18
 .736,2.003,28.058\H,0,25.115,0.545,24.551\H,0,27.31,-1.262,25.244\H,0,
 23.95,-1.934,25.161\H,0,25.491,-2.345,24.402\H,0,24.316,-1.292,23.598\
 H,0,27.352,1.839,25.552\H,0,27.182,1.105,23.921\H,0,29.575,1.556,25.51
 3\H,0,29.483,0.954,23.888\H,0,29.477,-0.192,25.114\H,0,31.594,-0.499,2
 9.309\H,0,30.834,-1.272,28.025\H,0,30.918,-2.108,29.589\H,0,28.818,0.9
 03,33.915\H,0,27.834,-1.49,37.141\H,0,29.603,-1.922,37.401\H,0,28.588,
 -2.861,36.425\H,0,26.249,3.854,39.55\H,0,27.824,3.078,39.743\H,0,27.25
 9,2.11,41.593\H,0,23.796,2.918,40.284\H,0,23.034,1.639,41.235\H,0,23.9
 23,1.235,39.837\H,0,26.008,0.632,43.018\H,0,24.289,0.398,42.818\H,0,24
 .524,3.108,43.51\H,0,25.847,2.259,44.412\H,0,23.982,0.573,45.242\H,0,2
 2.792,1.655,44.651\H,0,25.014,2.635,46.353\H,0,22.682,0.933,47.297\H,0
 ,23.127,2.328,48.303\H,0,24.391,1.188,47.808\H,0,22.188,3.581,46.26\H,
 0,23.364,4.181,45.001\H,0,24.154,5.749,46.393\H,0,24.521,4.484,47.656\
 H,0,22.586,4.851,48.71\H,0,21.639,5.569,47.427\H,0,24.11,7.079,48.306\
 H,0,21.923,6.726,49.873\H,0,21.778,8.275,49.171\H,0,23.356,7.837,50.02
 2\H,0,21.506,7.993,47.023\H,0,22.709,7.33,45.99\H,0,23.692,9.344,45.81
 5\H,0,24.31,9.061,47.386\H,0,21.447,10.124,47.674\H,0,22.151,10.949,46
 .357\H,0,23.878,10.718,48.77\H,0,21.909,10.744,50.267\H,0,20.929,11.65
 7,49.093\H,0,22.265,12.391,50.019\H,0,23.4,13.402,48.379\H,0,23.24,12.
 874,46.721\H,0,24.687,12.625,47.591\\Version=ES64L-G16RevA.03\State=1-
 A\HF=-3007.3718024\RMSD=3.020e-09\PG=C01 [X(C55H74Mg1N4O6)]\\@


 SUCCESS IS COUNTED SWEETEST
 BY THOSE WHO NE'ER SUCCEED.
 TO COMPREHEND NECTAR
 REQUIRES SOREST NEED.
           EMILY DICKINSON
 Job cpu time:       0 days  5 hours 13 minutes 37.4 seconds.
 Elapsed time:       0 days  0 hours 13 minutes  7.6 seconds.
 File lengths (MBytes):  RWF=   8034 Int=      0 D2E=      0 Chk=    390 Scr=      1
 Normal termination of Gaussian 16 at Fri Apr 29 16:28:21 2022.
