 Entering Gaussian System, Link 0=g16
 Initial command:
 /sw/apps/gaussian-16.0/g16/l1.exe "/tmp/Gau-12926.inp" -scrdir="/tmp/"
 Entering Link 1 = /sw/apps/gaussian-16.0/g16/l1.exe PID=     12927.
  
 Copyright (c) 1988,1990,1992,1993,1995,1998,2003,2009,2016,
            Gaussian, Inc.  All Rights Reserved.
  
 This is part of the Gaussian(R) 16 program.  It is based on
 the Gaussian(R) 09 system (copyright 2009, Gaussian, Inc.),
 the Gaussian(R) 03 system (copyright 2003, Gaussian, Inc.),
 the Gaussian(R) 98 system (copyright 1998, Gaussian, Inc.),
 the Gaussian(R) 94 system (copyright 1995, Gaussian, Inc.),
 the Gaussian 92(TM) system (copyright 1992, Gaussian, Inc.),
 the Gaussian 90(TM) system (copyright 1990, Gaussian, Inc.),
 the Gaussian 88(TM) system (copyright 1988, Gaussian, Inc.),
 the Gaussian 86(TM) system (copyright 1986, Carnegie Mellon
 University), and the Gaussian 82(TM) system (copyright 1983,
 Carnegie Mellon University). Gaussian is a federally registered
 trademark of Gaussian, Inc.
  
 This software contains proprietary and confidential information,
 including trade secrets, belonging to Gaussian, Inc.
  
 This software is provided under written license and may be
 used, copied, transmitted, or stored only in accord with that
 written license.
  
 The following legend is applicable only to US Government
 contracts under FAR:
  
                    RESTRICTED RIGHTS LEGEND
  
 Use, reproduction and disclosure by the US Government is
 subject to restrictions as set forth in subparagraphs (a)
 and (c) of the Commercial Computer Software - Restricted
 Rights clause in FAR 52.227-19.
  
 Gaussian, Inc.
 340 Quinnipiac St., Bldg. 40, Wallingford CT 06492
  
  
 ---------------------------------------------------------------
 Warning -- This program may not be used in any manner that
 competes with the business of Gaussian, Inc. or will provide
 assistance to any competitor of Gaussian, Inc.  The licensee
 of this program is prohibited from giving any competitor of
 Gaussian, Inc. access to this program.  By using this program,
 the user acknowledges that Gaussian, Inc. is engaged in the
 business of creating and licensing software in the field of
 computational chemistry and represents and warrants to the
 licensee that it is not a competitor of Gaussian, Inc. and that
 it will not use this program in any manner prohibited above.
 ---------------------------------------------------------------
  

 Cite this work as:
 Gaussian 16, Revision A.03,
 M. J. Frisch, G. W. Trucks, H. B. Schlegel, G. E. Scuseria, 
 M. A. Robb, J. R. Cheeseman, G. Scalmani, V. Barone, 
 G. A. Petersson, H. Nakatsuji, X. Li, M. Caricato, A. V. Marenich, 
 J. Bloino, B. G. Janesko, R. Gomperts, B. Mennucci, H. P. Hratchian, 
 J. V. Ortiz, A. F. Izmaylov, J. L. Sonnenberg, D. Williams-Young, 
 F. Ding, F. Lipparini, F. Egidi, J. Goings, B. Peng, A. Petrone, 
 T. Henderson, D. Ranasinghe, V. G. Zakrzewski, J. Gao, N. Rega, 
 G. Zheng, W. Liang, M. Hada, M. Ehara, K. Toyota, R. Fukuda, 
 J. Hasegawa, M. Ishida, T. Nakajima, Y. Honda, O. Kitao, H. Nakai, 
 T. Vreven, K. Throssell, J. A. Montgomery, Jr., J. E. Peralta, 
 F. Ogliaro, M. J. Bearpark, J. J. Heyd, E. N. Brothers, K. N. Kudin, 
 V. N. Staroverov, T. A. Keith, R. Kobayashi, J. Normand, 
 K. Raghavachari, A. P. Rendell, J. C. Burant, S. S. Iyengar, 
 J. Tomasi, M. Cossi, J. M. Millam, M. Klene, C. Adamo, R. Cammi, 
 J. W. Ochterski, R. L. Martin, K. Morokuma, O. Farkas, 
 J. B. Foresman, and D. J. Fox, Gaussian, Inc., Wallingford CT, 2016.
 
 ******************************************
 Gaussian 16:  ES64L-G16RevA.03 25-Dec-2016
                 4-May-2022 
 ******************************************
 %nproc=24
 Will use up to   24 processors via shared memory.
 %mem=75GB
 --------------------------------
 #p wB97XD/Def2SVP td=(nstates=5)
 --------------------------------
 1/38=1,172=1/1;
 2/12=2,17=6,18=5,40=1/2;
 3/5=43,7=101,11=9,25=1,30=1,74=-58/1,2,3,8;
 4//1;
 5/5=2,38=5/2;
 8/6=1,10=1,108=5/1;
 9/41=5,42=1,70=2/14;
 6/7=2,8=2,9=2,10=2/1;
 99/5=1,9=1/99;
 Leave Link    1 at Wed May  4 00:21:56 2022, MaxMem= 10066329600 cpu:               1.0 elap:               0.0
 (Enter /sw/apps/gaussian-16.0/g16/l101.exe)
 -----------------------------------------------------
 step_1151_chromophore_23 TDDFT with wB97XD functional
 -----------------------------------------------------
 Symbolic Z-matrix:
 Charge =  0 Multiplicity = 1
 Mg                   -9.978     40.499    42.445 
 C                    -8.742     37.475    41.213 
 C                    -7.528     42.264    40.929 
 C                    -11.766    43.332    43.083 
 C                    -12.73     38.591    43.64 
 N                    -8.426     39.921    41.004 
 C                    -8.028     38.608    40.783 
 C                    -6.6       38.656    40.169 
 C                    -6.192     40.18     40.179 
 C                    -7.446     40.854    40.804 
 C                    -4.918     40.468    40.944 
 C                    -6.717     38.08     38.708 
 C                    -5.68      36.966    38.38 
 C                    -4.713     36.985    37.215 
 O                    -3.522     37.154    37.273 
 O                    -5.487     36.786    36.042 
 N                    -9.658     42.555    42.078 
 C                    -8.607     43.009    41.459 
 C                    -8.792     44.412    41.245 
 C                    -10.085    44.789    41.781 
 C                    -10.505    43.517    42.485 
 C                    -7.846     45.229    40.322 
 C                    -10.81     46.149    41.715 
 O                    -10.272    47.127    41.275 
 C                    -12.103    46.42     42.235 
 N                    -12.007    40.877    43.22 
 C                    -12.429    42.131    43.46 
 C                    -13.748    42.197    44.259 
 C                    -14.06     40.698    44.499 
 C                    -12.886    40.003    43.772 
 C                    -13.761    43.079    45.521 
 C                    -15.42     40.352    43.821 
 C                    -15.508    40.216    42.358 
 N                    -10.672    38.459    42.42 
 C                    -11.737    37.878    43.051 
 C                    -11.584    36.417    43.028 
 C                    -10.443    36.164    42.251 
 C                    -9.915     37.48     41.961 
 C                    -12.6      35.58     43.703 
 C                    -9.565     35.178    41.74 
 O                    -9.539     33.935    41.732 
 C                    -8.445     35.994    41.029 
 C                    -7.117     35.558    41.569 
 O                    -6.656     35.97     42.643 
 O                    -6.475     34.569    40.823 
 C                    -5.229     33.996    41.35 
 C                    -4.533     36.713    34.933 
 C                    -5.394     36.596    33.601 
 C                    -6.219     37.471    32.978 
 C                    -6.545     38.846    33.607 
 C                    -6.847     37.241    31.594 
 C                    -5.733     37.744    30.586 
 C                    -5.458     36.666    29.496 
 C                    -5.895     37.155    28.094 
 C                    -5.36      36.288    26.931 
 C                    -7.384     37.409    27.924 
 C                    -7.65      38.89     27.407 
 C                    -9.141     39.316    27.528 
 C                    -9.445     40.634    28.433 
 C                    -10.889    40.501    28.986 
 C                    -9.113     41.958    27.688 
 C                    -8.53      43.127    28.526 
 C                    -7.007     43.16     28.438 
 C                    -6.283     43.197    29.829 
 C                    -4.987     44.149    29.827 
 C                    -5.915     41.826    30.367 
 H                    -6.654     42.781    40.529 
 H                    -12.331    44.205    43.417 
 H                    -13.535    38.05     44.141 
 H                    -5.82      38.127    40.716 
 H                    -6.077     40.561    39.165 
 H                    -4.876     41.417    41.479 
 H                    -4.053     40.481    40.281 
 H                    -4.794     39.688    41.695 
 H                    -6.427     38.862    38.006 
 H                    -7.761     37.81     38.548 
 H                    -6.353     36.11     38.33 
 H                    -5.038     36.663    39.207 
 H                    -8.018     46.286    40.528 
 H                    -8.08      44.881    39.316 
 H                    -6.825     44.98     40.609 
 H                    -12.044    46.281    43.314 
 H                    -12.736    45.689    41.732 
 H                    -12.446    47.442    42.071 
 H                    -14.529    42.618    43.626 
 H                    -14.154    40.428    45.551 
 H                    -14.404    42.724    46.326 
 H                    -13.971    44.115    45.253 
 H                    -12.742    43.074    45.908 
 H                    -16.181    41.07     44.129 
 H                    -15.68     39.415    44.313 
 H                    -16.424    40.517    41.85 
 H                    -15.352    39.185    42.042 
 H                    -14.779    40.801    41.798 
 H                    -12.276    34.552    43.542 
 H                    -13.629    35.683    43.358 
 H                    -12.574    35.776    44.775 
 H                    -8.452     35.702    39.979 
 H                    -4.888     33.297    40.587 
 H                    -5.441     33.391    42.231 
 H                    -4.563     34.831    41.569 
 H                    -3.695     36.019    34.999 
 H                    -4.037     37.677    34.826 
 H                    -5.212     35.712    32.99 
 H                    -7.623     38.882    33.767 
 H                    -6.245     39.562    32.842 
 H                    -5.992     39.062    34.521 
 H                    -7.839     37.693    31.607 
 H                    -7.115     36.192    31.47 
 H                    -4.795     37.981    31.088 
 H                    -5.991     38.687    30.103 
 H                    -6.043     35.824    29.866 
 H                    -4.427     36.318    29.426 
 H                    -5.436     38.119    27.876 
 H                    -4.281     36.14     26.96 
 H                    -5.669     36.746    25.991 
 H                    -5.695     35.268    27.119 
 H                    -7.82      37.357    28.922 
 H                    -7.965     36.701    27.332 
 H                    -7.459     38.857    26.335 
 H                    -7.018     39.539    28.013 
 H                    -9.748     38.473    27.859 
 H                    -9.42      39.475    26.487 
 H                    -8.784     40.531    29.294 
 H                    -11.556    39.858    28.412 
 H                    -11.418    41.446    29.111 
 H                    -10.729    40.097    29.986 
 H                    -10.094    42.238    27.306 
 H                    -8.502     41.787    26.802 
 H                    -8.965     43.072    29.523 
 H                    -8.816     44.126    28.194 
 H                    -6.716     43.995    27.801 
 H                    -6.705     42.306    27.832 
 H                    -6.916     43.713    30.551 
 H                    -4.685     44.311    28.792 
 H                    -4.087     43.895    30.387 
 H                    -5.364     45.09     30.227 
 H                    -6.308     41.846    31.383 
 H                    -4.848     41.604    30.392 
 H                    -6.423     41.024    29.832 
 
 ITRead=  0  0  0  0  0  0  0  0  0  0  0  0  0  0  0  0  0  0  0  0
 ITRead=  0  0  0  0  0  0  0  0  0  0  0  0  0  0  0  0  0  0  0  0
 ITRead=  0  0  0  0  0  0  0  0  0  0  0  0  0  0  0  0  0  0  0  0
 ITRead=  0  0  0  0  0  0  0  0  0  0  0  0  0  0  0  0  0  0  0  0
 ITRead=  0  0  0  0  0  0  0  0  0  0  0  0  0  0  0  0  0  0  0  0
 ITRead=  0  0  0  0  0  0  0  0  0  0  0  0  0  0  0  0  0  0  0  0
 ITRead=  0  0  0  0  0  0  0  0  0  0  0  0  0  0  0  0  0  0  0  0
 MicOpt= -1 -1 -1 -1 -1 -1 -1 -1 -1 -1 -1 -1 -1 -1 -1 -1 -1 -1 -1 -1
 MicOpt= -1 -1 -1 -1 -1 -1 -1 -1 -1 -1 -1 -1 -1 -1 -1 -1 -1 -1 -1 -1
 MicOpt= -1 -1 -1 -1 -1 -1 -1 -1 -1 -1 -1 -1 -1 -1 -1 -1 -1 -1 -1 -1
 MicOpt= -1 -1 -1 -1 -1 -1 -1 -1 -1 -1 -1 -1 -1 -1 -1 -1 -1 -1 -1 -1
 MicOpt= -1 -1 -1 -1 -1 -1 -1 -1 -1 -1 -1 -1 -1 -1 -1 -1 -1 -1 -1 -1
 MicOpt= -1 -1 -1 -1 -1 -1 -1 -1 -1 -1 -1 -1 -1 -1 -1 -1 -1 -1 -1 -1
 MicOpt= -1 -1 -1 -1 -1 -1 -1 -1 -1 -1 -1 -1 -1 -1 -1 -1 -1 -1 -1 -1
 NAtoms=    140 NQM=      140 NQMF=       0 NMMI=      0 NMMIF=      0
                NMic=       0 NMicF=      0.
                    Isotopes and Nuclear Properties:
 (Nuclear quadrupole moments (NQMom) in fm**2, nuclear magnetic moments (NMagM)
  in nuclear magnetons)

  Atom         1           2           3           4           5           6           7           8           9          10
 IAtWgt=          24          12          12          12          12          14          12          12          12          12
 AtmWgt=  23.9850450  12.0000000  12.0000000  12.0000000  12.0000000  14.0030740  12.0000000  12.0000000  12.0000000  12.0000000
 NucSpn=           0           0           0           0           0           2           0           0           0           0
 AtZEff=  -0.0000000  -0.0000000  -0.0000000  -0.0000000  -0.0000000  -0.0000000  -0.0000000  -0.0000000  -0.0000000  -0.0000000
 NQMom=    0.0000000   0.0000000   0.0000000   0.0000000   0.0000000   2.0440000   0.0000000   0.0000000   0.0000000   0.0000000
 NMagM=    0.0000000   0.0000000   0.0000000   0.0000000   0.0000000   0.4037610   0.0000000   0.0000000   0.0000000   0.0000000
 AtZNuc=  12.0000000   6.0000000   6.0000000   6.0000000   6.0000000   7.0000000   6.0000000   6.0000000   6.0000000   6.0000000

  Atom        11          12          13          14          15          16          17          18          19          20
 IAtWgt=          12          12          12          12          16          16          14          12          12          12
 AtmWgt=  12.0000000  12.0000000  12.0000000  12.0000000  15.9949146  15.9949146  14.0030740  12.0000000  12.0000000  12.0000000
 NucSpn=           0           0           0           0           0           0           2           0           0           0
 AtZEff=  -0.0000000  -0.0000000  -0.0000000  -0.0000000  -0.0000000  -0.0000000  -0.0000000  -0.0000000  -0.0000000  -0.0000000
 NQMom=    0.0000000   0.0000000   0.0000000   0.0000000   0.0000000   0.0000000   2.0440000   0.0000000   0.0000000   0.0000000
 NMagM=    0.0000000   0.0000000   0.0000000   0.0000000   0.0000000   0.0000000   0.4037610   0.0000000   0.0000000   0.0000000
 AtZNuc=   6.0000000   6.0000000   6.0000000   6.0000000   8.0000000   8.0000000   7.0000000   6.0000000   6.0000000   6.0000000

  Atom        21          22          23          24          25          26          27          28          29          30
 IAtWgt=          12          12          12          16          12          14          12          12          12          12
 AtmWgt=  12.0000000  12.0000000  12.0000000  15.9949146  12.0000000  14.0030740  12.0000000  12.0000000  12.0000000  12.0000000
 NucSpn=           0           0           0           0           0           2           0           0           0           0
 AtZEff=  -0.0000000  -0.0000000  -0.0000000  -0.0000000  -0.0000000  -0.0000000  -0.0000000  -0.0000000  -0.0000000  -0.0000000
 NQMom=    0.0000000   0.0000000   0.0000000   0.0000000   0.0000000   2.0440000   0.0000000   0.0000000   0.0000000   0.0000000
 NMagM=    0.0000000   0.0000000   0.0000000   0.0000000   0.0000000   0.4037610   0.0000000   0.0000000   0.0000000   0.0000000
 AtZNuc=   6.0000000   6.0000000   6.0000000   8.0000000   6.0000000   7.0000000   6.0000000   6.0000000   6.0000000   6.0000000

  Atom        31          32          33          34          35          36          37          38          39          40
 IAtWgt=          12          12          12          14          12          12          12          12          12          12
 AtmWgt=  12.0000000  12.0000000  12.0000000  14.0030740  12.0000000  12.0000000  12.0000000  12.0000000  12.0000000  12.0000000
 NucSpn=           0           0           0           2           0           0           0           0           0           0
 AtZEff=  -0.0000000  -0.0000000  -0.0000000  -0.0000000  -0.0000000  -0.0000000  -0.0000000  -0.0000000  -0.0000000  -0.0000000
 NQMom=    0.0000000   0.0000000   0.0000000   2.0440000   0.0000000   0.0000000   0.0000000   0.0000000   0.0000000   0.0000000
 NMagM=    0.0000000   0.0000000   0.0000000   0.4037610   0.0000000   0.0000000   0.0000000   0.0000000   0.0000000   0.0000000
 AtZNuc=   6.0000000   6.0000000   6.0000000   7.0000000   6.0000000   6.0000000   6.0000000   6.0000000   6.0000000   6.0000000

  Atom        41          42          43          44          45          46          47          48          49          50
 IAtWgt=          16          12          12          16          16          12          12          12          12          12
 AtmWgt=  15.9949146  12.0000000  12.0000000  15.9949146  15.9949146  12.0000000  12.0000000  12.0000000  12.0000000  12.0000000
 NucSpn=           0           0           0           0           0           0           0           0           0           0
 AtZEff=  -0.0000000  -0.0000000  -0.0000000  -0.0000000  -0.0000000  -0.0000000  -0.0000000  -0.0000000  -0.0000000  -0.0000000
 NQMom=    0.0000000   0.0000000   0.0000000   0.0000000   0.0000000   0.0000000   0.0000000   0.0000000   0.0000000   0.0000000
 NMagM=    0.0000000   0.0000000   0.0000000   0.0000000   0.0000000   0.0000000   0.0000000   0.0000000   0.0000000   0.0000000
 AtZNuc=   8.0000000   6.0000000   6.0000000   8.0000000   8.0000000   6.0000000   6.0000000   6.0000000   6.0000000   6.0000000

  Atom        51          52          53          54          55          56          57          58          59          60
 IAtWgt=          12          12          12          12          12          12          12          12          12          12
 AtmWgt=  12.0000000  12.0000000  12.0000000  12.0000000  12.0000000  12.0000000  12.0000000  12.0000000  12.0000000  12.0000000
 NucSpn=           0           0           0           0           0           0           0           0           0           0
 AtZEff=  -0.0000000  -0.0000000  -0.0000000  -0.0000000  -0.0000000  -0.0000000  -0.0000000  -0.0000000  -0.0000000  -0.0000000
 NQMom=    0.0000000   0.0000000   0.0000000   0.0000000   0.0000000   0.0000000   0.0000000   0.0000000   0.0000000   0.0000000
 NMagM=    0.0000000   0.0000000   0.0000000   0.0000000   0.0000000   0.0000000   0.0000000   0.0000000   0.0000000   0.0000000
 AtZNuc=   6.0000000   6.0000000   6.0000000   6.0000000   6.0000000   6.0000000   6.0000000   6.0000000   6.0000000   6.0000000

  Atom        61          62          63          64          65          66          67          68          69          70
 IAtWgt=          12          12          12          12          12          12           1           1           1           1
 AtmWgt=  12.0000000  12.0000000  12.0000000  12.0000000  12.0000000  12.0000000   1.0078250   1.0078250   1.0078250   1.0078250
 NucSpn=           0           0           0           0           0           0           1           1           1           1
 AtZEff=  -0.0000000  -0.0000000  -0.0000000  -0.0000000  -0.0000000  -0.0000000  -0.0000000  -0.0000000  -0.0000000  -0.0000000
 NQMom=    0.0000000   0.0000000   0.0000000   0.0000000   0.0000000   0.0000000   0.0000000   0.0000000   0.0000000   0.0000000
 NMagM=    0.0000000   0.0000000   0.0000000   0.0000000   0.0000000   0.0000000   2.7928460   2.7928460   2.7928460   2.7928460
 AtZNuc=   6.0000000   6.0000000   6.0000000   6.0000000   6.0000000   6.0000000   1.0000000   1.0000000   1.0000000   1.0000000

  Atom        71          72          73          74          75          76          77          78          79          80
 IAtWgt=           1           1           1           1           1           1           1           1           1           1
 AtmWgt=   1.0078250   1.0078250   1.0078250   1.0078250   1.0078250   1.0078250   1.0078250   1.0078250   1.0078250   1.0078250
 NucSpn=           1           1           1           1           1           1           1           1           1           1
 AtZEff=  -0.0000000  -0.0000000  -0.0000000  -0.0000000  -0.0000000  -0.0000000  -0.0000000  -0.0000000  -0.0000000  -0.0000000
 NQMom=    0.0000000   0.0000000   0.0000000   0.0000000   0.0000000   0.0000000   0.0000000   0.0000000   0.0000000   0.0000000
 NMagM=    2.7928460   2.7928460   2.7928460   2.7928460   2.7928460   2.7928460   2.7928460   2.7928460   2.7928460   2.7928460
 AtZNuc=   1.0000000   1.0000000   1.0000000   1.0000000   1.0000000   1.0000000   1.0000000   1.0000000   1.0000000   1.0000000

  Atom        81          82          83          84          85          86          87          88          89          90
 IAtWgt=           1           1           1           1           1           1           1           1           1           1
 AtmWgt=   1.0078250   1.0078250   1.0078250   1.0078250   1.0078250   1.0078250   1.0078250   1.0078250   1.0078250   1.0078250
 NucSpn=           1           1           1           1           1           1           1           1           1           1
 AtZEff=  -0.0000000  -0.0000000  -0.0000000  -0.0000000  -0.0000000  -0.0000000  -0.0000000  -0.0000000  -0.0000000  -0.0000000
 NQMom=    0.0000000   0.0000000   0.0000000   0.0000000   0.0000000   0.0000000   0.0000000   0.0000000   0.0000000   0.0000000
 NMagM=    2.7928460   2.7928460   2.7928460   2.7928460   2.7928460   2.7928460   2.7928460   2.7928460   2.7928460   2.7928460
 AtZNuc=   1.0000000   1.0000000   1.0000000   1.0000000   1.0000000   1.0000000   1.0000000   1.0000000   1.0000000   1.0000000

  Atom        91          92          93          94          95          96          97          98          99         100
 IAtWgt=           1           1           1           1           1           1           1           1           1           1
 AtmWgt=   1.0078250   1.0078250   1.0078250   1.0078250   1.0078250   1.0078250   1.0078250   1.0078250   1.0078250   1.0078250
 NucSpn=           1           1           1           1           1           1           1           1           1           1
 AtZEff=  -0.0000000  -0.0000000  -0.0000000  -0.0000000  -0.0000000  -0.0000000  -0.0000000  -0.0000000  -0.0000000  -0.0000000
 NQMom=    0.0000000   0.0000000   0.0000000   0.0000000   0.0000000   0.0000000   0.0000000   0.0000000   0.0000000   0.0000000
 NMagM=    2.7928460   2.7928460   2.7928460   2.7928460   2.7928460   2.7928460   2.7928460   2.7928460   2.7928460   2.7928460
 AtZNuc=   1.0000000   1.0000000   1.0000000   1.0000000   1.0000000   1.0000000   1.0000000   1.0000000   1.0000000   1.0000000

  Atom       101         102         103         104         105         106         107         108         109         110
 IAtWgt=           1           1           1           1           1           1           1           1           1           1
 AtmWgt=   1.0078250   1.0078250   1.0078250   1.0078250   1.0078250   1.0078250   1.0078250   1.0078250   1.0078250   1.0078250
 NucSpn=           1           1           1           1           1           1           1           1           1           1
 AtZEff=  -0.0000000  -0.0000000  -0.0000000  -0.0000000  -0.0000000  -0.0000000  -0.0000000  -0.0000000  -0.0000000  -0.0000000
 NQMom=    0.0000000   0.0000000   0.0000000   0.0000000   0.0000000   0.0000000   0.0000000   0.0000000   0.0000000   0.0000000
 NMagM=    2.7928460   2.7928460   2.7928460   2.7928460   2.7928460   2.7928460   2.7928460   2.7928460   2.7928460   2.7928460
 AtZNuc=   1.0000000   1.0000000   1.0000000   1.0000000   1.0000000   1.0000000   1.0000000   1.0000000   1.0000000   1.0000000

  Atom       111         112         113         114         115         116         117         118         119         120
 IAtWgt=           1           1           1           1           1           1           1           1           1           1
 AtmWgt=   1.0078250   1.0078250   1.0078250   1.0078250   1.0078250   1.0078250   1.0078250   1.0078250   1.0078250   1.0078250
 NucSpn=           1           1           1           1           1           1           1           1           1           1
 AtZEff=  -0.0000000  -0.0000000  -0.0000000  -0.0000000  -0.0000000  -0.0000000  -0.0000000  -0.0000000  -0.0000000  -0.0000000
 NQMom=    0.0000000   0.0000000   0.0000000   0.0000000   0.0000000   0.0000000   0.0000000   0.0000000   0.0000000   0.0000000
 NMagM=    2.7928460   2.7928460   2.7928460   2.7928460   2.7928460   2.7928460   2.7928460   2.7928460   2.7928460   2.7928460
 AtZNuc=   1.0000000   1.0000000   1.0000000   1.0000000   1.0000000   1.0000000   1.0000000   1.0000000   1.0000000   1.0000000

  Atom       121         122         123         124         125         126         127         128         129         130
 IAtWgt=           1           1           1           1           1           1           1           1           1           1
 AtmWgt=   1.0078250   1.0078250   1.0078250   1.0078250   1.0078250   1.0078250   1.0078250   1.0078250   1.0078250   1.0078250
 NucSpn=           1           1           1           1           1           1           1           1           1           1
 AtZEff=  -0.0000000  -0.0000000  -0.0000000  -0.0000000  -0.0000000  -0.0000000  -0.0000000  -0.0000000  -0.0000000  -0.0000000
 NQMom=    0.0000000   0.0000000   0.0000000   0.0000000   0.0000000   0.0000000   0.0000000   0.0000000   0.0000000   0.0000000
 NMagM=    2.7928460   2.7928460   2.7928460   2.7928460   2.7928460   2.7928460   2.7928460   2.7928460   2.7928460   2.7928460
 AtZNuc=   1.0000000   1.0000000   1.0000000   1.0000000   1.0000000   1.0000000   1.0000000   1.0000000   1.0000000   1.0000000

  Atom       131         132         133         134         135         136         137         138         139         140
 IAtWgt=           1           1           1           1           1           1           1           1           1           1
 AtmWgt=   1.0078250   1.0078250   1.0078250   1.0078250   1.0078250   1.0078250   1.0078250   1.0078250   1.0078250   1.0078250
 NucSpn=           1           1           1           1           1           1           1           1           1           1
 AtZEff=  -0.0000000  -0.0000000  -0.0000000  -0.0000000  -0.0000000  -0.0000000  -0.0000000  -0.0000000  -0.0000000  -0.0000000
 NQMom=    0.0000000   0.0000000   0.0000000   0.0000000   0.0000000   0.0000000   0.0000000   0.0000000   0.0000000   0.0000000
 NMagM=    2.7928460   2.7928460   2.7928460   2.7928460   2.7928460   2.7928460   2.7928460   2.7928460   2.7928460   2.7928460
 AtZNuc=   1.0000000   1.0000000   1.0000000   1.0000000   1.0000000   1.0000000   1.0000000   1.0000000   1.0000000   1.0000000
 Leave Link  101 at Wed May  4 00:21:56 2022, MaxMem= 10066329600 cpu:               4.0 elap:               0.2
 (Enter /sw/apps/gaussian-16.0/g16/l202.exe)
 Stoichiometry    C55H74MgN4O6
 Framework group  C1[X(C55H74MgN4O6)]
 Deg. of freedom   414
 Full point group                 C1      NOp   1
 Largest Abelian subgroup         C1      NOp   1
 Largest concise Abelian subgroup C1      NOp   1
                         Standard orientation:                         
 ---------------------------------------------------------------------
 Center     Atomic      Atomic             Coordinates (Angstroms)
 Number     Number       Type             X           Y           Z
 ---------------------------------------------------------------------
      1         12           0        4.862999    0.383414   -0.374806
      2          6           0        3.091857   -2.590143    0.084660
      3          6           0        2.795366    1.380320   -2.854130
      4          6           0        6.228127    3.498171   -0.120664
      5          6           0        6.709468   -0.572065    2.509567
      6          7           0        2.974000   -0.438584   -1.133272
      7          6           0        2.545544   -1.738425   -0.892327
      8          6           0        1.524562   -2.101785   -2.007696
      9          6           0        1.518654   -0.865266   -2.987557
     10          6           0        2.548752    0.089784   -2.321076
     11          6           0        1.870163   -1.215325   -4.417642
     12          6           0        0.133816   -2.306171   -1.297740
     13          6           0       -0.579547   -3.638768   -1.670901
     14          6           0       -1.982172   -3.754911   -2.229317
     15          8           0       -2.283857   -4.048719   -3.357621
     16          8           0       -2.868888   -3.429691   -1.169801
     17          7           0        4.565710    2.208294   -1.397379
     18          6           0        3.686358    2.353898   -2.345756
     19          6           0        3.642999    3.740174   -2.699010
     20          6           0        4.579172    4.455917   -1.854874
     21          6           0        5.284029    3.317787   -1.149300
     22          6           0        2.534427    4.312595   -3.625150
     23          6           0        4.840281    5.972946   -1.754745
     24          8           0        4.327724    6.749929   -2.511786
     25          6           0        5.753564    6.595184   -0.863441
     26          7           0        6.253836    1.324581    1.053525
     27          6           0        6.703441    2.575880    0.852759
     28          6           0        7.874340    2.967984    1.778917
     29          6           0        8.089329    1.671579    2.600538
     30          6           0        6.985789    0.746099    2.038828
     31          6           0        9.138998    3.536510    1.109473
     32          6           0        7.842715    1.983834    4.107415
     33          6           0        6.473139    2.169935    4.613616
     34          7           0        4.905704   -1.215347    1.069494
     35          6           0        5.791517   -1.473764    2.078703
     36          6           0        5.615888   -2.856145    2.544144
     37          6           0        4.507369   -3.357471    1.844517
     38          6           0        4.164732   -2.297452    0.920559
     39          6           0        6.509585   -3.374040    3.603172
     40          6           0        3.679104   -4.480449    1.605564
     41          8           0        3.572921   -5.620560    2.089984
     42          6           0        2.717530   -4.012982    0.473034
     43          6           0        2.786269   -4.999536   -0.652696
     44          8           0        3.691617   -4.997198   -1.498911
     45          8           0        1.808119   -5.994103   -0.623367
     46          6           0        1.879959   -7.072897   -1.618162
     47          6           0       -4.221099   -3.635489   -1.693728
     48          6           0       -5.225620   -3.173502   -0.550601
     49          6           0       -5.496899   -1.955805   -0.023344
     50          6           0       -4.699447   -0.703342   -0.456874
     51          6           0       -6.631133   -1.672303    0.974593
     52          6           0       -7.895207   -1.431335    0.050406
     53          6           0       -9.092254   -2.307092    0.525733
     54          6           0      -10.250351   -1.435361    1.068496
     55          6           0      -11.581783   -2.200426    1.248630
     56          6           0       -9.931708   -0.625765    2.314913
     57          6           0      -10.231536    0.918767    2.078418
     58          6           0       -9.623874    1.830515    3.182348
     59          6           0       -8.575741    2.970608    2.682179
     60          6           0       -7.613821    3.273998    3.861713
     61          6           0       -9.288415    4.196149    2.043142
     62          6           0       -8.589450    4.888006    0.842527
     63          6           0       -9.142307    4.376307   -0.484453
     64          6           0       -8.045237    3.880495   -1.489954
     65          6           0       -8.379295    4.272713   -3.013271
     66          6           0       -7.749087    2.394761   -1.393010
     67          1           0        2.183053    1.606636   -3.728784
     68          1           0        6.783394    4.437057   -0.065148
     69          1           0        7.394404   -0.864712    3.307644
     70          1           0        1.762937   -2.973427   -2.616685
     71          1           0        0.549503   -0.367957   -2.984257
     72          1           0        2.433462   -0.467949   -4.976850
     73          1           0        0.974600   -1.394819   -5.012379
     74          1           0        2.486881   -2.113750   -4.401257
     75          1           0       -0.564564   -1.567032   -1.690636
     76          1           0        0.285905   -2.138894   -0.231286
     77          1           0       -0.480802   -4.162124   -0.719842
     78          1           0       -0.016515   -4.307120   -2.322208
     79          1           0        2.859998    5.299254   -3.956476
     80          1           0        1.627879    4.272402   -3.021452
     81          1           0        2.472053    3.656951   -4.492936
     82          1           0        6.748058    6.242142   -1.134341
     83          1           0        5.419577    6.256994    0.117446
     84          1           0        5.778802    7.682900   -0.936015
     85          1           0        7.546879    3.757953    2.454646
     86          1           0        9.096084    1.260453    2.523995
     87          1           0       10.075489    3.296161    1.612183
     88          1           0        9.025458    4.607948    0.941102
     89          1           0        9.189819    3.084848    0.118729
     90          1           0        8.422765    2.858354    4.404508
     91          1           0        8.321428    1.132385    4.590634
     92          1           0        6.297262    2.876386    5.424612
     93          1           0        6.050138    1.233703    4.976511
     94          1           0        5.759021    2.541724    3.879399
     95          1           0        6.181696   -4.398564    3.777875
     96          1           0        6.508817   -2.837427    4.552130
     97          1           0        7.532069   -3.408543    3.226858
     98          1           0        1.703023   -4.077057    0.866077
     99          1           0        1.000070   -7.689740   -1.438302
    100          1           0        2.736760   -7.713407   -1.411354
    101          1           0        1.942065   -6.598179   -2.597716
    102          1           0       -4.468702   -4.587376   -2.163664
    103          1           0       -4.405978   -2.919065   -2.493301
    104          1           0       -5.925630   -3.929389   -0.194900
    105          1           0       -4.211172   -0.305640    0.433295
    106          1           0       -5.465457   -0.016023   -0.815625
    107          1           0       -3.988559   -0.882880   -1.263265
    108          1           0       -6.278555   -0.899350    1.657799
    109          1           0       -6.742071   -2.505900    1.667710
    110          1           0       -7.692643   -1.654716   -0.997012
    111          1           0       -8.204471   -0.386188    0.016864
    112          1           0       -8.621590   -2.929687    1.286613
    113          1           0       -9.503375   -2.988805   -0.219393
    114          1           0      -10.528997   -0.684301    0.329736
    115          1           0      -11.899354   -2.736376    0.354823
    116          1           0      -12.343815   -1.491559    1.573685
    117          1           0      -11.374074   -3.042264    1.909035
    118          1           0       -8.854311   -0.702686    2.463584
    119          1           0      -10.364502   -0.945181    3.263570
    120          1           0      -11.309375    1.022156    2.198123
    121          1           0       -9.805568    1.163090    1.105424
    122          1           0       -9.183439    1.222478    3.972897
    123          1           0      -10.512729    2.275230    3.628407
    124          1           0       -7.971794    2.470990    1.924234
    125          1           0       -7.998173    3.041899    4.854798
    126          1           0       -7.262595    4.304930    3.909775
    127          1           0       -6.744814    2.657560    3.630094
    128          1           0       -9.326237    4.883392    2.887507
    129          1           0      -10.330096    3.984539    1.802975
    130          1           0       -7.513530    4.808176    0.991795
    131          1           0       -8.742813    5.965762    0.772214
    132          1           0       -9.775515    5.151013   -0.916371
    133          1           0       -9.872568    3.602793   -0.247491
    134          1           0       -7.127082    4.445520   -1.328809
    135          1           0       -9.442241    4.505979   -3.079645
    136          1           0       -8.145741    3.605065   -3.842617
    137          1           0       -7.814750    5.192068   -3.167175
    138          1           0       -6.662703    2.364232   -1.315921
    139          1           0       -8.072122    1.796573   -2.245193
    140          1           0       -8.157309    1.952144   -0.484748
 ---------------------------------------------------------------------
 Rotational constants (GHZ):           0.0345080           0.0133920           0.0114241
 Leave Link  202 at Wed May  4 00:21:56 2022, MaxMem= 10066329600 cpu:               0.2 elap:               0.0
 (Enter /sw/apps/gaussian-16.0/g16/l301.exe)
 Standard basis: def2SVP (5D, 7F)
 Ernie: Thresh=  0.10000D-02 Tol=  0.10000D-05 Strict=F.
 There are  1364 symmetry adapted cartesian basis functions of A   symmetry.
 There are  1298 symmetry adapted basis functions of A   symmetry.
  1298 basis functions,  2180 primitive gaussians,  1364 cartesian basis functions
   246 alpha electrons      246 beta electrons
       nuclear repulsion energy      9771.7697019409 Hartrees.
 IExCor= 4639 DFT=T Ex+Corr=wB97XD ExCW=0 ScaHFX=  1.000000
 ScaDFX=  1.000000  1.000000  1.000000  1.000000 ScalE2=  1.000000  1.000000
 IRadAn=      5 IRanWt=     -1 IRanGd=            0 ICorTp=0 IEmpDi=121
 HFx  wShort=  0.000000 wLong=  0.200000 cFull=  0.222036 cShort=  0.000000 cLong=  0.777964
 DFx  wShort=  0.000000 wLong=  0.200000 cFull=  0.000000 cShort=  0.000000 cLong=  1.000000
 NAtoms=  140 NActive=  140 NUniq=  140 SFac= 1.00D+00 NAtFMM=   60 NAOKFM=T Big=T
 Integral buffers will be    131072 words long.
 Raffenetti 1 integral format.
 Two-electron integral symmetry is turned on.
 R6Disp:  Grimme-D2 Dispersion energy=       -0.1388882688 Hartrees.
 Nuclear repulsion after empirical dispersion term =     9771.6308136721 Hartrees.
 Leave Link  301 at Wed May  4 00:21:57 2022, MaxMem= 10066329600 cpu:               1.9 elap:               0.1
 (Enter /sw/apps/gaussian-16.0/g16/l302.exe)
 NPDir=0 NMtPBC=     1 NCelOv=     1 NCel=       1 NClECP=     1 NCelD=      1
         NCelK=      1 NCelE2=     1 NClLst=     1 CellRange=     0.0.
 One-electron integrals computed using PRISM.
 One-electron integral symmetry used in STVInt
   1 Symmetry operations used in ECPInt.
 ECPInt:  NShTT=  192510 NPrTT=  683786 LenC2=   99050 LenP2D=  214671.
 LDataN:  DoStor=T MaxTD1= 4 Len=   56
 NBasis=  1298 RedAO= T EigKep=  2.64D-04  NBF=  1298
 NBsUse=  1298 1.00D-06 EigRej= -1.00D+00 NBFU=  1298
 Precomputing XC quadrature grid using
 IXCGrd= 4 IRadAn=           5 IRanWt=          -1 IRanGd=           0 AccXCQ= 0.00D+00.
 Generated NRdTot=       0 NPtTot=           0 NUsed=           0 NTot=          32
 NSgBfM=  1051  1043  1049  1051  1051 MxSgAt=   140 MxSgA2=   140.
 Leave Link  302 at Wed May  4 00:22:01 2022, MaxMem= 10066329600 cpu:              97.1 elap:               4.1
 (Enter /sw/apps/gaussian-16.0/g16/l303.exe)
 DipDrv:  MaxL=1.
 Leave Link  303 at Wed May  4 00:22:01 2022, MaxMem= 10066329600 cpu:               6.7 elap:               0.3
 (Enter /sw/apps/gaussian-16.0/g16/l308.exe)
 Leave Link  308 at Wed May  4 00:22:02 2022, MaxMem= 10066329600 cpu:               9.0 elap:               0.4
 (Enter /sw/apps/gaussian-16.0/g16/l401.exe)
 ExpMin= 3.36D-02 ExpMax= 4.95D+03 ExpMxC= 7.45D+02 IAcc=3 IRadAn=         5 AccDes= 0.00D+00
 Harris functional with IExCor= 4639 and IRadAn=       5 diagonalized for initial guess.
 HarFok:  IExCor= 4639 AccDes= 0.00D+00 IRadAn=         5 IDoV= 1 UseB2=F ITyADJ=14
 ICtDFT=  3500011 ScaDFX=  1.000000  1.000000  1.000000  1.000000
 FoFCou: FMM=F IPFlag=           0 FMFlag=      100000 FMFlg1=        2001
         NFxFlg=           0 DoJE=T BraDBF=F KetDBF=T FulRan=T
         wScrn=  0.000000 ICntrl=       500 IOpCl=  0 I1Cent=   200000004 NGrid=           0
         NMat0=    1 NMatS0=      1 NMatT0=    0 NMatD0=    1 NMtDS0=    0 NMtDT0=    0
 Petite list used in FoFCou.
 Harris En= -2878.00737446356    
 JPrj=0 DoOrth=F DoCkMO=F.
 Leave Link  401 at Wed May  4 00:22:07 2022, MaxMem= 10066329600 cpu:             139.2 elap:               5.8
 (Enter /sw/apps/gaussian-16.0/g16/l502.exe)
 Integral symmetry usage will be decided dynamically.
 Closed shell SCF:
 Using DIIS extrapolation, IDIIS=  1040.
 NGot= 10066329600 LenX= 10062561258 LenY= 10060699398
 Requested convergence on RMS density matrix=1.00D-08 within 128 cycles.
 Requested convergence on MAX density matrix=1.00D-06.
 Requested convergence on             energy=1.00D-06.
 No special actions if energy rises.
 Fock matrices will be formed incrementally for  20 cycles.

 Cycle   1  Pass 1  IDiag  1:
 FoFJK:  IHMeth= 1 ICntrl=       0 DoSepK=T KAlg= 0 I1Cent=           0 FoldK=F
 IRaf=         1 NMat=       1 IRICut=       1 DoRegI=T DoRafI=F ISym2E= 0 IDoP0=0 IntGTp=1.
 FoFCou: FMM=T IPFlag=           0 FMFlag=      100000 FMFlg1=        2001
         NFxFlg=           0 DoJE=T BraDBF=F KetDBF=F FulRan=T
         wScrn=  0.000000 ICntrl=       500 IOpCl=  0 I1Cent=           0 NGrid=           0
         NMat0=    1 NMatS0=      1 NMatT0=    0 NMatD0=    1 NMtDS0=    0 NMtDT0=    0
 Symmetry not used in FoFCou.
 FMM levels:  10  Number of levels for PrismC:   9
 E= -3007.19310951222    
 DIIS: error= 3.15D-02 at cycle   1 NSaved=   1.
 NSaved= 1 IEnMin= 1 EnMin= -3007.19310951222     IErMin= 1 ErrMin= 3.15D-02
 ErrMax= 3.15D-02  0.00D+00 EMaxC= 1.00D-01 BMatC= 1.48D+00 BMatP= 1.48D+00
 IDIUse=3 WtCom= 6.85D-01 WtEn= 3.15D-01
 Coeff-Com:  0.100D+01
 Coeff-En:   0.100D+01
 Coeff:      0.100D+01
 Gap=     0.162 Goal=   None    Shift=    0.000
 GapD=    0.162 DampG=1.000 DampE=0.500 DampFc=0.5000 IDamp=-1.
 Damping current iteration by 5.00D-01
 RMSDP=1.53D-03 MaxDP=1.82D-01              OVMax= 1.70D-01

 Cycle   2  Pass 1  IDiag  1:
 RMSU=  7.54D-04    CP:  9.87D-01
 E= -3007.51168217228     Delta-E=       -0.318572660062 Rises=F Damp=T
 DIIS: error= 1.30D-02 at cycle   2 NSaved=   2.
 NSaved= 2 IEnMin= 2 EnMin= -3007.51168217228     IErMin= 2 ErrMin= 1.30D-02
 ErrMax= 1.30D-02  0.00D+00 EMaxC= 1.00D-01 BMatC= 2.89D-01 BMatP= 1.48D+00
 IDIUse=3 WtCom= 8.70D-01 WtEn= 1.30D-01
 Coeff-Com: -0.358D+00 0.136D+01
 Coeff-En:   0.000D+00 0.100D+01
 Coeff:     -0.312D+00 0.131D+01
 Gap=     0.179 Goal=   None    Shift=    0.000
 RMSDP=7.14D-04 MaxDP=7.51D-02 DE=-3.19D-01 OVMax= 1.42D-01

 Cycle   3  Pass 1  IDiag  1:
 RMSU=  6.64D-04    CP:  9.78D-01  1.33D+00
 E= -3007.74195400268     Delta-E=       -0.230271830402 Rises=F Damp=F
 DIIS: error= 1.39D-02 at cycle   3 NSaved=   3.
 NSaved= 3 IEnMin= 3 EnMin= -3007.74195400268     IErMin= 2 ErrMin= 1.30D-02
 ErrMax= 1.39D-02  0.00D+00 EMaxC= 1.00D-01 BMatC= 1.39D-01 BMatP= 2.89D-01
 IDIUse=3 WtCom= 8.61D-01 WtEn= 1.39D-01
 Coeff-Com: -0.314D+00 0.694D+00 0.620D+00
 Coeff-En:   0.000D+00 0.000D+00 0.100D+01
 Coeff:     -0.270D+00 0.597D+00 0.673D+00
 Gap=     0.163 Goal=   None    Shift=    0.000
 RMSDP=4.31D-04 MaxDP=4.42D-02 DE=-2.30D-01 OVMax= 8.87D-02

 Cycle   4  Pass 1  IDiag  1:
 RMSU=  2.25D-04    CP:  9.74D-01  1.63D+00  5.67D-01
 E= -3007.84414128153     Delta-E=       -0.102187278850 Rises=F Damp=F
 DIIS: error= 5.12D-03 at cycle   4 NSaved=   4.
 NSaved= 4 IEnMin= 4 EnMin= -3007.84414128153     IErMin= 4 ErrMin= 5.12D-03
 ErrMax= 5.12D-03  0.00D+00 EMaxC= 1.00D-01 BMatC= 2.13D-02 BMatP= 1.39D-01
 IDIUse=3 WtCom= 9.49D-01 WtEn= 5.12D-02
 Coeff-Com: -0.116D+00 0.233D+00 0.371D+00 0.511D+00
 Coeff-En:   0.000D+00 0.000D+00 0.103D+00 0.897D+00
 Coeff:     -0.110D+00 0.221D+00 0.358D+00 0.531D+00
 Gap=     0.161 Goal=   None    Shift=    0.000
 RMSDP=1.36D-04 MaxDP=1.40D-02 DE=-1.02D-01 OVMax= 2.25D-02

 Cycle   5  Pass 1  IDiag  1:
 RMSU=  6.27D-05    CP:  9.74D-01  1.59D+00  6.97D-01  6.47D-01
 E= -3007.86167429219     Delta-E=       -0.017533010654 Rises=F Damp=F
 DIIS: error= 6.40D-04 at cycle   5 NSaved=   5.
 NSaved= 5 IEnMin= 5 EnMin= -3007.86167429219     IErMin= 5 ErrMin= 6.40D-04
 ErrMax= 6.40D-04  0.00D+00 EMaxC= 1.00D-01 BMatC= 4.88D-04 BMatP= 2.13D-02
 IDIUse=3 WtCom= 9.94D-01 WtEn= 6.40D-03
 Coeff-Com: -0.316D-01 0.604D-01 0.127D+00 0.238D+00 0.606D+00
 Coeff-En:   0.000D+00 0.000D+00 0.000D+00 0.000D+00 0.100D+01
 Coeff:     -0.314D-01 0.600D-01 0.126D+00 0.237D+00 0.609D+00
 Gap=     0.160 Goal=   None    Shift=    0.000
 RMSDP=2.85D-05 MaxDP=6.41D-03 DE=-1.75D-02 OVMax= 4.53D-03

 Cycle   6  Pass 1  IDiag  1:
 RMSU=  2.30D-05    CP:  9.74D-01  1.60D+00  6.98D-01  7.10D-01  8.73D-01
 E= -3007.86206669018     Delta-E=       -0.000392397991 Rises=F Damp=F
 DIIS: error= 2.54D-04 at cycle   6 NSaved=   6.
 NSaved= 6 IEnMin= 6 EnMin= -3007.86206669018     IErMin= 6 ErrMin= 2.54D-04
 ErrMax= 2.54D-04  0.00D+00 EMaxC= 1.00D-01 BMatC= 7.23D-05 BMatP= 4.88D-04
 IDIUse=3 WtCom= 9.97D-01 WtEn= 2.54D-03
 Coeff-Com:  0.983D-02-0.212D-01-0.158D-01 0.128D-02 0.283D+00 0.743D+00
 Coeff-En:   0.000D+00 0.000D+00 0.000D+00 0.000D+00 0.000D+00 0.100D+01
 Coeff:      0.980D-02-0.211D-01-0.158D-01 0.127D-02 0.282D+00 0.744D+00
 Gap=     0.161 Goal=   None    Shift=    0.000
 RMSDP=1.28D-05 MaxDP=1.14D-03 DE=-3.92D-04 OVMax= 4.77D-03

 Cycle   7  Pass 1  IDiag  1:
 RMSU=  8.77D-06    CP:  9.74D-01  1.60D+00  7.03D-01  7.25D-01  9.90D-01
                    CP:  9.32D-01
 E= -3007.86215739109     Delta-E=       -0.000090700909 Rises=F Damp=F
 DIIS: error= 7.23D-05 at cycle   7 NSaved=   7.
 NSaved= 7 IEnMin= 7 EnMin= -3007.86215739109     IErMin= 7 ErrMin= 7.23D-05
 ErrMax= 7.23D-05  0.00D+00 EMaxC= 1.00D-01 BMatC= 7.36D-06 BMatP= 7.23D-05
 IDIUse=1 WtCom= 1.00D+00 WtEn= 0.00D+00
 Coeff-Com:  0.661D-02-0.134D-01-0.171D-01-0.232D-01 0.426D-01 0.283D+00
 Coeff-Com:  0.722D+00
 Coeff:      0.661D-02-0.134D-01-0.171D-01-0.232D-01 0.426D-01 0.283D+00
 Coeff:      0.722D+00
 Gap=     0.161 Goal=   None    Shift=    0.000
 RMSDP=5.87D-06 MaxDP=1.35D-03 DE=-9.07D-05 OVMax= 2.04D-03

 Cycle   8  Pass 1  IDiag  1:
 RMSU=  3.92D-06    CP:  9.74D-01  1.60D+00  7.05D-01  7.31D-01  1.02D+00
                    CP:  1.08D+00  1.08D+00
 E= -3007.86217300425     Delta-E=       -0.000015613166 Rises=F Damp=F
 DIIS: error= 3.25D-05 at cycle   8 NSaved=   8.
 NSaved= 8 IEnMin= 8 EnMin= -3007.86217300425     IErMin= 8 ErrMin= 3.25D-05
 ErrMax= 3.25D-05  0.00D+00 EMaxC= 1.00D-01 BMatC= 1.85D-06 BMatP= 7.36D-06
 IDIUse=1 WtCom= 1.00D+00 WtEn= 0.00D+00
 Coeff-Com:  0.128D-02-0.232D-02-0.494D-02-0.119D-01-0.382D-01-0.152D-01
 Coeff-Com:  0.331D+00 0.740D+00
 Coeff:      0.128D-02-0.232D-02-0.494D-02-0.119D-01-0.382D-01-0.152D-01
 Coeff:      0.331D+00 0.740D+00
 Gap=     0.161 Goal=   None    Shift=    0.000
 RMSDP=3.22D-06 MaxDP=1.61D-04 DE=-1.56D-05 OVMax= 1.79D-03

 Cycle   9  Pass 1  IDiag  1:
 RMSU=  1.91D-06    CP:  9.74D-01  1.60D+00  7.05D-01  7.33D-01  1.03D+00
                    CP:  1.13D+00  1.31D+00  1.18D+00
 E= -3007.86217965039     Delta-E=       -0.000006646136 Rises=F Damp=F
 DIIS: error= 2.08D-05 at cycle   9 NSaved=   9.
 NSaved= 9 IEnMin= 9 EnMin= -3007.86217965039     IErMin= 9 ErrMin= 2.08D-05
 ErrMax= 2.08D-05  0.00D+00 EMaxC= 1.00D-01 BMatC= 4.88D-07 BMatP= 1.85D-06
 IDIUse=1 WtCom= 1.00D+00 WtEn= 0.00D+00
 Coeff-Com: -0.111D-02 0.231D-02 0.240D-02 0.121D-02-0.236D-01-0.719D-01
 Coeff-Com: -0.524D-01 0.279D+00 0.864D+00
 Coeff:     -0.111D-02 0.231D-02 0.240D-02 0.121D-02-0.236D-01-0.719D-01
 Coeff:     -0.524D-01 0.279D+00 0.864D+00
 Gap=     0.161 Goal=   None    Shift=    0.000
 RMSDP=2.53D-06 MaxDP=2.86D-04 DE=-6.65D-06 OVMax= 1.42D-03

 Cycle  10  Pass 1  IDiag  1:
 RMSU=  1.00D-06    CP:  9.74D-01  1.60D+00  7.06D-01  7.35D-01  1.04D+00
                    CP:  1.17D+00  1.44D+00  1.56D+00  1.43D+00
 E= -3007.86218274622     Delta-E=       -0.000003095833 Rises=F Damp=F
 DIIS: error= 1.46D-05 at cycle  10 NSaved=  10.
 NSaved=10 IEnMin=10 EnMin= -3007.86218274622     IErMin=10 ErrMin= 1.46D-05
 ErrMax= 1.46D-05  0.00D+00 EMaxC= 1.00D-01 BMatC= 1.52D-07 BMatP= 4.88D-07
 IDIUse=1 WtCom= 1.00D+00 WtEn= 0.00D+00
 Coeff-Com: -0.984D-03 0.192D-02 0.305D-02 0.532D-02 0.476D-02-0.271D-01
 Coeff-Com: -0.155D+00-0.146D+00 0.332D+00 0.981D+00
 Coeff:     -0.984D-03 0.192D-02 0.305D-02 0.532D-02 0.476D-02-0.271D-01
 Coeff:     -0.155D+00-0.146D+00 0.332D+00 0.981D+00
 Gap=     0.161 Goal=   None    Shift=    0.000
 RMSDP=2.12D-06 MaxDP=1.05D-04 DE=-3.10D-06 OVMax= 1.44D-03

 Cycle  11  Pass 1  IDiag  1:
 RMSU=  6.14D-07    CP:  9.74D-01  1.60D+00  7.06D-01  7.35D-01  1.04D+00
                    CP:  1.19D+00  1.55D+00  1.84D+00  2.05D+00  1.51D+00
 E= -3007.86218436675     Delta-E=       -0.000001620530 Rises=F Damp=F
 DIIS: error= 8.33D-06 at cycle  11 NSaved=  11.
 NSaved=11 IEnMin=11 EnMin= -3007.86218436675     IErMin=11 ErrMin= 8.33D-06
 ErrMax= 8.33D-06  0.00D+00 EMaxC= 1.00D-01 BMatC= 6.06D-08 BMatP= 1.52D-07
 IDIUse=1 WtCom= 1.00D+00 WtEn= 0.00D+00
 Coeff-Com: -0.131D-03 0.220D-03 0.702D-03 0.214D-02 0.857D-02 0.758D-02
 Coeff-Com: -0.550D-01-0.134D+00-0.119D+00 0.449D+00 0.840D+00
 Coeff:     -0.131D-03 0.220D-03 0.702D-03 0.214D-02 0.857D-02 0.758D-02
 Coeff:     -0.550D-01-0.134D+00-0.119D+00 0.449D+00 0.840D+00
 Gap=     0.161 Goal=   None    Shift=    0.000
 RMSDP=1.20D-06 MaxDP=5.91D-05 DE=-1.62D-06 OVMax= 7.55D-04

 Cycle  12  Pass 1  IDiag  1:
 RMSU=  3.24D-07    CP:  9.74D-01  1.60D+00  7.06D-01  7.35D-01  1.04D+00
                    CP:  1.19D+00  1.60D+00  1.99D+00  2.36D+00  2.06D+00
                    CP:  1.34D+00
 E= -3007.86218486213     Delta-E=       -0.000000495376 Rises=F Damp=F
 DIIS: error= 4.10D-06 at cycle  12 NSaved=  12.
 NSaved=12 IEnMin=12 EnMin= -3007.86218486213     IErMin=12 ErrMin= 4.10D-06
 ErrMax= 4.10D-06  0.00D+00 EMaxC= 1.00D-01 BMatC= 1.75D-08 BMatP= 6.06D-08
 IDIUse=1 WtCom= 1.00D+00 WtEn= 0.00D+00
 Coeff-Com:  0.351D-03-0.700D-03-0.964D-03-0.123D-02 0.123D-02 0.138D-01
 Coeff-Com:  0.438D-01 0.150D-01-0.187D+00-0.265D+00 0.321D+00 0.106D+01
 Coeff:      0.351D-03-0.700D-03-0.964D-03-0.123D-02 0.123D-02 0.138D-01
 Coeff:      0.438D-01 0.150D-01-0.187D+00-0.265D+00 0.321D+00 0.106D+01
 Gap=     0.161 Goal=   None    Shift=    0.000
 RMSDP=8.95D-07 MaxDP=4.56D-05 DE=-4.95D-07 OVMax= 5.94D-04

 Cycle  13  Pass 1  IDiag  1:
 RMSU=  1.71D-07    CP:  9.74D-01  1.60D+00  7.06D-01  7.35D-01  1.04D+00
                    CP:  1.20D+00  1.63D+00  2.08D+00  2.61D+00  2.47D+00
                    CP:  1.93D+00  1.45D+00
 E= -3007.86218503751     Delta-E=       -0.000000175378 Rises=F Damp=F
 DIIS: error= 1.79D-06 at cycle  13 NSaved=  13.
 NSaved=13 IEnMin=13 EnMin= -3007.86218503751     IErMin=13 ErrMin= 1.79D-06
 ErrMax= 1.79D-06  0.00D+00 EMaxC= 1.00D-01 BMatC= 3.79D-09 BMatP= 1.75D-08
 IDIUse=1 WtCom= 1.00D+00 WtEn= 0.00D+00
 Coeff-Com:  0.187D-03-0.366D-03-0.593D-03-0.101D-02-0.143D-02 0.394D-02
 Coeff-Com:  0.314D-01 0.382D-01-0.500D-01-0.222D+00-0.485D-01 0.467D+00
 Coeff-Com:  0.783D+00
 Coeff:      0.187D-03-0.366D-03-0.593D-03-0.101D-02-0.143D-02 0.394D-02
 Coeff:      0.314D-01 0.382D-01-0.500D-01-0.222D+00-0.485D-01 0.467D+00
 Coeff:      0.783D+00
 Gap=     0.161 Goal=   None    Shift=    0.000
 RMSDP=2.86D-07 MaxDP=1.32D-05 DE=-1.75D-07 OVMax= 1.76D-04

 Cycle  14  Pass 1  IDiag  1:
 RMSU=  7.61D-08    CP:  9.74D-01  1.60D+00  7.06D-01  7.35D-01  1.04D+00
                    CP:  1.20D+00  1.64D+00  2.10D+00  2.68D+00  2.61D+00
                    CP:  2.15D+00  1.75D+00  1.15D+00
 E= -3007.86218505760     Delta-E=       -0.000000020096 Rises=F Damp=F
 DIIS: error= 6.01D-07 at cycle  14 NSaved=  14.
 NSaved=14 IEnMin=14 EnMin= -3007.86218505760     IErMin=14 ErrMin= 6.01D-07
 ErrMax= 6.01D-07  0.00D+00 EMaxC= 1.00D-01 BMatC= 6.44D-10 BMatP= 3.79D-09
 IDIUse=1 WtCom= 1.00D+00 WtEn= 0.00D+00
 Coeff-Com:  0.109D-04-0.185D-04-0.580D-04-0.157D-03-0.714D-03-0.102D-02
 Coeff-Com:  0.392D-02 0.118D-01 0.146D-01-0.369D-01-0.791D-01-0.461D-02
 Coeff-Com:  0.289D+00 0.803D+00
 Coeff:      0.109D-04-0.185D-04-0.580D-04-0.157D-03-0.714D-03-0.102D-02
 Coeff:      0.392D-02 0.118D-01 0.146D-01-0.369D-01-0.791D-01-0.461D-02
 Coeff:      0.289D+00 0.803D+00
 Gap=     0.161 Goal=   None    Shift=    0.000
 RMSDP=9.56D-08 MaxDP=1.49D-05 DE=-2.01D-08 OVMax= 5.61D-05

 Cycle  15  Pass 1  IDiag  1:
 RMSU=  3.82D-08    CP:  9.74D-01  1.60D+00  7.06D-01  7.35D-01  1.04D+00
                    CP:  1.20D+00  1.65D+00  2.11D+00  2.70D+00  2.65D+00
                    CP:  2.22D+00  1.85D+00  1.36D+00  1.15D+00
 E= -3007.86218506003     Delta-E=       -0.000000002427 Rises=F Damp=F
 DIIS: error= 3.61D-07 at cycle  15 NSaved=  15.
 NSaved=15 IEnMin=15 EnMin= -3007.86218506003     IErMin=15 ErrMin= 3.61D-07
 ErrMax= 3.61D-07  0.00D+00 EMaxC= 1.00D-01 BMatC= 1.66D-10 BMatP= 6.44D-10
 IDIUse=1 WtCom= 1.00D+00 WtEn= 0.00D+00
 Coeff-Com: -0.389D-04 0.774D-04 0.113D-03 0.165D-03 0.521D-05-0.139D-02
 Coeff-Com: -0.559D-02-0.364D-02 0.167D-01 0.345D-01-0.240D-01-0.987D-01
 Coeff-Com: -0.593D-01 0.349D+00 0.792D+00
 Coeff:     -0.389D-04 0.774D-04 0.113D-03 0.165D-03 0.521D-05-0.139D-02
 Coeff:     -0.559D-02-0.364D-02 0.167D-01 0.345D-01-0.240D-01-0.987D-01
 Coeff:     -0.593D-01 0.349D+00 0.792D+00
 Gap=     0.161 Goal=   None    Shift=    0.000
 RMSDP=4.21D-08 MaxDP=1.96D-06 DE=-2.43D-09 OVMax= 3.01D-05

 Cycle  16  Pass 1  IDiag  1:
 RMSU=  2.02D-08    CP:  9.74D-01  1.60D+00  7.06D-01  7.35D-01  1.04D+00
                    CP:  1.20D+00  1.65D+00  2.11D+00  2.70D+00  2.65D+00
                    CP:  2.24D+00  1.90D+00  1.46D+00  1.41D+00  1.18D+00
 E= -3007.86218506101     Delta-E=       -0.000000000977 Rises=F Damp=F
 DIIS: error= 2.41D-07 at cycle  16 NSaved=  16.
 NSaved=16 IEnMin=16 EnMin= -3007.86218506101     IErMin=16 ErrMin= 2.41D-07
 ErrMax= 2.41D-07  0.00D+00 EMaxC= 1.00D-01 BMatC= 4.88D-11 BMatP= 1.66D-10
 IDIUse=1 WtCom= 1.00D+00 WtEn= 0.00D+00
 Coeff-Com: -0.158D-04 0.309D-04 0.516D-04 0.877D-04 0.130D-03-0.308D-03
 Coeff-Com: -0.286D-02-0.317D-02 0.351D-02 0.212D-01 0.166D-02-0.332D-01
 Coeff-Com: -0.808D-01-0.314D-01 0.324D+00 0.801D+00
 Coeff:     -0.158D-04 0.309D-04 0.516D-04 0.877D-04 0.130D-03-0.308D-03
 Coeff:     -0.286D-02-0.317D-02 0.351D-02 0.212D-01 0.166D-02-0.332D-01
 Coeff:     -0.808D-01-0.314D-01 0.324D+00 0.801D+00
 Gap=     0.161 Goal=   None    Shift=    0.000
 RMSDP=2.37D-08 MaxDP=3.40D-06 DE=-9.77D-10 OVMax= 1.51D-05

 Cycle  17  Pass 1  IDiag  1:
 RMSU=  9.51D-09    CP:  9.74D-01  1.60D+00  7.06D-01  7.35D-01  1.04D+00
                    CP:  1.20D+00  1.65D+00  2.11D+00  2.71D+00  2.66D+00
                    CP:  2.25D+00  1.91D+00  1.50D+00  1.55D+00  1.48D+00
                    CP:  1.46D+00
 E= -3007.86218506108     Delta-E=       -0.000000000075 Rises=F Damp=F
 DIIS: error= 1.62D-07 at cycle  17 NSaved=  17.
 NSaved=17 IEnMin=17 EnMin= -3007.86218506108     IErMin=17 ErrMin= 1.62D-07
 ErrMax= 1.62D-07  0.00D+00 EMaxC= 1.00D-01 BMatC= 1.58D-11 BMatP= 4.88D-11
 IDIUse=1 WtCom= 1.00D+00 WtEn= 0.00D+00
 Coeff-Com:  0.860D-05-0.174D-04-0.235D-04-0.298D-04 0.399D-04 0.414D-03
 Coeff-Com:  0.102D-02 0.544D-03-0.567D-02-0.461D-02 0.636D-02 0.299D-01
 Coeff-Com: -0.380D-02-0.143D+00-0.135D+00 0.135D+00 0.112D+01
 Coeff:      0.860D-05-0.174D-04-0.235D-04-0.298D-04 0.399D-04 0.414D-03
 Coeff:      0.102D-02 0.544D-03-0.567D-02-0.461D-02 0.636D-02 0.299D-01
 Coeff:     -0.380D-02-0.143D+00-0.135D+00 0.135D+00 0.112D+01
 Gap=     0.161 Goal=   None    Shift=    0.000
 RMSDP=2.25D-08 MaxDP=1.25D-06 DE=-7.46D-11 OVMax= 1.65D-05

 Cycle  18  Pass 1  IDiag  1:
 RMSU=  5.82D-09    CP:  9.74D-01  1.60D+00  7.06D-01  7.35D-01  1.04D+00
                    CP:  1.20D+00  1.65D+00  2.11D+00  2.71D+00  2.66D+00
                    CP:  2.25D+00  1.92D+00  1.53D+00  1.66D+00  1.77D+00
                    CP:  2.14D+00  1.71D+00
 E= -3007.86218506141     Delta-E=       -0.000000000326 Rises=F Damp=F
 DIIS: error= 1.09D-07 at cycle  18 NSaved=  18.
 NSaved=18 IEnMin=18 EnMin= -3007.86218506141     IErMin=18 ErrMin= 1.09D-07
 ErrMax= 1.09D-07  0.00D+00 EMaxC= 1.00D-01 BMatC= 8.47D-12 BMatP= 1.58D-11
 IDIUse=1 WtCom= 1.00D+00 WtEn= 0.00D+00
 Coeff-Com:  0.101D-04-0.198D-04-0.317D-04-0.487D-04-0.451D-04 0.295D-03
 Coeff-Com:  0.157D-02 0.184D-02-0.418D-02-0.102D-01-0.233D-03 0.280D-01
 Coeff-Com:  0.344D-01-0.518D-01-0.165D+00-0.372D+00 0.514D+00 0.102D+01
 Coeff:      0.101D-04-0.198D-04-0.317D-04-0.487D-04-0.451D-04 0.295D-03
 Coeff:      0.157D-02 0.184D-02-0.418D-02-0.102D-01-0.233D-03 0.280D-01
 Coeff:      0.344D-01-0.518D-01-0.165D+00-0.372D+00 0.514D+00 0.102D+01
 Gap=     0.161 Goal=   None    Shift=    0.000
 RMSDP=1.90D-08 MaxDP=1.01D-06 DE=-3.26D-10 OVMax= 1.36D-05

 Cycle  19  Pass 1  IDiag  1:
 RMSU=  3.64D-09    CP:  9.74D-01  1.60D+00  7.06D-01  7.35D-01  1.04D+00
                    CP:  1.20D+00  1.65D+00  2.11D+00  2.71D+00  2.66D+00
                    CP:  2.25D+00  1.92D+00  1.56D+00  1.75D+00  2.00D+00
                    CP:  2.71D+00  2.56D+00  1.57D+00
 E= -3007.86218506124     Delta-E=        0.000000000166 Rises=F Damp=F
 DIIS: error= 5.42D-08 at cycle  19 NSaved=  19.
 NSaved=19 IEnMin=18 EnMin= -3007.86218506141     IErMin=19 ErrMin= 5.42D-08
 ErrMax= 5.42D-08  0.00D+00 EMaxC= 1.00D-01 BMatC= 2.68D-12 BMatP= 8.47D-12
 IDIUse=1 WtCom= 1.00D+00 WtEn= 0.00D+00
 Coeff-Com:  0.101D-05-0.178D-05-0.494D-05-0.870D-05-0.394D-04-0.333D-04
 Coeff-Com:  0.250D-03 0.726D-03 0.173D-03-0.243D-02-0.325D-02 0.117D-02
 Coeff-Com:  0.182D-01 0.294D-01-0.561D-02-0.258D+00-0.192D+00 0.467D+00
 Coeff-Com:  0.945D+00
 Coeff:      0.101D-05-0.178D-05-0.494D-05-0.870D-05-0.394D-04-0.333D-04
 Coeff:      0.250D-03 0.726D-03 0.173D-03-0.243D-02-0.325D-02 0.117D-02
 Coeff:      0.182D-01 0.294D-01-0.561D-02-0.258D+00-0.192D+00 0.467D+00
 Coeff:      0.945D+00
 Gap=     0.161 Goal=   None    Shift=    0.000
 RMSDP=1.17D-08 MaxDP=5.43D-07 DE= 1.66D-10 OVMax= 8.29D-06

 Cycle  20  Pass 1  IDiag  1:
 RMSU=  2.46D-09    CP:  9.74D-01  1.60D+00  7.06D-01  7.35D-01  1.04D+00
                    CP:  1.20D+00  1.65D+00  2.11D+00  2.71D+00  2.66D+00
                    CP:  2.25D+00  1.93D+00  1.57D+00  1.79D+00  2.14D+00
                    CP:  3.00D+00  3.00D+00  2.18D+00  1.28D+00
 E= -3007.86218506148     Delta-E=       -0.000000000235 Rises=F Damp=F
 DIIS: error= 1.57D-08 at cycle  20 NSaved=  20.
 NSaved=20 IEnMin=20 EnMin= -3007.86218506148     IErMin=20 ErrMin= 1.57D-08
 ErrMax= 1.57D-08  0.00D+00 EMaxC= 1.00D-01 BMatC= 5.29D-13 BMatP= 2.68D-12
 IDIUse=1 WtCom= 1.00D+00 WtEn= 0.00D+00
 Coeff-Com: -0.285D-05 0.565D-05 0.823D-05 0.128D-04-0.417D-05-0.110D-03
 Coeff-Com: -0.426D-03-0.241D-03 0.141D-02 0.237D-02-0.138D-02-0.863D-02
 Coeff-Com: -0.284D-02 0.269D-01 0.571D-01-0.840D-02-0.239D+00-0.113D+00
 Coeff-Com:  0.412D+00 0.874D+00
 Coeff:     -0.285D-05 0.565D-05 0.823D-05 0.128D-04-0.417D-05-0.110D-03
 Coeff:     -0.426D-03-0.241D-03 0.141D-02 0.237D-02-0.138D-02-0.863D-02
 Coeff:     -0.284D-02 0.269D-01 0.571D-01-0.840D-02-0.239D+00-0.113D+00
 Coeff:      0.412D+00 0.874D+00
 Gap=     0.161 Goal=   None    Shift=    0.000
 RMSDP=4.93D-09 MaxDP=2.27D-07 DE=-2.35D-10 OVMax= 3.54D-06

 SCF Done:  E(RwB97XD) =  -3007.86218506     A.U. after   20 cycles
            NFock= 20  Conv=0.49D-08     -V/T= 2.0108
 KE= 2.975592844407D+03 PE=-2.653514279504D+04 EE= 1.078005695190D+04
 Leave Link  502 at Wed May  4 00:30:03 2022, MaxMem= 10066329600 cpu:           10958.2 elap:             475.5
 (Enter /sw/apps/gaussian-16.0/g16/l801.exe)
 DoSCS=F DFT=T ScalE2(SS,OS)=  1.000000  1.000000
 ExpMin= 3.36D-02 ExpMax= 4.95D+03 ExpMxC= 7.45D+02 IAcc=3 IRadAn=         5 AccDes= 0.00D+00
 HarFok:  IExCor=  205 AccDes= 0.00D+00 IRadAn=         5 IDoV=-2 UseB2=F ITyADJ=14
 ICtDFT= 12500011 ScaDFX=  1.000000  1.000000  1.000000  1.000000
 GSVD:  LWork=       -5460 too small for GESVD, short by       25550 words or       25550 for optimal perf.
 Largest valence mixing into a core orbital is  1.18D-04
 Largest core mixing into a valence orbital is  5.50D-05
 Range of M.O.s used for correlation:    71  1298
 NBasis=  1298 NAE=   246 NBE=   246 NFC=    70 NFV=     0
 NROrb=   1228 NOA=   176 NOB=   176 NVA=  1052 NVB=  1052
 Leave Link  801 at Wed May  4 00:30:03 2022, MaxMem= 10066329600 cpu:               6.2 elap:               0.3
 (Enter /sw/apps/gaussian-16.0/g16/l914.exe)
 RHF ground state
 Two-electron integrals replicated using symmetry.
 MDV= 10066329600 DFT=T DoStab=F Mixed=T DoRPA=T DoScal=F NonHer=T
 Making orbital integer symmetry assigments:
 Orbital symmetries:
       Occupied  (A) (A) (A) (A) (A) (A) (A) (A) (A) (A) (A) (A)
                 (A) (A) (A) (A) (A) (A) (A) (A) (A) (A) (A) (A)
                 (A) (A) (A) (A) (A) (A) (A) (A) (A) (A) (A) (A)
                 (A) (A) (A) (A) (A) (A) (A) (A) (A) (A) (A) (A)
                 (A) (A) (A) (A) (A) (A) (A) (A) (A) (A) (A) (A)
                 (A) (A) (A) (A) (A) (A) (A) (A) (A) (A) (A) (A)
                 (A) (A) (A) (A) (A) (A) (A) (A) (A) (A) (A) (A)
                 (A) (A) (A) (A) (A) (A) (A) (A) (A) (A) (A) (A)
                 (A) (A) (A) (A) (A) (A) (A) (A) (A) (A) (A) (A)
                 (A) (A) (A) (A) (A) (A) (A) (A) (A) (A) (A) (A)
                 (A) (A) (A) (A) (A) (A) (A) (A) (A) (A) (A) (A)
                 (A) (A) (A) (A) (A) (A) (A) (A) (A) (A) (A) (A)
                 (A) (A) (A) (A) (A) (A) (A) (A) (A) (A) (A) (A)
                 (A) (A) (A) (A) (A) (A) (A) (A) (A) (A) (A) (A)
                 (A) (A) (A) (A) (A) (A) (A) (A) (A) (A) (A) (A)
                 (A) (A) (A) (A) (A) (A) (A) (A) (A) (A) (A) (A)
                 (A) (A) (A) (A) (A) (A) (A) (A) (A) (A) (A) (A)
                 (A) (A) (A) (A) (A) (A) (A) (A) (A) (A) (A) (A)
                 (A) (A) (A) (A) (A) (A) (A) (A) (A) (A) (A) (A)
                 (A) (A) (A) (A) (A) (A) (A) (A) (A) (A) (A) (A)
                 (A) (A) (A) (A) (A) (A)
       Virtual   (A) (A) (A) (A) (A) (A) (A) (A) (A) (A) (A) (A)
                 (A) (A) (A) (A) (A) (A) (A) (A) (A) (A) (A) (A)
                 (A) (A) (A) (A) (A) (A) (A) (A) (A) (A) (A) (A)
                 (A) (A) (A) (A) (A) (A) (A) (A) (A) (A) (A) (A)
                 (A) (A) (A) (A) (A) (A) (A) (A) (A) (A) (A) (A)
                 (A) (A) (A) (A) (A) (A) (A) (A) (A) (A) (A) (A)
                 (A) (A) (A) (A) (A) (A) (A) (A) (A) (A) (A) (A)
                 (A) (A) (A) (A) (A) (A) (A) (A) (A) (A) (A) (A)
                 (A) (A) (A) (A) (A) (A) (A) (A) (A) (A) (A) (A)
                 (A) (A) (A) (A) (A) (A) (A) (A) (A) (A) (A) (A)
                 (A) (A) (A) (A) (A) (A) (A) (A) (A) (A) (A) (A)
                 (A) (A) (A) (A) (A) (A) (A) (A) (A) (A) (A) (A)
                 (A) (A) (A) (A) (A) (A) (A) (A) (A) (A) (A) (A)
                 (A) (A) (A) (A) (A) (A) (A) (A) (A) (A) (A) (A)
                 (A) (A) (A) (A) (A) (A) (A) (A) (A) (A) (A) (A)
                 (A) (A) (A) (A) (A) (A) (A) (A) (A) (A) (A) (A)
                 (A) (A) (A) (A) (A) (A) (A) (A) (A) (A) (A) (A)
                 (A) (A) (A) (A) (A) (A) (A) (A) (A) (A) (A) (A)
                 (A) (A) (A) (A) (A) (A) (A) (A) (A) (A) (A) (A)
                 (A) (A) (A) (A) (A) (A) (A) (A) (A) (A) (A) (A)
                 (A) (A) (A) (A) (A) (A) (A) (A) (A) (A) (A) (A)
                 (A) (A) (A) (A) (A) (A) (A) (A) (A) (A) (A) (A)
                 (A) (A) (A) (A) (A) (A) (A) (A) (A) (A) (A) (A)
                 (A) (A) (A) (A) (A) (A) (A) (A) (A) (A) (A) (A)
                 (A) (A) (A) (A) (A) (A) (A) (A) (A) (A) (A) (A)
                 (A) (A) (A) (A) (A) (A) (A) (A) (A) (A) (A) (A)
                 (A) (A) (A) (A) (A) (A) (A) (A) (A) (A) (A) (A)
                 (A) (A) (A) (A) (A) (A) (A) (A) (A) (A) (A) (A)
                 (A) (A) (A) (A) (A) (A) (A) (A) (A) (A) (A) (A)
                 (A) (A) (A) (A) (A) (A) (A) (A) (A) (A) (A) (A)
                 (A) (A) (A) (A) (A) (A) (A) (A) (A) (A) (A) (A)
                 (A) (A) (A) (A) (A) (A) (A) (A) (A) (A) (A) (A)
                 (A) (A) (A) (A) (A) (A) (A) (A) (A) (A) (A) (A)
                 (A) (A) (A) (A) (A) (A) (A) (A) (A) (A) (A) (A)
                 (A) (A) (A) (A) (A) (A) (A) (A) (A) (A) (A) (A)
                 (A) (A) (A) (A) (A) (A) (A) (A) (A) (A) (A) (A)
                 (A) (A) (A) (A) (A) (A) (A) (A) (A) (A) (A) (A)
                 (A) (A) (A) (A) (A) (A) (A) (A) (A) (A) (A) (A)
                 (A) (A) (A) (A) (A) (A) (A) (A) (A) (A) (A) (A)
                 (A) (A) (A) (A) (A) (A) (A) (A) (A) (A) (A) (A)
                 (A) (A) (A) (A) (A) (A) (A) (A) (A) (A) (A) (A)
                 (A) (A) (A) (A) (A) (A) (A) (A) (A) (A) (A) (A)
                 (A) (A) (A) (A) (A) (A) (A) (A) (A) (A) (A) (A)
                 (A) (A) (A) (A) (A) (A) (A) (A) (A) (A) (A) (A)
                 (A) (A) (A) (A) (A) (A) (A) (A) (A) (A) (A) (A)
                 (A) (A) (A) (A) (A) (A) (A) (A) (A) (A) (A) (A)
                 (A) (A) (A) (A) (A) (A) (A) (A) (A) (A) (A) (A)
                 (A) (A) (A) (A) (A) (A) (A) (A) (A) (A) (A) (A)
                 (A) (A) (A) (A) (A) (A) (A) (A) (A) (A) (A) (A)
                 (A) (A) (A) (A) (A) (A) (A) (A) (A) (A) (A) (A)
                 (A) (A) (A) (A) (A) (A) (A) (A) (A) (A) (A) (A)
                 (A) (A) (A) (A) (A) (A) (A) (A) (A) (A) (A) (A)
                 (A) (A) (A) (A) (A) (A) (A) (A) (A) (A) (A) (A)
                 (A) (A) (A) (A) (A) (A) (A) (A) (A) (A) (A) (A)
                 (A) (A) (A) (A) (A) (A) (A) (A) (A) (A) (A) (A)
                 (A) (A) (A) (A) (A) (A) (A) (A) (A) (A) (A) (A)
                 (A) (A) (A) (A) (A) (A) (A) (A) (A) (A) (A) (A)
                 (A) (A) (A) (A) (A) (A) (A) (A) (A) (A) (A) (A)
                 (A) (A) (A) (A) (A) (A) (A) (A) (A) (A) (A) (A)
                 (A) (A) (A) (A) (A) (A) (A) (A) (A) (A) (A) (A)
                 (A) (A) (A) (A) (A) (A) (A) (A) (A) (A) (A) (A)
                 (A) (A) (A) (A) (A) (A) (A) (A) (A) (A) (A) (A)
                 (A) (A) (A) (A) (A) (A) (A) (A) (A) (A) (A) (A)
                 (A) (A) (A) (A) (A) (A) (A) (A) (A) (A) (A) (A)
                 (A) (A) (A) (A) (A) (A) (A) (A) (A) (A) (A) (A)
                 (A) (A) (A) (A) (A) (A) (A) (A) (A) (A) (A) (A)
                 (A) (A) (A) (A) (A) (A) (A) (A) (A) (A) (A) (A)
                 (A) (A) (A) (A) (A) (A) (A) (A) (A) (A) (A) (A)
                 (A) (A) (A) (A) (A) (A) (A) (A) (A) (A) (A) (A)
                 (A) (A) (A) (A) (A) (A) (A) (A) (A) (A) (A) (A)
                 (A) (A) (A) (A) (A) (A) (A) (A) (A) (A) (A) (A)
                 (A) (A) (A) (A) (A) (A) (A) (A) (A) (A) (A) (A)
                 (A) (A) (A) (A) (A) (A) (A) (A) (A) (A) (A) (A)
                 (A) (A) (A) (A) (A) (A) (A) (A) (A) (A) (A) (A)
                 (A) (A) (A) (A) (A) (A) (A) (A) (A) (A) (A) (A)
                 (A) (A) (A) (A) (A) (A) (A) (A) (A) (A) (A) (A)
                 (A) (A) (A) (A) (A) (A) (A) (A) (A) (A) (A) (A)
                 (A) (A) (A) (A) (A) (A) (A) (A) (A) (A) (A) (A)
                 (A) (A) (A) (A) (A) (A) (A) (A) (A) (A) (A) (A)
                 (A) (A) (A) (A) (A) (A) (A) (A) (A) (A) (A) (A)
                 (A) (A) (A) (A) (A) (A) (A) (A) (A) (A) (A) (A)
                 (A) (A) (A) (A) (A) (A) (A) (A) (A) (A) (A) (A)
                 (A) (A) (A) (A) (A) (A) (A) (A) (A) (A) (A) (A)
                 (A) (A) (A) (A) (A) (A) (A) (A) (A) (A) (A) (A)
                 (A) (A) (A) (A) (A) (A) (A) (A) (A) (A) (A) (A)
                 (A) (A) (A) (A) (A) (A) (A) (A) (A) (A) (A) (A)
                 (A) (A) (A) (A) (A) (A) (A) (A) (A) (A) (A) (A)
                 (A) (A) (A) (A) (A) (A) (A) (A)
    20 initial guesses have been made.
 Convergence on wavefunction:    0.001000000000000
 Davidson Disk Diagonalization:  ConvIn= 1.00D-03 SkipCon=T Conv= 1.00D-03.
 Max sub-space:  2000 roots to seek:    20 dimension of matrix:       370304
 Iteration     1 Dimension    20 NMult     0 NNew     20
 CISAX will form    20 AO SS matrices at one time.
 NMat=    20 NSing=    20 JSym2X= 0.
 FoFJK:  IHMeth= 1 ICntrl=       0 DoSepK=T KAlg= 0 I1Cent=           0 FoldK=F
 IRaf=         1 NMat=      40 IRICut=       1 DoRegI=T DoRafI=F ISym2E= 0 IDoP0=3 IntGTp=3.
 FoFCou: FMM=T IPFlag=           0 FMFlag=      100000 FMFlg1=        2001
         NFxFlg=           0 DoJE=F BraDBF=F KetDBF=F FulRan=T
         wScrn=  0.000000 ICntrl=       500 IOpCl=  0 I1Cent=           0 NGrid=           0
         NMat0=   20 NMatS0=     20 NMatT0=    0 NMatD0=   20 NMtDS0=    0 NMtDT0=    0
 Symmetry not used in FoFCou.
 FMM levels:  10  Number of levels for PrismC:   9
 New state      3 was old state      6
 New state      4 was old state     12
 New state      5 was old state      9
 Excitation Energies [eV] at current iteration:
 Root      1 :     2.217301296871647
 Root      2 :     2.635301082116634
 Root      3 :     3.922727573382176
 Root      4 :     4.077046311585680
 Root      5 :     4.124993565485464
 Root      6 :     4.336520578298773
 Root      7 :     4.402596294743444
 Root      8 :     4.438815555357507
 Root      9 :     4.460748639829184
 Root     10 :     4.638185232021811
 Root     11 :     4.763537340607093
 Root     12 :     4.935518346643388
 Root     13 :     5.087626738194475
 Root     14 :     5.170525869052364
 Root     15 :     5.242595737109592
 Root     16 :     5.339929596759232
 Root     17 :     5.481937317107554
 Root     18 :     5.635027992052333
 Root     19 :     6.191207444985194
 Root     20 :     7.072458240958201
 Iteration     2 Dimension    30 NMult    20 NNew     10
 CISAX will form    10 AO SS matrices at one time.
 NMat=    10 NSing=    10 JSym2X= 0.
 Root      1 not converged, maximum delta is    0.076201490518568
 Root      2 not converged, maximum delta is    0.050226255513920
 Root      3 not converged, maximum delta is    0.129247948650180
 New state      4 was old state      5
 Root      4 not converged, maximum delta is    0.185119301481721
 New state      5 was old state      4
 Root      5 not converged, maximum delta is    0.107377182253627
 Excitation Energies [eV] at current iteration:
 Root      1 :     1.720243723433114   Change is   -0.497057573438533
 Root      2 :     2.250010113054065   Change is   -0.385290969062569
 Root      3 :     3.491599769256599   Change is   -0.431127804125578
 Root      4 :     3.586812216995215   Change is   -0.538181348490249
 Root      5 :     3.974734735586799   Change is   -0.102311575998881
 Iteration     3 Dimension    40 NMult    30 NNew     10
 CISAX will form    10 AO SS matrices at one time.
 NMat=    10 NSing=    10 JSym2X= 0.
 Root      1 not converged, maximum delta is    0.016505276133011
 Root      2 not converged, maximum delta is    0.010090252313091
 Root      3 not converged, maximum delta is    0.148701531038075
 Root      4 not converged, maximum delta is    0.193811591944834
 Root      5 not converged, maximum delta is    0.236146398708909
 Excitation Energies [eV] at current iteration:
 Root      1 :     1.684819915907892   Change is   -0.035423807525221
 Root      2 :     2.231784777202321   Change is   -0.018225335851744
 Root      3 :     3.463171862419940   Change is   -0.028427906836658
 Root      4 :     3.514096664263038   Change is   -0.072715552732177
 Root      5 :     3.910962873727430   Change is   -0.063771861859369
 Iteration     4 Dimension    50 NMult    40 NNew     10
 CISAX will form    10 AO SS matrices at one time.
 NMat=    10 NSing=    10 JSym2X= 0.
 Root      1 not converged, maximum delta is    0.003554432411210
 Root      2 not converged, maximum delta is    0.003479172681826
 Root      3 not converged, maximum delta is    0.044810287069503
 Root      4 not converged, maximum delta is    0.034541129544688
 Root      5 not converged, maximum delta is    0.205854938876416
 Excitation Energies [eV] at current iteration:
 Root      1 :     1.681328223772263   Change is   -0.003491692135630
 Root      2 :     2.229499178035037   Change is   -0.002285599167284
 Root      3 :     3.450570709611554   Change is   -0.012601152808387
 Root      4 :     3.498716947928791   Change is   -0.015379716334247
 Root      5 :     3.869081824109406   Change is   -0.041881049618025
 Iteration     5 Dimension    60 NMult    50 NNew     10
 CISAX will form    10 AO SS matrices at one time.
 NMat=    10 NSing=    10 JSym2X= 0.
 Root      1 not converged, maximum delta is    0.001066295408430
 Root      2 has converged.
 Root      3 not converged, maximum delta is    0.046788732262392
 Root      4 not converged, maximum delta is    0.057080944911401
 Root      5 not converged, maximum delta is    0.472521618163231
 Excitation Energies [eV] at current iteration:
 Root      1 :     1.680998317391683   Change is   -0.000329906380580
 Root      2 :     2.229327749999757   Change is   -0.000171428035280
 Root      3 :     3.443692735734538   Change is   -0.006877973877016
 Root      4 :     3.494241200557353   Change is   -0.004475747371438
 Root      5 :     3.682114904139099   Change is   -0.186966919970306
 Iteration     6 Dimension    68 NMult    60 NNew      8
 CISAX will form     8 AO SS matrices at one time.
 NMat=     8 NSing=     8 JSym2X= 0.
 Root      1 has converged.
 Root      2 has converged.
 Root      3 not converged, maximum delta is    0.010137475350419
 Root      4 not converged, maximum delta is    0.012021060887436
 Root      5 not converged, maximum delta is    0.019529771600199
 Excitation Energies [eV] at current iteration:
 Root      1 :     1.680969990582760   Change is   -0.000028326808923
 Root      2 :     2.229326883791625   Change is   -0.000000866208133
 Root      3 :     3.442505967177937   Change is   -0.001186768556601
 Root      4 :     3.493450297459541   Change is   -0.000790903097811
 Root      5 :     3.656892875504159   Change is   -0.025222028634941
 Iteration     7 Dimension    74 NMult    68 NNew      6
 CISAX will form     6 AO SS matrices at one time.
 NMat=     6 NSing=     6 JSym2X= 0.
 Root      1 has converged.
 Root      2 has converged.
 Root      3 not converged, maximum delta is    0.002107150192798
 Root      4 not converged, maximum delta is    0.002213474738201
 Root      5 not converged, maximum delta is    0.010080360376929
 Excitation Energies [eV] at current iteration:
 Root      1 :     1.680969939263911   Change is   -0.000000051318849
 Root      2 :     2.229326334905197   Change is   -0.000000548886427
 Root      3 :     3.442303075841478   Change is   -0.000202891336458
 Root      4 :     3.493320122493563   Change is   -0.000130174965978
 Root      5 :     3.652576644159401   Change is   -0.004316231344758
 Iteration     8 Dimension    80 NMult    74 NNew      6
 CISAX will form     6 AO SS matrices at one time.
 NMat=     6 NSing=     6 JSym2X= 0.
 Root      1 has converged.
 Root      2 has converged.
 Root      3 has converged.
 Root      4 has converged.
 Root      5 not converged, maximum delta is    0.001959303079714
 Excitation Energies [eV] at current iteration:
 Root      1 :     1.680969912922020   Change is   -0.000000026341891
 Root      2 :     2.229325405666457   Change is   -0.000000929238741
 Root      3 :     3.442279800446909   Change is   -0.000023275394570
 Root      4 :     3.493303293199422   Change is   -0.000016829294142
 Root      5 :     3.652118082427200   Change is   -0.000458561732200
 Iteration     9 Dimension    82 NMult    80 NNew      2
 CISAX will form     2 AO SS matrices at one time.
 NMat=     2 NSing=     2 JSym2X= 0.
 Root      1 has converged.
 Root      2 has converged.
 Root      3 has converged.
 Root      4 has converged.
 Root      5 has converged.
 Excitation Energies [eV] at current iteration:
 Root      1 :     1.680969897618922   Change is   -0.000000015303098
 Root      2 :     2.229324625728001   Change is   -0.000000779938456
 Root      3 :     3.442277734475467   Change is   -0.000002065971441
 Root      4 :     3.493302278893081   Change is   -0.000001014306340
 Root      5 :     3.652065645032974   Change is   -0.000052437394226
 Convergence achieved on expansion vectors.
 ***********************************************************************
 Excited states from <AA,BB:AA,BB> singles matrix:
 ***********************************************************************
 
 1PDM for each excited state written to RWF  633
 Ground to excited state transition densities written to RWF  633
 Ground to excited state transition electric dipole moments (Au):
       state          X           Y           Z        Dip. S.      Osc.
         1         0.3132     -2.4616      1.6277      8.8071      0.3627
         2         0.6982      0.5640      0.4346      0.9945      0.0543
         3        -1.0513     -0.6055     -0.6001      1.8320      0.1545
         4         1.8860      1.4449      1.1001      6.8548      0.5867
         5        -0.0175      0.0040     -0.0137      0.0005      0.0000
 Ground to excited state transition velocity dipole moments (Au):
       state          X           Y           Z        Dip. S.      Osc.
         1        -0.0180      0.1472     -0.0978      0.0315      0.3405
         2        -0.0527     -0.0440     -0.0331      0.0058      0.0473
         3         0.1285      0.0767      0.0748      0.0280      0.1475
         4        -0.2322     -0.1831     -0.1337      0.1053      0.5469
         5         0.0019     -0.0001      0.0043      0.0000      0.0001
 Ground to excited state transition magnetic dipole moments (Au):
       state          X           Y           Z
         1        -0.2781      1.0158      1.5872
         2        -0.2836      0.4735     -0.1722
         3        -0.3779     -0.4432      0.9094
         4        -0.7319      1.7258     -1.2626
         5         0.0849      0.2688     -0.6341
 Ground to excited state transition velocity quadrupole moments (Au):
       state          XX          YY          ZZ          XY          XZ          YZ
         1        -0.3676      0.1872     -0.0010      1.2769     -0.9012     -0.1051
         2        -0.8253     -0.1074      0.0260     -0.3723     -0.2889      0.0513
         3         2.1311     -0.4872      0.0700      0.7036      0.7746      0.1056
         4        -3.5487     -0.3343      0.0908     -1.9027     -1.1576     -0.1589
         5         0.0419      0.1615     -0.0988      0.1788     -0.0167      0.1146
 <0|del|b> * <b|rxdel|0> + <0|del|b> * <b|delr+rdel|0>
 Rotatory Strengths (R) in cgs (10**-40 erg-esu-cm/Gauss)
       state          XX          YY          ZZ    R(velocity)    E-M Angle
         1        11.0506   -134.1940    114.3718     -2.9239       90.13
[...]
 Alpha virt. eigenvalues --    1.26432   1.27371   1.27552   1.27774   1.28086
 Alpha virt. eigenvalues --    1.28428   1.28787   1.29193   1.29323   1.30383
 Alpha virt. eigenvalues --    1.30479   1.31176   1.31676   1.32535   1.33006
 Alpha virt. eigenvalues --    1.33311   1.33389   1.33647   1.34380   1.34708
 Alpha virt. eigenvalues --    1.35323   1.35775   1.36771   1.36788   1.37352
 Alpha virt. eigenvalues --    1.37709   1.38197   1.38474   1.38648   1.39989
 Alpha virt. eigenvalues --    1.40353   1.40735   1.40994   1.41106   1.41510
 Alpha virt. eigenvalues --    1.41918   1.42182   1.42783   1.43241   1.43864
 Alpha virt. eigenvalues --    1.44246   1.44926   1.45079   1.45487   1.45833
 Alpha virt. eigenvalues --    1.46087   1.46256   1.46493   1.46835   1.47261
 Alpha virt. eigenvalues --    1.47741   1.48008   1.48266   1.48490   1.49408
 Alpha virt. eigenvalues --    1.49977   1.50164   1.50542   1.50938   1.51040
 Alpha virt. eigenvalues --    1.51604   1.51956   1.52521   1.53473   1.53521
 Alpha virt. eigenvalues --    1.54268   1.54378   1.55058   1.55738   1.56180
 Alpha virt. eigenvalues --    1.56641   1.57488   1.57709   1.57933   1.58422
 Alpha virt. eigenvalues --    1.58535   1.59324   1.59473   1.59992   1.60023
 Alpha virt. eigenvalues --    1.60255   1.60564   1.61139   1.61422   1.61476
 Alpha virt. eigenvalues --    1.62002   1.62175   1.62705   1.62779   1.63076
 Alpha virt. eigenvalues --    1.63180   1.63473   1.63743   1.64075   1.64298
 Alpha virt. eigenvalues --    1.64487   1.64536   1.64799   1.65385   1.65452
 Alpha virt. eigenvalues --    1.65771   1.66001   1.66493   1.66567   1.66908
 Alpha virt. eigenvalues --    1.66991   1.67585   1.67656   1.68227   1.69003
 Alpha virt. eigenvalues --    1.69737   1.70029   1.70405   1.71296   1.71454
 Alpha virt. eigenvalues --    1.71483   1.72004   1.72672   1.73127   1.73382
 Alpha virt. eigenvalues --    1.73643   1.73808   1.74245   1.74442   1.75250
 Alpha virt. eigenvalues --    1.76179   1.76714   1.77421   1.77579   1.77786
 Alpha virt. eigenvalues --    1.78001   1.78189   1.78352   1.78693   1.78830
 Alpha virt. eigenvalues --    1.79206   1.79397   1.79861   1.80134   1.80232
 Alpha virt. eigenvalues --    1.80316   1.80651   1.80973   1.81209   1.81497
 Alpha virt. eigenvalues --    1.81541   1.82062   1.82369   1.82658   1.82760
 Alpha virt. eigenvalues --    1.82798   1.83328   1.83788   1.83923   1.84021
 Alpha virt. eigenvalues --    1.84071   1.84251   1.84329   1.84970   1.85126
 Alpha virt. eigenvalues --    1.85217   1.85448   1.85731   1.86057   1.86426
 Alpha virt. eigenvalues --    1.86563   1.86805   1.86971   1.87211   1.87266
 Alpha virt. eigenvalues --    1.87390   1.87534   1.87830   1.88008   1.88089
 Alpha virt. eigenvalues --    1.88222   1.88800   1.88998   1.89073   1.89274
 Alpha virt. eigenvalues --    1.89337   1.89678   1.89712   1.89836   1.90143
 Alpha virt. eigenvalues --    1.90330   1.90480   1.90823   1.91007   1.91155
 Alpha virt. eigenvalues --    1.91378   1.91416   1.91686   1.91801   1.91883
 Alpha virt. eigenvalues --    1.92299   1.92345   1.92627   1.92789   1.93021
 Alpha virt. eigenvalues --    1.93192   1.93415   1.93654   1.93966   1.94370
 Alpha virt. eigenvalues --    1.94591   1.94683   1.94977   1.95039   1.95164
 Alpha virt. eigenvalues --    1.95665   1.95816   1.96150   1.96607   1.96756
 Alpha virt. eigenvalues --    1.96857   1.97199   1.97325   1.97507   1.97953
 Alpha virt. eigenvalues --    1.98379   1.98578   1.98874   1.99033   1.99183
 Alpha virt. eigenvalues --    1.99711   1.99865   2.00017   2.00476   2.00710
 Alpha virt. eigenvalues --    2.01024   2.01152   2.01458   2.01532   2.01711
 Alpha virt. eigenvalues --    2.02111   2.02564   2.02754   2.03163   2.03262
 Alpha virt. eigenvalues --    2.04004   2.04088   2.04311   2.04483   2.04804
 Alpha virt. eigenvalues --    2.04928   2.05024   2.05670   2.05807   2.06189
 Alpha virt. eigenvalues --    2.06416   2.06916   2.07216   2.07473   2.07894
 Alpha virt. eigenvalues --    2.08116   2.08312   2.08448   2.08679   2.08862
 Alpha virt. eigenvalues --    2.09073   2.09321   2.09623   2.09833   2.10463
 Alpha virt. eigenvalues --    2.11032   2.11083   2.11324   2.11605   2.12034
 Alpha virt. eigenvalues --    2.12161   2.12548   2.12777   2.13062   2.13094
 Alpha virt. eigenvalues --    2.13497   2.13666   2.13959   2.14131   2.14444
 Alpha virt. eigenvalues --    2.14789   2.14887   2.15074   2.15546   2.15922
 Alpha virt. eigenvalues --    2.16141   2.16672   2.16758   2.17047   2.17449
 Alpha virt. eigenvalues --    2.17695   2.18106   2.18722   2.19092   2.19359
 Alpha virt. eigenvalues --    2.19514   2.19806   2.20722   2.20881   2.20926
 Alpha virt. eigenvalues --    2.21294   2.22102   2.22426   2.22771   2.22930
 Alpha virt. eigenvalues --    2.23139   2.23432   2.23702   2.24193   2.24620
 Alpha virt. eigenvalues --    2.24735   2.24847   2.25064   2.25204   2.25867
 Alpha virt. eigenvalues --    2.26220   2.26700   2.27160   2.27193   2.27344
 Alpha virt. eigenvalues --    2.27981   2.29028   2.29347   2.29483   2.29843
 Alpha virt. eigenvalues --    2.30109   2.30446   2.30927   2.31510   2.32108
 Alpha virt. eigenvalues --    2.32850   2.33084   2.33310   2.34324   2.34423
 Alpha virt. eigenvalues --    2.35246   2.35632   2.35898   2.36375   2.36466
 Alpha virt. eigenvalues --    2.36810   2.36909   2.37455   2.37555   2.38002
 Alpha virt. eigenvalues --    2.38748   2.39585   2.40044   2.40148   2.40587
 Alpha virt. eigenvalues --    2.40847   2.40903   2.41441   2.41666   2.41849
 Alpha virt. eigenvalues --    2.42308   2.42828   2.42856   2.43150   2.43211
 Alpha virt. eigenvalues --    2.44162   2.44366   2.45292   2.45358   2.46067
 Alpha virt. eigenvalues --    2.46631   2.46824   2.47280   2.47548   2.47602
 Alpha virt. eigenvalues --    2.48151   2.48754   2.49185   2.49504   2.49720
 Alpha virt. eigenvalues --    2.50110   2.50291   2.50562   2.51079   2.51330
 Alpha virt. eigenvalues --    2.51508   2.51876   2.52536   2.52842   2.53283
 Alpha virt. eigenvalues --    2.53627   2.54323   2.54672   2.54837   2.54975
 Alpha virt. eigenvalues --    2.55446   2.55758   2.56310   2.56677   2.56916
 Alpha virt. eigenvalues --    2.57799   2.57971   2.58086   2.59105   2.59448
 Alpha virt. eigenvalues --    2.60097   2.60489   2.60685   2.60759   2.61181
 Alpha virt. eigenvalues --    2.61957   2.62126   2.62284   2.62321   2.63142
 Alpha virt. eigenvalues --    2.63260   2.63756   2.64267   2.64311   2.65199
 Alpha virt. eigenvalues --    2.65504   2.65883   2.66531   2.66644   2.67051
 Alpha virt. eigenvalues --    2.67609   2.67651   2.68289   2.68427   2.68721
 Alpha virt. eigenvalues --    2.69450   2.69816   2.70273   2.70669   2.70977
 Alpha virt. eigenvalues --    2.71324   2.71460   2.72059   2.72105   2.73323
 Alpha virt. eigenvalues --    2.73379   2.74028   2.74403   2.75210   2.75409
 Alpha virt. eigenvalues --    2.75685   2.76123   2.76589   2.76906   2.77240
 Alpha virt. eigenvalues --    2.77329   2.78117   2.78927   2.79907   2.80137
 Alpha virt. eigenvalues --    2.80164   2.80745   2.81267   2.81707   2.81813
 Alpha virt. eigenvalues --    2.82102   2.82480   2.82712   2.83218   2.83431
 Alpha virt. eigenvalues --    2.83653   2.83876   2.84073   2.84628   2.85618
 Alpha virt. eigenvalues --    2.85699   2.86994   2.87392   2.87938   2.88466
 Alpha virt. eigenvalues --    2.88995   2.89160   2.90102   2.90383   2.90661
 Alpha virt. eigenvalues --    2.90971   2.91366   2.91686   2.91991   2.92626
 Alpha virt. eigenvalues --    2.93668   2.93932   2.94917   2.95480   2.95634
 Alpha virt. eigenvalues --    2.96158   2.96207   2.96455   2.97317   2.98057
 Alpha virt. eigenvalues --    2.98422   2.98984   2.99552   2.99850   2.99918
 Alpha virt. eigenvalues --    3.00003   3.00186   3.00766   3.01044   3.01192
 Alpha virt. eigenvalues --    3.01736   3.02094   3.02229   3.02388   3.02704
 Alpha virt. eigenvalues --    3.03043   3.03213   3.03586   3.03707   3.04082
 Alpha virt. eigenvalues --    3.04184   3.04391   3.04782   3.04934   3.05078
 Alpha virt. eigenvalues --    3.05416   3.05513   3.05622   3.06034   3.06449
 Alpha virt. eigenvalues --    3.06505   3.07678   3.08191   3.08554   3.08622
 Alpha virt. eigenvalues --    3.08804   3.09444   3.09981   3.10476   3.11015
 Alpha virt. eigenvalues --    3.11367   3.11725   3.11790   3.11983   3.12304
 Alpha virt. eigenvalues --    3.13108   3.13260   3.14282   3.14563   3.14707
 Alpha virt. eigenvalues --    3.15635   3.15710   3.16043   3.16392   3.16562
 Alpha virt. eigenvalues --    3.16995   3.17482   3.17563   3.19275   3.20071
 Alpha virt. eigenvalues --    3.20277   3.20707   3.21486   3.22113   3.22324
 Alpha virt. eigenvalues --    3.22601   3.22691   3.24336   3.24907   3.26135
 Alpha virt. eigenvalues --    3.26947   3.27132   3.27384   3.28018   3.29990
 Alpha virt. eigenvalues --    3.30272   3.36236   3.41659   3.46295   3.47098
 Alpha virt. eigenvalues --    3.49770   3.53903   3.54464   3.57507   3.60570
 Alpha virt. eigenvalues --    3.63332   3.66541   3.69698   3.71341   3.72616
 Alpha virt. eigenvalues --    3.74977   3.75958
          Condensed to atoms (all electrons):
 Mulliken charges:
               1
     1  Mg   0.935095
     2  C    0.044230
     3  C   -0.097660
     4  C   -0.074031
     5  C   -0.096959
     6  N   -0.382585
     7  C    0.020126
     8  C   -0.126632
     9  C   -0.079137
    10  C    0.063600
    11  C    0.008417
    12  C    0.051254
    13  C   -0.003561
    14  C    0.206808
    15  O   -0.235330
    16  O   -0.369859
    17  N   -0.405379
    18  C    0.185672
    19  C   -0.206313
    20  C   -0.127800
    21  C    0.191017
    22  C    0.078060
    23  C    0.033560
    24  O   -0.218342
    25  C    0.015067
    26  N   -0.312050
    27  C    0.017417
    28  C   -0.073402
    29  C   -0.047845
    30  C    0.009880
    31  C    0.007583
    32  C   -0.039840
    33  C   -0.030086
    34  N   -0.370274
    35  C    0.149393
    36  C   -0.168947
    37  C   -0.011353
    38  C    0.089176
    39  C    0.070681
    40  C    0.126153
    41  O   -0.219356
    42  C   -0.079220
    43  C    0.252616
    44  O   -0.273727
    45  O   -0.382088
    46  C    0.147247
    47  C    0.228791
    48  C   -0.104078
    49  C   -0.248936
    50  C    0.045061
    51  C    0.023110
    52  C   -0.016852
    53  C    0.030426
    54  C   -0.180848
    55  C    0.003637
    56  C   -0.016593
    57  C   -0.052445
    58  C   -0.001169
    59  C   -0.181844
    60  C   -0.003738
    61  C    0.010745
    62  C   -0.020623
    63  C    0.007027
    64  C   -0.209875
    65  C   -0.035495
    66  C   -0.000405
    67  H    0.005949
    68  H   -0.026101
    69  H   -0.011958
    70  H    0.053991
    71  H    0.039491
    72  H    0.035326
    73  H    0.043640
    74  H    0.039427
    75  H    0.033723
    76  H    0.055324
    77  H    0.058008
    78  H    0.036741
    79  H    0.066212
    80  H    0.062180
    81  H    0.037018
    82  H    0.066399
    83  H    0.051063
    84  H    0.055740
    85  H    0.040126
    86  H    0.037968
    87  H    0.046529
    88  H    0.042383
    89  H    0.034314
    90  H    0.031518
    91  H    0.025482
    92  H    0.034767
    93  H    0.033343
    94  H    0.030973
    95  H    0.056524
    96  H    0.057706
    97  H    0.049076
    98  H    0.066338
    99  H    0.058575
   100  H    0.060046
   101  H    0.059835
   102  H    0.053030
   103  H    0.033875
   104  H    0.002102
   105  H    0.045672
   106  H    0.030956
   107  H    0.034071
   108  H    0.029128
   109  H    0.035891
   110  H    0.043214
   111  H    0.017649
   112  H    0.011711
   113  H    0.018272
   114  H    0.021825
   115  H    0.018252
   116  H    0.036346
   117  H    0.019021
   118  H    0.004506
   119  H    0.024349
   120  H    0.027669
   121  H    0.024208
   122  H    0.015956
   123  H    0.013135
   124  H    0.017337
   125  H    0.038577
   126  H    0.023515
   127  H    0.028527
   128  H    0.009067
   129  H    0.019914
   130  H    0.019271
   131  H    0.022780
   132  H    0.016838
   133  H    0.015762
   134  H    0.029818
   135  H    0.027620
   136  H    0.034648
   137  H    0.026696
   138  H    0.034095
   139  H    0.035699
   140  H    0.024148
 Sum of Mulliken charges =  -0.00000
 Mulliken charges with hydrogens summed into heavy atoms:
               1
     1  Mg   0.935095
     2  C    0.044230
     3  C   -0.091711
     4  C   -0.100131
     5  C   -0.108917
     6  N   -0.382585
     7  C    0.020126
     8  C   -0.072641
     9  C   -0.039646
    10  C    0.063600
    11  C    0.126809
    12  C    0.140301
    13  C    0.091187
    14  C    0.206808
    15  O   -0.235330
    16  O   -0.369859
    17  N   -0.405379
    18  C    0.185672
    19  C   -0.206313
    20  C   -0.127800
    21  C    0.191017
    22  C    0.243471
    23  C    0.033560
    24  O   -0.218342
    25  C    0.188269
    26  N   -0.312050
    27  C    0.017417
    28  C   -0.033277
    29  C   -0.009877
    30  C    0.009880
    31  C    0.130809
    32  C    0.017160
    33  C    0.068996
    34  N   -0.370274
    35  C    0.149393
    36  C   -0.168947
    37  C   -0.011353
    38  C    0.089176
    39  C    0.233988
    40  C    0.126153
    41  O   -0.219356
    42  C   -0.012882
    43  C    0.252616
    44  O   -0.273727
    45  O   -0.382088
    46  C    0.325704
    47  C    0.315696
    48  C   -0.101976
    49  C   -0.248936
    50  C    0.155759
    51  C    0.088129
    52  C    0.044012
    53  C    0.060409
    54  C   -0.159024
    55  C    0.077256
    56  C    0.012262
    57  C   -0.000568
    58  C    0.027922
    59  C   -0.164507
    60  C    0.086881
    61  C    0.039725
    62  C    0.021428
    63  C    0.039627
    64  C   -0.180057
    65  C    0.053469
    66  C    0.093538
 Electronic spatial extent (au):  <R**2>=          96759.5548
 Charge=             -0.0000 electrons
 Dipole moment (field-independent basis, Debye):
    X=              2.2459    Y=              2.7752    Z=              1.9282  Tot=              4.0575
 Quadrupole moment (field-independent basis, Debye-Ang):
   XX=           -347.9304   YY=           -436.5297   ZZ=           -403.9161
   XY=             16.9593   XZ=             16.9980   YZ=             23.2901
 Traceless Quadrupole moment (field-independent basis, Debye-Ang):
   XX=             48.1950   YY=            -40.4043   ZZ=             -7.7907
   XY=             16.9593   XZ=             16.9980   YZ=             23.2901
 Octapole moment (field-independent basis, Debye-Ang**2):
  XXX=            446.7902  YYY=           -165.6506  ZZZ=             28.4709  XYY=            -95.5392
  XXY=            167.8600  XXZ=            186.5564  XZZ=             58.2079  YZZ=            -12.9863
  YYZ=             41.4313  XYZ=             95.4660
 Hexadecapole moment (field-independent basis, Debye-Ang**3):
 XXXX=         -88931.3898 YYYY=         -28559.4935 ZZZZ=         -11605.3156 XXXY=           1107.5468
 XXXZ=           1368.8055 YYYX=            303.4056 YYYZ=           1592.6769 ZZZX=            191.4160
 ZZZY=             38.0851 XXYY=         -20208.6476 XXZZ=         -17214.1160 YYZZ=          -7155.5492
 XXYZ=            407.5168 YYXZ=            343.5969 ZZXY=           -165.0110
 N-N= 9.771630813672D+03 E-N=-2.653514280148D+04  KE= 2.975592844407D+03
 Leave Link  601 at Wed May  4 00:50:12 2022, MaxMem= 10066329600 cpu:              11.6 elap:               0.6
 (Enter /sw/apps/gaussian-16.0/g16/l9999.exe)
 1\1\GINC-BP1-COMPUTE160\SP\RwB97XD TD-FC\def2SVP\C55H74Mg1N4O6\OF15641
 \04-May-2022\0\\#p wB97XD/Def2SVP td=(nstates=5)\\step_1151_chromophor
 e_23 TDDFT with wB97XD functional\\0,1\Mg,0,-9.978,40.499,42.445\C,0,-
 8.742,37.475,41.213\C,0,-7.528,42.264,40.929\C,0,-11.766,43.332,43.083
 \C,0,-12.73,38.591,43.64\N,0,-8.426,39.921,41.004\C,0,-8.028,38.608,40
 .783\C,0,-6.6,38.656,40.169\C,0,-6.192,40.18,40.179\C,0,-7.446,40.854,
 40.804\C,0,-4.918,40.468,40.944\C,0,-6.717,38.08,38.708\C,0,-5.68,36.9
 66,38.38\C,0,-4.713,36.985,37.215\O,0,-3.522,37.154,37.273\O,0,-5.487,
 36.786,36.042\N,0,-9.658,42.555,42.078\C,0,-8.607,43.009,41.459\C,0,-8
 .792,44.412,41.245\C,0,-10.085,44.789,41.781\C,0,-10.505,43.517,42.485
 \C,0,-7.846,45.229,40.322\C,0,-10.81,46.149,41.715\O,0,-10.272,47.127,
 41.275\C,0,-12.103,46.42,42.235\N,0,-12.007,40.877,43.22\C,0,-12.429,4
 2.131,43.46\C,0,-13.748,42.197,44.259\C,0,-14.06,40.698,44.499\C,0,-12
 .886,40.003,43.772\C,0,-13.761,43.079,45.521\C,0,-15.42,40.352,43.821\
 C,0,-15.508,40.216,42.358\N,0,-10.672,38.459,42.42\C,0,-11.737,37.878,
 43.051\C,0,-11.584,36.417,43.028\C,0,-10.443,36.164,42.251\C,0,-9.915,
 37.48,41.961\C,0,-12.6,35.58,43.703\C,0,-9.565,35.178,41.74\O,0,-9.539
 ,33.935,41.732\C,0,-8.445,35.994,41.029\C,0,-7.117,35.558,41.569\O,0,-
 6.656,35.97,42.643\O,0,-6.475,34.569,40.823\C,0,-5.229,33.996,41.35\C,
 0,-4.533,36.713,34.933\C,0,-5.394,36.596,33.601\C,0,-6.219,37.471,32.9
 78\C,0,-6.545,38.846,33.607\C,0,-6.847,37.241,31.594\C,0,-5.733,37.744
 ,30.586\C,0,-5.458,36.666,29.496\C,0,-5.895,37.155,28.094\C,0,-5.36,36
 .288,26.931\C,0,-7.384,37.409,27.924\C,0,-7.65,38.89,27.407\C,0,-9.141
 ,39.316,27.528\C,0,-9.445,40.634,28.433\C,0,-10.889,40.501,28.986\C,0,
 -9.113,41.958,27.688\C,0,-8.53,43.127,28.526\C,0,-7.007,43.16,28.438\C
 ,0,-6.283,43.197,29.829\C,0,-4.987,44.149,29.827\C,0,-5.915,41.826,30.
 367\H,0,-6.654,42.781,40.529\H,0,-12.331,44.205,43.417\H,0,-13.535,38.
 05,44.141\H,0,-5.82,38.127,40.716\H,0,-6.077,40.561,39.165\H,0,-4.876,
 41.417,41.479\H,0,-4.053,40.481,40.281\H,0,-4.794,39.688,41.695\H,0,-6
 .427,38.862,38.006\H,0,-7.761,37.81,38.548\H,0,-6.353,36.11,38.33\H,0,
 -5.038,36.663,39.207\H,0,-8.018,46.286,40.528\H,0,-8.08,44.881,39.316\
 H,0,-6.825,44.98,40.609\H,0,-12.044,46.281,43.314\H,0,-12.736,45.689,4
 1.732\H,0,-12.446,47.442,42.071\H,0,-14.529,42.618,43.626\H,0,-14.154,
 40.428,45.551\H,0,-14.404,42.724,46.326\H,0,-13.971,44.115,45.253\H,0,
 -12.742,43.074,45.908\H,0,-16.181,41.07,44.129\H,0,-15.68,39.415,44.31
 3\H,0,-16.424,40.517,41.85\H,0,-15.352,39.185,42.042\H,0,-14.779,40.80
 1,41.798\H,0,-12.276,34.552,43.542\H,0,-13.629,35.683,43.358\H,0,-12.5
 74,35.776,44.775\H,0,-8.452,35.702,39.979\H,0,-4.888,33.297,40.587\H,0
 ,-5.441,33.391,42.231\H,0,-4.563,34.831,41.569\H,0,-3.695,36.019,34.99
 9\H,0,-4.037,37.677,34.826\H,0,-5.212,35.712,32.99\H,0,-7.623,38.882,3
 3.767\H,0,-6.245,39.562,32.842\H,0,-5.992,39.062,34.521\H,0,-7.839,37.
 693,31.607\H,0,-7.115,36.192,31.47\H,0,-4.795,37.981,31.088\H,0,-5.991
 ,38.687,30.103\H,0,-6.043,35.824,29.866\H,0,-4.427,36.318,29.426\H,0,-
 5.436,38.119,27.876\H,0,-4.281,36.14,26.96\H,0,-5.669,36.746,25.991\H,
 0,-5.695,35.268,27.119\H,0,-7.82,37.357,28.922\H,0,-7.965,36.701,27.33
 2\H,0,-7.459,38.857,26.335\H,0,-7.018,39.539,28.013\H,0,-9.748,38.473,
 27.859\H,0,-9.42,39.475,26.487\H,0,-8.784,40.531,29.294\H,0,-11.556,39
 .858,28.412\H,0,-11.418,41.446,29.111\H,0,-10.729,40.097,29.986\H,0,-1
 0.094,42.238,27.306\H,0,-8.502,41.787,26.802\H,0,-8.965,43.072,29.523\
 H,0,-8.816,44.126,28.194\H,0,-6.716,43.995,27.801\H,0,-6.705,42.306,27
 .832\H,0,-6.916,43.713,30.551\H,0,-4.685,44.311,28.792\H,0,-4.087,43.8
 95,30.387\H,0,-5.364,45.09,30.227\H,0,-6.308,41.846,31.383\H,0,-4.848,
 41.604,30.392\H,0,-6.423,41.024,29.832\\Version=ES64L-G16RevA.03\State
 =1-A\HF=-3007.8621851\RMSD=4.934e-09\PG=C01 [X(C55H74Mg1N4O6)]\\@


 CONTRAIWISE...CONTINUED TWEEDLEDEE, IF IT WAS SO, IT MIGHT BE,
 AND IF IT WERE SO, IT WOULD BE.....
 BUT AS IT ISN'T, IT AIN'T....
 THAT'S LOGIC.....
 ALICE THROUGH THE LOOKING GLASS
 Job cpu time:       0 days 11 hours  5 minutes 58.5 seconds.
 Elapsed time:       0 days  0 hours 28 minutes 15.2 seconds.
 File lengths (MBytes):  RWF=   8929 Int=      0 D2E=      0 Chk=    390 Scr=      1
 Normal termination of Gaussian 16 at Wed May  4 00:50:12 2022.
