 Entering Gaussian System, Link 0=g16
 Initial command:
 /sw/apps/gaussian-16.0/g16/l1.exe "/tmp/Gau-143891.inp" -scrdir="/tmp/"
 Entering Link 1 = /sw/apps/gaussian-16.0/g16/l1.exe PID=    143892.
  
 Copyright (c) 1988,1990,1992,1993,1995,1998,2003,2009,2016,
            Gaussian, Inc.  All Rights Reserved.
  
 This is part of the Gaussian(R) 16 program.  It is based on
 the Gaussian(R) 09 system (copyright 2009, Gaussian, Inc.),
 the Gaussian(R) 03 system (copyright 2003, Gaussian, Inc.),
 the Gaussian(R) 98 system (copyright 1998, Gaussian, Inc.),
 the Gaussian(R) 94 system (copyright 1995, Gaussian, Inc.),
 the Gaussian 92(TM) system (copyright 1992, Gaussian, Inc.),
 the Gaussian 90(TM) system (copyright 1990, Gaussian, Inc.),
 the Gaussian 88(TM) system (copyright 1988, Gaussian, Inc.),
 the Gaussian 86(TM) system (copyright 1986, Carnegie Mellon
 University), and the Gaussian 82(TM) system (copyright 1983,
 Carnegie Mellon University). Gaussian is a federally registered
 trademark of Gaussian, Inc.
  
 This software contains proprietary and confidential information,
 including trade secrets, belonging to Gaussian, Inc.
  
 This software is provided under written license and may be
 used, copied, transmitted, or stored only in accord with that
 written license.
  
 The following legend is applicable only to US Government
 contracts under FAR:
  
                    RESTRICTED RIGHTS LEGEND
  
 Use, reproduction and disclosure by the US Government is
 subject to restrictions as set forth in subparagraphs (a)
 and (c) of the Commercial Computer Software - Restricted
 Rights clause in FAR 52.227-19.
  
 Gaussian, Inc.
 340 Quinnipiac St., Bldg. 40, Wallingford CT 06492
  
  
 ---------------------------------------------------------------
 Warning -- This program may not be used in any manner that
 competes with the business of Gaussian, Inc. or will provide
 assistance to any competitor of Gaussian, Inc.  The licensee
 of this program is prohibited from giving any competitor of
 Gaussian, Inc. access to this program.  By using this program,
 the user acknowledges that Gaussian, Inc. is engaged in the
 business of creating and licensing software in the field of
 computational chemistry and represents and warrants to the
 licensee that it is not a competitor of Gaussian, Inc. and that
 it will not use this program in any manner prohibited above.
 ---------------------------------------------------------------
  

 Cite this work as:
 Gaussian 16, Revision A.03,
 M. J. Frisch, G. W. Trucks, H. B. Schlegel, G. E. Scuseria, 
 M. A. Robb, J. R. Cheeseman, G. Scalmani, V. Barone, 
 G. A. Petersson, H. Nakatsuji, X. Li, M. Caricato, A. V. Marenich, 
 J. Bloino, B. G. Janesko, R. Gomperts, B. Mennucci, H. P. Hratchian, 
 J. V. Ortiz, A. F. Izmaylov, J. L. Sonnenberg, D. Williams-Young, 
 F. Ding, F. Lipparini, F. Egidi, J. Goings, B. Peng, A. Petrone, 
 T. Henderson, D. Ranasinghe, V. G. Zakrzewski, J. Gao, N. Rega, 
 G. Zheng, W. Liang, M. Hada, M. Ehara, K. Toyota, R. Fukuda, 
 J. Hasegawa, M. Ishida, T. Nakajima, Y. Honda, O. Kitao, H. Nakai, 
 T. Vreven, K. Throssell, J. A. Montgomery, Jr., J. E. Peralta, 
 F. Ogliaro, M. J. Bearpark, J. J. Heyd, E. N. Brothers, K. N. Kudin, 
 V. N. Staroverov, T. A. Keith, R. Kobayashi, J. Normand, 
 K. Raghavachari, A. P. Rendell, J. C. Burant, S. S. Iyengar, 
 J. Tomasi, M. Cossi, J. M. Millam, M. Klene, C. Adamo, R. Cammi, 
 J. W. Ochterski, R. L. Martin, K. Morokuma, O. Farkas, 
 J. B. Foresman, and D. J. Fox, Gaussian, Inc., Wallingford CT, 2016.
 
 ******************************************
 Gaussian 16:  ES64L-G16RevA.03 25-Dec-2016
                 5-May-2022 
 ******************************************
 %nproc=24
 Will use up to   24 processors via shared memory.
 %mem=50gb
 --------------------
 #p ZINDO=(nstates=5)
 --------------------
 1/38=1,172=1/1;
 2/12=2,17=6,18=5,40=1/2;
 3/5=2,25=1,41=400000/1,2,3,8;
 4/5=3,35=1/1;
 5/5=2,35=1,38=5/2;
 8/6=1,108=5/1;
 9/41=5,42=1,49=10/14;
 6/7=2,8=2,9=2,10=2/1;
 99/5=1,9=1/99;
 Leave Link    1 at Thu May  5 06:38:27 2022, MaxMem=  6710886400 cpu:               0.5 elap:               0.0
 (Enter /sw/apps/gaussian-16.0/g16/l101.exe)
 -----------------------------
 step_651_chromophore_24 ZINDO
 -----------------------------
 Symbolic Z-matrix:
 Charge =  0 Multiplicity = 1
 Mg                    0.067     43.882    25.395 
 C                     2.223     43.211    27.962 
 C                    -2.585     43.283    27.623 
 C                    -1.981     44.213    22.704 
 C                     2.886     44.038    23.135 
 N                    -0.167     43.167    27.56 
 C                     0.917     43.07     28.443 
 C                     0.391     42.983    29.847 
 C                    -1.11      42.622    29.737 
 C                    -1.346     43.04     28.261 
 C                    -1.722     41.225    30.126 
 C                     0.824     44.157    30.748 
 C                     1.12      43.84     32.211 
 C                     0.798     42.4      32.703 
 O                     1.64      41.573    32.818 
 O                    -0.467     42.198    33.008 
 N                    -2.022     43.832    25.181 
 C                    -2.936     43.574    26.231 
 C                    -4.279     43.659    25.733 
 C                    -4.148     44.042    24.3 
 C                    -2.68      44.042    23.977 
 C                    -5.438     43.518    26.666 
 C                    -5.177     44.397    23.336 
 O                    -4.836     44.854    22.248 
 C                    -6.614     44.269    23.752 
 N                     0.426     44.022    23.152 
 C                    -0.616     44.226    22.328 
 C                    -0.106     44.344    20.882 
 C                     1.435     44.52     20.967 
 C                     1.622     44.196    22.479 
 C                    -0.441     43.103    20.042 
 C                     2.124     45.909    20.65 
 C                     1.771     47.19     21.432 
 N                     2.11      43.763    25.484 
 C                     3.096     43.855    24.53 
 C                     4.422     43.77     25.148 
 C                     4.143     43.519    26.497 
 C                     2.723     43.489    26.65 
 C                     5.66      43.664    24.335 
 C                     4.749     43.311    27.802 
 O                     5.94      43.229    28.103 
 C                     3.488     43.246    28.796 
 C                     3.789     42.086    29.639 
 O                     3.701     40.854    29.316 
 O                     4.175     42.502    30.912 
 C                     4.596     41.464    31.907 
 C                    -0.778     40.986    33.752 
 C                    -2.125     41.167    34.418 
 C                    -2.755     40.64     35.487 
 C                    -2.086     39.604    36.548 
 C                    -4.229     41.049    35.78 
 C                    -4.309     42.297    36.765 
 C                    -5.468     43.268    36.438 
 C                    -6.176     43.785    37.702 
 C                    -5.404     44.917    38.393 
 C                    -7.639     44.254    37.459 
 C                    -8.654     43.119    37.917 
 C                    -9.382     42.473    36.688 
 C                    -9.422     40.92     36.705 
 C                    -9.045     40.271    35.344 
 C                    -10.884    40.41     37.11 
 C                    -11.168    40.243    38.651 
 C                    -12.1      39.072    38.777 
 C                    -12.883    39.047    40.113 
 C                    -13.469    37.665    40.309 
 C                    -13.829    40.165    40.554 
 H                    -3.327     43.336    28.423 
 H                    -2.636     44.497    21.877 
 H                     3.824     44.084    22.578 
 H                     0.854     42.067    30.215 
 H                    -1.621     43.315    30.405 
 H                    -2.641     41.385    30.69 
 H                    -0.962     40.638    30.641 
 H                    -1.996     40.711    29.206 
 H                    -0.017     44.849    30.783 
 H                     1.582     44.779    30.273 
 H                     0.762     44.568    32.94 
 H                     2.19      43.849    32.418 
 H                    -6.399     43.978    26.436 
 H                    -5.183     44.042    27.587 
 H                    -5.564     42.444    26.798 
 H                    -7.331     44.158    22.938 
 H                    -6.896     45.163    24.308 
 H                    -6.797     43.393    24.373 
 H                    -0.535     45.237    20.428 
 H                     1.993     43.717    20.486 
 H                     0.346     42.427    20.376 
 H                    -0.38      43.346    18.982 
 H                    -1.398     42.646    20.296 
 H                     1.818     46.076    19.617 
 H                     3.213     45.868    20.614 
 H                     2.7       47.588    21.839 
 H                     1.177     46.89     22.296 
 H                     1.345     47.976    20.808 
 H                     5.522     43.079    23.426 
 H                     6.456     43.143    24.869 
 H                     6.145     44.62     24.14 
 H                     3.651     44.15     29.384 
 H                     5.631     41.188    31.704 
 H                     4.002     40.557    31.791 
 H                     4.604     41.741    32.962 
 H                    -0.025     40.64     34.461 
 H                    -1.13      40.12     33.191 
 H                    -2.577     42.017    33.907 
 H                    -1.01      39.763    36.489 
 H                    -2.308     38.558    36.334 
 H                    -2.514     39.782    37.534 
 H                    -4.766     40.268    36.318 
 H                    -4.788     41.176    34.853 
 H                    -3.337     42.789    36.723 
 H                    -4.371     41.975    37.804 
 H                    -6.22      42.791    35.81 
 H                    -4.982     44.133    35.987 
 H                    -6.154     42.939    38.389 
 H                    -5.741     45.928    38.164 
 H                    -4.383     44.907    38.012 
 H                    -5.399     44.741    39.469 
 H                    -7.711     44.467    36.392 
 H                    -7.876     45.174    37.992 
 H                    -9.458     43.513    38.539 
 H                    -8.166     42.237    38.333 
 H                    -8.987     42.816    35.732 
 H                    -10.42     42.807    36.691 
 H                    -8.804     40.605    37.546 
 H                    -8.49      39.339    35.452 
 H                    -8.429     41.005    34.824 
 H                    -9.956     40.114    34.767 
 H                    -11.195    39.495    36.606 
 H                    -11.617    41.163    36.82 
 H                    -11.524    41.162    39.115 
 H                    -10.307    39.89     39.219 
 H                    -11.486    38.18     38.652 
 H                    -12.847    39.113    37.984 
 H                    -12.039    39.089    40.802 
 H                    -13.224    36.961    39.513 
 H                    -14.557    37.672    40.375 
 H                    -13.2      37.357    41.319 
 H                    -13.895    40.94     39.79 
 H                    -13.404    40.707    41.399 
 H                    -14.865    39.937    40.803 
 
 ITRead=  0  0  0  0  0  0  0  0  0  0  0  0  0  0  0  0  0  0  0  0
 ITRead=  0  0  0  0  0  0  0  0  0  0  0  0  0  0  0  0  0  0  0  0
 ITRead=  0  0  0  0  0  0  0  0  0  0  0  0  0  0  0  0  0  0  0  0
 ITRead=  0  0  0  0  0  0  0  0  0  0  0  0  0  0  0  0  0  0  0  0
 ITRead=  0  0  0  0  0  0  0  0  0  0  0  0  0  0  0  0  0  0  0  0
 ITRead=  0  0  0  0  0  0  0  0  0  0  0  0  0  0  0  0  0  0  0  0
 ITRead=  0  0  0  0  0  0  0  0  0  0  0  0  0  0  0  0  0  0  0  0
 MicOpt= -1 -1 -1 -1 -1 -1 -1 -1 -1 -1 -1 -1 -1 -1 -1 -1 -1 -1 -1 -1
 MicOpt= -1 -1 -1 -1 -1 -1 -1 -1 -1 -1 -1 -1 -1 -1 -1 -1 -1 -1 -1 -1
 MicOpt= -1 -1 -1 -1 -1 -1 -1 -1 -1 -1 -1 -1 -1 -1 -1 -1 -1 -1 -1 -1
 MicOpt= -1 -1 -1 -1 -1 -1 -1 -1 -1 -1 -1 -1 -1 -1 -1 -1 -1 -1 -1 -1
 MicOpt= -1 -1 -1 -1 -1 -1 -1 -1 -1 -1 -1 -1 -1 -1 -1 -1 -1 -1 -1 -1
 MicOpt= -1 -1 -1 -1 -1 -1 -1 -1 -1 -1 -1 -1 -1 -1 -1 -1 -1 -1 -1 -1
 MicOpt= -1 -1 -1 -1 -1 -1 -1 -1 -1 -1 -1 -1 -1 -1 -1 -1 -1 -1 -1 -1
 NAtoms=    140 NQM=      140 NQMF=       0 NMMI=      0 NMMIF=      0
                NMic=       0 NMicF=      0.
                    Isotopes and Nuclear Properties:
 (Nuclear quadrupole moments (NQMom) in fm**2, nuclear magnetic moments (NMagM)
  in nuclear magnetons)

  Atom         1           2           3           4           5           6           7           8           9          10
 IAtWgt=          24          12          12          12          12          14          12          12          12          12
 AtmWgt=  23.9850450  12.0000000  12.0000000  12.0000000  12.0000000  14.0030740  12.0000000  12.0000000  12.0000000  12.0000000
 NucSpn=           0           0           0           0           0           2           0           0           0           0
 AtZEff=  -0.0000000  -0.0000000  -0.0000000  -0.0000000  -0.0000000  -0.0000000  -0.0000000  -0.0000000  -0.0000000  -0.0000000
 NQMom=    0.0000000   0.0000000   0.0000000   0.0000000   0.0000000   2.0440000   0.0000000   0.0000000   0.0000000   0.0000000
 NMagM=    0.0000000   0.0000000   0.0000000   0.0000000   0.0000000   0.4037610   0.0000000   0.0000000   0.0000000   0.0000000
 AtZNuc=  12.0000000   6.0000000   6.0000000   6.0000000   6.0000000   7.0000000   6.0000000   6.0000000   6.0000000   6.0000000

  Atom        11          12          13          14          15          16          17          18          19          20
 IAtWgt=          12          12          12          12          16          16          14          12          12          12
 AtmWgt=  12.0000000  12.0000000  12.0000000  12.0000000  15.9949146  15.9949146  14.0030740  12.0000000  12.0000000  12.0000000
 NucSpn=           0           0           0           0           0           0           2           0           0           0
 AtZEff=  -0.0000000  -0.0000000  -0.0000000  -0.0000000  -0.0000000  -0.0000000  -0.0000000  -0.0000000  -0.0000000  -0.0000000
 NQMom=    0.0000000   0.0000000   0.0000000   0.0000000   0.0000000   0.0000000   2.0440000   0.0000000   0.0000000   0.0000000
 NMagM=    0.0000000   0.0000000   0.0000000   0.0000000   0.0000000   0.0000000   0.4037610   0.0000000   0.0000000   0.0000000
 AtZNuc=   6.0000000   6.0000000   6.0000000   6.0000000   8.0000000   8.0000000   7.0000000   6.0000000   6.0000000   6.0000000

  Atom        21          22          23          24          25          26          27          28          29          30
 IAtWgt=          12          12          12          16          12          14          12          12          12          12
 AtmWgt=  12.0000000  12.0000000  12.0000000  15.9949146  12.0000000  14.0030740  12.0000000  12.0000000  12.0000000  12.0000000
 NucSpn=           0           0           0           0           0           2           0           0           0           0
 AtZEff=  -0.0000000  -0.0000000  -0.0000000  -0.0000000  -0.0000000  -0.0000000  -0.0000000  -0.0000000  -0.0000000  -0.0000000
 NQMom=    0.0000000   0.0000000   0.0000000   0.0000000   0.0000000   2.0440000   0.0000000   0.0000000   0.0000000   0.0000000
 NMagM=    0.0000000   0.0000000   0.0000000   0.0000000   0.0000000   0.4037610   0.0000000   0.0000000   0.0000000   0.0000000
 AtZNuc=   6.0000000   6.0000000   6.0000000   8.0000000   6.0000000   7.0000000   6.0000000   6.0000000   6.0000000   6.0000000

  Atom        31          32          33          34          35          36          37          38          39          40
 IAtWgt=          12          12          12          14          12          12          12          12          12          12
 AtmWgt=  12.0000000  12.0000000  12.0000000  14.0030740  12.0000000  12.0000000  12.0000000  12.0000000  12.0000000  12.0000000
 NucSpn=           0           0           0           2           0           0           0           0           0           0
 AtZEff=  -0.0000000  -0.0000000  -0.0000000  -0.0000000  -0.0000000  -0.0000000  -0.0000000  -0.0000000  -0.0000000  -0.0000000
 NQMom=    0.0000000   0.0000000   0.0000000   2.0440000   0.0000000   0.0000000   0.0000000   0.0000000   0.0000000   0.0000000
 NMagM=    0.0000000   0.0000000   0.0000000   0.4037610   0.0000000   0.0000000   0.0000000   0.0000000   0.0000000   0.0000000
 AtZNuc=   6.0000000   6.0000000   6.0000000   7.0000000   6.0000000   6.0000000   6.0000000   6.0000000   6.0000000   6.0000000

  Atom        41          42          43          44          45          46          47          48          49          50
 IAtWgt=          16          12          12          16          16          12          12          12          12          12
 AtmWgt=  15.9949146  12.0000000  12.0000000  15.9949146  15.9949146  12.0000000  12.0000000  12.0000000  12.0000000  12.0000000
 NucSpn=           0           0           0           0           0           0           0           0           0           0
 AtZEff=  -0.0000000  -0.0000000  -0.0000000  -0.0000000  -0.0000000  -0.0000000  -0.0000000  -0.0000000  -0.0000000  -0.0000000
 NQMom=    0.0000000   0.0000000   0.0000000   0.0000000   0.0000000   0.0000000   0.0000000   0.0000000   0.0000000   0.0000000
 NMagM=    0.0000000   0.0000000   0.0000000   0.0000000   0.0000000   0.0000000   0.0000000   0.0000000   0.0000000   0.0000000
 AtZNuc=   8.0000000   6.0000000   6.0000000   8.0000000   8.0000000   6.0000000   6.0000000   6.0000000   6.0000000   6.0000000

  Atom        51          52          53          54          55          56          57          58          59          60
 IAtWgt=          12          12          12          12          12          12          12          12          12          12
 AtmWgt=  12.0000000  12.0000000  12.0000000  12.0000000  12.0000000  12.0000000  12.0000000  12.0000000  12.0000000  12.0000000
 NucSpn=           0           0           0           0           0           0           0           0           0           0
 AtZEff=  -0.0000000  -0.0000000  -0.0000000  -0.0000000  -0.0000000  -0.0000000  -0.0000000  -0.0000000  -0.0000000  -0.0000000
 NQMom=    0.0000000   0.0000000   0.0000000   0.0000000   0.0000000   0.0000000   0.0000000   0.0000000   0.0000000   0.0000000
 NMagM=    0.0000000   0.0000000   0.0000000   0.0000000   0.0000000   0.0000000   0.0000000   0.0000000   0.0000000   0.0000000
 AtZNuc=   6.0000000   6.0000000   6.0000000   6.0000000   6.0000000   6.0000000   6.0000000   6.0000000   6.0000000   6.0000000

  Atom        61          62          63          64          65          66          67          68          69          70
 IAtWgt=          12          12          12          12          12          12           1           1           1           1
 AtmWgt=  12.0000000  12.0000000  12.0000000  12.0000000  12.0000000  12.0000000   1.0078250   1.0078250   1.0078250   1.0078250
 NucSpn=           0           0           0           0           0           0           1           1           1           1
 AtZEff=  -0.0000000  -0.0000000  -0.0000000  -0.0000000  -0.0000000  -0.0000000  -0.0000000  -0.0000000  -0.0000000  -0.0000000
 NQMom=    0.0000000   0.0000000   0.0000000   0.0000000   0.0000000   0.0000000   0.0000000   0.0000000   0.0000000   0.0000000
 NMagM=    0.0000000   0.0000000   0.0000000   0.0000000   0.0000000   0.0000000   2.7928460   2.7928460   2.7928460   2.7928460
 AtZNuc=   6.0000000   6.0000000   6.0000000   6.0000000   6.0000000   6.0000000   1.0000000   1.0000000   1.0000000   1.0000000

  Atom        71          72          73          74          75          76          77          78          79          80
 IAtWgt=           1           1           1           1           1           1           1           1           1           1
 AtmWgt=   1.0078250   1.0078250   1.0078250   1.0078250   1.0078250   1.0078250   1.0078250   1.0078250   1.0078250   1.0078250
 NucSpn=           1           1           1           1           1           1           1           1           1           1
 AtZEff=  -0.0000000  -0.0000000  -0.0000000  -0.0000000  -0.0000000  -0.0000000  -0.0000000  -0.0000000  -0.0000000  -0.0000000
 NQMom=    0.0000000   0.0000000   0.0000000   0.0000000   0.0000000   0.0000000   0.0000000   0.0000000   0.0000000   0.0000000
 NMagM=    2.7928460   2.7928460   2.7928460   2.7928460   2.7928460   2.7928460   2.7928460   2.7928460   2.7928460   2.7928460
 AtZNuc=   1.0000000   1.0000000   1.0000000   1.0000000   1.0000000   1.0000000   1.0000000   1.0000000   1.0000000   1.0000000

  Atom        81          82          83          84          85          86          87          88          89          90
 IAtWgt=           1           1           1           1           1           1           1           1           1           1
 AtmWgt=   1.0078250   1.0078250   1.0078250   1.0078250   1.0078250   1.0078250   1.0078250   1.0078250   1.0078250   1.0078250
 NucSpn=           1           1           1           1           1           1           1           1           1           1
 AtZEff=  -0.0000000  -0.0000000  -0.0000000  -0.0000000  -0.0000000  -0.0000000  -0.0000000  -0.0000000  -0.0000000  -0.0000000
 NQMom=    0.0000000   0.0000000   0.0000000   0.0000000   0.0000000   0.0000000   0.0000000   0.0000000   0.0000000   0.0000000
 NMagM=    2.7928460   2.7928460   2.7928460   2.7928460   2.7928460   2.7928460   2.7928460   2.7928460   2.7928460   2.7928460
 AtZNuc=   1.0000000   1.0000000   1.0000000   1.0000000   1.0000000   1.0000000   1.0000000   1.0000000   1.0000000   1.0000000

  Atom        91          92          93          94          95          96          97          98          99         100
 IAtWgt=           1           1           1           1           1           1           1           1           1           1
 AtmWgt=   1.0078250   1.0078250   1.0078250   1.0078250   1.0078250   1.0078250   1.0078250   1.0078250   1.0078250   1.0078250
 NucSpn=           1           1           1           1           1           1           1           1           1           1
 AtZEff=  -0.0000000  -0.0000000  -0.0000000  -0.0000000  -0.0000000  -0.0000000  -0.0000000  -0.0000000  -0.0000000  -0.0000000
 NQMom=    0.0000000   0.0000000   0.0000000   0.0000000   0.0000000   0.0000000   0.0000000   0.0000000   0.0000000   0.0000000
 NMagM=    2.7928460   2.7928460   2.7928460   2.7928460   2.7928460   2.7928460   2.7928460   2.7928460   2.7928460   2.7928460
 AtZNuc=   1.0000000   1.0000000   1.0000000   1.0000000   1.0000000   1.0000000   1.0000000   1.0000000   1.0000000   1.0000000

  Atom       101         102         103         104         105         106         107         108         109         110
 IAtWgt=           1           1           1           1           1           1           1           1           1           1
 AtmWgt=   1.0078250   1.0078250   1.0078250   1.0078250   1.0078250   1.0078250   1.0078250   1.0078250   1.0078250   1.0078250
 NucSpn=           1           1           1           1           1           1           1           1           1           1
 AtZEff=  -0.0000000  -0.0000000  -0.0000000  -0.0000000  -0.0000000  -0.0000000  -0.0000000  -0.0000000  -0.0000000  -0.0000000
 NQMom=    0.0000000   0.0000000   0.0000000   0.0000000   0.0000000   0.0000000   0.0000000   0.0000000   0.0000000   0.0000000
 NMagM=    2.7928460   2.7928460   2.7928460   2.7928460   2.7928460   2.7928460   2.7928460   2.7928460   2.7928460   2.7928460
 AtZNuc=   1.0000000   1.0000000   1.0000000   1.0000000   1.0000000   1.0000000   1.0000000   1.0000000   1.0000000   1.0000000

  Atom       111         112         113         114         115         116         117         118         119         120
 IAtWgt=           1           1           1           1           1           1           1           1           1           1
 AtmWgt=   1.0078250   1.0078250   1.0078250   1.0078250   1.0078250   1.0078250   1.0078250   1.0078250   1.0078250   1.0078250
 NucSpn=           1           1           1           1           1           1           1           1           1           1
 AtZEff=  -0.0000000  -0.0000000  -0.0000000  -0.0000000  -0.0000000  -0.0000000  -0.0000000  -0.0000000  -0.0000000  -0.0000000
 NQMom=    0.0000000   0.0000000   0.0000000   0.0000000   0.0000000   0.0000000   0.0000000   0.0000000   0.0000000   0.0000000
 NMagM=    2.7928460   2.7928460   2.7928460   2.7928460   2.7928460   2.7928460   2.7928460   2.7928460   2.7928460   2.7928460
 AtZNuc=   1.0000000   1.0000000   1.0000000   1.0000000   1.0000000   1.0000000   1.0000000   1.0000000   1.0000000   1.0000000

  Atom       121         122         123         124         125         126         127         128         129         130
 IAtWgt=           1           1           1           1           1           1           1           1           1           1
 AtmWgt=   1.0078250   1.0078250   1.0078250   1.0078250   1.0078250   1.0078250   1.0078250   1.0078250   1.0078250   1.0078250
 NucSpn=           1           1           1           1           1           1           1           1           1           1
 AtZEff=  -0.0000000  -0.0000000  -0.0000000  -0.0000000  -0.0000000  -0.0000000  -0.0000000  -0.0000000  -0.0000000  -0.0000000
 NQMom=    0.0000000   0.0000000   0.0000000   0.0000000   0.0000000   0.0000000   0.0000000   0.0000000   0.0000000   0.0000000
 NMagM=    2.7928460   2.7928460   2.7928460   2.7928460   2.7928460   2.7928460   2.7928460   2.7928460   2.7928460   2.7928460
 AtZNuc=   1.0000000   1.0000000   1.0000000   1.0000000   1.0000000   1.0000000   1.0000000   1.0000000   1.0000000   1.0000000

  Atom       131         132         133         134         135         136         137         138         139         140
 IAtWgt=           1           1           1           1           1           1           1           1           1           1
 AtmWgt=   1.0078250   1.0078250   1.0078250   1.0078250   1.0078250   1.0078250   1.0078250   1.0078250   1.0078250   1.0078250
 NucSpn=           1           1           1           1           1           1           1           1           1           1
 AtZEff=  -0.0000000  -0.0000000  -0.0000000  -0.0000000  -0.0000000  -0.0000000  -0.0000000  -0.0000000  -0.0000000  -0.0000000
 NQMom=    0.0000000   0.0000000   0.0000000   0.0000000   0.0000000   0.0000000   0.0000000   0.0000000   0.0000000   0.0000000
 NMagM=    2.7928460   2.7928460   2.7928460   2.7928460   2.7928460   2.7928460   2.7928460   2.7928460   2.7928460   2.7928460
 AtZNuc=   1.0000000   1.0000000   1.0000000   1.0000000   1.0000000   1.0000000   1.0000000   1.0000000   1.0000000   1.0000000
 Leave Link  101 at Thu May  5 06:38:27 2022, MaxMem=  6710886400 cpu:               2.7 elap:               0.1
 (Enter /sw/apps/gaussian-16.0/g16/l202.exe)
 Stoichiometry    C55H74MgN4O6
 Framework group  C1[X(C55H74MgN4O6)]
 Deg. of freedom   414
 Full point group                 C1      NOp   1
 Largest Abelian subgroup         C1      NOp   1
 Largest concise Abelian subgroup C1      NOp   1
                         Standard orientation:                         
 ---------------------------------------------------------------------
 Center     Atomic      Atomic             Coordinates (Angstroms)
 Number     Number       Type             X           Y           Z
 ---------------------------------------------------------------------
      1         12           0        5.080459    1.046103    0.085899
      2          6           0        4.267232   -2.272081   -0.042106
      3          6           0        1.641841    1.770487    0.001848
      4          6           0        5.995495    4.310209   -0.145750
      5          6           0        8.566827    0.153699   -0.271244
      6          7           0        3.129731   -0.134207   -0.148059
      7          6           0        3.080163   -1.532327   -0.064646
      8          6           0        1.655509   -1.953631    0.155185
      9          6           0        0.771682   -0.735688   -0.206599
     10          6           0        1.850675    0.375915   -0.111163
     11          6           0       -0.145928   -0.647370   -1.482399
     12          6           0        1.422622   -2.689024    1.490298
     13          6           0        0.407715   -3.828515    1.490178
     14          6           0       -0.422543   -4.037533    0.191590
     15          8           0       -0.149289   -4.877266   -0.599799
     16          8           0       -1.458722   -3.233814    0.071487
     17          7           0        3.977351    2.832107    0.011347
     18          6           0        2.563763    2.908693   -0.007745
     19          6           0        2.155493    4.284224   -0.018195
     20          6           0        3.416378    5.073546    0.048720
     21          6           0        4.553537    4.094092   -0.034294
     22          6           0        0.705616    4.639530    0.054371
     23          6           0        3.607516    6.507034    0.199524
     24          8           0        4.739847    6.933928    0.410386
     25          6           0        2.394224    7.391243    0.177057
     26          7           0        7.066145    2.103049   -0.259707
     27          6           0        7.113998    3.445791   -0.226396
     28          6           0        8.567112    3.908448   -0.424759
     29          6           0        9.461981    2.650932   -0.249421
     30          6           0        8.341953    1.568525   -0.244873
     31          6           0        8.799918    4.521505   -1.813236
     32          6           0       10.368660    2.457681    1.033201
     33          6           0        9.772778    2.432312    2.454952
     34          7           0        6.223291   -0.649841   -0.030895
     35          6           0        7.576473   -0.860749   -0.154157
     36          6           0        7.881159   -2.293675   -0.117922
     37          6           0        6.619499   -2.899305   -0.072407
     38          6           0        5.638242   -1.861251   -0.055458
     39          6           0        9.241941   -2.812910   -0.406913
     40          6           0        5.933734   -4.179304   -0.002749
     41          8           0        6.404006   -5.316805   -0.029978
     42          6           0        4.388227   -3.769512    0.158062
     43          6           0        3.710234   -4.648774   -0.798010
     44          8           0        3.691617   -4.537233   -2.069666
     45          8           0        3.026342   -5.658680   -0.123500
     46          6           0        2.324020   -6.708674   -0.929084
     47          6           0       -2.438219   -3.572913   -0.950667
     48          6           0       -3.737269   -2.870752   -0.618755
     49          6           0       -5.041552   -3.064495   -0.899291
     50          6           0       -5.645180   -4.350998   -1.691201
     51          6           0       -6.087058   -2.012857   -0.423077
     52          6           0       -6.681860   -2.379918    1.007170
     53          6           0       -6.956225   -1.144612    1.896998
     54          6           0       -8.275596   -1.264692    2.678720
     55          6           0       -8.147962   -2.151306    3.924719
     56          6           0       -8.887059    0.102371    3.098993
     57          6           0      -10.055462    0.503016    2.097727
     58          6           0       -9.652648    1.731654    1.211199
     59          6           0       -9.963181    1.564922   -0.301899
     60          6           0       -8.791354    1.990231   -1.230116
     61          6           0      -11.250200    2.429184   -0.699648
     62          6           0      -12.649421    1.724220   -0.531030
     63          6           0      -13.515866    2.250613   -1.639148
     64          6           0      -15.031833    2.081947   -1.370810
     65          6           0      -15.781016    2.265468   -2.673415
     66          6           0      -15.749072    2.711199   -0.175430
     67          1           0        0.581190    1.895514    0.231542
     68          1           0        6.293313    5.355886   -0.038631
     69          1           0        9.574198   -0.259251   -0.354215
     70          1           0        1.487616   -2.651583   -0.665500
     71          1           0        0.065675   -0.639079    0.617910
     72          1           0       -1.111042   -0.228694   -1.196875
     73          1           0       -0.191030   -1.629084   -1.953140
     74          1           0        0.313788    0.052627   -2.178341
     75          1           0        1.009568   -1.955168    2.181826
     76          1           0        2.358906   -2.937003    1.989247
     77          1           0       -0.247238   -3.885709    2.360439
     78          1           0        0.894074   -4.802916    1.532932
     79          1           0        0.385425    5.597573    0.463825
     80          1           0        0.235415    3.955304    0.760478
     81          1           0        0.338001    4.531534   -0.965419
     82          1           0        2.575033    8.430704   -0.098327
     83          1           0        1.948881    7.395898    1.171815
     84          1           0        1.646737    7.063614   -0.544349
     85          1           0        8.818361    4.627347    0.354769
     86          1           0       10.031573    2.392930   -1.141908
     87          1           0        8.896222    3.614474   -2.409827
     88          1           0        9.703846    5.129102   -1.802771
     89          1           0        7.944431    5.078847   -2.196284
     90          1           0       11.016732    3.332693    0.978699
     91          1           0       11.046673    1.605734    0.975042
     92          1           0       10.086924    1.499313    2.921770
     93          1           0        8.689581    2.358637    2.352053
     94          1           0       10.139227    3.236339    3.093625
     95          1           0        9.762692   -2.236469   -1.171167
     96          1           0        9.215399   -3.826546   -0.809467
     97          1           0        9.854458   -2.968222    0.480717
     98          1           0        4.188320   -4.137359    1.165164
     99          1           0        3.057984   -7.447363   -1.251954
    100          1           0        1.896206   -6.276628   -1.834210
    101          1           0        1.557090   -7.305188   -0.433293
    102          1           0       -2.596028   -4.634485   -1.144487
    103          1           0       -2.366691   -3.065727   -1.913074
    104          1           0       -3.463135   -2.105036    0.106816
    105          1           0       -4.921945   -5.154696   -1.558768
    106          1           0       -5.796721   -4.174480   -2.756599
    107          1           0       -6.638994   -4.571116   -1.302684
    108          1           0       -6.966930   -1.997635   -1.066014
    109          1           0       -5.681149   -1.003659   -0.491600
    110          1           0       -5.976038   -3.070315    1.469533
    111          1           0       -7.583956   -2.983894    0.915057
    112          1           0       -7.005571   -0.231660    1.304123
    113          1           0       -6.160018   -1.160411    2.641059
    114          1           0       -8.945415   -1.791147    1.998751
    115          1           0       -7.995417   -1.624461    4.866683
    116          1           0       -7.237225   -2.741291    3.823829
    117          1           0       -9.012716   -2.812849    3.982491
    118          1           0       -8.063231    0.816505    3.079929
    119          1           0       -9.282783    0.087904    4.113808
    120          1           0      -10.955118    0.824124    2.623127
    121          1           0      -10.239616   -0.239120    1.320267
    122          1           0       -8.610438    2.023607    1.338364
    123          1           0      -10.222680    2.598027    1.548053
    124          1           0      -10.299670    0.536704   -0.435959
    125          1           0       -8.704334    1.370710   -2.122827
    126          1           0       -7.886071    1.895673   -0.630004
    127          1           0       -8.920035    3.038654   -1.497975
    128          1           0      -11.206876    2.864030   -1.698144
    129          1           0      -11.334589    3.276496   -0.018958
    130          1           0      -13.063477    1.845305    0.469214
    131          1           0      -12.633625    0.659056   -0.762829
    132          1           0      -13.204996    1.726670   -2.543100
    133          1           0      -13.342757    3.320032   -1.761273
    134          1           0      -15.050919    1.006759   -1.190737
    135          1           0      -15.137932    2.455284   -3.533456
    136          1           0      -16.487737    3.094752   -2.642075
    137          1           0      -16.458332    1.416434   -2.761212
    138          1           0      -15.058413    3.309639    0.419159
    139          1           0      -16.054404    1.938553    0.530407
    140          1           0      -16.608067    3.362289   -0.335081
 ---------------------------------------------------------------------
 Rotational constants (GHZ):           0.0429374           0.0105395           0.0088518
 Leave Link  202 at Thu May  5 06:38:27 2022, MaxMem=  6710886400 cpu:               0.2 elap:               0.0
 (Enter /sw/apps/gaussian-16.0/g16/l301.exe)
 Standard basis: VSTO-6G (5D, 7F)
 Ernie: Thresh=  0.10000D-02 Tol=  0.10000D-05 Strict=F.
 There are   338 symmetry adapted cartesian basis functions of A   symmetry.
 There are   338 symmetry adapted basis functions of A   symmetry.
   338 basis functions,  2028 primitive gaussians,   338 cartesian basis functions
   176 alpha electrons      176 beta electrons
       nuclear repulsion energy      4821.9661728974 Hartrees.
 IExCor=    0 DFT=F Ex=HF Corr=None ExCW=0 ScaHFX=  1.000000
 ScaDFX=  1.000000  1.000000  1.000000  1.000000 ScalE2=  1.000000  1.000000
 IRadAn=      5 IRanWt=     -1 IRanGd=            0 ICorTp=0 IEmpDi=  4
 Integral buffers will be    131072 words long.
 Regular integral format.
 Two-electron integral symmetry is turned off.
 Leave Link  301 at Thu May  5 06:38:27 2022, MaxMem=  6710886400 cpu:               1.2 elap:               0.1
 (Enter /sw/apps/gaussian-16.0/g16/l302.exe)
 Do NDO integrals.
 NPDir=0 NMtPBC=     1 NCelOv=     1 NCel=       1 NClECP=     1 NCelD=      1
         NCelK=      1 NCelE2=     1 NClLst=     1 CellRange=     0.0.
 One-electron integrals computed using PRISM.
 Generate ZINDO/S integrals.
 NDO Nuclear repulsion=  4338.332322249710 Hartrees.
 NBasis=   338 RedAO= F EigKep=  0.00D+00  NBF=   338
 NBsUse=   338 1.00D-04 EigRej=  0.00D+00 NBFU=   338
 Leave Link  302 at Thu May  5 06:38:28 2022, MaxMem=  6710886400 cpu:               7.6 elap:               0.3
 (Enter /sw/apps/gaussian-16.0/g16/l303.exe)
 DipDrv:  MaxL=1.
 DipDrv:  will hold  3 matrices at once.
 Leave Link  303 at Thu May  5 06:38:28 2022, MaxMem=  6710886400 cpu:               0.5 elap:               0.0
 (Enter /sw/apps/gaussian-16.0/g16/l308.exe)
 Leave Link  308 at Thu May  5 06:38:28 2022, MaxMem=  6710886400 cpu:               4.4 elap:               0.2
 (Enter /sw/apps/gaussian-16.0/g16/l401.exe)
 Simple Huckel Guess.
 JPrj=0 DoOrth=F DoCkMO=F.
 Leave Link  401 at Thu May  5 06:38:28 2022, MaxMem=  6710886400 cpu:               3.0 elap:               0.1
 (Enter /sw/apps/gaussian-16.0/g16/l502.exe)
 Two-electron integral symmetry not used.
 Closed shell SCF:
 Using DIIS extrapolation, IDIIS=  1040.
 Overlap will be assumed to be unity.
 NGot=  6710886400 LenX=  6710643598 LenY=  6710528913
 Requested convergence on RMS density matrix=1.00D-08 within 128 cycles.
 Requested convergence on MAX density matrix=1.00D-06.
 Requested convergence on             energy=1.00D-06.
 No special actions if energy rises.
 Fock matrices will be formed incrementally for  20 cycles.

 Cycle   1  Pass 1  IDiag  1:
 E= -471.961021385497    
 DIIS: error= 6.84D-02 at cycle   1 NSaved=   1.
 NSaved= 1 IEnMin= 1 EnMin= -471.961021385497     IErMin= 1 ErrMin= 6.84D-02
 ErrMax= 6.84D-02  0.00D+00 EMaxC= 1.00D-01 BMatC= 8.27D-01 BMatP= 8.27D-01
 IDIUse=3 WtCom= 3.16D-01 WtEn= 6.84D-01
 Coeff-Com:  0.100D+01
 Coeff-En:   0.100D+01
 Coeff:      0.100D+01
 GapD=    2.000 DampG=2.000 DampE=0.500 DampFc=1.0000 IDamp=-1.
 RMSDP=4.03D-03 MaxDP=1.99D-01              OVMax= 0.00D+00

 Cycle   2  Pass 1  IDiag  1:
 RMSU=  4.02D-03    CP:  9.95D-01
 E= -473.786236358920     Delta-E=       -1.825214973423 Rises=F Damp=F
 DIIS: error= 2.27D-02 at cycle   2 NSaved=   2.
 NSaved= 2 IEnMin= 2 EnMin= -473.786236358920     IErMin= 2 ErrMin= 2.27D-02
 ErrMax= 2.27D-02  0.00D+00 EMaxC= 1.00D-01 BMatC= 5.31D-02 BMatP= 8.27D-01
 IDIUse=3 WtCom= 7.73D-01 WtEn= 2.27D-01
 Coeff-Com: -0.679D-01 0.107D+01
 Coeff-En:   0.000D+00 0.100D+01
 Coeff:     -0.525D-01 0.105D+01
 RMSDP=1.17D-03 MaxDP=6.32D-02 DE=-1.83D+00 OVMax= 0.00D+00

 Cycle   3  Pass 1  IDiag  1:
 RMSU=  1.12D-03    CP:  9.93D-01  1.08D+00
 E= -473.888971211425     Delta-E=       -0.102734852505 Rises=F Damp=F
 DIIS: error= 1.21D-02 at cycle   3 NSaved=   3.
 NSaved= 3 IEnMin= 3 EnMin= -473.888971211425     IErMin= 3 ErrMin= 1.21D-02
 ErrMax= 1.21D-02  0.00D+00 EMaxC= 1.00D-01 BMatC= 8.12D-03 BMatP= 5.31D-02
 IDIUse=3 WtCom= 8.79D-01 WtEn= 1.21D-01
 Coeff-Com: -0.698D-01 0.253D+00 0.816D+00
 Coeff-En:   0.000D+00 0.000D+00 0.100D+01
 Coeff:     -0.614D-01 0.223D+00 0.838D+00
 RMSDP=4.30D-04 MaxDP=2.51D-02 DE=-1.03D-01 OVMax= 0.00D+00

 Cycle   4  Pass 1  IDiag  1:
 RMSU=  2.80D-04    CP:  9.93D-01  1.15D+00  8.78D-01
 E= -473.903300138984     Delta-E=       -0.014328927559 Rises=F Damp=F
 DIIS: error= 1.79D-03 at cycle   4 NSaved=   4.
 NSaved= 4 IEnMin= 4 EnMin= -473.903300138984     IErMin= 4 ErrMin= 1.79D-03
 ErrMax= 1.79D-03  0.00D+00 EMaxC= 1.00D-01 BMatC= 3.93D-04 BMatP= 8.12D-03
 IDIUse=3 WtCom= 9.82D-01 WtEn= 1.79D-02
 Coeff-Com: -0.365D-02-0.246D-01 0.771D-01 0.951D+00
 Coeff-En:   0.000D+00 0.000D+00 0.000D+00 0.100D+01
 Coeff:     -0.359D-02-0.242D-01 0.757D-01 0.952D+00
 RMSDP=1.65D-04 MaxDP=9.32D-03 DE=-1.43D-02 OVMax= 0.00D+00

 Cycle   5  Pass 1  IDiag  1:
 RMSU=  1.06D-04    CP:  9.93D-01  1.16D+00  9.89D-01  9.26D-01
 E= -473.904513076644     Delta-E=       -0.001212937659 Rises=F Damp=F
 DIIS: error= 7.20D-04 at cycle   5 NSaved=   5.
 NSaved= 5 IEnMin= 5 EnMin= -473.904513076644     IErMin= 5 ErrMin= 7.20D-04
 ErrMax= 7.20D-04  0.00D+00 EMaxC= 1.00D-01 BMatC= 8.72D-05 BMatP= 3.93D-04
 IDIUse=3 WtCom= 9.93D-01 WtEn= 7.20D-03
 Coeff-Com:  0.683D-02-0.304D-01-0.991D-01 0.229D+00 0.894D+00
 Coeff-En:   0.000D+00 0.000D+00 0.000D+00 0.000D+00 0.100D+01
 Coeff:      0.678D-02-0.301D-01-0.984D-01 0.228D+00 0.894D+00
 RMSDP=6.48D-05 MaxDP=3.55D-03 DE=-1.21D-03 OVMax= 0.00D+00

 Cycle   6  Pass 1  IDiag  1:
 RMSU=  3.46D-05    CP:  9.92D-01  1.16D+00  1.00D+00  1.11D+00  1.04D+00
 E= -473.904777215469     Delta-E=       -0.000264138826 Rises=F Damp=F
 DIIS: error= 3.03D-04 at cycle   6 NSaved=   6.
 NSaved= 6 IEnMin= 6 EnMin= -473.904777215469     IErMin= 6 ErrMin= 3.03D-04
 ErrMax= 3.03D-04  0.00D+00 EMaxC= 1.00D-01 BMatC= 8.11D-06 BMatP= 8.72D-05
 IDIUse=3 WtCom= 9.97D-01 WtEn= 3.03D-03
 Coeff-Com:  0.325D-03 0.411D-02-0.223D-01-0.778D-01 0.174D-01 0.108D+01
 Coeff-En:   0.000D+00 0.000D+00 0.000D+00 0.000D+00 0.000D+00 0.100D+01
 Coeff:      0.325D-03 0.410D-02-0.223D-01-0.776D-01 0.174D-01 0.108D+01
 RMSDP=3.71D-05 MaxDP=1.91D-03 DE=-2.64D-04 OVMax= 0.00D+00

 Cycle   7  Pass 1  IDiag  1:
 RMSU=  1.89D-05    CP:  9.92D-01  1.16D+00  1.01D+00  1.12D+00  1.29D+00
                    CP:  1.29D+00
 E= -473.904823524227     Delta-E=       -0.000046308758 Rises=F Damp=F
 DIIS: error= 1.32D-04 at cycle   7 NSaved=   7.
 NSaved= 7 IEnMin= 7 EnMin= -473.904823524227     IErMin= 7 ErrMin= 1.32D-04
 ErrMax= 1.32D-04  0.00D+00 EMaxC= 1.00D-01 BMatC= 2.41D-06 BMatP= 8.11D-06
 IDIUse=3 WtCom= 9.99D-01 WtEn= 1.32D-03
 Coeff-Com: -0.802D-03 0.480D-02 0.555D-02-0.305D-01-0.143D+00 0.259D+00
 Coeff-Com:  0.905D+00
 Coeff-En:   0.000D+00 0.000D+00 0.000D+00 0.000D+00 0.000D+00 0.000D+00
 Coeff-En:   0.100D+01
 Coeff:     -0.801D-03 0.479D-02 0.554D-02-0.305D-01-0.143D+00 0.259D+00
 Coeff:      0.905D+00
 RMSDP=1.89D-05 MaxDP=1.13D-03 DE=-4.63D-05 OVMax= 0.00D+00

 Cycle   8  Pass 1  IDiag  1:
 RMSU=  7.47D-06    CP:  9.92D-01  1.16D+00  1.02D+00  1.13D+00  1.37D+00
                    CP:  1.59D+00  1.51D+00
 E= -473.904839873780     Delta-E=       -0.000016349553 Rises=F Damp=F
 DIIS: error= 7.87D-05 at cycle   8 NSaved=   8.
 NSaved= 8 IEnMin= 8 EnMin= -473.904839873780     IErMin= 8 ErrMin= 7.87D-05
 ErrMax= 7.87D-05  0.00D+00 EMaxC= 1.00D-01 BMatC= 8.59D-07 BMatP= 2.41D-06
 IDIUse=1 WtCom= 1.00D+00 WtEn= 0.00D+00
 Coeff-Com: -0.331D-05-0.120D-02 0.348D-02 0.295D-01-0.376D-01-0.134D+00
 Coeff-Com: -0.293D+00 0.143D+01
 Coeff:     -0.331D-05-0.120D-02 0.348D-02 0.295D-01-0.376D-01-0.134D+00
 Coeff:     -0.293D+00 0.143D+01
 RMSDP=2.44D-05 MaxDP=1.16D-03 DE=-1.63D-05 OVMax= 0.00D+00

 Cycle   9  Pass 1  IDiag  1:
 RMSU=  4.61D-06    CP:  9.92D-01  1.16D+00  1.02D+00  1.12D+00  1.48D+00
                    CP:  1.84D+00  2.42D+00  2.01D+00
 E= -473.904853533735     Delta-E=       -0.000013659955 Rises=F Damp=F
 DIIS: error= 5.99D-05 at cycle   9 NSaved=   9.
 NSaved= 9 IEnMin= 9 EnMin= -473.904853533735     IErMin= 9 ErrMin= 5.99D-05
 ErrMax= 5.99D-05  0.00D+00 EMaxC= 1.00D-01 BMatC= 5.75D-07 BMatP= 8.59D-07
 IDIUse=1 WtCom= 1.00D+00 WtEn= 0.00D+00
 Coeff-Com:  0.338D-03-0.156D-02-0.409D-02 0.965D-02 0.321D-01 0.749D-01
 Coeff-Com: -0.691D+00-0.480D-01 0.163D+01
 Coeff:      0.338D-03-0.156D-02-0.409D-02 0.965D-02 0.321D-01 0.749D-01
 Coeff:     -0.691D+00-0.480D-01 0.163D+01
 RMSDP=3.01D-05 MaxDP=1.44D-03 DE=-1.37D-05 OVMax= 0.00D+00

 Cycle  10  Pass 1  IDiag  1:
 RMSU=  1.12D-05    CP:  9.92D-01  1.16D+00  1.02D+00  1.11D+00  1.59D+00
                    CP:  2.10D+00  3.00D+00  3.00D+00  2.53D+00
 E= -473.904865803307     Delta-E=       -0.000012269572 Rises=F Damp=F
 DIIS: error= 3.26D-05 at cycle  10 NSaved=  10.
 NSaved=10 IEnMin=10 EnMin= -473.904865803307     IErMin=10 ErrMin= 3.26D-05
 ErrMax= 3.26D-05  0.00D+00 EMaxC= 1.00D-01 BMatC= 2.31D-07 BMatP= 5.75D-07
 IDIUse=1 WtCom= 1.00D+00 WtEn= 0.00D+00
 Coeff-Com: -0.747D-04 0.102D-02-0.140D-02-0.148D-01-0.572D-02 0.155D+00
 Coeff-Com: -0.399D-02-0.283D+00-0.587D+00 0.174D+01
 Coeff:     -0.747D-04 0.102D-02-0.140D-02-0.148D-01-0.572D-02 0.155D+00
 Coeff:     -0.399D-02-0.283D+00-0.587D+00 0.174D+01
 RMSDP=2.60D-05 MaxDP=1.22D-03 DE=-1.23D-05 OVMax= 0.00D+00

 Cycle  11  Pass 1  IDiag  1:
 RMSU=  6.98D-06    CP:  9.92D-01  1.16D+00  1.03D+00  1.10D+00  1.69D+00
                    CP:  2.29D+00  3.00D+00  3.00D+00  3.00D+00  2.87D+00
 E= -473.904872462078     Delta-E=       -0.000006658771 Rises=F Damp=F
 DIIS: error= 2.12D-05 at cycle  11 NSaved=  11.
 NSaved=11 IEnMin=11 EnMin= -473.904872462078     IErMin=11 ErrMin= 2.12D-05
 ErrMax= 2.12D-05  0.00D+00 EMaxC= 1.00D-01 BMatC= 8.21D-08 BMatP= 2.31D-07
 IDIUse=1 WtCom= 1.00D+00 WtEn= 0.00D+00
 Coeff-Com: -0.123D-03 0.527D-03 0.176D-02-0.263D-02-0.174D-01-0.778D-02
 Coeff-Com:  0.141D+00 0.219D+00-0.852D+00-0.137D+00 0.165D+01
 Coeff:     -0.123D-03 0.527D-03 0.176D-02-0.263D-02-0.174D-01-0.778D-02
 Coeff:      0.141D+00 0.219D+00-0.852D+00-0.137D+00 0.165D+01
 RMSDP=2.51D-05 MaxDP=1.14D-03 DE=-6.66D-06 OVMax= 0.00D+00

 Cycle  12  Pass 1  IDiag  1:
 RMSU=  1.87D-05    CP:  9.92D-01  1.16D+00  1.03D+00  1.09D+00  1.77D+00
                    CP:  2.45D+00  3.00D+00  3.00D+00  3.00D+00  3.00D+00
                    CP:  2.28D+00
 E= -473.904875482389     Delta-E=       -0.000003020311 Rises=F Damp=F
 DIIS: error= 1.03D-05 at cycle  12 NSaved=  12.
 NSaved=12 IEnMin=12 EnMin= -473.904875482389     IErMin=12 ErrMin= 1.03D-05
 ErrMax= 1.03D-05  0.00D+00 EMaxC= 1.00D-01 BMatC= 1.29D-08 BMatP= 8.21D-08
 IDIUse=1 WtCom= 1.00D+00 WtEn= 0.00D+00
 Coeff-Com:  0.376D-04-0.357D-03 0.274D-03 0.476D-02 0.101D-02-0.331D-01
 Coeff-Com: -0.522D-01 0.134D+00 0.255D+00-0.593D+00-0.546D-01 0.134D+01
 Coeff:      0.376D-04-0.357D-03 0.274D-03 0.476D-02 0.101D-02-0.331D-01
 Coeff:     -0.522D-01 0.134D+00 0.255D+00-0.593D+00-0.546D-01 0.134D+01
 RMSDP=7.59D-06 MaxDP=3.23D-04 DE=-3.02D-06 OVMax= 0.00D+00

 Cycle  13  Pass 1  IDiag  1:
 RMSU=  1.37D-06    CP:  9.92D-01  1.16D+00  1.03D+00  1.08D+00  1.80D+00
                    CP:  2.49D+00  3.00D+00  3.00D+00  3.00D+00  3.00D+00
                    CP:  2.73D+00  1.32D+00
 E= -473.904875788166     Delta-E=       -0.000000305778 Rises=F Damp=F
 DIIS: error= 3.39D-06 at cycle  13 NSaved=  13.
 NSaved=13 IEnMin=13 EnMin= -473.904875788166     IErMin=13 ErrMin= 3.39D-06
 ErrMax= 3.39D-06  0.00D+00 EMaxC= 1.00D-01 BMatC= 2.55D-09 BMatP= 1.29D-08
 IDIUse=1 WtCom= 1.00D+00 WtEn= 0.00D+00
 Coeff-Com:  0.250D-04-0.135D-03-0.297D-03 0.135D-02 0.256D-02-0.139D-02
 Coeff-Com: -0.369D-01-0.249D-01 0.196D+00-0.711D-01-0.249D+00 0.136D+00
 Coeff-Com:  0.105D+01
 Coeff:      0.250D-04-0.135D-03-0.297D-03 0.135D-02 0.256D-02-0.139D-02
 Coeff:     -0.369D-01-0.249D-01 0.196D+00-0.711D-01-0.249D+00 0.136D+00
 Coeff:      0.105D+01
 RMSDP=1.53D-06 MaxDP=7.91D-05 DE=-3.06D-07 OVMax= 0.00D+00

 Cycle  14  Pass 1  IDiag  1:
 RMSU=  3.63D-07    CP:  9.92D-01  1.16D+00  1.03D+00  1.08D+00  1.80D+00
                    CP:  2.49D+00  3.00D+00  3.00D+00  3.00D+00  3.00D+00
                    CP:  2.81D+00  1.37D+00  1.59D+00
 E= -473.904875825045     Delta-E=       -0.000000036878 Rises=F Damp=F
 DIIS: error= 2.45D-06 at cycle  14 NSaved=  14.
 NSaved=14 IEnMin=14 EnMin= -473.904875825045     IErMin=14 ErrMin= 2.45D-06
 ErrMax= 2.45D-06  0.00D+00 EMaxC= 1.00D-01 BMatC= 1.13D-09 BMatP= 2.55D-09
 IDIUse=1 WtCom= 1.00D+00 WtEn= 0.00D+00
 Coeff-Com: -0.222D-04 0.164D-03-0.731D-05-0.161D-02-0.252D-02 0.113D-01
 Coeff-Com:  0.324D-01-0.474D-01-0.118D+00 0.166D+00 0.127D+00-0.409D+00
 Coeff-Com: -0.562D+00 0.180D+01
 Coeff:     -0.222D-04 0.164D-03-0.731D-05-0.161D-02-0.252D-02 0.113D-01
 Coeff:      0.324D-01-0.474D-01-0.118D+00 0.166D+00 0.127D+00-0.409D+00
 Coeff:     -0.562D+00 0.180D+01
 RMSDP=1.38D-06 MaxDP=7.03D-05 DE=-3.69D-08 OVMax= 0.00D+00

 Cycle  15  Pass 1  IDiag  1:
 RMSU=  2.72D-07    CP:  9.92D-01  1.16D+00  1.03D+00  1.08D+00  1.80D+00
                    CP:  2.49D+00  3.00D+00  3.00D+00  3.00D+00  3.00D+00
                    CP:  2.86D+00  1.40D+00  2.30D+00  2.50D+00
 E= -473.904875849932     Delta-E=       -0.000000024887 Rises=F Damp=F
 DIIS: error= 1.44D-06 at cycle  15 NSaved=  15.
 NSaved=15 IEnMin=15 EnMin= -473.904875849932     IErMin=15 ErrMin= 1.44D-06
 ErrMax= 1.44D-06  0.00D+00 EMaxC= 1.00D-01 BMatC= 4.31D-10 BMatP= 1.13D-09
 IDIUse=1 WtCom= 1.00D+00 WtEn= 0.00D+00
 Coeff-Com: -0.769D-05 0.323D-04 0.145D-03-0.964D-04-0.182D-02-0.571D-03
 Coeff-Com:  0.164D-01 0.711D-02-0.474D-01-0.196D-01 0.981D-01 0.362D-01
 Coeff-Com: -0.537D+00-0.804D-01 0.153D+01
 Coeff:     -0.769D-05 0.323D-04 0.145D-03-0.964D-04-0.182D-02-0.571D-03
 Coeff:      0.164D-01 0.711D-02-0.474D-01-0.196D-01 0.981D-01 0.362D-01
 Coeff:     -0.537D+00-0.804D-01 0.153D+01
 RMSDP=1.01D-06 MaxDP=4.93D-05 DE=-2.49D-08 OVMax= 0.00D+00

 Cycle  16  Pass 1  IDiag  1:
 RMSU=  3.41D-07    CP:  9.92D-01  1.16D+00  1.03D+00  1.08D+00  1.80D+00
                    CP:  2.49D+00  3.00D+00  3.00D+00  3.00D+00  3.00D+00
                    CP:  2.89D+00  1.41D+00  2.86D+00  3.00D+00  1.82D+00
 E= -473.904875859323     Delta-E=       -0.000000009391 Rises=F Damp=F
 DIIS: error= 6.03D-07 at cycle  16 NSaved=  16.
 NSaved=16 IEnMin=16 EnMin= -473.904875859323     IErMin=16 ErrMin= 6.03D-07
 ErrMax= 6.03D-07  0.00D+00 EMaxC= 1.00D-01 BMatC= 6.93D-11 BMatP= 4.31D-10
 IDIUse=1 WtCom= 1.00D+00 WtEn= 0.00D+00
 Coeff-Com:  0.783D-05-0.558D-04 0.699D-06 0.586D-03 0.540D-03-0.321D-02
 Coeff-Com: -0.102D-01 0.853D-02 0.478D-01-0.582D-01-0.410D-01 0.139D+00
 Coeff-Com:  0.171D+00-0.491D+00-0.138D+00 0.137D+01
 Coeff:      0.783D-05-0.558D-04 0.699D-06 0.586D-03 0.540D-03-0.321D-02
 Coeff:     -0.102D-01 0.853D-02 0.478D-01-0.582D-01-0.410D-01 0.139D+00
 Coeff:      0.171D+00-0.491D+00-0.138D+00 0.137D+01
 RMSDP=4.15D-07 MaxDP=2.28D-05 DE=-9.39D-09 OVMax= 0.00D+00

 Cycle  17  Pass 1  IDiag  1:
 RMSU=  9.80D-08    CP:  9.92D-01  1.16D+00  1.03D+00  1.08D+00  1.81D+00
                    CP:  2.49D+00  3.00D+00  3.00D+00  3.00D+00  3.00D+00
                    CP:  2.89D+00  1.42D+00  3.00D+00  3.00D+00  2.31D+00
                    CP:  1.67D+00
 E= -473.904875860634     Delta-E=       -0.000000001311 Rises=F Damp=F
 DIIS: error= 3.66D-07 at cycle  17 NSaved=  17.
 NSaved=17 IEnMin=17 EnMin= -473.904875860634     IErMin=17 ErrMin= 3.66D-07
 ErrMax= 3.66D-07  0.00D+00 EMaxC= 1.00D-01 BMatC= 6.84D-12 BMatP= 6.93D-11
 IDIUse=1 WtCom= 1.00D+00 WtEn= 0.00D+00
 Coeff-Com:  0.110D-05-0.539D-05-0.208D-04 0.381D-04 0.191D-03 0.747D-04
 Coeff-Com: -0.224D-02-0.106D-02 0.882D-02-0.163D-02-0.118D-01-0.263D-02
 Coeff-Com:  0.608D-01 0.252D-02-0.171D+00 0.969D-02 0.111D+01
 Coeff:      0.110D-05-0.539D-05-0.208D-04 0.381D-04 0.191D-03 0.747D-04
 Coeff:     -0.224D-02-0.106D-02 0.882D-02-0.163D-02-0.118D-01-0.263D-02
 Coeff:      0.608D-01 0.252D-02-0.171D+00 0.969D-02 0.111D+01
 RMSDP=8.94D-08 MaxDP=4.13D-06 DE=-1.31D-09 OVMax= 0.00D+00

 Cycle  18  Pass 1  IDiag  1:
 RMSU=  1.98D-08    CP:  9.92D-01  1.16D+00  1.03D+00  1.08D+00  1.81D+00
                    CP:  2.49D+00  3.00D+00  3.00D+00  3.00D+00  3.00D+00
                    CP:  2.90D+00  1.42D+00  3.00D+00  3.00D+00  2.41D+00
                    CP:  1.82D+00  1.59D+00
 E= -473.904875860700     Delta-E=       -0.000000000066 Rises=F Damp=F
 DIIS: error= 2.46D-07 at cycle  18 NSaved=  18.
 NSaved=18 IEnMin=18 EnMin= -473.904875860700     IErMin=18 ErrMin= 2.46D-07
 ErrMax= 2.46D-07  0.00D+00 EMaxC= 1.00D-01 BMatC= 1.45D-12 BMatP= 6.84D-12
 IDIUse=1 WtCom= 1.00D+00 WtEn= 0.00D+00
 Coeff-Com: -0.160D-05 0.113D-04-0.897D-06-0.114D-03-0.106D-03 0.647D-03
 Coeff-Com:  0.186D-02-0.170D-02-0.912D-02 0.103D-01 0.963D-02-0.266D-01
 Coeff-Com: -0.323D-01 0.927D-01 0.348D-01-0.279D+00-0.376D-01 0.124D+01
 Coeff:     -0.160D-05 0.113D-04-0.897D-06-0.114D-03-0.106D-03 0.647D-03
 Coeff:      0.186D-02-0.170D-02-0.912D-02 0.103D-01 0.963D-02-0.266D-01
 Coeff:     -0.323D-01 0.927D-01 0.348D-01-0.279D+00-0.376D-01 0.124D+01
 RMSDP=2.84D-08 MaxDP=2.09D-06 DE=-6.64D-11 OVMax= 0.00D+00

 Cycle  19  Pass 1  IDiag  1:
 RMSU=  1.42D-08    CP:  9.92D-01  1.16D+00  1.03D+00  1.08D+00  1.81D+00
                    CP:  2.49D+00  3.00D+00  3.00D+00  3.00D+00  3.00D+00
                    CP:  2.90D+00  1.42D+00  3.00D+00  3.00D+00  2.44D+00
                    CP:  1.86D+00  1.71D+00  1.42D+00
 E= -473.904875860706     Delta-E=       -0.000000000005 Rises=F Damp=F
 DIIS: error= 1.19D-07 at cycle  19 NSaved=  19.
 NSaved=19 IEnMin=19 EnMin= -473.904875860706     IErMin=19 ErrMin= 1.19D-07
 ErrMax= 1.19D-07  0.00D+00 EMaxC= 1.00D-01 BMatC= 2.31D-13 BMatP= 1.45D-12
 IDIUse=1 WtCom= 1.00D+00 WtEn= 0.00D+00
 Coeff-Com: -0.223D-06 0.127D-05 0.371D-05-0.112D-04-0.317D-04 0.729D-05
 Coeff-Com:  0.373D-03 0.144D-03-0.152D-02 0.414D-03 0.217D-02-0.628D-03
 Coeff-Com: -0.101D-01-0.104D-02 0.278D-01 0.194D-03-0.188D+00 0.406D-01
 Coeff-Com:  0.113D+01
 Coeff:     -0.223D-06 0.127D-05 0.371D-05-0.112D-04-0.317D-04 0.729D-05
 Coeff:      0.373D-03 0.144D-03-0.152D-02 0.414D-03 0.217D-02-0.628D-03
 Coeff:     -0.101D-01-0.104D-02 0.278D-01 0.194D-03-0.188D+00 0.406D-01
 Coeff:      0.113D+01
 RMSDP=1.21D-08 MaxDP=9.59D-07 DE=-5.46D-12 OVMax= 0.00D+00

 Cycle  20  Pass 1  IDiag  1:
 RMSU=  3.41D-09    CP:  9.92D-01  1.16D+00  1.03D+00  1.08D+00  1.81D+00
                    CP:  2.49D+00  3.00D+00  3.00D+00  3.00D+00  3.00D+00
                    CP:  2.90D+00  1.42D+00  3.00D+00  3.00D+00  2.45D+00
                    CP:  1.87D+00  1.79D+00  1.61D+00  1.28D+00
 E= -473.904875860749     Delta-E=       -0.000000000043 Rises=F Damp=F
 DIIS: error= 5.78D-08 at cycle  20 NSaved=  20.
 NSaved=20 IEnMin=20 EnMin= -473.904875860749     IErMin=20 ErrMin= 5.78D-08
 ErrMax= 5.78D-08  0.00D+00 EMaxC= 1.00D-01 BMatC= 4.48D-14 BMatP= 2.31D-13
 IDIUse=1 WtCom= 1.00D+00 WtEn= 0.00D+00
 Coeff-Com:  0.337D-06-0.236D-05 0.273D-06 0.230D-04 0.250D-04-0.134D-03
 Coeff-Com: -0.391D-03 0.352D-03 0.182D-02-0.209D-02-0.190D-02 0.538D-02
 Coeff-Com:  0.723D-02-0.179D-01-0.875D-02 0.598D-01 0.368D-02-0.237D+00
 Coeff-Com: -0.553D-01 0.125D+01
 Coeff:      0.337D-06-0.236D-05 0.273D-06 0.230D-04 0.250D-04-0.134D-03
 Coeff:     -0.391D-03 0.352D-03 0.182D-02-0.209D-02-0.190D-02 0.538D-02
 Coeff:      0.723D-02-0.179D-01-0.875D-02 0.598D-01 0.368D-02-0.237D+00
 Coeff:     -0.553D-01 0.125D+01
 RMSDP=4.22D-09 MaxDP=5.80D-07 DE=-4.27D-11 OVMax= 0.00D+00

 SCF Done:  E(RZINDO/S) =  -473.904875861     A.U. after   20 cycles
            NFock= 20  Conv=0.42D-08     -V/T= 0.9493
 KE=-9.350798392250D+03 PE= 4.791509127244D-07 EE= 4.538561193661D+03
 Leave Link  502 at Thu May  5 06:38:29 2022, MaxMem=  6710886400 cpu:              23.5 elap:               1.0
 (Enter /sw/apps/gaussian-16.0/g16/l801.exe)
 Range of M.O.s used for correlation:     1   338
 NBasis=   338 NAE=   176 NBE=   176 NFC=     0 NFV=     0
 NROrb=    338 NOA=   176 NOB=   176 NVA=   162 NVB=   162
 Leave Link  801 at Thu May  5 06:38:29 2022, MaxMem=  6710886400 cpu:               0.5 elap:               0.0
 (Enter /sw/apps/gaussian-16.0/g16/l914.exe)
 RHF ground state
 Two-electron integral symmetry not used.
 MDV=  6710886400 DFT=F DoStab=F Mixed=F DoRPA=F DoScal=F NonHer=F
 Making orbital integer symmetry assigments:
 Orbital symmetries:
       Occupied  (A) (A) (A) (A) (A) (A) (A) (A) (A) (A) (A) (A)
                 (A) (A) (A) (A) (A) (A) (A) (A) (A) (A) (A) (A)
                 (A) (A) (A) (A) (A) (A) (A) (A) (A) (A) (A) (A)
                 (A) (A) (A) (A) (A) (A) (A) (A) (A) (A) (A) (A)
                 (A) (A) (A) (A) (A) (A) (A) (A) (A) (A) (A) (A)
                 (A) (A) (A) (A) (A) (A) (A) (A) (A) (A) (A) (A)
                 (A) (A) (A) (A) (A) (A) (A) (A) (A) (A) (A) (A)
                 (A) (A) (A) (A) (A) (A) (A) (A) (A) (A) (A) (A)
                 (A) (A) (A) (A) (A) (A) (A) (A) (A) (A) (A) (A)
                 (A) (A) (A) (A) (A) (A) (A) (A) (A) (A) (A) (A)
                 (A) (A) (A) (A) (A) (A) (A) (A) (A) (A) (A) (A)
                 (A) (A) (A) (A) (A) (A) (A) (A) (A) (A) (A) (A)
                 (A) (A) (A) (A) (A) (A) (A) (A) (A) (A) (A) (A)
                 (A) (A) (A) (A) (A) (A) (A) (A) (A) (A) (A) (A)
                 (A) (A) (A) (A) (A) (A) (A) (A)
       Virtual   (A) (A) (A) (A) (A) (A) (A) (A) (A) (A) (A) (A)
                 (A) (A) (A) (A) (A) (A) (A) (A) (A) (A) (A) (A)
                 (A) (A) (A) (A) (A) (A) (A) (A) (A) (A) (A) (A)
                 (A) (A) (A) (A) (A) (A) (A) (A) (A) (A) (A) (A)
                 (A) (A) (A) (A) (A) (A) (A) (A) (A) (A) (A) (A)
                 (A) (A) (A) (A) (A) (A) (A) (A) (A) (A) (A) (A)
                 (A) (A) (A) (A) (A) (A) (A) (A) (A) (A) (A) (A)
                 (A) (A) (A) (A) (A) (A) (A) (A) (A) (A) (A) (A)
                 (A) (A) (A) (A) (A) (A) (A) (A) (A) (A) (A) (A)
                 (A) (A) (A) (A) (A) (A) (A) (A) (A) (A) (A) (A)
                 (A) (A) (A) (A) (A) (A) (A) (A) (A) (A) (A) (A)
                 (A) (A) (A) (A) (A) (A) (A) (A) (A) (A) (A) (A)
                 (A) (A) (A) (A) (A) (A) (A) (A) (A) (A) (A) (A)
                 (A) (A) (A) (A) (A) (A)
    20 initial guesses have been made.
 Convergence on wavefunction:    0.001000000000000
 Davidson Disk Diagonalization:  ConvIn= 1.00D-03 SkipCon=T Conv= 1.00D-03.
 Max sub-space:  2000 roots to seek:    20 dimension of matrix:        57024
 Iteration     1 Dimension    20 NMult     0 NNew     20
 CISAX will form    20 AO SS matrices at one time.
 NMat=    20 NSing=    20 JSym2X= 0.
 New state      3 was old state      4
 New state      4 was old state      5
 New state      5 was old state      3
 Excitation Energies [eV] at current iteration:
 Root      1 :     1.588958988903916
 Root      2 :     2.098782568362966
 Root      3 :     3.277478306864482
 Root      4 :     3.298140465105992
 Root      5 :     3.413419964231221
 Root      6 :     3.506300244615294
 Root      7 :     3.608555335367885
 Root      8 :     3.733775571198035
 Root      9 :     3.888317609978013
 Root     10 :     3.921933956529811
 Root     11 :     4.136541737874769
 Root     12 :     4.172303195259373
 Root     13 :     4.246419885947480
 Root     14 :     4.273780132330093
 Root     15 :     4.367830749534088
 Root     16 :     4.438674311645111
 Root     17 :     4.703399031736748
 Root     18 :     4.831262405191273
 Root     19 :     4.882483219628008
 Root     20 :     5.729689794397475
 Iteration     2 Dimension    40 NMult    20 NNew     20
 CISAX will form    20 AO SS matrices at one time.
 NMat=    20 NSing=    20 JSym2X= 0.
 Root      1 not converged, maximum delta is    0.044960316331570
 Root      2 not converged, maximum delta is    0.027479415791855
 Root      3 not converged, maximum delta is    0.414217379331842
 Root      4 not converged, maximum delta is    0.478727422108303
 Root      5 not converged, maximum delta is    0.418500801882019
 Excitation Energies [eV] at current iteration:
 Root      1 :     1.232241826329001   Change is   -0.356717162574914
 Root      2 :     1.889474155434884   Change is   -0.209308412928081
 Root      3 :     3.003327712303619   Change is   -0.274150594560863
 Root      4 :     3.069268274444524   Change is   -0.228872190661468
 Root      5 :     3.138414567242948   Change is   -0.275005396988273
 Root      6 :     3.360968131530397   Change is   -0.247587203837488
 Root      7 :     3.462650243063487   Change is   -0.043650001551807
 Root      8 :     3.503977602602896   Change is   -0.229797968595139
 Root      9 :     3.554718539717251   Change is   -0.883955771927861
 Root     10 :     3.567797659582587   Change is   -0.354136296947224
 Root     11 :     3.638180299108543   Change is   -0.635599833221550
 Root     12 :     3.678972445018867   Change is   -0.209345164959146
 Root     13 :     3.775973010304668   Change is   -0.360568727570101
 Root     14 :     3.913767284738281   Change is   -0.258535910521092
 Root     15 :     4.058759776597103   Change is   -0.309070972936984
 Root     16 :     4.125548314471656   Change is   -0.120871571475824
 Root     17 :     4.494645666264840   Change is   -0.208753365471908
 Root     18 :     4.763954863840125   Change is   -0.067307541351148
 Root     19 :     4.873915285788240   Change is   -0.008567933839769
 Root     20 :     5.563485946153694
 Iteration     3 Dimension    45 NMult    40 NNew      5
 CISAX will form     5 AO SS matrices at one time.
 NMat=     5 NSing=     5 JSym2X= 0.
 Root      1 not converged, maximum delta is    0.008452316468809
 Root      2 not converged, maximum delta is    0.019248610710353
 Root      3 not converged, maximum delta is    0.021353223783561
 Root      4 not converged, maximum delta is    0.020702031008746
 Root      5 not converged, maximum delta is    0.032366810490881
 Excitation Energies [eV] at current iteration:
 Root      1 :     1.215072468618712   Change is   -0.017169357710289
 Root      2 :     1.863861618377929   Change is   -0.025612537056956
 Root      3 :     2.983706198739627   Change is   -0.019621513563992
 Root      4 :     3.030916188287335   Change is   -0.038352086157189
 Root      5 :     3.108904325879275   Change is   -0.029510241363673
 Iteration     4 Dimension    50 NMult    45 NNew      5
 CISAX will form     5 AO SS matrices at one time.
 NMat=     5 NSing=     5 JSym2X= 0.
 Root      1 not converged, maximum delta is    0.002084321458756
 Root      2 not converged, maximum delta is    0.002283646813850
 Root      3 not converged, maximum delta is    0.014528569057706
 Root      4 not converged, maximum delta is    0.014949998660216
 Root      5 not converged, maximum delta is    0.013040338104278
 Excitation Energies [eV] at current iteration:
 Root      1 :     1.214212952604664   Change is   -0.000859516014048
 Root      2 :     1.863187004559227   Change is   -0.000674613818702
 Root      3 :     2.981015544544145   Change is   -0.002690654195482
 Root      4 :     3.026195964332660   Change is   -0.004720223954675
 Root      5 :     3.105838877998381   Change is   -0.003065447880894
 Iteration     5 Dimension    55 NMult    50 NNew      5
 CISAX will form     5 AO SS matrices at one time.
 NMat=     5 NSing=     5 JSym2X= 0.
 Root      1 has converged.
 Root      2 has converged.
 Root      3 not converged, maximum delta is    0.027203194644922
 Root      4 not converged, maximum delta is    0.076021194263215
 Root      5 not converged, maximum delta is    0.201796999023285
 Excitation Energies [eV] at current iteration:
 Root      1 :     1.214158997394743   Change is   -0.000053955209921
 Root      2 :     1.863143936649980   Change is   -0.000043067909247
 Root      3 :     2.979784882074334   Change is   -0.001230662469811
 Root      4 :     3.020132529826481   Change is   -0.006063434506179
 Root      5 :     3.084078758667123   Change is   -0.021760119331258
 Iteration     6 Dimension    58 NMult    55 NNew      3
 CISAX will form     3 AO SS matrices at one time.
 NMat=     3 NSing=     3 JSym2X= 0.
 Root      1 has converged.
 Root      2 has converged.
 Root      3 not converged, maximum delta is    0.236047333270633
 Root      4 not converged, maximum delta is    0.505652107686638
 Root      5 not converged, maximum delta is    0.512300646967876
 Excitation Energies [eV] at current iteration:
 Root      1 :     1.214158957563142   Change is   -0.000000039831602
 Root      2 :     1.863143047184556   Change is   -0.000000889465424
 Root      3 :     2.965393750933305   Change is   -0.014391131141030
 Root      4 :     2.986075509753983   Change is   -0.034057020072498
 Root      5 :     3.033800600503353   Change is   -0.050278158163769
 Iteration     7 Dimension    61 NMult    58 NNew      3
 CISAX will form     3 AO SS matrices at one time.
 NMat=     3 NSing=     3 JSym2X= 0.
 Root      1 has converged.
 Root      2 has converged.
 Root      3 not converged, maximum delta is    0.107705492006281
 Root      4 not converged, maximum delta is    0.060976674968438
 Root      5 not converged, maximum delta is    0.025903043406594
 Excitation Energies [eV] at current iteration:
 Root      1 :     1.214158886603135   Change is   -0.000000070960006
 Root      2 :     1.863142777236090   Change is   -0.000000269948466
 Root      3 :     2.953589408413399   Change is   -0.011804342519906
 Root      4 :     2.983738598204108   Change is   -0.002336911549874
 Root      5 :     3.032029878508703   Change is   -0.001770721994651
 Iteration     8 Dimension    64 NMult    61 NNew      3
 CISAX will form     3 AO SS matrices at one time.
 NMat=     3 NSing=     3 JSym2X= 0.
 Root      1 has converged.
 Root      2 has converged.
 Root      3 not converged, maximum delta is    0.049141772544832
 Root      4 not converged, maximum delta is    0.005577810342591
 No map to state      5
 Excitation Energies [eV] at current iteration:
 Root      1 :     1.214158732219708   Change is   -0.000000154383428
 Root      2 :     1.863142673358734   Change is   -0.000000103877356
 Root      3 :     2.950389495659150   Change is   -0.003199912754250
 Root      4 :     2.983486750644592   Change is   -0.000251847559516
 Root      5 :     2.988919282952349
 Iteration     9 Dimension    67 NMult    64 NNew      3
 CISAX will form     3 AO SS matrices at one time.
 NMat=     3 NSing=     3 JSym2X= 0.
 Root      1 has converged.
 Root      2 has converged.
 Root      3 not converged, maximum delta is    0.110695857759766
 New state      4 was old state      5
 Root      4 not converged, maximum delta is    0.128771142156574
 New state      5 was old state      4
 Root      5 not converged, maximum delta is    0.001476404095222
 Excitation Energies [eV] at current iteration:
 Root      1 :     1.214158669719243   Change is   -0.000000062500465
 Root      2 :     1.863142591248481   Change is   -0.000000082110252
 Root      3 :     2.947050073008011   Change is   -0.003339422651139
 Root      4 :     2.964725361152879   Change is   -0.024193921799471
 Root      5 :     2.983446073212221   Change is   -0.000040677432371
 Iteration    10 Dimension    70 NMult    67 NNew      3
 CISAX will form     3 AO SS matrices at one time.
 NMat=     3 NSing=     3 JSym2X= 0.
 Root      1 has converged.
 Root      2 has converged.
 Root      3 not converged, maximum delta is    0.030719032518523
 Root      4 not converged, maximum delta is    0.036171574610845
 Root      5 has converged.
 Excitation Energies [eV] at current iteration:
 Root      1 :     1.214158655561733   Change is   -0.000000014157510
 Root      2 :     1.863142557976844   Change is   -0.000000033271637
 Root      3 :     2.946058738009185   Change is   -0.000991334998825
 Root      4 :     2.962425758016754   Change is   -0.002299603136125
 Root      5 :     2.983441225768681   Change is   -0.000004847443540
 Iteration    11 Dimension    72 NMult    70 NNew      2
 CISAX will form     2 AO SS matrices at one time.
 NMat=     2 NSing=     2 JSym2X= 0.
 Root      1 has converged.
 Root      2 has converged.
 Root      3 not converged, maximum delta is    0.004592624889436
 Root      4 not converged, maximum delta is    0.005251742737828
 Root      5 has converged.
 Excitation Energies [eV] at current iteration:
 Root      1 :     1.214158626602571   Change is   -0.000000028959161
 Root      2 :     1.863142454726687   Change is   -0.000000103250158
 Root      3 :     2.945902629244582   Change is   -0.000156108764603
 Root      4 :     2.962154855201613   Change is   -0.000270902815141
 Root      5 :     2.983441018917649   Change is   -0.000000206851032
 Iteration    12 Dimension    74 NMult    72 NNew      2
 CISAX will form     2 AO SS matrices at one time.
 NMat=     2 NSing=     2 JSym2X= 0.
 Root      1 has converged.
 Root      2 has converged.
 Root      3 has converged.
 Root      4 has converged.
 Root      5 has converged.
 Excitation Energies [eV] at current iteration:
 Root      1 :     1.214158593827853   Change is   -0.000000032774719
 Root      2 :     1.863142406204788   Change is   -0.000000048521899
 Root      3 :     2.945882471275124   Change is   -0.000020157969458
 Root      4 :     2.962122617098072   Change is   -0.000032238103541
 Root      5 :     2.983441001768433   Change is   -0.000000017149216
 Convergence achieved on expansion vectors.
 ***********************************************************************
 Excited states from <AA,BB:AA,BB> singles matrix:
 ***********************************************************************
 
 1PDM for each excited state written to RWF  633
 Ground to excited state transition densities written to RWF  633
 Ground to excited state transition electric dipole moments (Au):
       state          X           Y           Z        Dip. S.      Osc.
         1        -2.7372      3.6286      0.0496     20.6615      0.6146
         2         1.0500      0.9236     -0.0125      1.9558      0.0893
         3         0.7530      0.6927      0.0046      1.0468      0.0755
         4         0.7263      0.5459     -0.0387      0.8271      0.0600
         5         2.4073      2.1141     -0.0488     10.2672      0.7505
 Ground to excited state transition velocity dipole moments (Au):
       state          X           Y           Z        Dip. S.      Osc.
         1        -0.0654      0.0377      0.0027      0.0057      0.0852
         2        -0.0063     -0.0195      0.0005      0.0004      0.0041
         3        -0.0248     -0.0196      0.0051      0.0010      0.0063
         4        -0.0217     -0.0150      0.0095      0.0008      0.0048
         5        -0.0761     -0.0673     -0.0043      0.0103      0.0628
 Ground to excited state transition magnetic dipole moments (Au):
       state          X           Y           Z
         1         0.0139     -0.0547      0.1389
         2         0.0250     -0.0321     -0.6030
         3         0.1548     -0.7336     -0.1750
         4        -0.5177     -0.2589     -0.2528
         5         0.0920      0.2262     -0.3342
 Ground to excited state transition velocity quadrupole moments (Au):
       state          XX          YY          ZZ          XY          XZ          YZ
         1        -1.2530      0.0980      0.0230      0.3758      0.0519     -0.0097
         2        -0.0579     -0.0003      0.0077     -0.0699     -0.0146      0.0056
         3        -0.4938      0.1165      0.0022     -0.2204      0.0220     -0.0489
         4        -0.4084      0.0325      0.0004     -0.1836      0.0289      0.1656
         5        -0.8447     -0.0981      0.0248     -0.4563     -0.0703     -0.0220
 <0|del|b> * <b|rxdel|0> + <0|del|b> * <b|delr+rdel|0>
 Rotatory Strengths (R) in cgs (10**-40 erg-esu-cm/Gauss)
       state          XX          YY          ZZ    R(velocity)    E-M Angle
         1       -20.8058     -7.2398    -13.0727    -13.7061      103.24
         2         0.0444     -2.3505      4.0724      0.5888       89.21
         3        41.7376     -7.8345     28.9853     20.9628       67.02
         4         0.5942     22.6432     59.3332     27.5235       44.14
         5       -53.2627    -18.8620    -61.8037    -44.6428      119.57
 1/2[<0|r|b>*<b|rxdel|0> + (<0|rxdel|b>*<b|r|0>)*]
 Rotatory Strengths (R) in cgs (10**-40 erg-esu-cm/Gauss)
       state          XX          YY          ZZ     R(length)
         1        26.8984    140.2777     -4.8692     54.1023
         2       -18.5814     20.9605     -5.3376     -0.9861
         3       -82.4267    359.3330      0.5698     92.4920
         4       265.9263     99.9391     -6.9134    119.6507
         5      -156.5374   -338.2181    -11.5300   -168.7618
  1/2[<0|del|b>*<b|r|0> + (<0|r|b>*<b|del|0>)*] (Au)
       state          X           Y           Z        Dip. S.   Osc.(frdel)
         1         0.1790      0.1368      0.0001     -0.3159     -0.2106
         2        -0.0066     -0.0180     -0.0000      0.0246      0.0164
         3        -0.0187     -0.0136      0.0000      0.0322      0.0215
         4        -0.0157     -0.0082     -0.0004      0.0243      0.0162
         5        -0.1831     -0.1422      0.0002      0.3252      0.2168

 Excitation energies and oscillator strengths:
 
 Excited State   1:      Singlet-A      1.2142 eV 1021.15 nm  f=0.6146  <S**2>=0.000
     175 ->178         0.19434
     176 ->177         0.66146
 This state for optimization and/or second-order correction.
 Total Energy, E(CIS/TDA) =  -473.860256353    
 Copying the excited state density for this state as the 1-particle RhoCI density.
 
 Excited State   2:      Singlet-A      1.8631 eV  665.46 nm  f=0.0893  <S**2>=0.000
     175 ->177         0.57419
     176 ->178        -0.38277
 
 Excited State   3:      Singlet-A      2.9459 eV  420.87 nm  f=0.0755  <S**2>=0.000
     168 ->177         0.34984
     168 ->178        -0.13418
     168 ->179        -0.42370
     168 ->180         0.18336
     168 ->186        -0.19944
     168 ->197         0.10784
     176 ->178         0.13944
 
 Excited State   4:      Singlet-A      2.9621 eV  418.57 nm  f=0.0600  <S**2>=0.000
     169 ->177         0.12240
     169 ->180         0.12312
     170 ->177         0.30663
     170 ->178        -0.11760
     170 ->179         0.24705
     170 ->180         0.34885
     170 ->182        -0.12304
     170 ->186         0.15469
     170 ->187         0.18161
     170 ->201        -0.12665
     176 ->178         0.13288
 
 Excited State   5:      Singlet-A      2.9834 eV  415.57 nm  f=0.7505  <S**2>=0.000
     174 ->177         0.12412
     175 ->177         0.29724
     176 ->178         0.49615
     176 ->179         0.28252
 SavETr:  write IOETrn=   770 NScale= 10 NData=  16 NLR=1 NState=    5 LETran=     100.
 Leave Link  914 at Thu May  5 06:38:34 2022, MaxMem=  6710886400 cpu:             121.8 elap:               5.1
 (Enter /sw/apps/gaussian-16.0/g16/l601.exe)
 Copying SCF densities to generalized density rwf, IOpCl= 0 IROHF=0.

 **********************************************************************

            Population analysis using the SCF density.

 **********************************************************************

 Orbital symmetries:
       Occupied  (A) (A) (A) (A) (A) (A) (A) (A) (A) (A) (A) (A)
                 (A) (A) (A) (A) (A) (A) (A) (A) (A) (A) (A) (A)
                 (A) (A) (A) (A) (A) (A) (A) (A) (A) (A) (A) (A)
                 (A) (A) (A) (A) (A) (A) (A) (A) (A) (A) (A) (A)
                 (A) (A) (A) (A) (A) (A) (A) (A) (A) (A) (A) (A)
                 (A) (A) (A) (A) (A) (A) (A) (A) (A) (A) (A) (A)
                 (A) (A) (A) (A) (A) (A) (A) (A) (A) (A) (A) (A)
                 (A) (A) (A) (A) (A) (A) (A) (A) (A) (A) (A) (A)
                 (A) (A) (A) (A) (A) (A) (A) (A) (A) (A) (A) (A)
                 (A) (A) (A) (A) (A) (A) (A) (A) (A) (A) (A) (A)
                 (A) (A) (A) (A) (A) (A) (A) (A) (A) (A) (A) (A)
                 (A) (A) (A) (A) (A) (A) (A) (A) (A) (A) (A) (A)
                 (A) (A) (A) (A) (A) (A) (A) (A) (A) (A) (A) (A)
                 (A) (A) (A) (A) (A) (A) (A) (A) (A) (A) (A) (A)
                 (A) (A) (A) (A) (A) (A) (A) (A)
       Virtual   (A) (A) (A) (A) (A) (A) (A) (A) (A) (A) (A) (A)
                 (A) (A) (A) (A) (A) (A) (A) (A) (A) (A) (A) (A)
                 (A) (A) (A) (A) (A) (A) (A) (A) (A) (A) (A) (A)
                 (A) (A) (A) (A) (A) (A) (A) (A) (A) (A) (A) (A)
                 (A) (A) (A) (A) (A) (A) (A) (A) (A) (A) (A) (A)
                 (A) (A) (A) (A) (A) (A) (A) (A) (A) (A) (A) (A)
                 (A) (A) (A) (A) (A) (A) (A) (A) (A) (A) (A) (A)
                 (A) (A) (A) (A) (A) (A) (A) (A) (A) (A) (A) (A)
                 (A) (A) (A) (A) (A) (A) (A) (A) (A) (A) (A) (A)
                 (A) (A) (A) (A) (A) (A) (A) (A) (A) (A) (A) (A)
                 (A) (A) (A) (A) (A) (A) (A) (A) (A) (A) (A) (A)
                 (A) (A) (A) (A) (A) (A) (A) (A) (A) (A) (A) (A)
                 (A) (A) (A) (A) (A) (A) (A) (A) (A) (A) (A) (A)
                 (A) (A) (A) (A) (A) (A)
 The electronic state is 1-A.
 Alpha  occ. eigenvalues --   -1.83860  -1.79481  -1.77614  -1.75270  -1.68927
 Alpha  occ. eigenvalues --   -1.68661  -1.65002  -1.61362  -1.57539  -1.56904
 Alpha  occ. eigenvalues --   -1.54469  -1.51969  -1.47425  -1.47021  -1.45379
 Alpha  occ. eigenvalues --   -1.43971  -1.40783  -1.38762  -1.38580  -1.37934
 Alpha  occ. eigenvalues --   -1.35740  -1.35113  -1.33072  -1.29887  -1.28720
 Alpha  occ. eigenvalues --   -1.28020  -1.23957  -1.22185  -1.20959  -1.18071
 Alpha  occ. eigenvalues --   -1.17567  -1.16889  -1.14641  -1.13573  -1.13204
 Alpha  occ. eigenvalues --   -1.12582  -1.09631  -1.08984  -1.04955  -1.03750
 Alpha  occ. eigenvalues --   -1.02991  -1.01644  -0.99282  -0.97950  -0.96868
 Alpha  occ. eigenvalues --   -0.96119  -0.94783  -0.93816  -0.93145  -0.92849
 Alpha  occ. eigenvalues --   -0.90838  -0.89709  -0.89179  -0.88044  -0.86941
 Alpha  occ. eigenvalues --   -0.86569  -0.85567  -0.83707  -0.82402  -0.81090
 Alpha  occ. eigenvalues --   -0.79522  -0.78349  -0.77292  -0.76757  -0.75878
 Alpha  occ. eigenvalues --   -0.75630  -0.75398  -0.74881  -0.74610  -0.73318
 Alpha  occ. eigenvalues --   -0.72571  -0.72378  -0.71377  -0.70522  -0.70468
 Alpha  occ. eigenvalues --   -0.70189  -0.69103  -0.68557  -0.67997  -0.67714
 Alpha  occ. eigenvalues --   -0.67368  -0.66529  -0.65994  -0.65895  -0.65424
 Alpha  occ. eigenvalues --   -0.65374  -0.64633  -0.64281  -0.63974  -0.63702
 Alpha  occ. eigenvalues --   -0.63301  -0.62966  -0.62308  -0.62026  -0.61601
 Alpha  occ. eigenvalues --   -0.61415  -0.61125  -0.60834  -0.60222  -0.60195
 Alpha  occ. eigenvalues --   -0.59615  -0.59272  -0.59196  -0.58253  -0.58033
 Alpha  occ. eigenvalues --   -0.57794  -0.57720  -0.56981  -0.56728  -0.56623
 Alpha  occ. eigenvalues --   -0.56040  -0.55642  -0.55232  -0.55117  -0.54738
 Alpha  occ. eigenvalues --   -0.54251  -0.54001  -0.53588  -0.53564  -0.52569
 Alpha  occ. eigenvalues --   -0.52513  -0.52260  -0.52062  -0.51493  -0.51190
 Alpha  occ. eigenvalues --   -0.51007  -0.50595  -0.50537  -0.50279  -0.50171
 Alpha  occ. eigenvalues --   -0.49820  -0.49608  -0.49442  -0.49215  -0.48875
 Alpha  occ. eigenvalues --   -0.48678  -0.48497  -0.48406  -0.48072  -0.47912
 Alpha  occ. eigenvalues --   -0.47556  -0.47440  -0.47223  -0.46582  -0.46444
 Alpha  occ. eigenvalues --   -0.46252  -0.46009  -0.45758  -0.45591  -0.45581
 Alpha  occ. eigenvalues --   -0.45163  -0.45032  -0.44529  -0.44481  -0.44157
 Alpha  occ. eigenvalues --   -0.44074  -0.43844  -0.43083  -0.42603  -0.42408
 Alpha  occ. eigenvalues --   -0.42201  -0.40620  -0.40389  -0.38466  -0.38301
 Alpha  occ. eigenvalues --   -0.37672  -0.37464  -0.35593  -0.34145  -0.34078
 Alpha  occ. eigenvalues --   -0.33782  -0.32370  -0.32145  -0.31346  -0.26377
 Alpha  occ. eigenvalues --   -0.21873
 Alpha virt. eigenvalues --   -0.08956  -0.02076  -0.00842   0.01344   0.02277
 Alpha virt. eigenvalues --    0.02410   0.02739   0.02878   0.04593   0.04897
 Alpha virt. eigenvalues --    0.06248   0.06604   0.07232   0.07810   0.07871
 Alpha virt. eigenvalues --    0.08185   0.08268   0.08628   0.09116   0.09139
 Alpha virt. eigenvalues --    0.09392   0.09633   0.09885   0.10005   0.10365
 Alpha virt. eigenvalues --    0.10879   0.11020   0.11435   0.11572   0.12114
 Alpha virt. eigenvalues --    0.12430   0.12714   0.12941   0.13090   0.13314
 Alpha virt. eigenvalues --    0.13536   0.13793   0.14049   0.14462   0.14837
 Alpha virt. eigenvalues --    0.15323   0.15475   0.15493   0.15534   0.15716
 Alpha virt. eigenvalues --    0.16013   0.16058   0.16195   0.16466   0.16860
 Alpha virt. eigenvalues --    0.16921   0.17428   0.17579   0.17894   0.18088
 Alpha virt. eigenvalues --    0.18171   0.18589   0.19162   0.19285   0.19290
 Alpha virt. eigenvalues --    0.19557   0.19883   0.19973   0.20197   0.20997
 Alpha virt. eigenvalues --    0.21431   0.21469   0.22332   0.22530   0.23078
 Alpha virt. eigenvalues --    0.23963   0.24046   0.24174   0.24245   0.24500
 Alpha virt. eigenvalues --    0.24520   0.24556   0.24619   0.24722   0.24815
 Alpha virt. eigenvalues --    0.24862   0.24994   0.25014   0.25080   0.25118
 Alpha virt. eigenvalues --    0.25257   0.25350   0.25388   0.25484   0.25667
 Alpha virt. eigenvalues --    0.25671   0.25709   0.25721   0.25807   0.25870
 Alpha virt. eigenvalues --    0.25883   0.25919   0.25988   0.26157   0.26176
 Alpha virt. eigenvalues --    0.26230   0.26255   0.26330   0.26385   0.26400
 Alpha virt. eigenvalues --    0.26431   0.26485   0.26526   0.26620   0.26868
 Alpha virt. eigenvalues --    0.26891   0.27133   0.27352   0.27489   0.27602
 Alpha virt. eigenvalues --    0.27822   0.28093   0.28575   0.29132   0.29137
 Alpha virt. eigenvalues --    0.29676   0.29820   0.30181   0.30938   0.31118
 Alpha virt. eigenvalues --    0.31406   0.31907   0.31948   0.33382   0.34483
 Alpha virt. eigenvalues --    0.34975   0.35076   0.35214   0.35422   0.35805
 Alpha virt. eigenvalues --    0.36820   0.37250   0.37409   0.37958   0.38167
 Alpha virt. eigenvalues --    0.38706   0.39632   0.40157   0.40602   0.40742
 Alpha virt. eigenvalues --    0.40941   0.41332   0.41487   0.42378   0.42495
 Alpha virt. eigenvalues --    0.43379   0.44587   0.45176   0.45797   0.46247
 Alpha virt. eigenvalues --    0.47078   0.48339   0.49044   0.50606   0.52748
 Alpha virt. eigenvalues --    0.54007   0.55402
          Condensed to atoms (all electrons):
 Mulliken charges:
               1
     1  Mg   0.432468
     2  C   -0.054060
     3  C   -0.084498
     4  C   -0.060727
     5  C   -0.075415
     6  N   -0.308253
     7  C    0.147100
     8  C    0.023186
     9  C    0.005345
    10  C    0.111660
    11  C   -0.044964
    12  C   -0.008478
    13  C   -0.001378
    14  C    0.476965
    15  O   -0.518454
    16  O   -0.255838
    17  N   -0.324027
    18  C    0.084920
    19  C   -0.002453
    20  C   -0.065269
    21  C    0.130539
    22  C   -0.038651
    23  C    0.332566
    24  O   -0.546912
    25  C   -0.030730
    26  N   -0.273181
    27  C    0.131455
    28  C    0.020596
    29  C    0.004740
    30  C    0.133162
    31  C   -0.049581
    32  C   -0.028812
    33  C   -0.054356
    34  N   -0.314633
    35  C    0.109010
    36  C    0.047242
    37  C   -0.041654
    38  C    0.133614
    39  C   -0.033654
    40  C    0.333569
    41  O   -0.506405
    42  C    0.060945
    43  C    0.489659
    44  O   -0.544186
    45  O   -0.274181
    46  C    0.074438
    47  C    0.101465
    48  C   -0.076694
    49  C   -0.036288
    50  C   -0.049427
    51  C   -0.025201
    52  C   -0.036375
    53  C   -0.031194
    54  C   -0.015089
    55  C   -0.058258
    56  C   -0.036099
    57  C   -0.048089
    58  C   -0.043457
    59  C   -0.019893
    60  C   -0.056065
    61  C   -0.048983
    62  C   -0.042067
    63  C   -0.023856
    64  C   -0.011746
    65  C   -0.059434
    66  C   -0.049526
    67  H    0.021865
    68  H    0.045455
    69  H    0.032906
    70  H    0.037665
    71  H    0.018730
    72  H    0.026441
    73  H    0.033614
    74  H    0.024869
    75  H    0.015352
    76  H    0.031130
    77  H    0.036650
    78  H    0.033703
    79  H    0.023112
    80  H    0.024558
    81  H    0.035496
    82  H    0.030720
    83  H    0.040846
    84  H    0.025152
    85  H    0.027517
    86  H    0.036444
    87  H    0.021643
    88  H    0.024685
    89  H    0.029809
    90  H    0.007866
    91  H    0.023309
    92  H    0.013943
    93  H    0.027857
    94  H    0.030088
    95  H    0.032119
    96  H    0.026340
    97  H    0.036375
    98  H    0.055951
    99  H    0.034492
   100  H    0.053172
   101  H    0.041409
   102  H    0.059505
   103  H    0.059649
   104  H    0.023612
   105  H    0.027411
   106  H    0.029651
   107  H    0.028217
   108  H    0.015605
   109  H    0.026246
   110  H    0.018063
   111  H    0.020853
   112  H    0.024383
   113  H    0.021819
   114  H    0.019249
   115  H    0.020744
   116  H    0.009773
   117  H    0.019068
   118  H    0.022504
   119  H    0.020402
   120  H    0.025068
   121  H    0.032268
   122  H    0.019001
   123  H    0.013739
   124  H    0.024911
   125  H    0.022050
   126  H    0.014712
   127  H    0.023270
   128  H    0.022560
   129  H    0.015002
   130  H    0.025676
   131  H    0.014846
   132  H    0.023121
   133  H    0.012515
   134  H    0.006692
   135  H    0.023152
   136  H    0.009591
   137  H    0.016226
   138  H    0.010439
   139  H    0.014901
   140  H    0.026072
 Sum of Mulliken charges =  -0.00000
 Mulliken charges with hydrogens summed into heavy atoms:
               1
     1  Mg   0.432468
     2  C   -0.054060
     3  C   -0.062633
     4  C   -0.015272
     5  C   -0.042509
     6  N   -0.308253
     7  C    0.147100
     8  C    0.060851
     9  C    0.024074
    10  C    0.111660
    11  C    0.039960
    12  C    0.038005
    13  C    0.068975
    14  C    0.476965
    15  O   -0.518454
    16  O   -0.255838
    17  N   -0.324027
    18  C    0.084920
    19  C   -0.002453
    20  C   -0.065269
    21  C    0.130539
    22  C    0.044516
    23  C    0.332566
    24  O   -0.546912
    25  C    0.065988
    26  N   -0.273181
    27  C    0.131455
    28  C    0.048113
    29  C    0.041184
    30  C    0.133162
    31  C    0.026555
    32  C    0.002363
    33  C    0.017532
    34  N   -0.314633
    35  C    0.109010
    36  C    0.047242
    37  C   -0.041654
    38  C    0.133614
    39  C    0.061179
    40  C    0.333569
    41  O   -0.506405
    42  C    0.116896
    43  C    0.489659
    44  O   -0.544186
    45  O   -0.274181
    46  C    0.203512
    47  C    0.220619
    48  C   -0.053083
    49  C   -0.036288
    50  C    0.035853
    51  C    0.016651
    52  C    0.002541
    53  C    0.015008
    54  C    0.004161
    55  C   -0.008674
    56  C    0.006808
    57  C    0.009247
    58  C   -0.010716
    59  C    0.005017
    60  C    0.003967
    61  C   -0.011421
    62  C   -0.001545
    63  C    0.011779
    64  C   -0.005055
    65  C   -0.010465
    66  C    0.001886
 Charge=             -0.0000 electrons
 Dipole moment (field-independent basis, Debye):
    X=             -4.2946    Y=              1.1244    Z=              4.3266  Tot=              6.1990
 N-N= 4.338332322250D+03 E-N= 0.000000000000D+00  KE=-9.350798392250D+03
 Leave Link  601 at Thu May  5 06:38:34 2022, MaxMem=  6710886400 cpu:               1.1 elap:               0.1
 (Enter /sw/apps/gaussian-16.0/g16/l9999.exe)
 1\1\GINC-BP1-COMPUTE164\SP\RZINDO CIS\STO-3G\C55H74Mg1N4O6\OF15641\05-
 May-2022\0\\#p ZINDO=(nstates=5)\\step_651_chromophore_24 ZINDO\\0,1\M
 g,0,0.067,43.882,25.395\C,0,2.223,43.211,27.962\C,0,-2.585,43.283,27.6
 23\C,0,-1.981,44.213,22.704\C,0,2.886,44.038,23.135\N,0,-0.167,43.167,
 27.56\C,0,0.917,43.07,28.443\C,0,0.391,42.983,29.847\C,0,-1.11,42.622,
 29.737\C,0,-1.346,43.04,28.261\C,0,-1.722,41.225,30.126\C,0,0.824,44.1
 57,30.748\C,0,1.12,43.84,32.211\C,0,0.798,42.4,32.703\O,0,1.64,41.573,
 32.818\O,0,-0.467,42.198,33.008\N,0,-2.022,43.832,25.181\C,0,-2.936,43
 .574,26.231\C,0,-4.279,43.659,25.733\C,0,-4.148,44.042,24.3\C,0,-2.68,
 44.042,23.977\C,0,-5.438,43.518,26.666\C,0,-5.177,44.397,23.336\O,0,-4
 .836,44.854,22.248\C,0,-6.614,44.269,23.752\N,0,0.426,44.022,23.152\C,
 0,-0.616,44.226,22.328\C,0,-0.106,44.344,20.882\C,0,1.435,44.52,20.967
 \C,0,1.622,44.196,22.479\C,0,-0.441,43.103,20.042\C,0,2.124,45.909,20.
 65\C,0,1.771,47.19,21.432\N,0,2.11,43.763,25.484\C,0,3.096,43.855,24.5
 3\C,0,4.422,43.77,25.148\C,0,4.143,43.519,26.497\C,0,2.723,43.489,26.6
 5\C,0,5.66,43.664,24.335\C,0,4.749,43.311,27.802\O,0,5.94,43.229,28.10
 3\C,0,3.488,43.246,28.796\C,0,3.789,42.086,29.639\O,0,3.701,40.854,29.
 316\O,0,4.175,42.502,30.912\C,0,4.596,41.464,31.907\C,0,-0.778,40.986,
 33.752\C,0,-2.125,41.167,34.418\C,0,-2.755,40.64,35.487\C,0,-2.086,39.
 604,36.548\C,0,-4.229,41.049,35.78\C,0,-4.309,42.297,36.765\C,0,-5.468
 ,43.268,36.438\C,0,-6.176,43.785,37.702\C,0,-5.404,44.917,38.393\C,0,-
 7.639,44.254,37.459\C,0,-8.654,43.119,37.917\C,0,-9.382,42.473,36.688\
 C,0,-9.422,40.92,36.705\C,0,-9.045,40.271,35.344\C,0,-10.884,40.41,37.
 11\C,0,-11.168,40.243,38.651\C,0,-12.1,39.072,38.777\C,0,-12.883,39.04
 7,40.113\C,0,-13.469,37.665,40.309\C,0,-13.829,40.165,40.554\H,0,-3.32
 7,43.336,28.423\H,0,-2.636,44.497,21.877\H,0,3.824,44.084,22.578\H,0,0
 .854,42.067,30.215\H,0,-1.621,43.315,30.405\H,0,-2.641,41.385,30.69\H,
 0,-0.962,40.638,30.641\H,0,-1.996,40.711,29.206\H,0,-0.017,44.849,30.7
 83\H,0,1.582,44.779,30.273\H,0,0.762,44.568,32.94\H,0,2.19,43.849,32.4
 18\H,0,-6.399,43.978,26.436\H,0,-5.183,44.042,27.587\H,0,-5.564,42.444
 ,26.798\H,0,-7.331,44.158,22.938\H,0,-6.896,45.163,24.308\H,0,-6.797,4
 3.393,24.373\H,0,-0.535,45.237,20.428\H,0,1.993,43.717,20.486\H,0,0.34
 6,42.427,20.376\H,0,-0.38,43.346,18.982\H,0,-1.398,42.646,20.296\H,0,1
 .818,46.076,19.617\H,0,3.213,45.868,20.614\H,0,2.7,47.588,21.839\H,0,1
 .177,46.89,22.296\H,0,1.345,47.976,20.808\H,0,5.522,43.079,23.426\H,0,
 6.456,43.143,24.869\H,0,6.145,44.62,24.14\H,0,3.651,44.15,29.384\H,0,5
 .631,41.188,31.704\H,0,4.002,40.557,31.791\H,0,4.604,41.741,32.962\H,0
 ,-0.025,40.64,34.461\H,0,-1.13,40.12,33.191\H,0,-2.577,42.017,33.907\H
 ,0,-1.01,39.763,36.489\H,0,-2.308,38.558,36.334\H,0,-2.514,39.782,37.5
 34\H,0,-4.766,40.268,36.318\H,0,-4.788,41.176,34.853\H,0,-3.337,42.789
 ,36.723\H,0,-4.371,41.975,37.804\H,0,-6.22,42.791,35.81\H,0,-4.982,44.
 133,35.987\H,0,-6.154,42.939,38.389\H,0,-5.741,45.928,38.164\H,0,-4.38
 3,44.907,38.012\H,0,-5.399,44.741,39.469\H,0,-7.711,44.467,36.392\H,0,
 -7.876,45.174,37.992\H,0,-9.458,43.513,38.539\H,0,-8.166,42.237,38.333
 \H,0,-8.987,42.816,35.732\H,0,-10.42,42.807,36.691\H,0,-8.804,40.605,3
 7.546\H,0,-8.49,39.339,35.452\H,0,-8.429,41.005,34.824\H,0,-9.956,40.1
 14,34.767\H,0,-11.195,39.495,36.606\H,0,-11.617,41.163,36.82\H,0,-11.5
 24,41.162,39.115\H,0,-10.307,39.89,39.219\H,0,-11.486,38.18,38.652\H,0
 ,-12.847,39.113,37.984\H,0,-12.039,39.089,40.802\H,0,-13.224,36.961,39
 .513\H,0,-14.557,37.672,40.375\H,0,-13.2,37.357,41.319\H,0,-13.895,40.
 94,39.79\H,0,-13.404,40.707,41.399\H,0,-14.865,39.937,40.803\\Version=
 ES64L-G16RevA.03\State=1-A\HF=-473.9048759\RMSD=4.221e-09\PG=C01 [X(C5
 5H74Mg1N4O6)]\\@


 Happiness is a conscious choice, not an automatic response.
 -- Mildred Barthel
 Job cpu time:       0 days  0 hours  2 minutes 48.2 seconds.
 Elapsed time:       0 days  0 hours  0 minutes  7.2 seconds.
 File lengths (MBytes):  RWF=   1263 Int=      0 D2E=      0 Chk=     38 Scr=      1
 Normal termination of Gaussian 16 at Thu May  5 06:38:34 2022.
