 Entering Gaussian System, Link 0=g16
 Initial command:
 /sw/apps/gaussian-16.0/g16/l1.exe "/tmp/Gau-12883.inp" -scrdir="/tmp/"
 Entering Link 1 = /sw/apps/gaussian-16.0/g16/l1.exe PID=     12884.
  
 Copyright (c) 1988,1990,1992,1993,1995,1998,2003,2009,2016,
            Gaussian, Inc.  All Rights Reserved.
  
 This is part of the Gaussian(R) 16 program.  It is based on
 the Gaussian(R) 09 system (copyright 2009, Gaussian, Inc.),
 the Gaussian(R) 03 system (copyright 2003, Gaussian, Inc.),
 the Gaussian(R) 98 system (copyright 1998, Gaussian, Inc.),
 the Gaussian(R) 94 system (copyright 1995, Gaussian, Inc.),
 the Gaussian 92(TM) system (copyright 1992, Gaussian, Inc.),
 the Gaussian 90(TM) system (copyright 1990, Gaussian, Inc.),
 the Gaussian 88(TM) system (copyright 1988, Gaussian, Inc.),
 the Gaussian 86(TM) system (copyright 1986, Carnegie Mellon
 University), and the Gaussian 82(TM) system (copyright 1983,
 Carnegie Mellon University). Gaussian is a federally registered
 trademark of Gaussian, Inc.
  
 This software contains proprietary and confidential information,
 including trade secrets, belonging to Gaussian, Inc.
  
 This software is provided under written license and may be
 used, copied, transmitted, or stored only in accord with that
 written license.
  
 The following legend is applicable only to US Government
 contracts under FAR:
  
                    RESTRICTED RIGHTS LEGEND
  
 Use, reproduction and disclosure by the US Government is
 subject to restrictions as set forth in subparagraphs (a)
 and (c) of the Commercial Computer Software - Restricted
 Rights clause in FAR 52.227-19.
  
 Gaussian, Inc.
 340 Quinnipiac St., Bldg. 40, Wallingford CT 06492
  
  
 ---------------------------------------------------------------
 Warning -- This program may not be used in any manner that
 competes with the business of Gaussian, Inc. or will provide
 assistance to any competitor of Gaussian, Inc.  The licensee
 of this program is prohibited from giving any competitor of
 Gaussian, Inc. access to this program.  By using this program,
 the user acknowledges that Gaussian, Inc. is engaged in the
 business of creating and licensing software in the field of
 computational chemistry and represents and warrants to the
 licensee that it is not a competitor of Gaussian, Inc. and that
 it will not use this program in any manner prohibited above.
 ---------------------------------------------------------------
  

 Cite this work as:
 Gaussian 16, Revision A.03,
 M. J. Frisch, G. W. Trucks, H. B. Schlegel, G. E. Scuseria, 
 M. A. Robb, J. R. Cheeseman, G. Scalmani, V. Barone, 
 G. A. Petersson, H. Nakatsuji, X. Li, M. Caricato, A. V. Marenich, 
 J. Bloino, B. G. Janesko, R. Gomperts, B. Mennucci, H. P. Hratchian, 
 J. V. Ortiz, A. F. Izmaylov, J. L. Sonnenberg, D. Williams-Young, 
 F. Ding, F. Lipparini, F. Egidi, J. Goings, B. Peng, A. Petrone, 
 T. Henderson, D. Ranasinghe, V. G. Zakrzewski, J. Gao, N. Rega, 
 G. Zheng, W. Liang, M. Hada, M. Ehara, K. Toyota, R. Fukuda, 
 J. Hasegawa, M. Ishida, T. Nakajima, Y. Honda, O. Kitao, H. Nakai, 
 T. Vreven, K. Throssell, J. A. Montgomery, Jr., J. E. Peralta, 
 F. Ogliaro, M. J. Bearpark, J. J. Heyd, E. N. Brothers, K. N. Kudin, 
 V. N. Staroverov, T. A. Keith, R. Kobayashi, J. Normand, 
 K. Raghavachari, A. P. Rendell, J. C. Burant, S. S. Iyengar, 
 J. Tomasi, M. Cossi, J. M. Millam, M. Klene, C. Adamo, R. Cammi, 
 J. W. Ochterski, R. L. Martin, K. Morokuma, O. Farkas, 
 J. B. Foresman, and D. J. Fox, Gaussian, Inc., Wallingford CT, 2016.
 
 ******************************************
 Gaussian 16:  ES64L-G16RevA.03 25-Dec-2016
                 1-May-2022 
 ******************************************
 %nproc=24
 Will use up to   24 processors via shared memory.
 %mem=75GB
 ---------------------------------
 #p PBE1PBE/Def2SVP td=(nstates=5)
 ---------------------------------
 1/38=1,172=1/1;
 2/12=2,17=6,18=5,40=1/2;
 3/5=43,7=101,11=9,25=1,30=1,74=-13/1,2,3,8;
 4//1;
 5/5=2,38=5/2;
 8/6=1,10=1,108=5/1;
 9/41=5,42=1,70=2/14;
 6/7=2,8=2,9=2,10=2/1;
 99/5=1,9=1/99;
 Leave Link    1 at Sun May  1 00:01:23 2022, MaxMem= 10066329600 cpu:               1.0 elap:               0.0
 (Enter /sw/apps/gaussian-16.0/g16/l101.exe)
 -----------------------------------------------------
 step_951_chromophore_25 TDDFT with PBE1PBE functional
 -----------------------------------------------------
 Symbolic Z-matrix:
 Charge =  0 Multiplicity = 1
 Mg                   -2.534     34.509    26.894 
 C                    -3.425     32.595    29.875 
 C                    -1.279     36.824    28.935 
 C                    -2.121     36.412    24.055 
 C                    -4.073     32.041    25.077 
 N                    -2.395     34.632    29.063 
 C                    -2.754     33.785    30.152 
 C                    -2.324     34.285    31.549 
 C                    -1.625     35.637    31.132 
 C                    -1.755     35.685    29.607 
 C                    -2.277     36.853    31.855 
 C                    -1.401     33.21     32.287 
 C                    -1.975     32.771    33.618 
 C                    -1.029     32.823    34.783 
 O                    -0.177     31.999    35.11 
 O                    -1.143     34.064    35.405 
 N                    -1.726     36.326    26.514 
 C                    -1.292     37.196    27.497 
 C                    -0.779     38.415    26.961 
 C                    -1.214     38.322    25.563 
 C                    -1.725     37.013    25.289 
 C                    -0.017     39.485    27.678 
 C                    -1.079     39.379    24.469 
 O                    -1.439     39.189    23.278 
 C                    -0.499     40.761    24.885 
 N                    -3.114     34.319    24.942 
 C                    -2.704     35.163    23.875 
 C                    -3.286     34.746    22.546 
 C                    -3.6       33.191    22.865 
 C                    -3.567     33.151    24.395 
 C                    -4.51      35.592    22.043 
 C                    -2.657     32.047    22.272 
 C                    -1.328     31.617    23.001 
 N                    -3.545     32.725    27.315 
 C                    -4.152     31.799    26.47 
 C                    -4.601     30.667    27.163 
 C                    -4.455     30.968    28.524 
 C                    -3.728     32.196    28.538 
 C                    -5.442     29.542    26.652 
 C                    -4.675     30.516    29.94 
 O                    -5.264     29.542    30.308 
 C                    -3.946     31.481    30.885 
 C                    -4.931     31.997    31.921 
 O                    -5.877     32.716    31.731 
 O                    -4.611     31.473    33.159 
 C                    -5.633     31.857    34.114 
 C                    -0.264     34.268    36.565 
 C                    -0.907     35.201    37.534 
 C                    -0.307     35.896    38.526 
 C                     1.076     35.723    39.059 
 C                    -1.073     36.906    39.334 
 C                    -1.674     36.432    40.622 
 C                    -1.361     37.353    41.904 
 C                    -2.458     37.171    42.984 
 C                    -3.682     38.047    42.586 
 C                    -1.962     37.415    44.457 
 C                    -1.687     36.135    45.258 
 C                    -0.74      36.443    46.433 
 C                     0.628     35.693    46.613 
 C                     0.941     35.47     48.021 
 C                     1.845     36.487    45.957 
 C                     2.133     36.006    44.524 
 C                     3.216     34.936    44.436 
 C                     4.347     35.317    43.416 
 C                     4.545     34.203    42.404 
 C                     5.667     35.75     44.022 
 H                    -0.776     37.5      29.629 
 H                    -1.998     37.03     23.164 
 H                    -4.209     31.105    24.531 
 H                    -3.227     34.455    32.136 
 H                    -0.568     35.642    31.4 
 H                    -3.153     36.598    32.452 
 H                    -2.574     37.541    31.063 
 H                    -1.512     37.218    32.541 
 H                    -0.401     33.627    32.402 
 H                    -1.285     32.37     31.604 
 H                    -2.269     31.731    33.475 
 H                    -2.846     33.389    33.836 
 H                    -0.605     40.38     27.476 
 H                     1.001     39.588    27.301 
 H                    -0.035     39.373    28.762 
 H                    -1.202     41.367    25.457 
 H                    -0.352     41.26     23.927 
 H                     0.491     40.806    25.338 
 H                    -2.607     34.697    21.694 
 H                    -4.647     32.999    22.63 
 H                    -4.186     36.105    21.137 
 H                    -4.694     36.375    22.778 
 H                    -5.437     35.046    21.871 
 H                    -2.278     32.576    21.398 
 H                    -3.299     31.236    21.928 
 H                    -0.522     31.822    22.295 
 H                    -1.447     30.564    23.256 
 H                    -1.261     32.222    23.905 
 H                    -5.138     29.191    25.666 
 H                    -6.469     29.908    26.67 
 H                    -5.431     28.731    27.38 
 H                    -3.097     31.041    31.409 
 H                    -5.908     32.91     34.045 
 H                    -5.193     31.608    35.08 
 H                    -6.503     31.201    34.087 
 H                     0.769     34.561    36.377 
 H                    -0.112     33.377    37.174 
 H                    -1.909     35.442    37.177 
 H                     1.109     35.507    40.127 
 H                     1.649     36.642    38.935 
 H                     1.497     34.863    38.537 
 H                    -1.879     37.339    38.742 
 H                    -0.36      37.68     39.619 
 H                    -1.247     35.468    40.896 
 H                    -2.739     36.207    40.567 
 H                    -1.285     38.379    41.544 
 H                    -0.367     37.035    42.219 
 H                    -2.796     36.134    43.009 
 H                    -3.531     38.583    41.649 
 H                    -4.        38.718    43.384 
 H                    -4.597     37.47     42.451 
 H                    -2.85      37.79     44.966 
 H                    -1.143     38.133    44.423 
 H                    -1.207     35.453    44.555 
 H                    -2.673     35.809    45.588 
 H                    -1.381     36.259    47.295 
 H                    -0.507     37.508    46.423 
 H                     0.477     34.718    46.15 
 H                     0.695     36.325    48.65 
 H                     1.994     35.241    48.185 
 H                     0.375     34.662    48.484 
 H                     2.763     36.594    46.535 
 H                     1.483     37.489    45.726 
 H                     2.464     36.852    43.921 
 H                     1.162     35.827    44.064 
 H                     2.82      33.943    44.224 
 H                     3.626     34.93     45.446 
 H                     4.016     36.212    42.889 
 H                     3.599     34.057    41.882 
 H                     4.884     33.285    42.883 
 H                     5.351     34.378    41.691 
 H                     5.73      35.663    45.106 
 H                     5.749     36.833    43.929 
 H                     6.565     35.322    43.576 
 
 ITRead=  0  0  0  0  0  0  0  0  0  0  0  0  0  0  0  0  0  0  0  0
 ITRead=  0  0  0  0  0  0  0  0  0  0  0  0  0  0  0  0  0  0  0  0
 ITRead=  0  0  0  0  0  0  0  0  0  0  0  0  0  0  0  0  0  0  0  0
 ITRead=  0  0  0  0  0  0  0  0  0  0  0  0  0  0  0  0  0  0  0  0
 ITRead=  0  0  0  0  0  0  0  0  0  0  0  0  0  0  0  0  0  0  0  0
 ITRead=  0  0  0  0  0  0  0  0  0  0  0  0  0  0  0  0  0  0  0  0
 ITRead=  0  0  0  0  0  0  0  0  0  0  0  0  0  0  0  0  0  0  0  0
 MicOpt= -1 -1 -1 -1 -1 -1 -1 -1 -1 -1 -1 -1 -1 -1 -1 -1 -1 -1 -1 -1
 MicOpt= -1 -1 -1 -1 -1 -1 -1 -1 -1 -1 -1 -1 -1 -1 -1 -1 -1 -1 -1 -1
 MicOpt= -1 -1 -1 -1 -1 -1 -1 -1 -1 -1 -1 -1 -1 -1 -1 -1 -1 -1 -1 -1
 MicOpt= -1 -1 -1 -1 -1 -1 -1 -1 -1 -1 -1 -1 -1 -1 -1 -1 -1 -1 -1 -1
 MicOpt= -1 -1 -1 -1 -1 -1 -1 -1 -1 -1 -1 -1 -1 -1 -1 -1 -1 -1 -1 -1
 MicOpt= -1 -1 -1 -1 -1 -1 -1 -1 -1 -1 -1 -1 -1 -1 -1 -1 -1 -1 -1 -1
 MicOpt= -1 -1 -1 -1 -1 -1 -1 -1 -1 -1 -1 -1 -1 -1 -1 -1 -1 -1 -1 -1
 NAtoms=    140 NQM=      140 NQMF=       0 NMMI=      0 NMMIF=      0
                NMic=       0 NMicF=      0.
                    Isotopes and Nuclear Properties:
 (Nuclear quadrupole moments (NQMom) in fm**2, nuclear magnetic moments (NMagM)
  in nuclear magnetons)

  Atom         1           2           3           4           5           6           7           8           9          10
 IAtWgt=          24          12          12          12          12          14          12          12          12          12
 AtmWgt=  23.9850450  12.0000000  12.0000000  12.0000000  12.0000000  14.0030740  12.0000000  12.0000000  12.0000000  12.0000000
 NucSpn=           0           0           0           0           0           2           0           0           0           0
 AtZEff=  -0.0000000  -0.0000000  -0.0000000  -0.0000000  -0.0000000  -0.0000000  -0.0000000  -0.0000000  -0.0000000  -0.0000000
 NQMom=    0.0000000   0.0000000   0.0000000   0.0000000   0.0000000   2.0440000   0.0000000   0.0000000   0.0000000   0.0000000
 NMagM=    0.0000000   0.0000000   0.0000000   0.0000000   0.0000000   0.4037610   0.0000000   0.0000000   0.0000000   0.0000000
 AtZNuc=  12.0000000   6.0000000   6.0000000   6.0000000   6.0000000   7.0000000   6.0000000   6.0000000   6.0000000   6.0000000

  Atom        11          12          13          14          15          16          17          18          19          20
 IAtWgt=          12          12          12          12          16          16          14          12          12          12
 AtmWgt=  12.0000000  12.0000000  12.0000000  12.0000000  15.9949146  15.9949146  14.0030740  12.0000000  12.0000000  12.0000000
 NucSpn=           0           0           0           0           0           0           2           0           0           0
 AtZEff=  -0.0000000  -0.0000000  -0.0000000  -0.0000000  -0.0000000  -0.0000000  -0.0000000  -0.0000000  -0.0000000  -0.0000000
 NQMom=    0.0000000   0.0000000   0.0000000   0.0000000   0.0000000   0.0000000   2.0440000   0.0000000   0.0000000   0.0000000
 NMagM=    0.0000000   0.0000000   0.0000000   0.0000000   0.0000000   0.0000000   0.4037610   0.0000000   0.0000000   0.0000000
 AtZNuc=   6.0000000   6.0000000   6.0000000   6.0000000   8.0000000   8.0000000   7.0000000   6.0000000   6.0000000   6.0000000

  Atom        21          22          23          24          25          26          27          28          29          30
 IAtWgt=          12          12          12          16          12          14          12          12          12          12
 AtmWgt=  12.0000000  12.0000000  12.0000000  15.9949146  12.0000000  14.0030740  12.0000000  12.0000000  12.0000000  12.0000000
 NucSpn=           0           0           0           0           0           2           0           0           0           0
 AtZEff=  -0.0000000  -0.0000000  -0.0000000  -0.0000000  -0.0000000  -0.0000000  -0.0000000  -0.0000000  -0.0000000  -0.0000000
 NQMom=    0.0000000   0.0000000   0.0000000   0.0000000   0.0000000   2.0440000   0.0000000   0.0000000   0.0000000   0.0000000
 NMagM=    0.0000000   0.0000000   0.0000000   0.0000000   0.0000000   0.4037610   0.0000000   0.0000000   0.0000000   0.0000000
 AtZNuc=   6.0000000   6.0000000   6.0000000   8.0000000   6.0000000   7.0000000   6.0000000   6.0000000   6.0000000   6.0000000

  Atom        31          32          33          34          35          36          37          38          39          40
 IAtWgt=          12          12          12          14          12          12          12          12          12          12
 AtmWgt=  12.0000000  12.0000000  12.0000000  14.0030740  12.0000000  12.0000000  12.0000000  12.0000000  12.0000000  12.0000000
 NucSpn=           0           0           0           2           0           0           0           0           0           0
 AtZEff=  -0.0000000  -0.0000000  -0.0000000  -0.0000000  -0.0000000  -0.0000000  -0.0000000  -0.0000000  -0.0000000  -0.0000000
 NQMom=    0.0000000   0.0000000   0.0000000   2.0440000   0.0000000   0.0000000   0.0000000   0.0000000   0.0000000   0.0000000
 NMagM=    0.0000000   0.0000000   0.0000000   0.4037610   0.0000000   0.0000000   0.0000000   0.0000000   0.0000000   0.0000000
 AtZNuc=   6.0000000   6.0000000   6.0000000   7.0000000   6.0000000   6.0000000   6.0000000   6.0000000   6.0000000   6.0000000

  Atom        41          42          43          44          45          46          47          48          49          50
 IAtWgt=          16          12          12          16          16          12          12          12          12          12
 AtmWgt=  15.9949146  12.0000000  12.0000000  15.9949146  15.9949146  12.0000000  12.0000000  12.0000000  12.0000000  12.0000000
 NucSpn=           0           0           0           0           0           0           0           0           0           0
 AtZEff=  -0.0000000  -0.0000000  -0.0000000  -0.0000000  -0.0000000  -0.0000000  -0.0000000  -0.0000000  -0.0000000  -0.0000000
 NQMom=    0.0000000   0.0000000   0.0000000   0.0000000   0.0000000   0.0000000   0.0000000   0.0000000   0.0000000   0.0000000
 NMagM=    0.0000000   0.0000000   0.0000000   0.0000000   0.0000000   0.0000000   0.0000000   0.0000000   0.0000000   0.0000000
 AtZNuc=   8.0000000   6.0000000   6.0000000   8.0000000   8.0000000   6.0000000   6.0000000   6.0000000   6.0000000   6.0000000

  Atom        51          52          53          54          55          56          57          58          59          60
 IAtWgt=          12          12          12          12          12          12          12          12          12          12
 AtmWgt=  12.0000000  12.0000000  12.0000000  12.0000000  12.0000000  12.0000000  12.0000000  12.0000000  12.0000000  12.0000000
 NucSpn=           0           0           0           0           0           0           0           0           0           0
 AtZEff=  -0.0000000  -0.0000000  -0.0000000  -0.0000000  -0.0000000  -0.0000000  -0.0000000  -0.0000000  -0.0000000  -0.0000000
 NQMom=    0.0000000   0.0000000   0.0000000   0.0000000   0.0000000   0.0000000   0.0000000   0.0000000   0.0000000   0.0000000
 NMagM=    0.0000000   0.0000000   0.0000000   0.0000000   0.0000000   0.0000000   0.0000000   0.0000000   0.0000000   0.0000000
 AtZNuc=   6.0000000   6.0000000   6.0000000   6.0000000   6.0000000   6.0000000   6.0000000   6.0000000   6.0000000   6.0000000

  Atom        61          62          63          64          65          66          67          68          69          70
 IAtWgt=          12          12          12          12          12          12           1           1           1           1
 AtmWgt=  12.0000000  12.0000000  12.0000000  12.0000000  12.0000000  12.0000000   1.0078250   1.0078250   1.0078250   1.0078250
 NucSpn=           0           0           0           0           0           0           1           1           1           1
 AtZEff=  -0.0000000  -0.0000000  -0.0000000  -0.0000000  -0.0000000  -0.0000000  -0.0000000  -0.0000000  -0.0000000  -0.0000000
 NQMom=    0.0000000   0.0000000   0.0000000   0.0000000   0.0000000   0.0000000   0.0000000   0.0000000   0.0000000   0.0000000
 NMagM=    0.0000000   0.0000000   0.0000000   0.0000000   0.0000000   0.0000000   2.7928460   2.7928460   2.7928460   2.7928460
 AtZNuc=   6.0000000   6.0000000   6.0000000   6.0000000   6.0000000   6.0000000   1.0000000   1.0000000   1.0000000   1.0000000

  Atom        71          72          73          74          75          76          77          78          79          80
 IAtWgt=           1           1           1           1           1           1           1           1           1           1
 AtmWgt=   1.0078250   1.0078250   1.0078250   1.0078250   1.0078250   1.0078250   1.0078250   1.0078250   1.0078250   1.0078250
 NucSpn=           1           1           1           1           1           1           1           1           1           1
 AtZEff=  -0.0000000  -0.0000000  -0.0000000  -0.0000000  -0.0000000  -0.0000000  -0.0000000  -0.0000000  -0.0000000  -0.0000000
 NQMom=    0.0000000   0.0000000   0.0000000   0.0000000   0.0000000   0.0000000   0.0000000   0.0000000   0.0000000   0.0000000
 NMagM=    2.7928460   2.7928460   2.7928460   2.7928460   2.7928460   2.7928460   2.7928460   2.7928460   2.7928460   2.7928460
 AtZNuc=   1.0000000   1.0000000   1.0000000   1.0000000   1.0000000   1.0000000   1.0000000   1.0000000   1.0000000   1.0000000

  Atom        81          82          83          84          85          86          87          88          89          90
 IAtWgt=           1           1           1           1           1           1           1           1           1           1
 AtmWgt=   1.0078250   1.0078250   1.0078250   1.0078250   1.0078250   1.0078250   1.0078250   1.0078250   1.0078250   1.0078250
 NucSpn=           1           1           1           1           1           1           1           1           1           1
 AtZEff=  -0.0000000  -0.0000000  -0.0000000  -0.0000000  -0.0000000  -0.0000000  -0.0000000  -0.0000000  -0.0000000  -0.0000000
 NQMom=    0.0000000   0.0000000   0.0000000   0.0000000   0.0000000   0.0000000   0.0000000   0.0000000   0.0000000   0.0000000
 NMagM=    2.7928460   2.7928460   2.7928460   2.7928460   2.7928460   2.7928460   2.7928460   2.7928460   2.7928460   2.7928460
 AtZNuc=   1.0000000   1.0000000   1.0000000   1.0000000   1.0000000   1.0000000   1.0000000   1.0000000   1.0000000   1.0000000

  Atom        91          92          93          94          95          96          97          98          99         100
 IAtWgt=           1           1           1           1           1           1           1           1           1           1
 AtmWgt=   1.0078250   1.0078250   1.0078250   1.0078250   1.0078250   1.0078250   1.0078250   1.0078250   1.0078250   1.0078250
 NucSpn=           1           1           1           1           1           1           1           1           1           1
 AtZEff=  -0.0000000  -0.0000000  -0.0000000  -0.0000000  -0.0000000  -0.0000000  -0.0000000  -0.0000000  -0.0000000  -0.0000000
 NQMom=    0.0000000   0.0000000   0.0000000   0.0000000   0.0000000   0.0000000   0.0000000   0.0000000   0.0000000   0.0000000
 NMagM=    2.7928460   2.7928460   2.7928460   2.7928460   2.7928460   2.7928460   2.7928460   2.7928460   2.7928460   2.7928460
 AtZNuc=   1.0000000   1.0000000   1.0000000   1.0000000   1.0000000   1.0000000   1.0000000   1.0000000   1.0000000   1.0000000

  Atom       101         102         103         104         105         106         107         108         109         110
 IAtWgt=           1           1           1           1           1           1           1           1           1           1
 AtmWgt=   1.0078250   1.0078250   1.0078250   1.0078250   1.0078250   1.0078250   1.0078250   1.0078250   1.0078250   1.0078250
 NucSpn=           1           1           1           1           1           1           1           1           1           1
 AtZEff=  -0.0000000  -0.0000000  -0.0000000  -0.0000000  -0.0000000  -0.0000000  -0.0000000  -0.0000000  -0.0000000  -0.0000000
 NQMom=    0.0000000   0.0000000   0.0000000   0.0000000   0.0000000   0.0000000   0.0000000   0.0000000   0.0000000   0.0000000
 NMagM=    2.7928460   2.7928460   2.7928460   2.7928460   2.7928460   2.7928460   2.7928460   2.7928460   2.7928460   2.7928460
 AtZNuc=   1.0000000   1.0000000   1.0000000   1.0000000   1.0000000   1.0000000   1.0000000   1.0000000   1.0000000   1.0000000

  Atom       111         112         113         114         115         116         117         118         119         120
 IAtWgt=           1           1           1           1           1           1           1           1           1           1
 AtmWgt=   1.0078250   1.0078250   1.0078250   1.0078250   1.0078250   1.0078250   1.0078250   1.0078250   1.0078250   1.0078250
 NucSpn=           1           1           1           1           1           1           1           1           1           1
 AtZEff=  -0.0000000  -0.0000000  -0.0000000  -0.0000000  -0.0000000  -0.0000000  -0.0000000  -0.0000000  -0.0000000  -0.0000000
 NQMom=    0.0000000   0.0000000   0.0000000   0.0000000   0.0000000   0.0000000   0.0000000   0.0000000   0.0000000   0.0000000
 NMagM=    2.7928460   2.7928460   2.7928460   2.7928460   2.7928460   2.7928460   2.7928460   2.7928460   2.7928460   2.7928460
 AtZNuc=   1.0000000   1.0000000   1.0000000   1.0000000   1.0000000   1.0000000   1.0000000   1.0000000   1.0000000   1.0000000

  Atom       121         122         123         124         125         126         127         128         129         130
 IAtWgt=           1           1           1           1           1           1           1           1           1           1
 AtmWgt=   1.0078250   1.0078250   1.0078250   1.0078250   1.0078250   1.0078250   1.0078250   1.0078250   1.0078250   1.0078250
 NucSpn=           1           1           1           1           1           1           1           1           1           1
 AtZEff=  -0.0000000  -0.0000000  -0.0000000  -0.0000000  -0.0000000  -0.0000000  -0.0000000  -0.0000000  -0.0000000  -0.0000000
 NQMom=    0.0000000   0.0000000   0.0000000   0.0000000   0.0000000   0.0000000   0.0000000   0.0000000   0.0000000   0.0000000
 NMagM=    2.7928460   2.7928460   2.7928460   2.7928460   2.7928460   2.7928460   2.7928460   2.7928460   2.7928460   2.7928460
 AtZNuc=   1.0000000   1.0000000   1.0000000   1.0000000   1.0000000   1.0000000   1.0000000   1.0000000   1.0000000   1.0000000

  Atom       131         132         133         134         135         136         137         138         139         140
 IAtWgt=           1           1           1           1           1           1           1           1           1           1
 AtmWgt=   1.0078250   1.0078250   1.0078250   1.0078250   1.0078250   1.0078250   1.0078250   1.0078250   1.0078250   1.0078250
 NucSpn=           1           1           1           1           1           1           1           1           1           1
 AtZEff=  -0.0000000  -0.0000000  -0.0000000  -0.0000000  -0.0000000  -0.0000000  -0.0000000  -0.0000000  -0.0000000  -0.0000000
 NQMom=    0.0000000   0.0000000   0.0000000   0.0000000   0.0000000   0.0000000   0.0000000   0.0000000   0.0000000   0.0000000
 NMagM=    2.7928460   2.7928460   2.7928460   2.7928460   2.7928460   2.7928460   2.7928460   2.7928460   2.7928460   2.7928460
 AtZNuc=   1.0000000   1.0000000   1.0000000   1.0000000   1.0000000   1.0000000   1.0000000   1.0000000   1.0000000   1.0000000
 Leave Link  101 at Sun May  1 00:01:23 2022, MaxMem= 10066329600 cpu:               5.3 elap:               0.3
 (Enter /sw/apps/gaussian-16.0/g16/l202.exe)
 Stoichiometry    C55H74MgN4O6
 Framework group  C1[X(C55H74MgN4O6)]
 Deg. of freedom   414
 Full point group                 C1      NOp   1
 Largest Abelian subgroup         C1      NOp   1
 Largest concise Abelian subgroup C1      NOp   1
                         Standard orientation:                         
 ---------------------------------------------------------------------
 Center     Atomic      Atomic             Coordinates (Angstroms)
 Number     Number       Type             X           Y           Z
 ---------------------------------------------------------------------
      1         12           0        6.045258    0.353327    0.193836
      2          6           0        3.447099   -2.211577    0.073528
      3          6           0        3.628107    2.611764   -0.202107
      4          6           0        8.596180    2.646274   -0.101279
      5          6           0        8.309157   -2.214238    0.402178
      6          7           0        3.886537    0.169192   -0.018365
      7          6           0        2.955330   -0.910178   -0.013614
      8          6           0        1.467296   -0.500791   -0.081926
      9          6           0        1.636702    1.066926   -0.144864
     10          6           0        3.150086    1.294543   -0.092996
     11          6           0        0.957928    1.654833   -1.417704
     12          6           0        0.653724   -1.074560    1.167509
     13          6           0       -0.505372   -1.954693    0.748439
     14          6           0       -1.829394   -1.629594    1.377822
     15          8           0       -2.246890   -1.957673    2.486817
     16          8           0       -2.513556   -0.734583    0.558775
     17          7           0        6.121343    2.364690   -0.023839
     18          6           0        5.008751    3.158931   -0.230874
     19          6           0        5.340382    4.540198   -0.367062
     20          6           0        6.798494    4.474400   -0.514912
     21          6           0        7.266224    3.151415   -0.230981
     22          6           0        4.410103    5.712466   -0.368675
     23          6           0        7.760743    5.621010   -0.817683
     24          8           0        9.009609    5.476105   -0.876981
     25          6           0        7.135216    7.017111   -1.098748
     26          7           0        8.080692    0.224033    0.041864
     27          6           0        8.980910    1.322737    0.079064
     28          6           0       10.424796    0.896614   -0.032590
     29          6           0       10.293994   -0.634829    0.473328
     30          6           0        8.793531   -0.905004    0.334743
     31          6           0       11.083529    1.086338   -1.445735
     32          6           0       10.784590   -1.037416    1.938549
     33          6           0        9.852168   -0.858356    3.195971
     34          7           0        5.965057   -1.738326    0.217822
     35          6           0        6.979868   -2.689511    0.291006
     36          6           0        6.475614   -3.990742    0.416706
     37          6           0        5.092374   -3.886640    0.216589
     38          6           0        4.844367   -2.481489    0.189148
     39          6           0        7.223616   -5.283304    0.355026
     40          6           0        3.783814   -4.614744    0.092914
     41          8           0        3.611869   -5.798055    0.057818
     42          6           0        2.644896   -3.585887    0.090223
     43          6           0        1.777892   -3.811240   -1.137498
     44          8           0        2.087402   -3.642062   -2.287959
     45          8           0        0.546511   -4.300967   -0.745724
     46          6           0       -0.223859   -4.643646   -1.926006
     47          6           0       -3.831842   -0.312989    1.052978
     48          6           0       -4.730925   -0.001740   -0.094922
     49          6           0       -5.870187    0.725329   -0.071655
     50          6           0       -6.641174    1.182212    1.121469
     51          6           0       -6.594353    1.067073   -1.343864
     52          6           0       -7.703496    0.150785   -1.762241
     53          6           0       -9.089691    0.878453   -2.134662
     54          6           0       -9.923839   -0.003462   -3.098694
     55          6           0       -9.370211    0.194419   -4.540323
     56          6           0      -11.478761    0.208811   -2.987174
     57          6           0      -12.214759   -0.873812   -2.186012
     58          6           0      -13.568791   -0.332280   -1.690393
     59          6           0      -13.946311   -0.315018   -0.166089
     60          6           0      -15.366286   -0.580491    0.042130
     61          6           0      -13.597813    1.077073    0.528529
     62          6           0      -12.212528    1.049014    1.197851
     63          6           0      -12.248550    0.695964    2.680953
     64          6           0      -11.495158    1.754118    3.562675
     65          6           0      -10.455234    1.073487    4.434249
     66          6           0      -12.373034    2.682488    4.377898
     67          1           0        2.800406    3.323369   -0.214397
     68          1           0        9.396402    3.380230   -0.210303
     69          1           0        8.942599   -2.987652    0.841828
     70          1           0        1.051192   -0.905041   -1.005136
     71          1           0        1.173098    1.555758    0.712581
     72          1           0        0.560165    0.901215   -2.097891
     73          1           0        1.735630    2.221798   -1.930098
     74          1           0        0.112589    2.234513   -1.045658
     75          1           0        0.318445   -0.238803    1.780869
     76          1           0        1.365822   -1.617671    1.786777
     77          1           0       -0.228148   -2.962109    1.059476
     78          1           0       -0.601502   -1.901218   -0.335991
     79          1           0        4.649526    6.212332   -1.306963
     80          1           0        4.577467    6.371604    0.483725
     81          1           0        3.361444    5.429238   -0.458227
     82          1           0        6.661650    7.085977   -2.078351
     83          1           0        8.005758    7.672998   -1.117295
     84          1           0        6.500170    7.475866   -0.341388
     85          1           0       11.133353    1.335401    0.670800
     86          1           0       10.738036   -1.283047   -0.282276
     87          1           0       11.868437    1.834094   -1.328427
     88          1           0       10.337930    1.538392   -2.099110
     89          1           0       11.470808    0.186876   -1.923240
     90          1           0       11.526475   -0.253829    2.090062
     91          1           0       11.306756   -1.991113    1.860917
     92          1           0       10.373824   -0.164256    3.856423
     93          1           0        9.707644   -1.854996    3.612883
     94          1           0        8.907394   -0.459921    2.826673
     95          1           0        8.158234   -5.266691    0.915407
     96          1           0        7.372592   -5.489033   -0.705395
     97          1           0        6.572543   -6.087335    0.697755
     98          1           0        2.005126   -3.621626    0.972489
     99          1           0       -0.186461   -3.874853   -2.698505
    100          1           0       -1.233384   -4.794678   -1.542853
    101          1           0        0.019290   -5.632031   -2.315800
    102          1           0       -3.867162    0.483929    1.795915
    103          1           0       -4.387001   -1.094816    1.571062
    104          1           0       -4.209930   -0.239271   -1.023187
    105          1           0       -7.675731    0.838749    1.131144
    106          1           0       -6.700671    2.270472    1.141837
    107          1           0       -6.143054    0.748112    1.989085
    108          1           0       -5.895662    1.129607   -2.177836
    109          1           0       -7.069380    2.034589   -1.179756
    110          1           0       -7.977375   -0.500170   -0.932815
    111          1           0       -7.429605   -0.564214   -2.537891
    112          1           0       -8.832122    1.847972   -2.560975
    113          1           0       -9.562037    1.053471   -1.167893
    114          1           0       -9.802896   -1.058088   -2.846953
    115          1           0       -8.523877    0.880287   -4.577340
    116          1           0      -10.143225    0.473831   -5.256247
    117          1           0       -9.018996   -0.731498   -4.996070
    118          1           0      -11.837427   -0.000815   -3.994977
    119          1           0      -11.657371    1.234450   -2.665298
    120          1           0      -11.564651   -1.097211   -1.339144
    121          1           0      -12.324758   -1.698715   -2.889438
    122          1           0      -14.276124   -0.951742   -2.241508
    123          1           0      -13.686644    0.691133   -2.047254
    124          1           0      -13.388192   -1.142791    0.271050
    125          1           0      -16.001997   -0.080756   -0.688156
    126          1           0      -15.709039   -0.275370    1.030850
    127          1           0      -15.648566   -1.626894   -0.071660
    128          1           0      -14.346354    1.531856    1.177464
    129          1           0      -13.381346    1.785746   -0.271054
    130          1           0      -11.751539    2.033259    1.110474
    131          1           0      -11.563757    0.487030    0.527216
    132          1           0      -11.888087   -0.311142    2.889789
    133          1           0      -13.314449    0.729191    2.906767
    134          1           0      -10.986533    2.436244    2.881264
    135          1           0       -9.753122    0.562299    3.775127
    136          1           0      -10.916605    0.383743    5.140277
    137          1           0       -9.924380    1.743245    5.111190
    138          1           0      -13.439048    2.461035    4.343742
    139          1           0      -12.382363    3.659359    3.894268
    140          1           0      -12.073777    2.841665    5.414050
 ---------------------------------------------------------------------
 Rotational constants (GHZ):           0.0541842           0.0087704           0.0081384
 Leave Link  202 at Sun May  1 00:01:23 2022, MaxMem= 10066329600 cpu:               1.4 elap:               0.1
 (Enter /sw/apps/gaussian-16.0/g16/l301.exe)
 Standard basis: def2SVP (5D, 7F)
 Ernie: Thresh=  0.10000D-02 Tol=  0.10000D-05 Strict=F.
 There are  1364 symmetry adapted cartesian basis functions of A   symmetry.
 There are  1298 symmetry adapted basis functions of A   symmetry.
  1298 basis functions,  2180 primitive gaussians,  1364 cartesian basis functions
   246 alpha electrons      246 beta electrons
       nuclear repulsion energy      9471.9339377503 Hartrees.
 IExCor= 1009 DFT=T Ex+Corr=PBE1PBE ExCW=0 ScaHFX=  0.250000
 ScaDFX=  0.750000  0.750000  1.000000  1.000000 ScalE2=  1.000000  1.000000
 IRadAn=      5 IRanWt=     -1 IRanGd=            0 ICorTp=0 IEmpDi=  4
 NAtoms=  140 NActive=  140 NUniq=  140 SFac= 1.00D+00 NAtFMM=   60 NAOKFM=T Big=T
 Integral buffers will be    131072 words long.
 Regular integral format.
 Two-electron integral symmetry is turned on.
 Leave Link  301 at Sun May  1 00:01:23 2022, MaxMem= 10066329600 cpu:               1.3 elap:               0.1
 (Enter /sw/apps/gaussian-16.0/g16/l302.exe)
 NPDir=0 NMtPBC=     1 NCelOv=     1 NCel=       1 NClECP=     1 NCelD=      1
         NCelK=      1 NCelE2=     1 NClLst=     1 CellRange=     0.0.
 One-electron integrals computed using PRISM.
 One-electron integral symmetry used in STVInt
   1 Symmetry operations used in ECPInt.
 ECPInt:  NShTT=  192510 NPrTT=  683786 LenC2=   92525 LenP2D=  204407.
 LDataN:  DoStor=T MaxTD1= 4 Len=   56
 NBasis=  1298 RedAO= T EigKep=  2.70D-04  NBF=  1298
 NBsUse=  1298 1.00D-06 EigRej= -1.00D+00 NBFU=  1298
 Precomputing XC quadrature grid using
 IXCGrd= 4 IRadAn=           5 IRanWt=          -1 IRanGd=           0 AccXCQ= 0.00D+00.
 Generated NRdTot=       0 NPtTot=           0 NUsed=           0 NTot=          32
 NSgBfM=   999   977   978   986   999 MxSgAt=   140 MxSgA2=   140.
 Leave Link  302 at Sun May  1 00:01:27 2022, MaxMem= 10066329600 cpu:              79.1 elap:               3.3
 (Enter /sw/apps/gaussian-16.0/g16/l303.exe)
 DipDrv:  MaxL=1.
 Leave Link  303 at Sun May  1 00:01:27 2022, MaxMem= 10066329600 cpu:               5.8 elap:               0.3
 (Enter /sw/apps/gaussian-16.0/g16/l308.exe)
 Leave Link  308 at Sun May  1 00:01:28 2022, MaxMem= 10066329600 cpu:               8.2 elap:               0.4
 (Enter /sw/apps/gaussian-16.0/g16/l401.exe)
 ExpMin= 3.36D-02 ExpMax= 4.95D+03 ExpMxC= 7.45D+02 IAcc=3 IRadAn=         5 AccDes= 0.00D+00
 Harris functional with IExCor= 1009 and IRadAn=       5 diagonalized for initial guess.
 HarFok:  IExCor= 1009 AccDes= 0.00D+00 IRadAn=         5 IDoV= 1 UseB2=F ITyADJ=14
 ICtDFT=  3500011 ScaDFX=  1.000000  1.000000  1.000000  1.000000
 FoFCou: FMM=F IPFlag=           0 FMFlag=      100000 FMFlg1=        2001
         NFxFlg=           0 DoJE=T BraDBF=F KetDBF=T FulRan=T
         wScrn=  0.000000 ICntrl=       500 IOpCl=  0 I1Cent=   200000004 NGrid=           0
         NMat0=    1 NMatS0=      1 NMatT0=    0 NMatD0=    1 NMtDS0=    0 NMtDT0=    0
 Petite list used in FoFCou.
 Harris En= -3006.16054229437    
 JPrj=0 DoOrth=F DoCkMO=F.
 Leave Link  401 at Sun May  1 00:01:33 2022, MaxMem= 10066329600 cpu:             130.7 elap:               5.5
 (Enter /sw/apps/gaussian-16.0/g16/l502.exe)
 Integral symmetry usage will be decided dynamically.
 Closed shell SCF:
 Using DIIS extrapolation, IDIIS=  1040.
 NGot= 10066329600 LenX= 10062561258 LenY= 10060699398
 Requested convergence on RMS density matrix=1.00D-08 within 128 cycles.
 Requested convergence on MAX density matrix=1.00D-06.
 Requested convergence on             energy=1.00D-06.
 No special actions if energy rises.
 Fock matrices will be formed incrementally for  20 cycles.

 Cycle   1  Pass 1  IDiag  1:
 FoFJK:  IHMeth= 1 ICntrl=       0 DoSepK=F KAlg= 0 I1Cent=           0 FoldK=F
 IRaf= 520000000 NMat=       1 IRICut=       1 DoRegI=T DoRafI=F ISym2E= 0 IDoP0=0 IntGTp=1.
 FoFCou: FMM=T IPFlag=           0 FMFlag=      100000 FMFlg1=        2001
         NFxFlg=           0 DoJE=F BraDBF=F KetDBF=F FulRan=T
         wScrn=  0.000000 ICntrl=         0 IOpCl=  0 I1Cent=           0 NGrid=           0
         NMat0=    1 NMatS0=      1 NMatT0=    0 NMatD0=    1 NMtDS0=    0 NMtDT0=    0
 Symmetry not used in FoFCou.
 FMM levels:  10  Number of levels for PrismC:   9
 E= -3003.85043315768    
 DIIS: error= 1.89D-02 at cycle   1 NSaved=   1.
 NSaved= 1 IEnMin= 1 EnMin= -3003.85043315768     IErMin= 1 ErrMin= 1.89D-02
 ErrMax= 1.89D-02  0.00D+00 EMaxC= 1.00D-01 BMatC= 1.45D+00 BMatP= 1.45D+00
 IDIUse=3 WtCom= 8.11D-01 WtEn= 1.89D-01
 Coeff-Com:  0.100D+01
 Coeff-En:   0.100D+01
 Coeff:      0.100D+01
 Gap=     0.075 Goal=   None    Shift=    0.000
 GapD=    0.075 DampG=0.500 DampE=0.500 DampFc=0.2500 IDamp=-1.
 Damping current iteration by 2.50D-01
 RMSDP=2.65D-03 MaxDP=5.96D-01              OVMax= 2.63D-01

 Cycle   2  Pass 1  IDiag  1:
 RMSU=  6.57D-04    CP:  9.90D-01
 E= -3004.39384786845     Delta-E=       -0.543414710770 Rises=F Damp=T
 DIIS: error= 9.33D-03 at cycle   2 NSaved=   2.
 NSaved= 2 IEnMin= 2 EnMin= -3004.39384786845     IErMin= 2 ErrMin= 9.33D-03
 ErrMax= 9.33D-03  0.00D+00 EMaxC= 1.00D-01 BMatC= 3.62D-01 BMatP= 1.45D+00
 IDIUse=3 WtCom= 9.07D-01 WtEn= 9.33D-02
 Coeff-Com: -0.772D+00 0.177D+01
 Coeff-En:   0.000D+00 0.100D+01
 Coeff:     -0.700D+00 0.170D+01
 Gap=     0.180 Goal=   None    Shift=    0.000
 RMSDP=9.71D-04 MaxDP=6.70D-02 DE=-5.43D-01 OVMax= 3.24D-01

 Cycle   3  Pass 1  IDiag  1:
 RMSU=  8.23D-04    CP:  9.65D-01  1.71D+00
 E= -3005.19573274635     Delta-E=       -0.801884877894 Rises=F Damp=F
 DIIS: error= 1.01D-02 at cycle   3 NSaved=   3.
 NSaved= 3 IEnMin= 3 EnMin= -3005.19573274635     IErMin= 2 ErrMin= 9.33D-03
 ErrMax= 1.01D-02  0.00D+00 EMaxC= 1.00D-01 BMatC= 1.81D-01 BMatP= 3.62D-01
 IDIUse=3 WtCom= 8.99D-01 WtEn= 1.01D-01
 Coeff-Com: -0.505D+00 0.107D+01 0.433D+00
 Coeff-En:   0.000D+00 0.000D+00 0.100D+01
 Coeff:     -0.454D+00 0.963D+00 0.491D+00
 Gap=     0.070 Goal=   None    Shift=    0.000
 RMSDP=6.20D-04 MaxDP=8.44D-02 DE=-8.02D-01 OVMax= 2.46D-01

 Cycle   4  Pass 1  IDiag  1:
 RMSU=  4.15D-04    CP:  9.70D-01  1.96D+00  4.80D-01
 E= -3005.31829821334     Delta-E=       -0.122565466994 Rises=F Damp=F
 DIIS: error= 5.98D-03 at cycle   4 NSaved=   4.
 NSaved= 4 IEnMin= 4 EnMin= -3005.31829821334     IErMin= 4 ErrMin= 5.98D-03
 ErrMax= 5.98D-03  0.00D+00 EMaxC= 1.00D-01 BMatC= 4.69D-02 BMatP= 1.81D-01
 IDIUse=3 WtCom= 9.40D-01 WtEn= 5.98D-02
 Coeff-Com: -0.139D+00 0.297D+00 0.333D+00 0.509D+00
 Coeff-En:   0.000D+00 0.000D+00 0.280D+00 0.720D+00
 Coeff:     -0.131D+00 0.279D+00 0.330D+00 0.522D+00
 Gap=     0.070 Goal=   None    Shift=    0.000
 RMSDP=3.52D-04 MaxDP=3.20D-02 DE=-1.23D-01 OVMax= 1.98D-01

 Cycle   5  Pass 1  IDiag  1:
 RMSU=  1.84D-04    CP:  9.70D-01  1.84D+00  6.84D-01  4.32D-01
 E= -3005.35405880688     Delta-E=       -0.035760593541 Rises=F Damp=F
 DIIS: error= 3.78D-03 at cycle   5 NSaved=   5.
 NSaved= 5 IEnMin= 5 EnMin= -3005.35405880688     IErMin= 5 ErrMin= 3.78D-03
 ErrMax= 3.78D-03  0.00D+00 EMaxC= 1.00D-01 BMatC= 1.28D-02 BMatP= 4.69D-02
 IDIUse=3 WtCom= 9.62D-01 WtEn= 3.78D-02
 Coeff-Com: -0.363D-01 0.789D-01 0.199D+00 0.409D+00 0.350D+00
 Coeff-En:   0.000D+00 0.000D+00 0.000D+00 0.287D+00 0.713D+00
 Coeff:     -0.349D-01 0.759D-01 0.191D+00 0.404D+00 0.364D+00
 Gap=     0.071 Goal=   None    Shift=    0.000
 RMSDP=1.73D-04 MaxDP=1.59D-02 DE=-3.58D-02 OVMax= 1.23D-01

 Cycle   6  Pass 1  IDiag  1:
 RMSU=  6.14D-05    CP:  9.69D-01  1.85D+00  6.46D-01  6.25D-01  2.58D-01
 E= -3005.37094158288     Delta-E=       -0.016882775997 Rises=F Damp=F
 DIIS: error= 8.70D-04 at cycle   6 NSaved=   6.
 NSaved= 6 IEnMin= 6 EnMin= -3005.37094158288     IErMin= 6 ErrMin= 8.70D-04
 ErrMax= 8.70D-04  0.00D+00 EMaxC= 1.00D-01 BMatC= 9.59D-04 BMatP= 1.28D-02
 IDIUse=3 WtCom= 9.91D-01 WtEn= 8.70D-03
 Coeff-Com: -0.296D-02 0.711D-02 0.702D-01 0.174D+00 0.243D+00 0.508D+00
 Coeff-En:   0.000D+00 0.000D+00 0.000D+00 0.000D+00 0.823D-01 0.918D+00
 Coeff:     -0.293D-02 0.705D-02 0.696D-01 0.173D+00 0.242D+00 0.511D+00
 Gap=     0.072 Goal=   None    Shift=    0.000
 RMSDP=5.39D-05 MaxDP=5.28D-03 DE=-1.69D-02 OVMax= 4.26D-02

 Cycle   7  Pass 1  IDiag  1:
 RMSU=  3.23D-05    CP:  9.69D-01  1.85D+00  6.51D-01  6.06D-01  4.10D-01
                    CP:  4.86D-01
 E= -3005.37188320805     Delta-E=       -0.000941625174 Rises=F Damp=F
 DIIS: error= 5.24D-04 at cycle   7 NSaved=   7.
 NSaved= 7 IEnMin= 7 EnMin= -3005.37188320805     IErMin= 7 ErrMin= 5.24D-04
 ErrMax= 5.24D-04  0.00D+00 EMaxC= 1.00D-01 BMatC= 2.52D-04 BMatP= 9.59D-04
 IDIUse=3 WtCom= 9.95D-01 WtEn= 5.24D-03
 Coeff-Com:  0.273D-02-0.549D-02 0.218D-01 0.644D-01 0.125D+00 0.385D+00
 Coeff-Com:  0.406D+00
 Coeff-En:   0.000D+00 0.000D+00 0.000D+00 0.000D+00 0.000D+00 0.247D+00
 Coeff-En:   0.753D+00
 Coeff:      0.271D-02-0.546D-02 0.217D-01 0.641D-01 0.125D+00 0.384D+00
 Coeff:      0.408D+00
 Gap=     0.072 Goal=   None    Shift=    0.000
 RMSDP=2.69D-05 MaxDP=2.30D-03 DE=-9.42D-04 OVMax= 1.87D-02

 Cycle   8  Pass 1  IDiag  1:
 RMSU=  1.17D-05    CP:  9.69D-01  1.85D+00  6.54D-01  6.05D-01  3.87D-01
                    CP:  6.71D-01  3.54D-01
 E= -3005.37219517868     Delta-E=       -0.000311970625 Rises=F Damp=F
 DIIS: error= 1.59D-04 at cycle   8 NSaved=   8.
 NSaved= 8 IEnMin= 8 EnMin= -3005.37219517868     IErMin= 8 ErrMin= 1.59D-04
 ErrMax= 1.59D-04  0.00D+00 EMaxC= 1.00D-01 BMatC= 3.44D-05 BMatP= 2.52D-04
 IDIUse=3 WtCom= 9.98D-01 WtEn= 1.59D-03
 Coeff-Com:  0.198D-02-0.422D-02 0.371D-02 0.148D-01 0.466D-01 0.186D+00
 Coeff-Com:  0.298D+00 0.453D+00
 Coeff-En:   0.000D+00 0.000D+00 0.000D+00 0.000D+00 0.000D+00 0.000D+00
 Coeff-En:   0.147D+00 0.853D+00
 Coeff:      0.198D-02-0.421D-02 0.370D-02 0.147D-01 0.465D-01 0.186D+00
 Coeff:      0.298D+00 0.454D+00
 Gap=     0.072 Goal=   None    Shift=    0.000
 RMSDP=8.16D-06 MaxDP=5.59D-04 DE=-3.12D-04 OVMax= 4.33D-03

 Cycle   9  Pass 1  IDiag  1:
 RMSU=  3.39D-06    CP:  9.69D-01  1.85D+00  6.53D-01  6.08D-01  3.91D-01
                    CP:  6.42D-01  4.92D-01  5.30D-01
 E= -3005.37223775210     Delta-E=       -0.000042573425 Rises=F Damp=F
 DIIS: error= 3.75D-05 at cycle   9 NSaved=   9.
 NSaved= 9 IEnMin= 9 EnMin= -3005.37223775210     IErMin= 9 ErrMin= 3.75D-05
 ErrMax= 3.75D-05  0.00D+00 EMaxC= 1.00D-01 BMatC= 2.61D-06 BMatP= 3.44D-05
 IDIUse=1 WtCom= 1.00D+00 WtEn= 0.00D+00
 Coeff-Com:  0.700D-03-0.152D-02-0.437D-03 0.169D-03 0.124D-01 0.638D-01
 Coeff-Com:  0.134D+00 0.275D+00 0.515D+00
 Coeff:      0.700D-03-0.152D-02-0.437D-03 0.169D-03 0.124D-01 0.638D-01
 Coeff:      0.134D+00 0.275D+00 0.515D+00
 Gap=     0.072 Goal=   None    Shift=    0.000
 RMSDP=2.14D-06 MaxDP=4.53D-04 DE=-4.26D-05 OVMax= 6.35D-04

 Cycle  10  Pass 1  IDiag  1:
 RMSU=  1.56D-06    CP:  9.69D-01  1.85D+00  6.54D-01  6.07D-01  3.92D-01
                    CP:  6.51D-01  4.95D-01  5.80D-01  6.73D-01
 E= -3005.37224009594     Delta-E=       -0.000002343837 Rises=F Damp=F
 DIIS: error= 1.17D-05 at cycle  10 NSaved=  10.
 NSaved=10 IEnMin=10 EnMin= -3005.37224009594     IErMin=10 ErrMin= 1.17D-05
 ErrMax= 1.17D-05  0.00D+00 EMaxC= 1.00D-01 BMatC= 2.77D-07 BMatP= 2.61D-06
 IDIUse=1 WtCom= 1.00D+00 WtEn= 0.00D+00
 Coeff-Com:  0.106D-03-0.232D-03-0.589D-03-0.188D-02 0.132D-02 0.114D-01
 Coeff-Com:  0.365D-01 0.966D-01 0.286D+00 0.571D+00
 Coeff:      0.106D-03-0.232D-03-0.589D-03-0.188D-02 0.132D-02 0.114D-01
 Coeff:      0.365D-01 0.966D-01 0.286D+00 0.571D+00
 Gap=     0.072 Goal=   None    Shift=    0.000
 RMSDP=7.73D-07 MaxDP=7.54D-05 DE=-2.34D-06 OVMax= 3.29D-04

 Cycle  11  Pass 1  IDiag  1:
 RMSU=  5.14D-07    CP:  9.69D-01  1.85D+00  6.54D-01  6.07D-01  3.92D-01
                    CP:  6.52D-01  4.96D-01  5.81D-01  7.74D-01  7.11D-01
 E= -3005.37224035349     Delta-E=       -0.000000257551 Rises=F Damp=F
 DIIS: error= 4.35D-06 at cycle  11 NSaved=  11.
 NSaved=11 IEnMin=11 EnMin= -3005.37224035349     IErMin=11 ErrMin= 4.35D-06
 ErrMax= 4.35D-06  0.00D+00 EMaxC= 1.00D-01 BMatC= 6.64D-08 BMatP= 2.77D-07
 IDIUse=1 WtCom= 1.00D+00 WtEn= 0.00D+00
 Coeff-Com: -0.214D-04 0.487D-04-0.351D-03-0.144D-02-0.882D-03-0.205D-02
 Coeff-Com:  0.515D-02 0.257D-01 0.113D+00 0.377D+00 0.484D+00
 Coeff:     -0.214D-04 0.487D-04-0.351D-03-0.144D-02-0.882D-03-0.205D-02
 Coeff:      0.515D-02 0.257D-01 0.113D+00 0.377D+00 0.484D+00
 Gap=     0.072 Goal=   None    Shift=    0.000
 RMSDP=3.04D-07 MaxDP=2.74D-05 DE=-2.58D-07 OVMax= 1.18D-04

 Cycle  12  Pass 1  IDiag  1:
 RMSU=  2.02D-07    CP:  9.69D-01  1.85D+00  6.54D-01  6.07D-01  3.92D-01
                    CP:  6.52D-01  4.97D-01  5.90D-01  7.73D-01  8.07D-01
                    CP:  7.81D-01
 E= -3005.37224042225     Delta-E=       -0.000000068754 Rises=F Damp=F
 DIIS: error= 1.56D-06 at cycle  12 NSaved=  12.
 NSaved=12 IEnMin=12 EnMin= -3005.37224042225     IErMin=12 ErrMin= 1.56D-06
 ErrMax= 1.56D-06  0.00D+00 EMaxC= 1.00D-01 BMatC= 6.00D-09 BMatP= 6.64D-08
 IDIUse=1 WtCom= 1.00D+00 WtEn= 0.00D+00
 Coeff-Com: -0.172D-04 0.446D-04-0.986D-04-0.536D-03-0.544D-03-0.297D-02
 Coeff-Com: -0.249D-02-0.158D-03 0.156D-01 0.126D+00 0.244D+00 0.621D+00
 Coeff:     -0.172D-04 0.446D-04-0.986D-04-0.536D-03-0.544D-03-0.297D-02
 Coeff:     -0.249D-02-0.158D-03 0.156D-01 0.126D+00 0.244D+00 0.621D+00
 Gap=     0.072 Goal=   None    Shift=    0.000
 RMSDP=1.28D-07 MaxDP=2.45D-05 DE=-6.88D-08 OVMax= 4.77D-05

 Cycle  13  Pass 1  IDiag  1:
 RMSU=  8.90D-08    CP:  9.69D-01  1.85D+00  6.54D-01  6.07D-01  3.92D-01
                    CP:  6.52D-01  4.98D-01  5.91D-01  7.84D-01  8.25D-01
                    CP:  8.82D-01  8.07D-01
 E= -3005.37224042892     Delta-E=       -0.000000006672 Rises=F Damp=F
 DIIS: error= 9.84D-07 at cycle  13 NSaved=  13.
 NSaved=13 IEnMin=13 EnMin= -3005.37224042892     IErMin=13 ErrMin= 9.84D-07
 ErrMax= 9.84D-07  0.00D+00 EMaxC= 1.00D-01 BMatC= 1.82D-09 BMatP= 6.00D-09
 IDIUse=1 WtCom= 1.00D+00 WtEn= 0.00D+00
 Coeff-Com: -0.425D-05 0.150D-04 0.131D-04-0.568D-04-0.127D-03-0.165D-02
 Coeff-Com: -0.286D-02-0.571D-02-0.159D-01 0.103D-02 0.439D-01 0.401D+00
 Coeff-Com:  0.580D+00
 Coeff:     -0.425D-05 0.150D-04 0.131D-04-0.568D-04-0.127D-03-0.165D-02
 Coeff:     -0.286D-02-0.571D-02-0.159D-01 0.103D-02 0.439D-01 0.401D+00
 Coeff:      0.580D+00
 Gap=     0.072 Goal=   None    Shift=    0.000
 RMSDP=6.33D-08 MaxDP=6.13D-06 DE=-6.67D-09 OVMax= 3.06D-05

 Cycle  14  Pass 1  IDiag  1:
 RMSU=  3.50D-08    CP:  9.69D-01  1.85D+00  6.54D-01  6.07D-01  3.92D-01
                    CP:  6.52D-01  4.98D-01  5.92D-01  7.89D-01  8.42D-01
                    CP:  9.01D-01  9.64D-01  7.72D-01
 E= -3005.37224043082     Delta-E=       -0.000000001899 Rises=F Damp=F
 DIIS: error= 3.13D-07 at cycle  14 NSaved=  14.
 NSaved=14 IEnMin=14 EnMin= -3005.37224043082     IErMin=14 ErrMin= 3.13D-07
 ErrMax= 3.13D-07  0.00D+00 EMaxC= 1.00D-01 BMatC= 2.62D-10 BMatP= 1.82D-09
 IDIUse=1 WtCom= 1.00D+00 WtEn= 0.00D+00
 Coeff-Com:  0.176D-05-0.831D-06 0.235D-04 0.442D-04 0.327D-04-0.548D-03
 Coeff-Com: -0.128D-02-0.329D-02-0.122D-01-0.186D-01-0.142D-01 0.133D+00
 Coeff-Com:  0.335D+00 0.582D+00
 Coeff:      0.176D-05-0.831D-06 0.235D-04 0.442D-04 0.327D-04-0.548D-03
 Coeff:     -0.128D-02-0.329D-02-0.122D-01-0.186D-01-0.142D-01 0.133D+00
 Coeff:      0.335D+00 0.582D+00
 Gap=     0.072 Goal=   None    Shift=    0.000
 RMSDP=2.33D-08 MaxDP=3.29D-06 DE=-1.90D-09 OVMax= 8.96D-06

 Cycle  15  Pass 1  IDiag  1:
 RMSU=  1.44D-08    CP:  9.69D-01  1.85D+00  6.54D-01  6.07D-01  3.92D-01
                    CP:  6.52D-01  4.98D-01  5.92D-01  7.89D-01  8.45D-01
                    CP:  9.19D-01  9.89D-01  8.71D-01  8.75D-01
 E= -3005.37224043121     Delta-E=       -0.000000000391 Rises=F Damp=F
 DIIS: error= 1.11D-07 at cycle  15 NSaved=  15.
 NSaved=15 IEnMin=15 EnMin= -3005.37224043121     IErMin=15 ErrMin= 1.11D-07
 ErrMax= 1.11D-07  0.00D+00 EMaxC= 1.00D-01 BMatC= 3.67D-11 BMatP= 2.62D-10
 IDIUse=1 WtCom= 1.00D+00 WtEn= 0.00D+00
 Coeff-Com:  0.172D-05-0.264D-05 0.113D-04 0.289D-04 0.464D-04-0.699D-04
 Coeff-Com: -0.250D-03-0.856D-03-0.418D-02-0.973D-02-0.136D-01 0.100D-01
 Coeff-Com:  0.949D-01 0.326D+00 0.598D+00
 Coeff:      0.172D-05-0.264D-05 0.113D-04 0.289D-04 0.464D-04-0.699D-04
 Coeff:     -0.250D-03-0.856D-03-0.418D-02-0.973D-02-0.136D-01 0.100D-01
 Coeff:      0.949D-01 0.326D+00 0.598D+00
 Gap=     0.072 Goal=   None    Shift=    0.000
 RMSDP=8.46D-09 MaxDP=7.92D-07 DE=-3.91D-10 OVMax= 4.05D-06

 SCF Done:  E(RPBE1PBE) =  -3005.37224043     A.U. after   15 cycles
            NFock= 15  Conv=0.85D-08     -V/T= 2.0103
 KE= 2.974753357392D+03 PE=-2.593421615060D+04 EE= 1.048215661502D+04
 Leave Link  502 at Sun May  1 00:06:04 2022, MaxMem= 10066329600 cpu:            6451.3 elap:             270.4
 (Enter /sw/apps/gaussian-16.0/g16/l801.exe)
 DoSCS=F DFT=T ScalE2(SS,OS)=  1.000000  1.000000
 ExpMin= 3.36D-02 ExpMax= 4.95D+03 ExpMxC= 7.45D+02 IAcc=3 IRadAn=         5 AccDes= 0.00D+00
 HarFok:  IExCor=  205 AccDes= 0.00D+00 IRadAn=         5 IDoV=-2 UseB2=F ITyADJ=14
 ICtDFT= 12500011 ScaDFX=  1.000000  1.000000  1.000000  1.000000
 GSVD:  LWork=       -5460 too small for GESVD, short by       25550 words or       25550 for optimal perf.
 Largest valence mixing into a core orbital is  1.72D-04
 Largest core mixing into a valence orbital is  5.53D-05
 Range of M.O.s used for correlation:    71  1298
 NBasis=  1298 NAE=   246 NBE=   246 NFC=    70 NFV=     0
 NROrb=   1228 NOA=   176 NOB=   176 NVA=  1052 NVB=  1052

 **** Warning!!: The smallest alpha delta epsilon is  0.72394496D-01

 Leave Link  801 at Sun May  1 00:06:04 2022, MaxMem= 10066329600 cpu:               6.2 elap:               0.3
 (Enter /sw/apps/gaussian-16.0/g16/l914.exe)
 RHF ground state
 Two-electron integrals replicated using symmetry.
 MDV= 10066329600 DFT=T DoStab=F Mixed=T DoRPA=T DoScal=F NonHer=T
 Making orbital integer symmetry assigments:
 Orbital symmetries:
       Occupied  (A) (A) (A) (A) (A) (A) (A) (A) (A) (A) (A) (A)
                 (A) (A) (A) (A) (A) (A) (A) (A) (A) (A) (A) (A)
                 (A) (A) (A) (A) (A) (A) (A) (A) (A) (A) (A) (A)
                 (A) (A) (A) (A) (A) (A) (A) (A) (A) (A) (A) (A)
                 (A) (A) (A) (A) (A) (A) (A) (A) (A) (A) (A) (A)
                 (A) (A) (A) (A) (A) (A) (A) (A) (A) (A) (A) (A)
                 (A) (A) (A) (A) (A) (A) (A) (A) (A) (A) (A) (A)
                 (A) (A) (A) (A) (A) (A) (A) (A) (A) (A) (A) (A)
                 (A) (A) (A) (A) (A) (A) (A) (A) (A) (A) (A) (A)
                 (A) (A) (A) (A) (A) (A) (A) (A) (A) (A) (A) (A)
                 (A) (A) (A) (A) (A) (A) (A) (A) (A) (A) (A) (A)
                 (A) (A) (A) (A) (A) (A) (A) (A) (A) (A) (A) (A)
                 (A) (A) (A) (A) (A) (A) (A) (A) (A) (A) (A) (A)
                 (A) (A) (A) (A) (A) (A) (A) (A) (A) (A) (A) (A)
                 (A) (A) (A) (A) (A) (A) (A) (A) (A) (A) (A) (A)
                 (A) (A) (A) (A) (A) (A) (A) (A) (A) (A) (A) (A)
                 (A) (A) (A) (A) (A) (A) (A) (A) (A) (A) (A) (A)
                 (A) (A) (A) (A) (A) (A) (A) (A) (A) (A) (A) (A)
                 (A) (A) (A) (A) (A) (A) (A) (A) (A) (A) (A) (A)
                 (A) (A) (A) (A) (A) (A) (A) (A) (A) (A) (A) (A)
                 (A) (A) (A) (A) (A) (A)
       Virtual   (A) (A) (A) (A) (A) (A) (A) (A) (A) (A) (A) (A)
                 (A) (A) (A) (A) (A) (A) (A) (A) (A) (A) (A) (A)
                 (A) (A) (A) (A) (A) (A) (A) (A) (A) (A) (A) (A)
                 (A) (A) (A) (A) (A) (A) (A) (A) (A) (A) (A) (A)
                 (A) (A) (A) (A) (A) (A) (A) (A) (A) (A) (A) (A)
                 (A) (A) (A) (A) (A) (A) (A) (A) (A) (A) (A) (A)
                 (A) (A) (A) (A) (A) (A) (A) (A) (A) (A) (A) (A)
                 (A) (A) (A) (A) (A) (A) (A) (A) (A) (A) (A) (A)
                 (A) (A) (A) (A) (A) (A) (A) (A) (A) (A) (A) (A)
                 (A) (A) (A) (A) (A) (A) (A) (A) (A) (A) (A) (A)
                 (A) (A) (A) (A) (A) (A) (A) (A) (A) (A) (A) (A)
                 (A) (A) (A) (A) (A) (A) (A) (A) (A) (A) (A) (A)
                 (A) (A) (A) (A) (A) (A) (A) (A) (A) (A) (A) (A)
                 (A) (A) (A) (A) (A) (A) (A) (A) (A) (A) (A) (A)
                 (A) (A) (A) (A) (A) (A) (A) (A) (A) (A) (A) (A)
                 (A) (A) (A) (A) (A) (A) (A) (A) (A) (A) (A) (A)
                 (A) (A) (A) (A) (A) (A) (A) (A) (A) (A) (A) (A)
                 (A) (A) (A) (A) (A) (A) (A) (A) (A) (A) (A) (A)
                 (A) (A) (A) (A) (A) (A) (A) (A) (A) (A) (A) (A)
                 (A) (A) (A) (A) (A) (A) (A) (A) (A) (A) (A) (A)
                 (A) (A) (A) (A) (A) (A) (A) (A) (A) (A) (A) (A)
                 (A) (A) (A) (A) (A) (A) (A) (A) (A) (A) (A) (A)
                 (A) (A) (A) (A) (A) (A) (A) (A) (A) (A) (A) (A)
                 (A) (A) (A) (A) (A) (A) (A) (A) (A) (A) (A) (A)
                 (A) (A) (A) (A) (A) (A) (A) (A) (A) (A) (A) (A)
                 (A) (A) (A) (A) (A) (A) (A) (A) (A) (A) (A) (A)
                 (A) (A) (A) (A) (A) (A) (A) (A) (A) (A) (A) (A)
                 (A) (A) (A) (A) (A) (A) (A) (A) (A) (A) (A) (A)
                 (A) (A) (A) (A) (A) (A) (A) (A) (A) (A) (A) (A)
                 (A) (A) (A) (A) (A) (A) (A) (A) (A) (A) (A) (A)
                 (A) (A) (A) (A) (A) (A) (A) (A) (A) (A) (A) (A)
                 (A) (A) (A) (A) (A) (A) (A) (A) (A) (A) (A) (A)
                 (A) (A) (A) (A) (A) (A) (A) (A) (A) (A) (A) (A)
                 (A) (A) (A) (A) (A) (A) (A) (A) (A) (A) (A) (A)
                 (A) (A) (A) (A) (A) (A) (A) (A) (A) (A) (A) (A)
                 (A) (A) (A) (A) (A) (A) (A) (A) (A) (A) (A) (A)
                 (A) (A) (A) (A) (A) (A) (A) (A) (A) (A) (A) (A)
                 (A) (A) (A) (A) (A) (A) (A) (A) (A) (A) (A) (A)
                 (A) (A) (A) (A) (A) (A) (A) (A) (A) (A) (A) (A)
                 (A) (A) (A) (A) (A) (A) (A) (A) (A) (A) (A) (A)
                 (A) (A) (A) (A) (A) (A) (A) (A) (A) (A) (A) (A)
                 (A) (A) (A) (A) (A) (A) (A) (A) (A) (A) (A) (A)
                 (A) (A) (A) (A) (A) (A) (A) (A) (A) (A) (A) (A)
                 (A) (A) (A) (A) (A) (A) (A) (A) (A) (A) (A) (A)
                 (A) (A) (A) (A) (A) (A) (A) (A) (A) (A) (A) (A)
                 (A) (A) (A) (A) (A) (A) (A) (A) (A) (A) (A) (A)
                 (A) (A) (A) (A) (A) (A) (A) (A) (A) (A) (A) (A)
                 (A) (A) (A) (A) (A) (A) (A) (A) (A) (A) (A) (A)
                 (A) (A) (A) (A) (A) (A) (A) (A) (A) (A) (A) (A)
                 (A) (A) (A) (A) (A) (A) (A) (A) (A) (A) (A) (A)
                 (A) (A) (A) (A) (A) (A) (A) (A) (A) (A) (A) (A)
                 (A) (A) (A) (A) (A) (A) (A) (A) (A) (A) (A) (A)
                 (A) (A) (A) (A) (A) (A) (A) (A) (A) (A) (A) (A)
                 (A) (A) (A) (A) (A) (A) (A) (A) (A) (A) (A) (A)
                 (A) (A) (A) (A) (A) (A) (A) (A) (A) (A) (A) (A)
                 (A) (A) (A) (A) (A) (A) (A) (A) (A) (A) (A) (A)
                 (A) (A) (A) (A) (A) (A) (A) (A) (A) (A) (A) (A)
                 (A) (A) (A) (A) (A) (A) (A) (A) (A) (A) (A) (A)
                 (A) (A) (A) (A) (A) (A) (A) (A) (A) (A) (A) (A)
                 (A) (A) (A) (A) (A) (A) (A) (A) (A) (A) (A) (A)
                 (A) (A) (A) (A) (A) (A) (A) (A) (A) (A) (A) (A)
                 (A) (A) (A) (A) (A) (A) (A) (A) (A) (A) (A) (A)
                 (A) (A) (A) (A) (A) (A) (A) (A) (A) (A) (A) (A)
                 (A) (A) (A) (A) (A) (A) (A) (A) (A) (A) (A) (A)
                 (A) (A) (A) (A) (A) (A) (A) (A) (A) (A) (A) (A)
                 (A) (A) (A) (A) (A) (A) (A) (A) (A) (A) (A) (A)
                 (A) (A) (A) (A) (A) (A) (A) (A) (A) (A) (A) (A)
                 (A) (A) (A) (A) (A) (A) (A) (A) (A) (A) (A) (A)
                 (A) (A) (A) (A) (A) (A) (A) (A) (A) (A) (A) (A)
                 (A) (A) (A) (A) (A) (A) (A) (A) (A) (A) (A) (A)
                 (A) (A) (A) (A) (A) (A) (A) (A) (A) (A) (A) (A)
                 (A) (A) (A) (A) (A) (A) (A) (A) (A) (A) (A) (A)
                 (A) (A) (A) (A) (A) (A) (A) (A) (A) (A) (A) (A)
                 (A) (A) (A) (A) (A) (A) (A) (A) (A) (A) (A) (A)
                 (A) (A) (A) (A) (A) (A) (A) (A) (A) (A) (A) (A)
                 (A) (A) (A) (A) (A) (A) (A) (A) (A) (A) (A) (A)
                 (A) (A) (A) (A) (A) (A) (A) (A) (A) (A) (A) (A)
                 (A) (A) (A) (A) (A) (A) (A) (A) (A) (A) (A) (A)
                 (A) (A) (A) (A) (A) (A) (A) (A) (A) (A) (A) (A)
                 (A) (A) (A) (A) (A) (A) (A) (A) (A) (A) (A) (A)
                 (A) (A) (A) (A) (A) (A) (A) (A) (A) (A) (A) (A)
                 (A) (A) (A) (A) (A) (A) (A) (A) (A) (A) (A) (A)
                 (A) (A) (A) (A) (A) (A) (A) (A) (A) (A) (A) (A)
                 (A) (A) (A) (A) (A) (A) (A) (A) (A) (A) (A) (A)
                 (A) (A) (A) (A) (A) (A) (A) (A) (A) (A) (A) (A)
                 (A) (A) (A) (A) (A) (A) (A) (A) (A) (A) (A) (A)
                 (A) (A) (A) (A) (A) (A) (A) (A) (A) (A) (A) (A)
                 (A) (A) (A) (A) (A) (A) (A) (A)
    20 initial guesses have been made.
 Convergence on wavefunction:    0.001000000000000
 Davidson Disk Diagonalization:  ConvIn= 1.00D-03 SkipCon=T Conv= 1.00D-03.
 Max sub-space:  2000 roots to seek:    20 dimension of matrix:       370304
 Iteration     1 Dimension    20 NMult     0 NNew     20
 CISAX will form    20 AO SS matrices at one time.
 NMat=    20 NSing=    20 JSym2X= 0.
 FoFJK:  IHMeth= 1 ICntrl=       0 DoSepK=F KAlg= 0 I1Cent=           0 FoldK=F
 IRaf= 520000000 NMat=      40 IRICut=       1 DoRegI=T DoRafI=F ISym2E= 0 IDoP0=3 IntGTp=3.
 FoFCou: FMM=T IPFlag=           0 FMFlag=      100000 FMFlg1=        2001
         NFxFlg=           0 DoJE=F BraDBF=F KetDBF=F FulRan=T
         wScrn=  0.000000 ICntrl=         0 IOpCl=  0 I1Cent=           0 NGrid=           0
         NMat0=   40 NMatS0=     20 NMatT0=    0 NMatD0=   40 NMtDS0=    0 NMtDT0=    0
 Symmetry not used in FoFCou.
 FMM levels:  10  Number of levels for PrismC:   9
 New state      3 was old state      4
 New state      4 was old state      6
 New state      5 was old state      3
 Excitation Energies [eV] at current iteration:
 Root      1 :     2.203852598112802
 Root      2 :     2.517792715555434
 Root      3 :     3.031998131308534
 Root      4 :     3.110866792284656
 Root      5 :     3.177525025496870
 Root      6 :     3.243699537472185
 Root      7 :     3.316064538903510
 Root      8 :     3.697152719208465
 Root      9 :     3.903085979399636
 Root     10 :     4.010667154075167
 Root     11 :     4.063093441133121
 Root     12 :     4.144175197642791
 Root     13 :     4.299506460276239
 Root     14 :     4.357817962121880
 Root     15 :     4.519363004086400
 Root     16 :     4.648370682959993
 Root     17 :     4.663022266540811
 Root     18 :     4.670675669865445
 Root     19 :     4.777363231106234
 Root     20 :     4.825849122084409
 Iteration     2 Dimension    30 NMult    20 NNew     10
 CISAX will form    10 AO SS matrices at one time.
 NMat=    10 NSing=    10 JSym2X= 0.
 Root      1 not converged, maximum delta is    0.060772063251251
 Root      2 not converged, maximum delta is    0.061230069382314
 Root      3 not converged, maximum delta is    0.278153470945431
 Root      4 not converged, maximum delta is    0.303360235932724
 New state      5 was old state      7
 Root      5 not converged, maximum delta is    0.262365066289299
 Excitation Energies [eV] at current iteration:
 Root      1 :     1.832235420576683   Change is   -0.371617177536119
 Root      2 :     2.212440460494089   Change is   -0.305352255061345
 Root      3 :     2.805500187195191   Change is   -0.226497944113343
 Root      4 :     2.993638843604235   Change is   -0.117227948680421
 Root      5 :     3.155072050339220   Change is   -0.160992488564290
 Iteration     3 Dimension    40 NMult    30 NNew     10
 CISAX will form    10 AO SS matrices at one time.
 NMat=    10 NSing=    10 JSym2X= 0.
 Root      1 not converged, maximum delta is    0.027290068621524
 Root      2 not converged, maximum delta is    0.024072739266220
 Root      3 not converged, maximum delta is    0.014441576271467
 Root      4 not converged, maximum delta is    0.023467071370026
 Root      5 not converged, maximum delta is    0.048378321354050
 Excitation Energies [eV] at current iteration:
 Root      1 :     1.796302107479794   Change is   -0.035933313096890
 Root      2 :     2.188985062679051   Change is   -0.023455397815038
 Root      3 :     2.794080520147630   Change is   -0.011419667047561
 Root      4 :     2.980235218296927   Change is   -0.013403625307308
 Root      5 :     3.043603972454631   Change is   -0.111468077884589
 Iteration     4 Dimension    50 NMult    40 NNew     10
 CISAX will form    10 AO SS matrices at one time.
 NMat=    10 NSing=    10 JSym2X= 0.
 Root      1 not converged, maximum delta is    0.002802748016906
 Root      2 not converged, maximum delta is    0.008684089168366
 Root      3 not converged, maximum delta is    0.002902031320037
 Root      4 not converged, maximum delta is    0.018091560640692
 Root      5 not converged, maximum delta is    0.017469734816340
 Excitation Energies [eV] at current iteration:
 Root      1 :     1.792797600721277   Change is   -0.003504506758516
 Root      2 :     2.185571921413197   Change is   -0.003413141265854
 Root      3 :     2.792365989365539   Change is   -0.001714530782090
 Root      4 :     2.978919832901803   Change is   -0.001315385395124
 Root      5 :     3.031532874175547   Change is   -0.012071098279084
 Iteration     5 Dimension    60 NMult    50 NNew     10
 CISAX will form    10 AO SS matrices at one time.
 NMat=    10 NSing=    10 JSym2X= 0.
 Root      1 has converged.
 Root      2 has converged.
 Root      3 has converged.
 Root      4 not converged, maximum delta is    0.003600058067306
 Root      5 not converged, maximum delta is    0.005224127612874
 Excitation Energies [eV] at current iteration:
 Root      1 :     1.792452552273566   Change is   -0.000345048447711
 Root      2 :     2.185259059206009   Change is   -0.000312862207188
 Root      3 :     2.792161873426406   Change is   -0.000204115939134
 Root      4 :     2.978728502614812   Change is   -0.000191330286992
 Root      5 :     3.029494015867996   Change is   -0.002038858307551
 Iteration     6 Dimension    64 NMult    60 NNew      4
 CISAX will form     4 AO SS matrices at one time.
 NMat=     4 NSing=     4 JSym2X= 0.
 Root      1 has converged.
 Root      2 has converged.
 Root      3 has converged.
 Root      4 has converged.
 Root      5 not converged, maximum delta is    0.002772833573222
 Excitation Energies [eV] at current iteration:
 Root      1 :     1.792448482443267   Change is   -0.000004069830299
 Root      2 :     2.185258590509721   Change is   -0.000000468696288
 Root      3 :     2.792160208075011   Change is   -0.000001665351395
 Root      4 :     2.978707276735456   Change is   -0.000021225879356
 Root      5 :     3.029255403719490   Change is   -0.000238612148507
 Iteration     7 Dimension    66 NMult    64 NNew      2
 CISAX will form     2 AO SS matrices at one time.
 NMat=     2 NSing=     2 JSym2X= 0.
 Root      1 has converged.
 Root      2 has converged.
 Root      3 has converged.
 Root      4 has converged.
 Root      5 not converged, maximum delta is    0.004102084268278
 Excitation Energies [eV] at current iteration:
 Root      1 :     1.792448435426279   Change is   -0.000000047016988
 Root      2 :     2.185258186648252   Change is   -0.000000403861469
 Root      3 :     2.792159791102106   Change is   -0.000000416972904
 Root      4 :     2.978706225122584   Change is   -0.000001051612873
 Root      5 :     3.029204804582842   Change is   -0.000050599136648
 Iteration     8 Dimension    68 NMult    66 NNew      2
 CISAX will form     2 AO SS matrices at one time.
 NMat=     2 NSing=     2 JSym2X= 0.
 Root      1 has converged.
 Root      2 has converged.
 Root      3 has converged.
 Root      4 has converged.
 Root      5 not converged, maximum delta is    0.003391174872255
 Excitation Energies [eV] at current iteration:
 Root      1 :     1.792448380389411   Change is   -0.000000055036868
 Root      2 :     2.185257712234758   Change is   -0.000000474413494
 Root      3 :     2.792159700466351   Change is   -0.000000090635755
 Root      4 :     2.978705907138974   Change is   -0.000000317983609
 Root      5 :     3.029186344210913   Change is   -0.000018460371928
 Iteration     9 Dimension    70 NMult    68 NNew      2
 CISAX will form     2 AO SS matrices at one time.
 NMat=     2 NSing=     2 JSym2X= 0.
 Root      1 has converged.
 Root      2 has converged.
 Root      3 has converged.
 Root      4 has converged.
 Root      5 not converged, maximum delta is    0.001200581041403
 Excitation Energies [eV] at current iteration:
 Root      1 :     1.792448254247158   Change is   -0.000000126142253
 Root      2 :     2.185257411783156   Change is   -0.000000300451602
 Root      3 :     2.792159598030072   Change is   -0.000000102436279
 Root      4 :     2.978705865123584   Change is   -0.000000042015390
 Root      5 :     3.029182022995629   Change is   -0.000004321215284
 Convergence on energies, max DE= 4.32D-06.
 Convergence on expansion vectors.
 ***********************************************************************
 Excited states from <AA,BB:AA,BB> singles matrix:
 ***********************************************************************
 
 1PDM for each excited state written to RWF  633
 Ground to excited state transition densities written to RWF  633
 Ground to excited state transition electric dipole moments (Au):
       state          X           Y           Z        Dip. S.      Osc.
         1         0.0756     -2.8620      0.2912      8.2814      0.3637
         2         1.7153      0.5017      0.0419      3.1959      0.1711
         3        -0.3417     -0.1291      0.0459      0.1355      0.0093
         4        -0.0829     -0.0679      0.0108      0.0116      0.0008
         5         0.3561      0.0464      0.0053      0.1290      0.0096
 Ground to excited state transition velocity dipole moments (Au):
       state          X           Y           Z        Dip. S.      Osc.
         1        -0.0050      0.1831     -0.0193      0.0339      0.3433
         2        -0.1316     -0.0396     -0.0032      0.0189      0.1570
         3         0.0331      0.0123     -0.0042      0.0013      0.0082
         4         0.0091      0.0066      0.0003      0.0001      0.0008
         5        -0.0395     -0.0043     -0.0002      0.0016      0.0094
 Ground to excited state transition magnetic dipole moments (Au):
       state          X           Y           Z
         1        -0.0450      0.2501      2.1696
         2         0.0446     -0.0169     -0.5619
         3        -0.1237     -0.0706     -0.5572
         4        -0.3761      0.0525      0.4178
         5        -0.0717     -0.0698     -0.3459
 Ground to excited state transition velocity quadrupole moments (Au):
       state          XX          YY          ZZ          XY          XZ          YZ
         1        -0.2548      0.2817     -0.0183      2.0590     -0.2852     -0.0765
         2        -2.6157     -0.1226     -0.0037     -0.4405     -0.0294      0.0567
         3         0.7354      0.0649      0.0050      0.3953     -0.0692     -0.0676
         4         0.1637      0.0171      0.0031      0.0142     -0.0180     -0.0121
         5        -0.7107     -0.1686      0.0007      0.0536      0.0508      0.0621
 <0|del|b> * <b|rxdel|0> + <0|del|b> * <b|delr+rdel|0>
 Rotatory Strengths (R) in cgs (10**-40 erg-esu-cm/Gauss)
       state          XX          YY          ZZ    R(velocity)    E-M Angle
         1        87.4687     -8.2153    -35.3624     14.6303       89.42
         2        12.0129    -57.0006     15.0767     -9.9703       92.51
         3         2.3072     -7.9156    -12.3237     -5.9774       97.30
         4         1.9320    -11.0356     -9.9853     -6.3629      117.68
         5         1.8025      1.4261     17.0380      6.7555       77.10
 1/2[<0|r|b>*<b|rxdel|0> + (<0|rxdel|b>*<b|r|0>)*]
 Rotatory Strengths (R) in cgs (10**-40 erg-esu-cm/Gauss)
       state          XX          YY          ZZ     R(length)
         1         2.4087    506.1565   -446.7061     20.6197
         2       -54.1366      5.9984     16.6335    -10.5016
         3       -29.8811     -6.4453     18.0918     -6.0782
         4       -22.0432      2.5197     -3.1774     -7.5669
         5        18.0567      2.2905      1.3039      7.2170
  1/2[<0|del|b>*<b|r|0> + (<0|r|b>*<b|del|0>)*] (Au)
       state          X           Y           Z        Dip. S.   Osc.(frdel)
         1        -0.0004     -0.5240     -0.0056      0.5300      0.3533
         2        -0.2258     -0.0199     -0.0001      0.2458      0.1639
         3        -0.0113     -0.0016     -0.0002      0.0131      0.0087
         4        -0.0008     -0.0004      0.0000      0.0012      0.0008
         5        -0.0141     -0.0002     -0.0000      0.0143      0.0095

 Excitation energies and oscillator strengths:
 
 Excited State   1:      Singlet-A      1.7924 eV  691.70 nm  f=0.3637  <S**2>=0.000
     245 -> 248        0.14754
     246 -> 247        0.69915
     246 <- 247       -0.12313
 This state for optimization and/or second-order correction.
 Total Energy, E(TD-HF/TD-DFT) =  -3005.30636917    
 Copying the excited state density for this state as the 1-particle RhoCI density.
 
 Excited State   2:      Singlet-A      2.1853 eV  567.37 nm  f=0.1711  <S**2>=0.000
     245 -> 247        0.66344
     246 -> 248       -0.21761
 
 Excited State   3:      Singlet-A      2.7922 eV  444.04 nm  f=0.0093  <S**2>=0.000
     243 -> 247        0.69555
 
 Excited State   4:      Singlet-A      2.9787 eV  416.24 nm  f=0.0008  <S**2>=0.000
     241 -> 247        0.22601
     242 -> 247        0.64242
 
 Excited State   5:      Singlet-A      3.0292 eV  409.30 nm  f=0.0096  <S**2>=0.000
     241 -> 247        0.64570
     242 -> 247       -0.24349
 SavETr:  write IOETrn=   770 NScale= 10 NData=  16 NLR=1 NState=    5 LETran=     100.
 Leave Link  914 at Sun May  1 00:21:45 2022, MaxMem= 10066329600 cpu:           22547.0 elap:             941.4
 (Enter /sw/apps/gaussian-16.0/g16/l601.exe)
 Copying SCF densities to generalized density rwf, IOpCl= 0 IROHF=0.
 Hyperfine terms turned off by default for NAtoms > 100.

 **********************************************************************

            Population analysis using the SCF density.

 **********************************************************************

 Orbital symmetries:
       Occupied  (A) (A) (A) (A) (A) (A) (A) (A) (A) (A) (A) (A)
                 (A) (A) (A) (A) (A) (A) (A) (A) (A) (A) (A) (A)
                 (A) (A) (A) (A) (A) (A) (A) (A) (A) (A) (A) (A)
                 (A) (A) (A) (A) (A) (A) (A) (A) (A) (A) (A) (A)
                 (A) (A) (A) (A) (A) (A) (A) (A) (A) (A) (A) (A)
                 (A) (A) (A) (A) (A) (A) (A) (A) (A) (A) (A) (A)
                 (A) (A) (A) (A) (A) (A) (A) (A) (A) (A) (A) (A)
                 (A) (A) (A) (A) (A) (A) (A) (A) (A) (A) (A) (A)
                 (A) (A) (A) (A) (A) (A) (A) (A) (A) (A) (A) (A)
                 (A) (A) (A) (A) (A) (A) (A) (A) (A) (A) (A) (A)
                 (A) (A) (A) (A) (A) (A) (A) (A) (A) (A) (A) (A)
                 (A) (A) (A) (A) (A) (A) (A) (A) (A) (A) (A) (A)
                 (A) (A) (A) (A) (A) (A) (A) (A) (A) (A) (A) (A)
                 (A) (A) (A) (A) (A) (A) (A) (A) (A) (A) (A) (A)
                 (A) (A) (A) (A) (A) (A) (A) (A) (A) (A) (A) (A)
                 (A) (A) (A) (A) (A) (A) (A) (A) (A) (A) (A) (A)
                 (A) (A) (A) (A) (A) (A) (A) (A) (A) (A) (A) (A)
                 (A) (A) (A) (A) (A) (A) (A) (A) (A) (A) (A) (A)
                 (A) (A) (A) (A) (A) (A) (A) (A) (A) (A) (A) (A)
                 (A) (A) (A) (A) (A) (A) (A) (A) (A) (A) (A) (A)
                 (A) (A) (A) (A) (A) (A)
       Virtual   (A) (A) (A) (A) (A) (A) (A) (A) (A) (A) (A) (A)
                 (A) (A) (A) (A) (A) (A) (A) (A) (A) (A) (A) (A)
                 (A) (A) (A) (A) (A) (A) (A) (A) (A) (A) (A) (A)
                 (A) (A) (A) (A) (A) (A) (A) (A) (A) (A) (A) (A)
                 (A) (A) (A) (A) (A) (A) (A) (A) (A) (A) (A) (A)
                 (A) (A) (A) (A) (A) (A) (A) (A) (A) (A) (A) (A)
                 (A) (A) (A) (A) (A) (A) (A) (A) (A) (A) (A) (A)
                 (A) (A) (A) (A) (A) (A) (A) (A) (A) (A) (A) (A)
                 (A) (A) (A) (A) (A) (A) (A) (A) (A) (A) (A) (A)
                 (A) (A) (A) (A) (A) (A) (A) (A) (A) (A) (A) (A)
                 (A) (A) (A) (A) (A) (A) (A) (A) (A) (A) (A) (A)
                 (A) (A) (A) (A) (A) (A) (A) (A) (A) (A) (A) (A)
                 (A) (A) (A) (A) (A) (A) (A) (A) (A) (A) (A) (A)
                 (A) (A) (A) (A) (A) (A) (A) (A) (A) (A) (A) (A)
                 (A) (A) (A) (A) (A) (A) (A) (A) (A) (A) (A) (A)
                 (A) (A) (A) (A) (A) (A) (A) (A) (A) (A) (A) (A)
                 (A) (A) (A) (A) (A) (A) (A) (A) (A) (A) (A) (A)
                 (A) (A) (A) (A) (A) (A) (A) (A) (A) (A) (A) (A)
                 (A) (A) (A) (A) (A) (A) (A) (A) (A) (A) (A) (A)
                 (A) (A) (A) (A) (A) (A) (A) (A) (A) (A) (A) (A)
                 (A) (A) (A) (A) (A) (A) (A) (A) (A) (A) (A) (A)
                 (A) (A) (A) (A) (A) (A) (A) (A) (A) (A) (A) (A)
                 (A) (A) (A) (A) (A) (A) (A) (A) (A) (A) (A) (A)
                 (A) (A) (A) (A) (A) (A) (A) (A) (A) (A) (A) (A)
                 (A) (A) (A) (A) (A) (A) (A) (A) (A) (A) (A) (A)
                 (A) (A) (A) (A) (A) (A) (A) (A) (A) (A) (A) (A)
                 (A) (A) (A) (A) (A) (A) (A) (A) (A) (A) (A) (A)
                 (A) (A) (A) (A) (A) (A) (A) (A) (A) (A) (A) (A)
                 (A) (A) (A) (A) (A) (A) (A) (A) (A) (A) (A) (A)
[...]
 Alpha virt. eigenvalues --    1.14841   1.15250   1.16068   1.16149   1.16306
 Alpha virt. eigenvalues --    1.16590   1.17417   1.17848   1.18153   1.18500
 Alpha virt. eigenvalues --    1.18870   1.19302   1.19635   1.20207   1.20665
 Alpha virt. eigenvalues --    1.21497   1.21861   1.22412   1.22870   1.23246
 Alpha virt. eigenvalues --    1.23926   1.24740   1.25408   1.25771   1.26364
 Alpha virt. eigenvalues --    1.26678   1.27079   1.27564   1.28583   1.28907
 Alpha virt. eigenvalues --    1.29290   1.29953   1.30110   1.30350   1.30850
 Alpha virt. eigenvalues --    1.31087   1.31571   1.31797   1.32366   1.32589
 Alpha virt. eigenvalues --    1.32749   1.33121   1.33639   1.34218   1.34351
 Alpha virt. eigenvalues --    1.34570   1.35057   1.35280   1.35415   1.36244
 Alpha virt. eigenvalues --    1.36544   1.36618   1.37032   1.37620   1.38007
 Alpha virt. eigenvalues --    1.38122   1.39636   1.39788   1.40015   1.40361
 Alpha virt. eigenvalues --    1.40924   1.41553   1.41884   1.42384   1.42557
 Alpha virt. eigenvalues --    1.43039   1.43255   1.43652   1.43865   1.44089
 Alpha virt. eigenvalues --    1.44839   1.45020   1.45601   1.45757   1.46460
 Alpha virt. eigenvalues --    1.46513   1.47411   1.48114   1.48441   1.49052
 Alpha virt. eigenvalues --    1.49330   1.49997   1.50256   1.50504   1.50591
 Alpha virt. eigenvalues --    1.50847   1.51165   1.51762   1.52295   1.52362
 Alpha virt. eigenvalues --    1.52650   1.53082   1.53290   1.53352   1.53608
 Alpha virt. eigenvalues --    1.53846   1.54093   1.54492   1.54761   1.55387
 Alpha virt. eigenvalues --    1.55534   1.55612   1.55898   1.56262   1.56545
 Alpha virt. eigenvalues --    1.56801   1.56918   1.57050   1.57199   1.57263
 Alpha virt. eigenvalues --    1.58021   1.58247   1.58310   1.58420   1.58859
 Alpha virt. eigenvalues --    1.59066   1.59548   1.59914   1.60413   1.60517
 Alpha virt. eigenvalues --    1.60858   1.61594   1.62160   1.62264   1.62724
 Alpha virt. eigenvalues --    1.63347   1.64799   1.65285   1.65621   1.66390
 Alpha virt. eigenvalues --    1.66859   1.66968   1.67473   1.67618   1.67745
 Alpha virt. eigenvalues --    1.68211   1.68687   1.68862   1.69187   1.69426
 Alpha virt. eigenvalues --    1.70088   1.70483   1.70549   1.71047   1.71284
 Alpha virt. eigenvalues --    1.71789   1.71853   1.71984   1.72386   1.72976
 Alpha virt. eigenvalues --    1.73193   1.73431   1.73541   1.73664   1.73884
 Alpha virt. eigenvalues --    1.73962   1.74478   1.74665   1.74882   1.75115
 Alpha virt. eigenvalues --    1.75260   1.75746   1.75890   1.76173   1.76382
 Alpha virt. eigenvalues --    1.76732   1.77091   1.77116   1.77247   1.77490
 Alpha virt. eigenvalues --    1.77789   1.77870   1.78014   1.78545   1.78814
 Alpha virt. eigenvalues --    1.78917   1.79071   1.79181   1.79298   1.79549
 Alpha virt. eigenvalues --    1.79783   1.80323   1.80401   1.80431   1.80638
 Alpha virt. eigenvalues --    1.80781   1.80974   1.81178   1.81252   1.81552
 Alpha virt. eigenvalues --    1.81735   1.81886   1.82101   1.82365   1.82570
 Alpha virt. eigenvalues --    1.82638   1.82834   1.82984   1.83155   1.83230
 Alpha virt. eigenvalues --    1.83556   1.83850   1.84018   1.84366   1.84859
 Alpha virt. eigenvalues --    1.85399   1.85447   1.85584   1.85711   1.85892
 Alpha virt. eigenvalues --    1.86105   1.86525   1.86564   1.86734   1.86879
 Alpha virt. eigenvalues --    1.86920   1.87091   1.87400   1.87848   1.87915
 Alpha virt. eigenvalues --    1.88192   1.88271   1.88382   1.88472   1.88761
 Alpha virt. eigenvalues --    1.88907   1.89176   1.89303   1.89820   1.89939
 Alpha virt. eigenvalues --    1.90060   1.90250   1.90443   1.90700   1.90775
 Alpha virt. eigenvalues --    1.90805   1.91236   1.91288   1.91560   1.91914
 Alpha virt. eigenvalues --    1.92020   1.92420   1.93004   1.93422   1.93614
 Alpha virt. eigenvalues --    1.93860   1.94097   1.94297   1.94581   1.94603
 Alpha virt. eigenvalues --    1.94820   1.95101   1.95695   1.95792   1.96290
 Alpha virt. eigenvalues --    1.96646   1.96914   1.96947   1.97388   1.97839
 Alpha virt. eigenvalues --    1.98255   1.98489   1.98696   1.99307   1.99617
 Alpha virt. eigenvalues --    2.00280   2.00376   2.00824   2.01109   2.01277
 Alpha virt. eigenvalues --    2.01540   2.01670   2.02021   2.02559   2.02651
 Alpha virt. eigenvalues --    2.02952   2.03308   2.03524   2.03750   2.04130
 Alpha virt. eigenvalues --    2.04543   2.05166   2.05240   2.05681   2.05964
 Alpha virt. eigenvalues --    2.06068   2.06627   2.06825   2.07344   2.07860
 Alpha virt. eigenvalues --    2.08259   2.08317   2.08428   2.08453   2.08821
 Alpha virt. eigenvalues --    2.08956   2.09180   2.09305   2.09377   2.09812
 Alpha virt. eigenvalues --    2.10268   2.10954   2.11098   2.11310   2.11580
 Alpha virt. eigenvalues --    2.11774   2.12674   2.12884   2.13474   2.13928
 Alpha virt. eigenvalues --    2.13986   2.14633   2.14746   2.14976   2.15395
 Alpha virt. eigenvalues --    2.15556   2.15650   2.15780   2.16123   2.16819
 Alpha virt. eigenvalues --    2.16997   2.17271   2.17666   2.18041   2.19181
 Alpha virt. eigenvalues --    2.19521   2.20076   2.20323   2.20692   2.21328
 Alpha virt. eigenvalues --    2.21656   2.21799   2.22272   2.22754   2.22845
 Alpha virt. eigenvalues --    2.23237   2.23470   2.24187   2.24745   2.24831
 Alpha virt. eigenvalues --    2.25297   2.25406   2.25773   2.26176   2.27018
 Alpha virt. eigenvalues --    2.27543   2.27991   2.28190   2.28675   2.29212
 Alpha virt. eigenvalues --    2.29560   2.30014   2.30241   2.30602   2.30832
 Alpha virt. eigenvalues --    2.31052   2.31675   2.31849   2.32358   2.32759
 Alpha virt. eigenvalues --    2.32981   2.33521   2.34071   2.34338   2.34804
 Alpha virt. eigenvalues --    2.35463   2.35500   2.35635   2.35789   2.35957
 Alpha virt. eigenvalues --    2.36585   2.36873   2.37339   2.37627   2.37958
 Alpha virt. eigenvalues --    2.38815   2.38909   2.39096   2.39227   2.39428
 Alpha virt. eigenvalues --    2.39849   2.40371   2.41118   2.41451   2.41832
 Alpha virt. eigenvalues --    2.42313   2.42695   2.42825   2.43075   2.43314
 Alpha virt. eigenvalues --    2.43836   2.44074   2.44306   2.44500   2.44649
 Alpha virt. eigenvalues --    2.45587   2.45741   2.45969   2.46458   2.46466
 Alpha virt. eigenvalues --    2.47092   2.47914   2.48730   2.49030   2.49141
 Alpha virt. eigenvalues --    2.49785   2.51071   2.51248   2.51479   2.51576
 Alpha virt. eigenvalues --    2.51763   2.52579   2.53888   2.54099   2.54430
 Alpha virt. eigenvalues --    2.55047   2.55242   2.55872   2.56361   2.56480
 Alpha virt. eigenvalues --    2.57152   2.57664   2.57820   2.58344   2.58518
 Alpha virt. eigenvalues --    2.58793   2.58929   2.59488   2.59678   2.60018
 Alpha virt. eigenvalues --    2.60537   2.61317   2.61666   2.61855   2.61936
 Alpha virt. eigenvalues --    2.62236   2.62422   2.63023   2.63228   2.63491
 Alpha virt. eigenvalues --    2.63690   2.64006   2.64786   2.64920   2.65113
 Alpha virt. eigenvalues --    2.65297   2.65628   2.66530   2.66581   2.66958
 Alpha virt. eigenvalues --    2.67563   2.68121   2.68383   2.68637   2.69276
 Alpha virt. eigenvalues --    2.69527   2.69561   2.69685   2.70231   2.70752
 Alpha virt. eigenvalues --    2.71058   2.71881   2.72057   2.72418   2.72759
 Alpha virt. eigenvalues --    2.73189   2.73773   2.74220   2.74407   2.74874
 Alpha virt. eigenvalues --    2.75145   2.75862   2.76224   2.76880   2.77259
 Alpha virt. eigenvalues --    2.78048   2.78763   2.79091   2.79909   2.80098
 Alpha virt. eigenvalues --    2.80470   2.81119   2.82331   2.82626   2.83857
 Alpha virt. eigenvalues --    2.84244   2.84534   2.84826   2.85710   2.86603
 Alpha virt. eigenvalues --    2.86741   2.87261   2.87456   2.87606   2.88692
 Alpha virt. eigenvalues --    2.88698   2.89345   2.89867   2.90280   2.90812
 Alpha virt. eigenvalues --    2.91239   2.91381   2.91695   2.91929   2.92829
 Alpha virt. eigenvalues --    2.93340   2.93391   2.93541   2.93685   2.94107
 Alpha virt. eigenvalues --    2.94277   2.94860   2.95419   2.95629   2.95732
 Alpha virt. eigenvalues --    2.95966   2.96005   2.96339   2.96408   2.96827
 Alpha virt. eigenvalues --    2.97156   2.97322   2.97600   2.97959   2.98393
 Alpha virt. eigenvalues --    2.98932   2.98971   2.99398   2.99838   3.00152
 Alpha virt. eigenvalues --    3.00322   3.00732   3.00838   3.01268   3.01451
 Alpha virt. eigenvalues --    3.01874   3.02087   3.02378   3.02889   3.02951
 Alpha virt. eigenvalues --    3.03431   3.03707   3.03898   3.04204   3.04250
 Alpha virt. eigenvalues --    3.04867   3.05255   3.05577   3.05815   3.06073
 Alpha virt. eigenvalues --    3.06259   3.06587   3.07003   3.07481   3.08042
 Alpha virt. eigenvalues --    3.08260   3.08714   3.08934   3.10896   3.11197
 Alpha virt. eigenvalues --    3.11744   3.12112   3.13075   3.14146   3.14264
 Alpha virt. eigenvalues --    3.14342   3.14469   3.16414   3.16716   3.18269
 Alpha virt. eigenvalues --    3.18922   3.21272   3.21618   3.22396   3.22668
 Alpha virt. eigenvalues --    3.23094   3.26082   3.34292   3.38147   3.39604
 Alpha virt. eigenvalues --    3.40769   3.41680   3.45011   3.46915   3.47789
 Alpha virt. eigenvalues --    3.55323   3.59440   3.61018   3.63747   3.64417
 Alpha virt. eigenvalues --    3.65856   3.69354
          Condensed to atoms (all electrons):
 Mulliken charges:
               1
     1  Mg   1.002172
     2  C   -0.087545
     3  C   -0.073838
     4  C   -0.047829
     5  C   -0.062170
     6  N   -0.403173
     7  C    0.012768
     8  C   -0.087331
     9  C   -0.143843
    10  C    0.097698
    11  C    0.005479
    12  C    0.017656
    13  C    0.000304
    14  C    0.221049
    15  O   -0.262353
    16  O   -0.384628
    17  N   -0.539329
    18  C    0.185789
    19  C   -0.178854
    20  C   -0.100256
    21  C    0.162042
    22  C    0.068643
    23  C    0.079522
    24  O   -0.272124
    25  C   -0.063795
    26  N   -0.442807
    27  C    0.104152
    28  C   -0.111112
    29  C   -0.109991
    30  C    0.086257
    31  C    0.012333
    32  C   -0.061870
    33  C   -0.054536
    34  N   -0.448779
    35  C    0.128877
    36  C   -0.212848
    37  C   -0.058251
    38  C    0.169613
    39  C    0.051398
    40  C    0.160378
    41  O   -0.182638
    42  C   -0.064287
    43  C    0.261287
    44  O   -0.227600
    45  O   -0.363485
    46  C    0.114744
    47  C    0.233342
    48  C   -0.138259
    49  C   -0.217268
    50  C    0.020532
    51  C    0.050861
    52  C   -0.063547
    53  C   -0.037312
    54  C   -0.208615
    55  C   -0.010653
    56  C   -0.027833
    57  C   -0.043735
    58  C   -0.009645
    59  C   -0.163689
    60  C   -0.010215
    61  C   -0.017571
    62  C   -0.084940
    63  C    0.038011
    64  C   -0.228788
    65  C   -0.033848
    66  C   -0.009699
    67  H    0.001631
    68  H    0.036330
    69  H    0.009975
    70  H    0.066554
    71  H    0.055251
    72  H    0.045869
    73  H    0.053914
    74  H    0.047052
    75  H    0.049560
    76  H    0.053563
    77  H    0.080373
    78  H    0.055655
    79  H    0.053948
    80  H    0.073245
    81  H    0.038564
    82  H    0.074948
    83  H    0.046835
    84  H    0.058275
    85  H    0.043404
    86  H    0.044688
    87  H    0.049245
    88  H    0.054123
    89  H    0.049466
    90  H    0.031726
    91  H    0.048246
    92  H    0.054032
    93  H    0.052759
    94  H    0.066386
    95  H    0.044443
    96  H    0.069283
    97  H    0.058565
    98  H    0.080858
    99  H    0.071417
   100  H    0.045945
   101  H    0.064314
   102  H    0.054170
   103  H    0.062020
   104  H    0.029124
   105  H    0.051705
   106  H    0.053502
   107  H    0.031820
   108  H    0.028841
   109  H    0.018653
   110  H    0.025936
   111  H    0.031350
   112  H    0.036489
   113  H    0.030851
   114  H    0.032278
   115  H    0.036975
   116  H    0.029023
   117  H    0.026387
   118  H    0.021326
   119  H    0.034474
   120  H    0.034302
   121  H    0.036424
   122  H    0.022983
   123  H    0.029039
   124  H    0.031669
   125  H    0.026517
   126  H    0.029342
   127  H    0.024658
   128  H    0.030720
   129  H    0.017287
   130  H    0.016907
   131  H    0.028208
   132  H    0.029886
   133  H    0.022016
   134  H    0.036273
   135  H    0.038237
   136  H    0.035703
   137  H    0.029421
   138  H    0.023093
   139  H    0.022243
   140  H    0.035692
 Sum of Mulliken charges =  -0.00000
 Mulliken charges with hydrogens summed into heavy atoms:
               1
     1  Mg   1.002172
     2  C   -0.087545
     3  C   -0.072208
     4  C   -0.011498
     5  C   -0.052195
     6  N   -0.403173
     7  C    0.012768
     8  C   -0.020777
     9  C   -0.088593
    10  C    0.097698
    11  C    0.152314
    12  C    0.120779
    13  C    0.136333
    14  C    0.221049
    15  O   -0.262353
    16  O   -0.384628
    17  N   -0.539329
    18  C    0.185789
    19  C   -0.178854
    20  C   -0.100256
    21  C    0.162042
    22  C    0.234399
    23  C    0.079522
    24  O   -0.272124
    25  C    0.116263
    26  N   -0.442807
    27  C    0.104152
    28  C   -0.067708
    29  C   -0.065303
    30  C    0.086257
    31  C    0.165167
    32  C    0.018102
    33  C    0.118641
    34  N   -0.448779
    35  C    0.128877
    36  C   -0.212848
    37  C   -0.058251
    38  C    0.169613
    39  C    0.223689
    40  C    0.160378
    41  O   -0.182638
    42  C    0.016571
    43  C    0.261287
    44  O   -0.227600
    45  O   -0.363485
    46  C    0.296420
    47  C    0.349532
    48  C   -0.109135
    49  C   -0.217268
    50  C    0.157559
    51  C    0.098354
    52  C   -0.006261
    53  C    0.030028
    54  C   -0.176337
    55  C    0.081732
    56  C    0.027968
    57  C    0.026991
    58  C    0.042377
    59  C   -0.132020
    60  C    0.070301
    61  C    0.030436
    62  C   -0.039826
    63  C    0.089913
    64  C   -0.192515
    65  C    0.069513
    66  C    0.071329
 Electronic spatial extent (au):  <R**2>=         129368.5947
 Charge=             -0.0000 electrons
 Dipole moment (field-independent basis, Debye):
    X=             -2.1883    Y=              3.0609    Z=              0.1744  Tot=              3.7667
 Quadrupole moment (field-independent basis, Debye-Ang):
   XX=           -379.7759   YY=           -414.5719   ZZ=           -409.6718
   XY=            -16.9859   XZ=             22.0069   YZ=              6.4720
 Traceless Quadrupole moment (field-independent basis, Debye-Ang):
   XX=             21.5639   YY=            -13.2320   ZZ=             -8.3319
   XY=            -16.9859   XZ=             22.0069   YZ=              6.4720
 Octapole moment (field-independent basis, Debye-Ang**2):
  XXX=            153.7033  YYY=            139.0602  ZZZ=            -20.6225  XYY=           -126.1503
  XXY=           -317.9061  XXZ=            102.8324  XZZ=              2.3209  YZZ=              0.0765
  YYZ=            -20.0062  XYZ=            -55.8902
 Hexadecapole moment (field-independent basis, Debye-Ang**3):
 XXXX=        -149458.0064 YYYY=         -18469.4476 ZZZZ=          -7421.8562 XXXY=          -3588.2444
 XXXZ=           1252.0514 YYYX=            355.4536 YYYZ=             99.8537 ZZZX=             84.2420
 ZZZY=             86.7431 XXYY=         -29697.0377 XXZZ=         -26653.0142 YYZZ=          -4296.1109
 XXYZ=            461.5235 YYXZ=            194.9951 ZZXY=            101.8800
 N-N= 9.471933937750D+03 E-N=-2.593421617278D+04  KE= 2.974753357392D+03
 Leave Link  601 at Sun May  1 00:21:46 2022, MaxMem= 10066329600 cpu:              12.1 elap:               0.6
 (Enter /sw/apps/gaussian-16.0/g16/l9999.exe)
 1\1\GINC-BP1-COMPUTE165\SP\RPBE1PBE TD-FC\def2SVP\C55H74Mg1N4O6\OF1564
 1\01-May-2022\0\\#p PBE1PBE/Def2SVP td=(nstates=5)\\step_951_chromopho
 re_25 TDDFT with PBE1PBE functional\\0,1\Mg,0,-2.534,34.509,26.894\C,0
 ,-3.425,32.595,29.875\C,0,-1.279,36.824,28.935\C,0,-2.121,36.412,24.05
 5\C,0,-4.073,32.041,25.077\N,0,-2.395,34.632,29.063\C,0,-2.754,33.785,
 30.152\C,0,-2.324,34.285,31.549\C,0,-1.625,35.637,31.132\C,0,-1.755,35
 .685,29.607\C,0,-2.277,36.853,31.855\C,0,-1.401,33.21,32.287\C,0,-1.97
 5,32.771,33.618\C,0,-1.029,32.823,34.783\O,0,-0.177,31.999,35.11\O,0,-
 1.143,34.064,35.405\N,0,-1.726,36.326,26.514\C,0,-1.292,37.196,27.497\
 C,0,-0.779,38.415,26.961\C,0,-1.214,38.322,25.563\C,0,-1.725,37.013,25
 .289\C,0,-0.017,39.485,27.678\C,0,-1.079,39.379,24.469\O,0,-1.439,39.1
 89,23.278\C,0,-0.499,40.761,24.885\N,0,-3.114,34.319,24.942\C,0,-2.704
 ,35.163,23.875\C,0,-3.286,34.746,22.546\C,0,-3.6,33.191,22.865\C,0,-3.
 567,33.151,24.395\C,0,-4.51,35.592,22.043\C,0,-2.657,32.047,22.272\C,0
 ,-1.328,31.617,23.001\N,0,-3.545,32.725,27.315\C,0,-4.152,31.799,26.47
 \C,0,-4.601,30.667,27.163\C,0,-4.455,30.968,28.524\C,0,-3.728,32.196,2
 8.538\C,0,-5.442,29.542,26.652\C,0,-4.675,30.516,29.94\O,0,-5.264,29.5
 42,30.308\C,0,-3.946,31.481,30.885\C,0,-4.931,31.997,31.921\O,0,-5.877
 ,32.716,31.731\O,0,-4.611,31.473,33.159\C,0,-5.633,31.857,34.114\C,0,-
 0.264,34.268,36.565\C,0,-0.907,35.201,37.534\C,0,-0.307,35.896,38.526\
 C,0,1.076,35.723,39.059\C,0,-1.073,36.906,39.334\C,0,-1.674,36.432,40.
 622\C,0,-1.361,37.353,41.904\C,0,-2.458,37.171,42.984\C,0,-3.682,38.04
 7,42.586\C,0,-1.962,37.415,44.457\C,0,-1.687,36.135,45.258\C,0,-0.74,3
 6.443,46.433\C,0,0.628,35.693,46.613\C,0,0.941,35.47,48.021\C,0,1.845,
 36.487,45.957\C,0,2.133,36.006,44.524\C,0,3.216,34.936,44.436\C,0,4.34
 7,35.317,43.416\C,0,4.545,34.203,42.404\C,0,5.667,35.75,44.022\H,0,-0.
 776,37.5,29.629\H,0,-1.998,37.03,23.164\H,0,-4.209,31.105,24.531\H,0,-
 3.227,34.455,32.136\H,0,-0.568,35.642,31.4\H,0,-3.153,36.598,32.452\H,
 0,-2.574,37.541,31.063\H,0,-1.512,37.218,32.541\H,0,-0.401,33.627,32.4
 02\H,0,-1.285,32.37,31.604\H,0,-2.269,31.731,33.475\H,0,-2.846,33.389,
 33.836\H,0,-0.605,40.38,27.476\H,0,1.001,39.588,27.301\H,0,-0.035,39.3
 73,28.762\H,0,-1.202,41.367,25.457\H,0,-0.352,41.26,23.927\H,0,0.491,4
 0.806,25.338\H,0,-2.607,34.697,21.694\H,0,-4.647,32.999,22.63\H,0,-4.1
 86,36.105,21.137\H,0,-4.694,36.375,22.778\H,0,-5.437,35.046,21.871\H,0
 ,-2.278,32.576,21.398\H,0,-3.299,31.236,21.928\H,0,-0.522,31.822,22.29
 5\H,0,-1.447,30.564,23.256\H,0,-1.261,32.222,23.905\H,0,-5.138,29.191,
 25.666\H,0,-6.469,29.908,26.67\H,0,-5.431,28.731,27.38\H,0,-3.097,31.0
 41,31.409\H,0,-5.908,32.91,34.045\H,0,-5.193,31.608,35.08\H,0,-6.503,3
 1.201,34.087\H,0,0.769,34.561,36.377\H,0,-0.112,33.377,37.174\H,0,-1.9
 09,35.442,37.177\H,0,1.109,35.507,40.127\H,0,1.649,36.642,38.935\H,0,1
 .497,34.863,38.537\H,0,-1.879,37.339,38.742\H,0,-0.36,37.68,39.619\H,0
 ,-1.247,35.468,40.896\H,0,-2.739,36.207,40.567\H,0,-1.285,38.379,41.54
 4\H,0,-0.367,37.035,42.219\H,0,-2.796,36.134,43.009\H,0,-3.531,38.583,
 41.649\H,0,-4.,38.718,43.384\H,0,-4.597,37.47,42.451\H,0,-2.85,37.79,4
 4.966\H,0,-1.143,38.133,44.423\H,0,-1.207,35.453,44.555\H,0,-2.673,35.
 809,45.588\H,0,-1.381,36.259,47.295\H,0,-0.507,37.508,46.423\H,0,0.477
 ,34.718,46.15\H,0,0.695,36.325,48.65\H,0,1.994,35.241,48.185\H,0,0.375
 ,34.662,48.484\H,0,2.763,36.594,46.535\H,0,1.483,37.489,45.726\H,0,2.4
 64,36.852,43.921\H,0,1.162,35.827,44.064\H,0,2.82,33.943,44.224\H,0,3.
 626,34.93,45.446\H,0,4.016,36.212,42.889\H,0,3.599,34.057,41.882\H,0,4
 .884,33.285,42.883\H,0,5.351,34.378,41.691\H,0,5.73,35.663,45.106\H,0,
 5.749,36.833,43.929\H,0,6.565,35.322,43.576\\Version=ES64L-G16RevA.03\
 State=1-A\HF=-3005.3722404\RMSD=8.458e-09\PG=C01 [X(C55H74Mg1N4O6)]\\@


 REPARTEE - WHAT YOU THINK OF AFTER YOU BECOME A DEPARTEE.
 Job cpu time:       0 days  8 hours  7 minutes 36.1 seconds.
 Elapsed time:       0 days  0 hours 20 minutes 23.0 seconds.
 File lengths (MBytes):  RWF=   8929 Int=      0 D2E=      0 Chk=    390 Scr=      1
 Normal termination of Gaussian 16 at Sun May  1 00:21:47 2022.
