 Entering Gaussian System, Link 0=g16
 Initial command:
 /sw/apps/gaussian-16.0/g16/l1.exe "/tmp/Gau-118609.inp" -scrdir="/tmp/"
 Entering Link 1 = /sw/apps/gaussian-16.0/g16/l1.exe PID=    118610.
  
 Copyright (c) 1988,1990,1992,1993,1995,1998,2003,2009,2016,
            Gaussian, Inc.  All Rights Reserved.
  
 This is part of the Gaussian(R) 16 program.  It is based on
 the Gaussian(R) 09 system (copyright 2009, Gaussian, Inc.),
 the Gaussian(R) 03 system (copyright 2003, Gaussian, Inc.),
 the Gaussian(R) 98 system (copyright 1998, Gaussian, Inc.),
 the Gaussian(R) 94 system (copyright 1995, Gaussian, Inc.),
 the Gaussian 92(TM) system (copyright 1992, Gaussian, Inc.),
 the Gaussian 90(TM) system (copyright 1990, Gaussian, Inc.),
 the Gaussian 88(TM) system (copyright 1988, Gaussian, Inc.),
 the Gaussian 86(TM) system (copyright 1986, Carnegie Mellon
 University), and the Gaussian 82(TM) system (copyright 1983,
 Carnegie Mellon University). Gaussian is a federally registered
 trademark of Gaussian, Inc.
  
 This software contains proprietary and confidential information,
 including trade secrets, belonging to Gaussian, Inc.
  
 This software is provided under written license and may be
 used, copied, transmitted, or stored only in accord with that
 written license.
  
 The following legend is applicable only to US Government
 contracts under FAR:
  
                    RESTRICTED RIGHTS LEGEND
  
 Use, reproduction and disclosure by the US Government is
 subject to restrictions as set forth in subparagraphs (a)
 and (c) of the Commercial Computer Software - Restricted
 Rights clause in FAR 52.227-19.
  
 Gaussian, Inc.
 340 Quinnipiac St., Bldg. 40, Wallingford CT 06492
  
  
 ---------------------------------------------------------------
 Warning -- This program may not be used in any manner that
 competes with the business of Gaussian, Inc. or will provide
 assistance to any competitor of Gaussian, Inc.  The licensee
 of this program is prohibited from giving any competitor of
 Gaussian, Inc. access to this program.  By using this program,
 the user acknowledges that Gaussian, Inc. is engaged in the
 business of creating and licensing software in the field of
 computational chemistry and represents and warrants to the
 licensee that it is not a competitor of Gaussian, Inc. and that
 it will not use this program in any manner prohibited above.
 ---------------------------------------------------------------
  

 Cite this work as:
 Gaussian 16, Revision A.03,
 M. J. Frisch, G. W. Trucks, H. B. Schlegel, G. E. Scuseria, 
 M. A. Robb, J. R. Cheeseman, G. Scalmani, V. Barone, 
 G. A. Petersson, H. Nakatsuji, X. Li, M. Caricato, A. V. Marenich, 
 J. Bloino, B. G. Janesko, R. Gomperts, B. Mennucci, H. P. Hratchian, 
 J. V. Ortiz, A. F. Izmaylov, J. L. Sonnenberg, D. Williams-Young, 
 F. Ding, F. Lipparini, F. Egidi, J. Goings, B. Peng, A. Petrone, 
 T. Henderson, D. Ranasinghe, V. G. Zakrzewski, J. Gao, N. Rega, 
 G. Zheng, W. Liang, M. Hada, M. Ehara, K. Toyota, R. Fukuda, 
 J. Hasegawa, M. Ishida, T. Nakajima, Y. Honda, O. Kitao, H. Nakai, 
 T. Vreven, K. Throssell, J. A. Montgomery, Jr., J. E. Peralta, 
 F. Ogliaro, M. J. Bearpark, J. J. Heyd, E. N. Brothers, K. N. Kudin, 
 V. N. Staroverov, T. A. Keith, R. Kobayashi, J. Normand, 
 K. Raghavachari, A. P. Rendell, J. C. Burant, S. S. Iyengar, 
 J. Tomasi, M. Cossi, J. M. Millam, M. Klene, C. Adamo, R. Cammi, 
 J. W. Ochterski, R. L. Martin, K. Morokuma, O. Farkas, 
 J. B. Foresman, and D. J. Fox, Gaussian, Inc., Wallingford CT, 2016.
 
 ******************************************
 Gaussian 16:  ES64L-G16RevA.03 25-Dec-2016
                 4-May-2022 
 ******************************************
 %nproc=24
 Will use up to   24 processors via shared memory.
 %mem=50gb
 --------------------
 #p ZINDO=(nstates=5)
 --------------------
 1/38=1,172=1/1;
 2/12=2,17=6,18=5,40=1/2;
 3/5=2,25=1,41=400000/1,2,3,8;
 4/5=3,35=1/1;
 5/5=2,35=1,38=5/2;
 8/6=1,108=5/1;
 9/41=5,42=1,49=10/14;
 6/7=2,8=2,9=2,10=2/1;
 99/5=1,9=1/99;
 Leave Link    1 at Wed May  4 05:03:09 2022, MaxMem=  6710886400 cpu:               1.3 elap:               0.1
 (Enter /sw/apps/gaussian-16.0/g16/l101.exe)
 ------------------------------
 step_1351_chromophore_24 ZINDO
 ------------------------------
 Symbolic Z-matrix:
 Charge =  0 Multiplicity = 1
 Mg                   -0.435     43.653    24.99 
 C                     2.054     43.324    27.403 
 C                    -2.779     42.952    27.554 
 C                    -2.928     43.523    22.605 
 C                     1.94      43.888    22.615 
 N                    -0.388     43.368    27.247 
 C                     0.765     43.239    28.004 
 C                     0.359     43.093    29.442 
 C                    -1.124     42.697    29.453 
 C                    -1.472     42.967    28.032 
 C                    -1.447     41.237    29.867 
 C                     0.574     44.418    30.2 
 C                     0.458     44.247    31.715 
 C                     0.365     42.97     32.354 
 O                     1.29      42.164    32.463 
 O                    -0.846     42.897    33.062 
 N                    -2.543     43.35     25.09 
 C                    -3.305     43.117    26.226 
 C                    -4.7       43.115    25.828 
 C                    -4.771     43.119    24.39 
 C                    -3.378     43.367    23.965 
 C                    -5.833     42.956    26.777 
 C                    -5.967     43.093    23.368 
 O                    -5.885     43.055    22.162 
 C                    -7.275     42.838    24.052 
 N                    -0.396     43.829    22.87 
 C                    -1.545     43.703    22.138 
 C                    -1.149     43.607    20.655 
 C                     0.35      44.061    20.673 
 C                     0.682     43.885    22.152 
 C                    -1.273     42.128    20.098 
 C                     0.735     45.479    20.103 
 C                    -0.084     46.631    20.666 
 N                     1.527     43.604    24.98 
 C                     2.406     43.82     23.934 
 C                     3.764     43.667    24.396 
 C                     3.709     43.521    25.739 
 C                     2.35      43.543    26.052 
 C                     5.        43.558    23.586 
 C                     4.478     43.313    26.996 
 O                     5.667     43.101    27.234 
 C                     3.357     43.288    28.129 
 C                     3.553     41.966    28.791 
 O                     3.011     40.918    28.481 
 O                     4.298     42.251    29.936 
 C                     4.3       41.218    30.933 
 C                    -0.841     41.753    34.025 
 C                    -2.311     41.776    34.527 
 C                    -2.847     42.172    35.747 
 C                    -2.03      42.865    36.748 
 C                    -4.377     42.115    36.014 
 C                    -5.145     43.384    35.417 
 C                    -6.726     43.173    35.069 
 C                    -7.597     43.583    36.282 
 C                    -8.122     44.981    36.101 
 C                    -8.785     42.629    36.504 
 C                    -8.427     41.511    37.51 
 C                    -8.92      41.93     38.913 
 C                    -10.45     41.646    39.169 
 C                    -11.288    42.889    39.426 
 C                    -10.648    40.557    40.233 
 C                    -11.015    39.187    39.66 
 C                    -12.348    38.607    40.156 
 C                    -13.119    37.81     39.026 
 C                    -14.273    38.613    38.342 
 C                    -13.782    36.6      39.687 
 H                    -3.54      42.712    28.3 
 H                    -3.629     43.474    21.769 
 H                     2.735     43.935    21.867 
 H                     1.068     42.331    29.769 
 H                    -1.684     43.346    30.125 
 H                    -0.543     40.709    30.171 
 H                    -1.841     40.643    29.043 
 H                    -2.18      41.325    30.669 
 H                    -0.174     45.136    29.863 
 H                     1.557     44.833    29.979 
 H                    -0.268     44.934    32.148 
 H                     1.399     44.63     32.109 
 H                    -5.668     42.954    27.854 
 H                    -6.255     41.982    26.531 
 H                    -6.553     43.773    26.809 
 H                    -7.539     43.697    24.67 
 H                    -7.299     41.883    24.577 
 H                    -7.96      42.698    23.216 
 H                    -1.716     44.292    20.024 
 H                     1.048     43.402    20.156 
 H                    -2.09      41.73     20.701 
 H                    -0.321     41.621    20.255 
 H                    -1.663     42.178    19.081 
 H                     0.647     45.334    19.026 
 H                     1.73      45.737    20.466 
 H                    -0.328     47.247    19.801 
 H                     0.525     47.181    21.383 
 H                    -1.025     46.394    21.162 
 H                     4.841     43.457    22.513 
 H                     5.499     42.71     24.055 
 H                     5.738     44.346    23.734 
 H                     3.451     44.133    28.811 
 H                     3.338     41.194    31.445 
 H                     5.065     41.405    31.687 
 H                     4.567     40.248    30.514 
 H                    -0.094     41.685    34.816 
 H                    -0.684     40.796    33.527 
 H                    -3.064     41.382    33.845 
 H                    -2.143     42.272    37.656 
 H                    -2.47      43.845    36.938 
 H                    -0.97      42.896    36.498 
 H                    -4.6       42.052    37.079 
 H                    -4.763     41.139    35.721 
 H                    -4.63      43.794    34.549 
 H                    -4.991     44.214    36.106 
 H                    -6.897     42.114    34.878 
 H                    -7.005     43.706    34.16 
 H                    -6.98      43.522    37.179 
 H                    -8.306     45.335    35.087 
 H                    -7.375     45.703    36.432 
 H                    -9.049     45.159    36.646 
 H                    -9.028     42.136    35.563 
 H                    -9.612     43.221    36.898 
 H                    -7.387     41.184    37.483 
 H                    -8.984     40.705    37.033 
 H                    -8.759     42.985    39.139 
 H                    -8.139     41.468    39.517 
 H                    -10.802    41.205    38.237 
 H                    -12.216    42.727    39.974 
 H                    -11.545    43.17     38.404 
 H                    -10.741    43.726    39.86 
 H                    -11.498    40.889    40.829 
 H                    -9.774     40.457    40.876 
 H                    -10.321    38.417    39.997 
 H                    -11.007    39.23     38.571 
 H                    -12.994    39.418    40.492 
 H                    -12.159    37.867    40.933 
 H                    -12.399    37.658    38.221 
 H                    -14.043    38.567    37.277 
 H                    -14.075    39.675    38.485 
 H                    -15.29     38.376    38.653 
 H                    -13.775    36.566    40.777 
 H                    -13.138    35.784    39.359 
 H                    -14.805    36.365    39.394 
 
 ITRead=  0  0  0  0  0  0  0  0  0  0  0  0  0  0  0  0  0  0  0  0
 ITRead=  0  0  0  0  0  0  0  0  0  0  0  0  0  0  0  0  0  0  0  0
 ITRead=  0  0  0  0  0  0  0  0  0  0  0  0  0  0  0  0  0  0  0  0
 ITRead=  0  0  0  0  0  0  0  0  0  0  0  0  0  0  0  0  0  0  0  0
 ITRead=  0  0  0  0  0  0  0  0  0  0  0  0  0  0  0  0  0  0  0  0
 ITRead=  0  0  0  0  0  0  0  0  0  0  0  0  0  0  0  0  0  0  0  0
 ITRead=  0  0  0  0  0  0  0  0  0  0  0  0  0  0  0  0  0  0  0  0
 MicOpt= -1 -1 -1 -1 -1 -1 -1 -1 -1 -1 -1 -1 -1 -1 -1 -1 -1 -1 -1 -1
 MicOpt= -1 -1 -1 -1 -1 -1 -1 -1 -1 -1 -1 -1 -1 -1 -1 -1 -1 -1 -1 -1
 MicOpt= -1 -1 -1 -1 -1 -1 -1 -1 -1 -1 -1 -1 -1 -1 -1 -1 -1 -1 -1 -1
 MicOpt= -1 -1 -1 -1 -1 -1 -1 -1 -1 -1 -1 -1 -1 -1 -1 -1 -1 -1 -1 -1
 MicOpt= -1 -1 -1 -1 -1 -1 -1 -1 -1 -1 -1 -1 -1 -1 -1 -1 -1 -1 -1 -1
 MicOpt= -1 -1 -1 -1 -1 -1 -1 -1 -1 -1 -1 -1 -1 -1 -1 -1 -1 -1 -1 -1
 MicOpt= -1 -1 -1 -1 -1 -1 -1 -1 -1 -1 -1 -1 -1 -1 -1 -1 -1 -1 -1 -1
 NAtoms=    140 NQM=      140 NQMF=       0 NMMI=      0 NMMIF=      0
                NMic=       0 NMicF=      0.
                    Isotopes and Nuclear Properties:
 (Nuclear quadrupole moments (NQMom) in fm**2, nuclear magnetic moments (NMagM)
  in nuclear magnetons)

  Atom         1           2           3           4           5           6           7           8           9          10
 IAtWgt=          24          12          12          12          12          14          12          12          12          12
 AtmWgt=  23.9850450  12.0000000  12.0000000  12.0000000  12.0000000  14.0030740  12.0000000  12.0000000  12.0000000  12.0000000
 NucSpn=           0           0           0           0           0           2           0           0           0           0
 AtZEff=  -0.0000000  -0.0000000  -0.0000000  -0.0000000  -0.0000000  -0.0000000  -0.0000000  -0.0000000  -0.0000000  -0.0000000
 NQMom=    0.0000000   0.0000000   0.0000000   0.0000000   0.0000000   2.0440000   0.0000000   0.0000000   0.0000000   0.0000000
 NMagM=    0.0000000   0.0000000   0.0000000   0.0000000   0.0000000   0.4037610   0.0000000   0.0000000   0.0000000   0.0000000
 AtZNuc=  12.0000000   6.0000000   6.0000000   6.0000000   6.0000000   7.0000000   6.0000000   6.0000000   6.0000000   6.0000000

  Atom        11          12          13          14          15          16          17          18          19          20
 IAtWgt=          12          12          12          12          16          16          14          12          12          12
 AtmWgt=  12.0000000  12.0000000  12.0000000  12.0000000  15.9949146  15.9949146  14.0030740  12.0000000  12.0000000  12.0000000
 NucSpn=           0           0           0           0           0           0           2           0           0           0
 AtZEff=  -0.0000000  -0.0000000  -0.0000000  -0.0000000  -0.0000000  -0.0000000  -0.0000000  -0.0000000  -0.0000000  -0.0000000
 NQMom=    0.0000000   0.0000000   0.0000000   0.0000000   0.0000000   0.0000000   2.0440000   0.0000000   0.0000000   0.0000000
 NMagM=    0.0000000   0.0000000   0.0000000   0.0000000   0.0000000   0.0000000   0.4037610   0.0000000   0.0000000   0.0000000
 AtZNuc=   6.0000000   6.0000000   6.0000000   6.0000000   8.0000000   8.0000000   7.0000000   6.0000000   6.0000000   6.0000000

  Atom        21          22          23          24          25          26          27          28          29          30
 IAtWgt=          12          12          12          16          12          14          12          12          12          12
 AtmWgt=  12.0000000  12.0000000  12.0000000  15.9949146  12.0000000  14.0030740  12.0000000  12.0000000  12.0000000  12.0000000
 NucSpn=           0           0           0           0           0           2           0           0           0           0
 AtZEff=  -0.0000000  -0.0000000  -0.0000000  -0.0000000  -0.0000000  -0.0000000  -0.0000000  -0.0000000  -0.0000000  -0.0000000
 NQMom=    0.0000000   0.0000000   0.0000000   0.0000000   0.0000000   2.0440000   0.0000000   0.0000000   0.0000000   0.0000000
 NMagM=    0.0000000   0.0000000   0.0000000   0.0000000   0.0000000   0.4037610   0.0000000   0.0000000   0.0000000   0.0000000
 AtZNuc=   6.0000000   6.0000000   6.0000000   8.0000000   6.0000000   7.0000000   6.0000000   6.0000000   6.0000000   6.0000000

  Atom        31          32          33          34          35          36          37          38          39          40
 IAtWgt=          12          12          12          14          12          12          12          12          12          12
 AtmWgt=  12.0000000  12.0000000  12.0000000  14.0030740  12.0000000  12.0000000  12.0000000  12.0000000  12.0000000  12.0000000
 NucSpn=           0           0           0           2           0           0           0           0           0           0
 AtZEff=  -0.0000000  -0.0000000  -0.0000000  -0.0000000  -0.0000000  -0.0000000  -0.0000000  -0.0000000  -0.0000000  -0.0000000
 NQMom=    0.0000000   0.0000000   0.0000000   2.0440000   0.0000000   0.0000000   0.0000000   0.0000000   0.0000000   0.0000000
 NMagM=    0.0000000   0.0000000   0.0000000   0.4037610   0.0000000   0.0000000   0.0000000   0.0000000   0.0000000   0.0000000
 AtZNuc=   6.0000000   6.0000000   6.0000000   7.0000000   6.0000000   6.0000000   6.0000000   6.0000000   6.0000000   6.0000000

  Atom        41          42          43          44          45          46          47          48          49          50
 IAtWgt=          16          12          12          16          16          12          12          12          12          12
 AtmWgt=  15.9949146  12.0000000  12.0000000  15.9949146  15.9949146  12.0000000  12.0000000  12.0000000  12.0000000  12.0000000
 NucSpn=           0           0           0           0           0           0           0           0           0           0
 AtZEff=  -0.0000000  -0.0000000  -0.0000000  -0.0000000  -0.0000000  -0.0000000  -0.0000000  -0.0000000  -0.0000000  -0.0000000
 NQMom=    0.0000000   0.0000000   0.0000000   0.0000000   0.0000000   0.0000000   0.0000000   0.0000000   0.0000000   0.0000000
 NMagM=    0.0000000   0.0000000   0.0000000   0.0000000   0.0000000   0.0000000   0.0000000   0.0000000   0.0000000   0.0000000
 AtZNuc=   8.0000000   6.0000000   6.0000000   8.0000000   8.0000000   6.0000000   6.0000000   6.0000000   6.0000000   6.0000000

  Atom        51          52          53          54          55          56          57          58          59          60
 IAtWgt=          12          12          12          12          12          12          12          12          12          12
 AtmWgt=  12.0000000  12.0000000  12.0000000  12.0000000  12.0000000  12.0000000  12.0000000  12.0000000  12.0000000  12.0000000
 NucSpn=           0           0           0           0           0           0           0           0           0           0
 AtZEff=  -0.0000000  -0.0000000  -0.0000000  -0.0000000  -0.0000000  -0.0000000  -0.0000000  -0.0000000  -0.0000000  -0.0000000
 NQMom=    0.0000000   0.0000000   0.0000000   0.0000000   0.0000000   0.0000000   0.0000000   0.0000000   0.0000000   0.0000000
 NMagM=    0.0000000   0.0000000   0.0000000   0.0000000   0.0000000   0.0000000   0.0000000   0.0000000   0.0000000   0.0000000
 AtZNuc=   6.0000000   6.0000000   6.0000000   6.0000000   6.0000000   6.0000000   6.0000000   6.0000000   6.0000000   6.0000000

  Atom        61          62          63          64          65          66          67          68          69          70
 IAtWgt=          12          12          12          12          12          12           1           1           1           1
 AtmWgt=  12.0000000  12.0000000  12.0000000  12.0000000  12.0000000  12.0000000   1.0078250   1.0078250   1.0078250   1.0078250
 NucSpn=           0           0           0           0           0           0           1           1           1           1
 AtZEff=  -0.0000000  -0.0000000  -0.0000000  -0.0000000  -0.0000000  -0.0000000  -0.0000000  -0.0000000  -0.0000000  -0.0000000
 NQMom=    0.0000000   0.0000000   0.0000000   0.0000000   0.0000000   0.0000000   0.0000000   0.0000000   0.0000000   0.0000000
 NMagM=    0.0000000   0.0000000   0.0000000   0.0000000   0.0000000   0.0000000   2.7928460   2.7928460   2.7928460   2.7928460
 AtZNuc=   6.0000000   6.0000000   6.0000000   6.0000000   6.0000000   6.0000000   1.0000000   1.0000000   1.0000000   1.0000000

  Atom        71          72          73          74          75          76          77          78          79          80
 IAtWgt=           1           1           1           1           1           1           1           1           1           1
 AtmWgt=   1.0078250   1.0078250   1.0078250   1.0078250   1.0078250   1.0078250   1.0078250   1.0078250   1.0078250   1.0078250
 NucSpn=           1           1           1           1           1           1           1           1           1           1
 AtZEff=  -0.0000000  -0.0000000  -0.0000000  -0.0000000  -0.0000000  -0.0000000  -0.0000000  -0.0000000  -0.0000000  -0.0000000
 NQMom=    0.0000000   0.0000000   0.0000000   0.0000000   0.0000000   0.0000000   0.0000000   0.0000000   0.0000000   0.0000000
 NMagM=    2.7928460   2.7928460   2.7928460   2.7928460   2.7928460   2.7928460   2.7928460   2.7928460   2.7928460   2.7928460
 AtZNuc=   1.0000000   1.0000000   1.0000000   1.0000000   1.0000000   1.0000000   1.0000000   1.0000000   1.0000000   1.0000000

  Atom        81          82          83          84          85          86          87          88          89          90
 IAtWgt=           1           1           1           1           1           1           1           1           1           1
 AtmWgt=   1.0078250   1.0078250   1.0078250   1.0078250   1.0078250   1.0078250   1.0078250   1.0078250   1.0078250   1.0078250
 NucSpn=           1           1           1           1           1           1           1           1           1           1
 AtZEff=  -0.0000000  -0.0000000  -0.0000000  -0.0000000  -0.0000000  -0.0000000  -0.0000000  -0.0000000  -0.0000000  -0.0000000
 NQMom=    0.0000000   0.0000000   0.0000000   0.0000000   0.0000000   0.0000000   0.0000000   0.0000000   0.0000000   0.0000000
 NMagM=    2.7928460   2.7928460   2.7928460   2.7928460   2.7928460   2.7928460   2.7928460   2.7928460   2.7928460   2.7928460
 AtZNuc=   1.0000000   1.0000000   1.0000000   1.0000000   1.0000000   1.0000000   1.0000000   1.0000000   1.0000000   1.0000000

  Atom        91          92          93          94          95          96          97          98          99         100
 IAtWgt=           1           1           1           1           1           1           1           1           1           1
 AtmWgt=   1.0078250   1.0078250   1.0078250   1.0078250   1.0078250   1.0078250   1.0078250   1.0078250   1.0078250   1.0078250
 NucSpn=           1           1           1           1           1           1           1           1           1           1
 AtZEff=  -0.0000000  -0.0000000  -0.0000000  -0.0000000  -0.0000000  -0.0000000  -0.0000000  -0.0000000  -0.0000000  -0.0000000
 NQMom=    0.0000000   0.0000000   0.0000000   0.0000000   0.0000000   0.0000000   0.0000000   0.0000000   0.0000000   0.0000000
 NMagM=    2.7928460   2.7928460   2.7928460   2.7928460   2.7928460   2.7928460   2.7928460   2.7928460   2.7928460   2.7928460
 AtZNuc=   1.0000000   1.0000000   1.0000000   1.0000000   1.0000000   1.0000000   1.0000000   1.0000000   1.0000000   1.0000000

  Atom       101         102         103         104         105         106         107         108         109         110
 IAtWgt=           1           1           1           1           1           1           1           1           1           1
 AtmWgt=   1.0078250   1.0078250   1.0078250   1.0078250   1.0078250   1.0078250   1.0078250   1.0078250   1.0078250   1.0078250
 NucSpn=           1           1           1           1           1           1           1           1           1           1
 AtZEff=  -0.0000000  -0.0000000  -0.0000000  -0.0000000  -0.0000000  -0.0000000  -0.0000000  -0.0000000  -0.0000000  -0.0000000
 NQMom=    0.0000000   0.0000000   0.0000000   0.0000000   0.0000000   0.0000000   0.0000000   0.0000000   0.0000000   0.0000000
 NMagM=    2.7928460   2.7928460   2.7928460   2.7928460   2.7928460   2.7928460   2.7928460   2.7928460   2.7928460   2.7928460
 AtZNuc=   1.0000000   1.0000000   1.0000000   1.0000000   1.0000000   1.0000000   1.0000000   1.0000000   1.0000000   1.0000000

  Atom       111         112         113         114         115         116         117         118         119         120
 IAtWgt=           1           1           1           1           1           1           1           1           1           1
 AtmWgt=   1.0078250   1.0078250   1.0078250   1.0078250   1.0078250   1.0078250   1.0078250   1.0078250   1.0078250   1.0078250
 NucSpn=           1           1           1           1           1           1           1           1           1           1
 AtZEff=  -0.0000000  -0.0000000  -0.0000000  -0.0000000  -0.0000000  -0.0000000  -0.0000000  -0.0000000  -0.0000000  -0.0000000
 NQMom=    0.0000000   0.0000000   0.0000000   0.0000000   0.0000000   0.0000000   0.0000000   0.0000000   0.0000000   0.0000000
 NMagM=    2.7928460   2.7928460   2.7928460   2.7928460   2.7928460   2.7928460   2.7928460   2.7928460   2.7928460   2.7928460
 AtZNuc=   1.0000000   1.0000000   1.0000000   1.0000000   1.0000000   1.0000000   1.0000000   1.0000000   1.0000000   1.0000000

  Atom       121         122         123         124         125         126         127         128         129         130
 IAtWgt=           1           1           1           1           1           1           1           1           1           1
 AtmWgt=   1.0078250   1.0078250   1.0078250   1.0078250   1.0078250   1.0078250   1.0078250   1.0078250   1.0078250   1.0078250
 NucSpn=           1           1           1           1           1           1           1           1           1           1
 AtZEff=  -0.0000000  -0.0000000  -0.0000000  -0.0000000  -0.0000000  -0.0000000  -0.0000000  -0.0000000  -0.0000000  -0.0000000
 NQMom=    0.0000000   0.0000000   0.0000000   0.0000000   0.0000000   0.0000000   0.0000000   0.0000000   0.0000000   0.0000000
 NMagM=    2.7928460   2.7928460   2.7928460   2.7928460   2.7928460   2.7928460   2.7928460   2.7928460   2.7928460   2.7928460
 AtZNuc=   1.0000000   1.0000000   1.0000000   1.0000000   1.0000000   1.0000000   1.0000000   1.0000000   1.0000000   1.0000000

  Atom       131         132         133         134         135         136         137         138         139         140
 IAtWgt=           1           1           1           1           1           1           1           1           1           1
 AtmWgt=   1.0078250   1.0078250   1.0078250   1.0078250   1.0078250   1.0078250   1.0078250   1.0078250   1.0078250   1.0078250
 NucSpn=           1           1           1           1           1           1           1           1           1           1
 AtZEff=  -0.0000000  -0.0000000  -0.0000000  -0.0000000  -0.0000000  -0.0000000  -0.0000000  -0.0000000  -0.0000000  -0.0000000
 NQMom=    0.0000000   0.0000000   0.0000000   0.0000000   0.0000000   0.0000000   0.0000000   0.0000000   0.0000000   0.0000000
 NMagM=    2.7928460   2.7928460   2.7928460   2.7928460   2.7928460   2.7928460   2.7928460   2.7928460   2.7928460   2.7928460
 AtZNuc=   1.0000000   1.0000000   1.0000000   1.0000000   1.0000000   1.0000000   1.0000000   1.0000000   1.0000000   1.0000000
 Leave Link  101 at Wed May  4 05:03:09 2022, MaxMem=  6710886400 cpu:               2.8 elap:               0.1
 (Enter /sw/apps/gaussian-16.0/g16/l202.exe)
 Stoichiometry    C55H74MgN4O6
 Framework group  C1[X(C55H74MgN4O6)]
 Deg. of freedom   414
 Full point group                 C1      NOp   1
 Largest Abelian subgroup         C1      NOp   1
 Largest concise Abelian subgroup C1      NOp   1
                         Standard orientation:                         
 ---------------------------------------------------------------------
 Center     Atomic      Atomic             Coordinates (Angstroms)
 Number     Number       Type             X           Y           Z
 ---------------------------------------------------------------------
      1         12           0        5.264804    1.048293    0.173536
      2          6           0        4.796411   -2.394086   -0.064302
      3          6           0        1.738315    1.368695    0.028444
      4          6           0        5.635935    4.474336   -0.037797
      5          6           0        8.587041    0.586533   -0.119706
      6          7           0        3.470898   -0.351466    0.181372
      7          6           0        3.541649   -1.728471    0.047387
      8          6           0        2.144547   -2.272279    0.127234
      9          6           0        1.189263   -1.097999   -0.127179
     10          6           0        2.143317    0.037847   -0.013682
     11          6           0        0.439198   -1.098294   -1.485386
     12          6           0        1.886240   -2.893127    1.514403
     13          6           0        0.597381   -3.714871    1.553155
     14          6           0       -0.163696   -4.033254    0.383927
     15          8           0        0.173850   -4.841613   -0.481959
     16          8           0       -1.454300   -3.494305    0.514271
     17          7           0        3.881752    2.668105    0.079468
     18          6           0        2.496420    2.589885    0.066586
     19          6           0        1.978062    3.942790    0.139969
     20          6           0        3.068365    4.866348   -0.036611
     21          6           0        4.272426    4.012597    0.026043
     22          6           0        0.530582    4.273727    0.209636
     23          6           0        3.155999    6.436519   -0.086202
     24          8           0        4.148189    7.097906   -0.288022
     25          6           0        1.797601    7.066277   -0.129832
     26          7           0        6.984819    2.296219    0.068062
     27          6           0        6.856308    3.653491   -0.046831
     28          6           0        8.244472    4.231009   -0.370548
     29          6           0        9.195666    3.026816   -0.056558
     30          6           0        8.201336    1.869313   -0.068247
     31          6           0        8.374347    4.657195   -1.891917
     32          6           0       10.098817    3.071447    1.234246
     33          6           0        9.350354    3.392120    2.519472
     34          7           0        6.434143   -0.511321   -0.054923
     35          6           0        7.815656   -0.580802   -0.057782
     36          6           0        8.236988   -1.943663   -0.272505
     37          6           0        7.123846   -2.710243   -0.236995
     38          6           0        6.071057   -1.814542   -0.050738
     39          6           0        9.593903   -2.442118   -0.598081
     40          6           0        6.559622   -4.082754   -0.348967
     41          8           0        7.047208   -5.176084   -0.635671
     42          6           0        4.995714   -3.871542   -0.124166
     43          6           0        4.381618   -4.434625   -1.361166
     44          8           0        4.136345   -3.821359   -2.386795
     45          8           0        3.969488   -5.717627   -0.998770
     46          6           0        3.021931   -6.326215   -1.889195
     47          6           0       -2.390919   -4.085430   -0.490441
     48          6           0       -3.658478   -3.215101   -0.268504
     49          6           0       -4.875438   -3.520644    0.329963
     50          6           0       -5.066561   -4.771928    1.069896
     51          6           0       -6.006458   -2.461239    0.447823
     52          6           0       -5.792821   -1.481282    1.693069
     53          6           0       -6.494549   -0.011326    1.583555
     54          6           0       -7.903419   -0.045293    2.225460
     55          6           0       -7.851968    0.490750    3.630024
     56          6           0       -8.937542    0.763207    1.420685
     57          6           0       -9.693516   -0.135328    0.415069
     58          6           0      -11.025257   -0.585365    1.056124
     59          6           0      -12.183640    0.479362    0.948433
     60          6           0      -12.688105    1.000190    2.285443
     61          6           0      -13.312014   -0.010371    0.029656
     62          6           0      -13.297062    0.619963   -1.364035
     63          6           0      -14.573940    1.381127   -1.750711
     64          6           0      -14.270358    2.672877   -2.614291
     65          6           0      -14.292217    4.010559   -1.805273
     66          6           0      -15.377810    2.796387   -3.662568
     67          1           0        0.659472    1.524745   -0.042157
     68          1           0        5.868494    5.537315   -0.131014
     69          1           0        9.657094    0.403449   -0.243015
     70          1           0        2.188743   -3.039471   -0.647180
     71          1           0        0.429528   -1.052576    0.652003
     72          1           0        0.654841   -2.005850   -2.049528
     73          1           0        0.758783   -0.290629   -2.143102
     74          1           0       -0.614993   -0.996451   -1.227417
     75          1           0        1.819692   -2.089045    2.247628
     76          1           0        2.711877   -3.541781    1.805826
     77          1           0       -0.067112   -3.392709    2.353901
     78          1           0        0.908788   -4.700949    1.896787
     79          1           0       -0.219209    3.492810    0.332680
     80          1           0        0.318184    4.753097   -0.745544
     81          1           0        0.205956    4.833592    1.086039
     82          1           0        1.290097    6.909304    0.822691
     83          1           0        1.218480    6.763425   -1.002257
     84          1           0        2.025254    8.115966   -0.314352
     85          1           0        8.511988    5.067728    0.275371
     86          1           0        9.914041    2.777793   -0.838031
     87          1           0        7.349628    4.943219   -2.132007
     88          1           0        8.737645    3.800082   -2.458816
     89          1           0        8.950436    5.581732   -1.939266
     90          1           0       10.871170    3.790082    0.959050
     91          1           0       10.446972    2.060253    1.445512
     92          1           0        9.983613    4.111805    3.037404
     93          1           0        9.236144    2.477170    3.100240
     94          1           0        8.361515    3.842509    2.435724
     95          1           0       10.327777   -1.668994   -0.822845
     96          1           0        9.387523   -3.127864   -1.419802
     97          1           0       10.042249   -3.115599    0.131920
     98          1           0        4.648956   -4.352804    0.790236
     99          1           0        2.041782   -5.867488   -1.758651
    100          1           0        2.913960   -7.390027   -1.676225
    101          1           0        3.356958   -6.292241   -2.925705
    102          1           0       -2.579207   -5.158657   -0.522783
    103          1           0       -2.057195   -3.915994   -1.514366
    104          1           0       -3.632881   -2.205462   -0.677579
    105          1           0       -5.942772   -5.232574    0.612794
    106          1           0       -5.322833   -4.529767    2.102263
    107          1           0       -4.233143   -5.466748    0.971404
    108          1           0       -6.987709   -2.925712    0.544436
    109          1           0       -6.160721   -1.982269   -0.518723
    110          1           0       -4.737567   -1.366537    1.938064
    111          1           0       -6.111712   -2.014721    2.588105
    112          1           0       -6.614148    0.234139    0.528735
    113          1           0       -5.860683    0.762329    2.017008
    114          1           0       -8.251511   -1.078661    2.225659
    115          1           0       -7.107237    1.250877    3.864437
    116          1           0       -7.552788   -0.300613    4.317840
    117          1           0       -8.805182    0.902824    3.961108
    118          1           0       -8.419841    1.521514    0.833714
    119          1           0       -9.646600    1.188914    2.131768
    120          1           0       -9.104369   -0.950689   -0.006059
    121          1           0       -9.777866    0.591976   -0.391980
    122          1           0      -10.939804   -0.843975    2.112457
    123          1           0      -11.108600   -1.575259    0.607364
    124          1           0      -11.729730    1.319508    0.423905
    125          1           0      -13.698229    1.409292    2.281322
    126          1           0      -11.992164    1.822960    2.453394
    127          1           0      -12.570946    0.306965    3.118418
    128          1           0      -14.235050    0.310412    0.512401
    129          1           0      -13.313191   -1.095887   -0.065099
    130          1           0      -13.270947   -0.141336   -2.143680
    131          1           0      -12.428220    1.270325   -1.463924
    132          1           0      -15.094724    1.698653   -0.847442
    133          1           0      -15.190379    0.757659   -2.397502
    134          1           0      -13.231709    2.582845   -2.934653
    135          1           0      -13.324090    4.468819   -2.010141
    136          1           0      -14.118266    3.772506   -0.756193
    137          1           0      -15.180717    4.633110   -1.906153
    138          1           0      -16.237072    2.133507   -3.555030
    139          1           0      -14.865309    2.475605   -4.569551
    140          1           0      -15.794105    3.787854   -3.839472
 ---------------------------------------------------------------------
 Rotational constants (GHZ):           0.0429019           0.0100334           0.0085335
 Leave Link  202 at Wed May  4 05:03:09 2022, MaxMem=  6710886400 cpu:               0.2 elap:               0.0
 (Enter /sw/apps/gaussian-16.0/g16/l301.exe)
 Standard basis: VSTO-6G (5D, 7F)
 Ernie: Thresh=  0.10000D-02 Tol=  0.10000D-05 Strict=F.
 There are   338 symmetry adapted cartesian basis functions of A   symmetry.
 There are   338 symmetry adapted basis functions of A   symmetry.
   338 basis functions,  2028 primitive gaussians,   338 cartesian basis functions
   176 alpha electrons      176 beta electrons
       nuclear repulsion energy      4816.9677427936 Hartrees.
 IExCor=    0 DFT=F Ex=HF Corr=None ExCW=0 ScaHFX=  1.000000
 ScaDFX=  1.000000  1.000000  1.000000  1.000000 ScalE2=  1.000000  1.000000
 IRadAn=      5 IRanWt=     -1 IRanGd=            0 ICorTp=0 IEmpDi=  4
 Integral buffers will be    131072 words long.
 Regular integral format.
 Two-electron integral symmetry is turned off.
 Leave Link  301 at Wed May  4 05:03:09 2022, MaxMem=  6710886400 cpu:               1.2 elap:               0.1
 (Enter /sw/apps/gaussian-16.0/g16/l302.exe)
 Do NDO integrals.
 NPDir=0 NMtPBC=     1 NCelOv=     1 NCel=       1 NClECP=     1 NCelD=      1
         NCelK=      1 NCelE2=     1 NClLst=     1 CellRange=     0.0.
 One-electron integrals computed using PRISM.
 Generate ZINDO/S integrals.
 NDO Nuclear repulsion=  4326.353337355569 Hartrees.
 NBasis=   338 RedAO= F EigKep=  0.00D+00  NBF=   338
 NBsUse=   338 1.00D-04 EigRej=  0.00D+00 NBFU=   338
 Leave Link  302 at Wed May  4 05:03:10 2022, MaxMem=  6710886400 cpu:               8.0 elap:               0.4
 (Enter /sw/apps/gaussian-16.0/g16/l303.exe)
 DipDrv:  MaxL=1.
 DipDrv:  will hold  3 matrices at once.
 Leave Link  303 at Wed May  4 05:03:10 2022, MaxMem=  6710886400 cpu:               0.5 elap:               0.0
 (Enter /sw/apps/gaussian-16.0/g16/l308.exe)
 Leave Link  308 at Wed May  4 05:03:10 2022, MaxMem=  6710886400 cpu:               5.5 elap:               0.3
 (Enter /sw/apps/gaussian-16.0/g16/l401.exe)
 Simple Huckel Guess.
 JPrj=0 DoOrth=F DoCkMO=F.
 Leave Link  401 at Wed May  4 05:03:10 2022, MaxMem=  6710886400 cpu:               2.9 elap:               0.1
 (Enter /sw/apps/gaussian-16.0/g16/l502.exe)
 Two-electron integral symmetry not used.
 Closed shell SCF:
 Using DIIS extrapolation, IDIIS=  1040.
 Overlap will be assumed to be unity.
 NGot=  6710886400 LenX=  6710643598 LenY=  6710528913
 Requested convergence on RMS density matrix=1.00D-08 within 128 cycles.
 Requested convergence on MAX density matrix=1.00D-06.
 Requested convergence on             energy=1.00D-06.
 No special actions if energy rises.
 Fock matrices will be formed incrementally for  20 cycles.

 Cycle   1  Pass 1  IDiag  1:
 E= -472.393283447596    
 DIIS: error= 5.32D-02 at cycle   1 NSaved=   1.
 NSaved= 1 IEnMin= 1 EnMin= -472.393283447596     IErMin= 1 ErrMin= 5.32D-02
 ErrMax= 5.32D-02  0.00D+00 EMaxC= 1.00D-01 BMatC= 8.36D-01 BMatP= 8.36D-01
 IDIUse=3 WtCom= 4.68D-01 WtEn= 5.32D-01
 Coeff-Com:  0.100D+01
 Coeff-En:   0.100D+01
 Coeff:      0.100D+01
 GapD=    2.000 DampG=2.000 DampE=0.500 DampFc=1.0000 IDamp=-1.
 RMSDP=4.03D-03 MaxDP=1.57D-01              OVMax= 0.00D+00

 Cycle   2  Pass 1  IDiag  1:
 RMSU=  4.02D-03    CP:  9.95D-01
 E= -474.237841435373     Delta-E=       -1.844557987776 Rises=F Damp=F
 DIIS: error= 1.92D-02 at cycle   2 NSaved=   2.
 NSaved= 2 IEnMin= 2 EnMin= -474.237841435373     IErMin= 2 ErrMin= 1.92D-02
 ErrMax= 1.92D-02  0.00D+00 EMaxC= 1.00D-01 BMatC= 5.35D-02 BMatP= 8.36D-01
 IDIUse=3 WtCom= 8.08D-01 WtEn= 1.92D-01
 Coeff-Com: -0.681D-01 0.107D+01
 Coeff-En:   0.000D+00 0.100D+01
 Coeff:     -0.550D-01 0.106D+01
 RMSDP=1.17D-03 MaxDP=5.94D-02 DE=-1.84D+00 OVMax= 0.00D+00

 Cycle   3  Pass 1  IDiag  1:
 RMSU=  1.11D-03    CP:  9.93D-01  1.09D+00
 E= -474.341453411761     Delta-E=       -0.103611976388 Rises=F Damp=F
 DIIS: error= 8.03D-03 at cycle   3 NSaved=   3.
 NSaved= 3 IEnMin= 3 EnMin= -474.341453411761     IErMin= 3 ErrMin= 8.03D-03
 ErrMax= 8.03D-03  0.00D+00 EMaxC= 1.00D-01 BMatC= 7.99D-03 BMatP= 5.35D-02
 IDIUse=3 WtCom= 9.20D-01 WtEn= 8.03D-02
 Coeff-Com: -0.696D-01 0.250D+00 0.819D+00
 Coeff-En:   0.000D+00 0.000D+00 0.100D+01
 Coeff:     -0.640D-01 0.230D+00 0.834D+00
 RMSDP=4.28D-04 MaxDP=2.26D-02 DE=-1.04D-01 OVMax= 0.00D+00

 Cycle   4  Pass 1  IDiag  1:
 RMSU=  2.81D-04    CP:  9.93D-01  1.16D+00  8.74D-01
 E= -474.355610283618     Delta-E=       -0.014156871857 Rises=F Damp=F
 DIIS: error= 1.66D-03 at cycle   4 NSaved=   4.
 NSaved= 4 IEnMin= 4 EnMin= -474.355610283618     IErMin= 4 ErrMin= 1.66D-03
 ErrMax= 1.66D-03  0.00D+00 EMaxC= 1.00D-01 BMatC= 3.88D-04 BMatP= 7.99D-03
 IDIUse=3 WtCom= 9.83D-01 WtEn= 1.66D-02
 Coeff-Com: -0.490D-02-0.170D-01 0.851D-01 0.937D+00
 Coeff-En:   0.000D+00 0.000D+00 0.000D+00 0.100D+01
 Coeff:     -0.482D-02-0.167D-01 0.837D-01 0.938D+00
 RMSDP=1.51D-04 MaxDP=8.41D-03 DE=-1.42D-02 OVMax= 0.00D+00

 Cycle   5  Pass 1  IDiag  1:
 RMSU=  9.70D-05    CP:  9.92D-01  1.16D+00  9.75D-01  9.16D-01
 E= -474.356712633468     Delta-E=       -0.001102349850 Rises=F Damp=F
 DIIS: error= 6.84D-04 at cycle   5 NSaved=   5.
 NSaved= 5 IEnMin= 5 EnMin= -474.356712633468     IErMin= 5 ErrMin= 6.84D-04
 ErrMax= 6.84D-04  0.00D+00 EMaxC= 1.00D-01 BMatC= 7.66D-05 BMatP= 3.88D-04
 IDIUse=3 WtCom= 9.93D-01 WtEn= 6.84D-03
 Coeff-Com:  0.685D-02-0.296D-01-0.985D-01 0.211D+00 0.911D+00
 Coeff-En:   0.000D+00 0.000D+00 0.000D+00 0.000D+00 0.100D+01
 Coeff:      0.680D-02-0.294D-01-0.978D-01 0.209D+00 0.911D+00
 RMSDP=6.64D-05 MaxDP=3.70D-03 DE=-1.10D-03 OVMax= 0.00D+00

 Cycle   6  Pass 1  IDiag  1:
 RMSU=  3.29D-05    CP:  9.92D-01  1.17D+00  9.83D-01  1.11D+00  9.87D-01
 E= -474.356949672575     Delta-E=       -0.000237039107 Rises=F Damp=F
 DIIS: error= 2.30D-04 at cycle   6 NSaved=   6.
 NSaved= 6 IEnMin= 6 EnMin= -474.356949672575     IErMin= 6 ErrMin= 2.30D-04
 ErrMax= 2.30D-04  0.00D+00 EMaxC= 1.00D-01 BMatC= 7.40D-06 BMatP= 7.66D-05
 IDIUse=3 WtCom= 9.98D-01 WtEn= 2.30D-03
 Coeff-Com:  0.487D-03 0.294D-02-0.223D-01-0.821D-01 0.784D-01 0.102D+01
 Coeff-En:   0.000D+00 0.000D+00 0.000D+00 0.000D+00 0.000D+00 0.100D+01
 Coeff:      0.486D-03 0.294D-02-0.223D-01-0.819D-01 0.782D-01 0.102D+01
 RMSDP=2.36D-05 MaxDP=1.52D-03 DE=-2.37D-04 OVMax= 0.00D+00

 Cycle   7  Pass 1  IDiag  1:
 RMSU=  1.11D-05    CP:  9.92D-01  1.17D+00  9.92D-01  1.13D+00  1.15D+00
                    CP:  1.22D+00
 E= -474.356977481168     Delta-E=       -0.000027808593 Rises=F Damp=F
 DIIS: error= 7.78D-05 at cycle   7 NSaved=   7.
 NSaved= 7 IEnMin= 7 EnMin= -474.356977481168     IErMin= 7 ErrMin= 7.78D-05
 ErrMax= 7.78D-05  0.00D+00 EMaxC= 1.00D-01 BMatC= 8.06D-07 BMatP= 7.40D-06
 IDIUse=1 WtCom= 1.00D+00 WtEn= 0.00D+00
 Coeff-Com: -0.654D-03 0.367D-02 0.535D-02-0.285D-01-0.836D-01 0.838D-01
 Coeff-Com:  0.102D+01
 Coeff:     -0.654D-03 0.367D-02 0.535D-02-0.285D-01-0.836D-01 0.838D-01
 Coeff:      0.102D+01
 RMSDP=1.16D-05 MaxDP=9.59D-04 DE=-2.78D-05 OVMax= 0.00D+00

 Cycle   8  Pass 1  IDiag  1:
 RMSU=  5.38D-06    CP:  9.92D-01  1.17D+00  9.93D-01  1.14D+00  1.19D+00
                    CP:  1.45D+00  1.42D+00
 E= -474.356982953088     Delta-E=       -0.000005471920 Rises=F Damp=F
 DIIS: error= 3.86D-05 at cycle   8 NSaved=   8.
 NSaved= 8 IEnMin= 8 EnMin= -474.356982953088     IErMin= 8 ErrMin= 3.86D-05
 ErrMax= 3.86D-05  0.00D+00 EMaxC= 1.00D-01 BMatC= 2.15D-07 BMatP= 8.06D-07
 IDIUse=1 WtCom= 1.00D+00 WtEn= 0.00D+00
 Coeff-Com: -0.370D-04-0.623D-03 0.284D-02 0.171D-01-0.129D-01-0.181D+00
 Coeff-Com:  0.771D-01 0.110D+01
 Coeff:     -0.370D-04-0.623D-03 0.284D-02 0.171D-01-0.129D-01-0.181D+00
 Coeff:      0.771D-01 0.110D+01
 RMSDP=7.95D-06 MaxDP=5.61D-04 DE=-5.47D-06 OVMax= 0.00D+00

 Cycle   9  Pass 1  IDiag  1:
 RMSU=  2.51D-06    CP:  9.92D-01  1.17D+00  9.94D-01  1.14D+00  1.21D+00
                    CP:  1.55D+00  1.92D+00  1.55D+00
 E= -474.356985030500     Delta-E=       -0.000002077412 Rises=F Damp=F
 DIIS: error= 2.27D-05 at cycle   9 NSaved=   9.
 NSaved= 9 IEnMin= 9 EnMin= -474.356985030500     IErMin= 9 ErrMin= 2.27D-05
 ErrMax= 2.27D-05  0.00D+00 EMaxC= 1.00D-01 BMatC= 6.94D-08 BMatP= 2.15D-07
 IDIUse=1 WtCom= 1.00D+00 WtEn= 0.00D+00
 Coeff-Com:  0.182D-03-0.910D-03-0.183D-02 0.604D-02 0.221D-01-0.748D-02
 Coeff-Com: -0.275D+00-0.137D+00 0.139D+01
 Coeff:      0.182D-03-0.910D-03-0.183D-02 0.604D-02 0.221D-01-0.748D-02
 Coeff:     -0.275D+00-0.137D+00 0.139D+01
 RMSDP=7.41D-06 MaxDP=4.90D-04 DE=-2.08D-06 OVMax= 0.00D+00

 Cycle  10  Pass 1  IDiag  1:
 RMSU=  1.19D-06    CP:  9.92D-01  1.17D+00  9.94D-01  1.15D+00  1.22D+00
                    CP:  1.64D+00  2.34D+00  2.27D+00  2.09D+00
 E= -474.356986168662     Delta-E=       -0.000001138162 Rises=F Damp=F
 DIIS: error= 9.62D-06 at cycle  10 NSaved=  10.
 NSaved=10 IEnMin=10 EnMin= -474.356986168662     IErMin=10 ErrMin= 9.62D-06
 ErrMax= 9.62D-06  0.00D+00 EMaxC= 1.00D-01 BMatC= 2.17D-08 BMatP= 6.94D-08
 IDIUse=1 WtCom= 1.00D+00 WtEn= 0.00D+00
 Coeff-Com: -0.186D-04 0.302D-03-0.540D-03-0.582D-02 0.279D-02 0.517D-01
 Coeff-Com:  0.210D-02-0.164D+00-0.389D+00 0.150D+01
 Coeff:     -0.186D-04 0.302D-03-0.540D-03-0.582D-02 0.279D-02 0.517D-01
 Coeff:      0.210D-02-0.164D+00-0.389D+00 0.150D+01
 RMSDP=5.18D-06 MaxDP=2.56D-04 DE=-1.14D-06 OVMax= 0.00D+00

 Cycle  11  Pass 1  IDiag  1:
 RMSU=  7.71D-07    CP:  9.92D-01  1.17D+00  9.94D-01  1.15D+00  1.23D+00
                    CP:  1.68D+00  2.61D+00  2.74D+00  3.00D+00  2.05D+00
 E= -474.356986625003     Delta-E=       -0.000000456341 Rises=F Damp=F
 DIIS: error= 7.27D-06 at cycle  11 NSaved=  11.
 NSaved=11 IEnMin=11 EnMin= -474.356986625003     IErMin=11 ErrMin= 7.27D-06
 ErrMax= 7.27D-06  0.00D+00 EMaxC= 1.00D-01 BMatC= 8.94D-09 BMatP= 2.17D-08
 IDIUse=1 WtCom= 1.00D+00 WtEn= 0.00D+00
 Coeff-Com: -0.488D-04 0.216D-03 0.695D-03-0.173D-02-0.528D-02-0.370D-02
 Coeff-Com:  0.560D-01 0.152D+00-0.606D+00-0.117D+00 0.152D+01
 Coeff:     -0.488D-04 0.216D-03 0.695D-03-0.173D-02-0.528D-02-0.370D-02
 Coeff:      0.560D-01 0.152D+00-0.606D+00-0.117D+00 0.152D+01
 RMSDP=4.48D-06 MaxDP=2.27D-04 DE=-4.56D-07 OVMax= 0.00D+00

 Cycle  12  Pass 1  IDiag  1:
 RMSU=  1.81D-06    CP:  9.92D-01  1.17D+00  9.94D-01  1.15D+00  1.23D+00
                    CP:  1.71D+00  2.82D+00  3.00D+00  3.00D+00  3.00D+00
                    CP:  3.00D+00
 E= -474.356986814337     Delta-E=       -0.000000189334 Rises=F Damp=F
 DIIS: error= 3.77D-06 at cycle  12 NSaved=  12.
 NSaved=12 IEnMin=12 EnMin= -474.356986814337     IErMin=12 ErrMin= 3.77D-06
 ErrMax= 3.77D-06  0.00D+00 EMaxC= 1.00D-01 BMatC= 1.80D-09 BMatP= 8.94D-09
 IDIUse=1 WtCom= 1.00D+00 WtEn= 0.00D+00
 Coeff-Com:  0.149D-04-0.139D-03 0.137D-03 0.185D-02 0.783D-03-0.157D-01
 Coeff-Com: -0.204D-01 0.993D-01 0.145D+00-0.447D+00-0.161D+00 0.140D+01
 Coeff:      0.149D-04-0.139D-03 0.137D-03 0.185D-02 0.783D-03-0.157D-01
 Coeff:     -0.204D-01 0.993D-01 0.145D+00-0.447D+00-0.161D+00 0.140D+01
 RMSDP=1.58D-06 MaxDP=1.05D-04 DE=-1.89D-07 OVMax= 0.00D+00

 Cycle  13  Pass 1  IDiag  1:
 RMSU=  9.85D-07    CP:  9.92D-01  1.17D+00  9.94D-01  1.15D+00  1.23D+00
                    CP:  1.72D+00  2.88D+00  3.00D+00  3.00D+00  3.00D+00
                    CP:  3.00D+00  1.56D+00
 E= -474.356986838648     Delta-E=       -0.000000024312 Rises=F Damp=F
 DIIS: error= 1.11D-06 at cycle  13 NSaved=  13.
 NSaved=13 IEnMin=13 EnMin= -474.356986838648     IErMin=13 ErrMin= 1.11D-06
 ErrMax= 1.11D-06  0.00D+00 EMaxC= 1.00D-01 BMatC= 1.57D-10 BMatP= 1.80D-09
 IDIUse=1 WtCom= 1.00D+00 WtEn= 0.00D+00
 Coeff-Com:  0.100D-04-0.563D-04-0.902D-04 0.511D-03 0.132D-02-0.183D-02
 Coeff-Com: -0.165D-01 0.946D-03 0.962D-01-0.399D-01-0.238D+00 0.193D+00
 Coeff-Com:  0.100D+01
 Coeff:      0.100D-04-0.563D-04-0.902D-04 0.511D-03 0.132D-02-0.183D-02
 Coeff:     -0.165D-01 0.946D-03 0.962D-01-0.399D-01-0.238D+00 0.193D+00
 Coeff:      0.100D+01
 RMSDP=3.82D-07 MaxDP=2.75D-05 DE=-2.43D-08 OVMax= 0.00D+00

 Cycle  14  Pass 1  IDiag  1:
 RMSU=  7.51D-08    CP:  9.92D-01  1.17D+00  9.94D-01  1.15D+00  1.23D+00
                    CP:  1.72D+00  2.90D+00  3.00D+00  3.00D+00  3.00D+00
                    CP:  3.00D+00  1.68D+00  1.24D+00
 E= -474.356986840202     Delta-E=       -0.000000001553 Rises=F Damp=F
 DIIS: error= 3.33D-07 at cycle  14 NSaved=  14.
 NSaved=14 IEnMin=14 EnMin= -474.356986840202     IErMin=14 ErrMin= 3.33D-07
 ErrMax= 3.33D-07  0.00D+00 EMaxC= 1.00D-01 BMatC= 2.06D-11 BMatP= 1.57D-10
 IDIUse=1 WtCom= 1.00D+00 WtEn= 0.00D+00
 Coeff-Com: -0.156D-05 0.143D-04-0.238D-04-0.197D-03 0.572D-04 0.163D-02
 Coeff-Com:  0.436D-03-0.770D-02-0.164D-01 0.515D-01 0.496D-02-0.161D+00
 Coeff-Com:  0.741D-01 0.105D+01
 Coeff:     -0.156D-05 0.143D-04-0.238D-04-0.197D-03 0.572D-04 0.163D-02
 Coeff:      0.436D-03-0.770D-02-0.164D-01 0.515D-01 0.496D-02-0.161D+00
 Coeff:      0.741D-01 0.105D+01
 RMSDP=9.11D-08 MaxDP=6.16D-06 DE=-1.55D-09 OVMax= 0.00D+00

 Cycle  15  Pass 1  IDiag  1:
 RMSU=  3.10D-08    CP:  9.92D-01  1.17D+00  9.94D-01  1.15D+00  1.23D+00
                    CP:  1.72D+00  2.90D+00  3.00D+00  3.00D+00  3.00D+00
                    CP:  3.00D+00  1.71D+00  1.30D+00  1.32D+00
 E= -474.356986840333     Delta-E=       -0.000000000131 Rises=F Damp=F
 DIIS: error= 2.01D-07 at cycle  15 NSaved=  15.
 NSaved=15 IEnMin=15 EnMin= -474.356986840333     IErMin=15 ErrMin= 2.01D-07
 ErrMax= 2.01D-07  0.00D+00 EMaxC= 1.00D-01 BMatC= 2.51D-12 BMatP= 2.06D-11
 IDIUse=1 WtCom= 1.00D+00 WtEn= 0.00D+00
 Coeff-Com: -0.163D-05 0.948D-05 0.113D-04-0.864D-04-0.191D-03 0.432D-03
 Coeff-Com:  0.220D-02 0.708D-03-0.172D-01 0.117D-01 0.333D-01-0.407D-01
 Coeff-Com: -0.124D+00 0.890D-01 0.105D+01
 Coeff:     -0.163D-05 0.948D-05 0.113D-04-0.864D-04-0.191D-03 0.432D-03
 Coeff:      0.220D-02 0.708D-03-0.172D-01 0.117D-01 0.333D-01-0.407D-01
 Coeff:     -0.124D+00 0.890D-01 0.105D+01
 RMSDP=2.34D-08 MaxDP=1.33D-06 DE=-1.31D-10 OVMax= 0.00D+00

 Cycle  16  Pass 1  IDiag  1:
 RMSU=  9.54D-09    CP:  9.92D-01  1.17D+00  9.94D-01  1.15D+00  1.23D+00
                    CP:  1.72D+00  2.90D+00  3.00D+00  3.00D+00  3.00D+00
                    CP:  3.00D+00  1.71D+00  1.30D+00  1.52D+00  1.42D+00
 E= -474.356986840348     Delta-E=       -0.000000000015 Rises=F Damp=F
 DIIS: error= 1.15D-07 at cycle  16 NSaved=  16.
 NSaved=16 IEnMin=16 EnMin= -474.356986840348     IErMin=16 ErrMin= 1.15D-07
 ErrMax= 1.15D-07  0.00D+00 EMaxC= 1.00D-01 BMatC= 5.74D-13 BMatP= 2.51D-12
 IDIUse=1 WtCom= 1.00D+00 WtEn= 0.00D+00
 Coeff-Com:  0.478D-06-0.349D-05 0.245D-05 0.445D-04-0.484D-05-0.223D-03
 Coeff-Com: -0.561D-03 0.136D-02 0.351D-02-0.708D-02-0.650D-02 0.273D-01
 Coeff-Com:  0.966D-02-0.139D+00-0.207D+00 0.132D+01
 Coeff:      0.478D-06-0.349D-05 0.245D-05 0.445D-04-0.484D-05-0.223D-03
 Coeff:     -0.561D-03 0.136D-02 0.351D-02-0.708D-02-0.650D-02 0.273D-01
 Coeff:      0.966D-02-0.139D+00-0.207D+00 0.132D+01
 RMSDP=1.54D-08 MaxDP=8.81D-07 DE=-1.55D-11 OVMax= 0.00D+00

 Cycle  17  Pass 1  IDiag  1:
 RMSU=  6.10D-09    CP:  9.92D-01  1.17D+00  9.94D-01  1.15D+00  1.23D+00
                    CP:  1.72D+00  2.90D+00  3.00D+00  3.00D+00  3.00D+00
                    CP:  3.00D+00  1.71D+00  1.30D+00  1.60D+00  1.70D+00
                    CP:  1.77D+00
 E= -474.356986840350     Delta-E=       -0.000000000002 Rises=F Damp=F
 DIIS: error= 5.09D-08 at cycle  17 NSaved=  17.
 NSaved=17 IEnMin=17 EnMin= -474.356986840350     IErMin=17 ErrMin= 5.09D-08
 ErrMax= 5.09D-08  0.00D+00 EMaxC= 1.00D-01 BMatC= 2.22D-13 BMatP= 5.74D-13
 IDIUse=1 WtCom= 1.00D+00 WtEn= 0.00D+00
 Coeff-Com:  0.371D-06-0.227D-05-0.226D-05 0.254D-04 0.233D-04-0.662D-04
 Coeff-Com: -0.595D-03 0.258D-03 0.346D-02-0.249D-02-0.768D-02 0.995D-02
 Coeff-Com:  0.245D-01-0.197D-01-0.257D+00 0.901D-01 0.116D+01
 Coeff:      0.371D-06-0.227D-05-0.226D-05 0.254D-04 0.233D-04-0.662D-04
 Coeff:     -0.595D-03 0.258D-03 0.346D-02-0.249D-02-0.768D-02 0.995D-02
 Coeff:      0.245D-01-0.197D-01-0.257D+00 0.901D-01 0.116D+01
 RMSDP=1.08D-08 MaxDP=5.47D-07 DE=-1.82D-12 OVMax= 0.00D+00

 Cycle  18  Pass 1  IDiag  1:
 RMSU=  2.74D-09    CP:  9.92D-01  1.17D+00  9.94D-01  1.15D+00  1.23D+00
                    CP:  1.72D+00  2.90D+00  3.00D+00  3.00D+00  3.00D+00
                    CP:  3.00D+00  1.71D+00  1.31D+00  1.64D+00  1.86D+00
                    CP:  2.43D+00  1.81D+00
 E= -474.356986840367     Delta-E=       -0.000000000016 Rises=F Damp=F
 DIIS: error= 2.13D-08 at cycle  18 NSaved=  18.
 NSaved=18 IEnMin=18 EnMin= -474.356986840367     IErMin=18 ErrMin= 2.13D-08
 ErrMax= 2.13D-08  0.00D+00 EMaxC= 1.00D-01 BMatC= 1.10D-13 BMatP= 2.22D-13
 IDIUse=1 WtCom= 1.00D+00 WtEn= 0.00D+00
 Coeff-Com: -0.306D-06 0.198D-05-0.613D-07-0.188D-04-0.259D-04 0.142D-03
 Coeff-Com:  0.247D-03-0.181D-03-0.286D-02 0.324D-02 0.500D-02-0.120D-01
 Coeff-Com: -0.133D-01 0.577D-01 0.140D+00-0.378D+00-0.476D+00 0.168D+01
 Coeff:     -0.306D-06 0.198D-05-0.613D-07-0.188D-04-0.259D-04 0.142D-03
 Coeff:      0.247D-03-0.181D-03-0.286D-02 0.324D-02 0.500D-02-0.120D-01
 Coeff:     -0.133D-01 0.577D-01 0.140D+00-0.378D+00-0.476D+00 0.168D+01
 RMSDP=1.13D-08 MaxDP=4.91D-07 DE=-1.64D-11 OVMax= 0.00D+00

 Cycle  19  Pass 1  IDiag  1:
 RMSU=  1.75D-09    CP:  9.92D-01  1.17D+00  9.94D-01  1.15D+00  1.23D+00
                    CP:  1.72D+00  2.90D+00  3.00D+00  3.00D+00  3.00D+00
                    CP:  3.00D+00  1.71D+00  1.31D+00  1.66D+00  1.97D+00
                    CP:  3.00D+00  2.88D+00  2.49D+00
 E= -474.356986840345     Delta-E=        0.000000000022 Rises=F Damp=F
 DIIS: error= 1.56D-08 at cycle  19 NSaved=  19.
 NSaved=19 IEnMin=18 EnMin= -474.356986840367     IErMin=19 ErrMin= 1.56D-08
 ErrMax= 1.56D-08  0.00D+00 EMaxC= 1.00D-01 BMatC= 5.92D-14 BMatP= 1.10D-13
 IDIUse=1 WtCom= 1.00D+00 WtEn= 0.00D+00
 Large coefficients: NSaved= 19 BigCof=    0.00 CofMax=   10.00 Det=-5.97D-15
 Inversion failed.  Reducing to 18 matrices.
 Large coefficients: NSaved= 18 BigCof=    0.00 CofMax=   10.00 Det=-7.31D-15
 Inversion failed.  Reducing to 17 matrices.
 Large coefficients: NSaved= 17 BigCof=    0.00 CofMax=   10.00 Det=-7.87D-15
 Inversion failed.  Reducing to 16 matrices.
 Large coefficients: NSaved= 16 BigCof=    0.00 CofMax=   10.00 Det=-9.16D-15
 Inversion failed.  Reducing to 15 matrices.
 Coeff-Com: -0.757D-05 0.231D-04-0.144D-04 0.147D-03-0.507D-03 0.177D-03
 Coeff-Com:  0.122D-02-0.377D-03-0.424D-02-0.748D-02 0.422D-01 0.104D+00
 Coeff-Com: -0.460D+00-0.335D+00 0.166D+01
 Coeff:     -0.757D-05 0.231D-04-0.144D-04 0.147D-03-0.507D-03 0.177D-03
 Coeff:      0.122D-02-0.377D-03-0.424D-02-0.748D-02 0.422D-01 0.104D+00
 Coeff:     -0.460D+00-0.335D+00 0.166D+01
 RMSDP=1.15D-08 MaxDP=5.34D-07 DE= 2.18D-11 OVMax= 0.00D+00

 Cycle  20  Pass 1  IDiag  1:
 RMSU=  8.43D-09    CP:  9.92D-01  1.17D+00  9.94D-01  1.15D+00  1.23D+00
                    CP:  1.72D+00  2.90D+00  3.00D+00  3.00D+00  3.00D+00
                    CP:  3.00D+00  1.71D+00  1.31D+00  1.68D+00  2.07D+00
                    CP:  3.00D+00  3.00D+00  3.00D+00  2.92D+00
 E= -474.356986840358     Delta-E=       -0.000000000014 Rises=F Damp=F
 DIIS: error= 1.11D-08 at cycle  20 NSaved=  16.
 NSaved=16 IEnMin=14 EnMin= -474.356986840367     IErMin=16 ErrMin= 1.11D-08
 ErrMax= 1.11D-08  0.00D+00 EMaxC= 1.00D-01 BMatC= 2.49D-14 BMatP= 5.92D-14
 IDIUse=1 WtCom= 1.00D+00 WtEn= 0.00D+00
 Large coefficients: NSaved= 16 BigCof=    0.00 CofMax=   10.00 Det=-4.06D-15
 Inversion failed.  Reducing to 15 matrices.
 Coeff-Com:  0.173D-04-0.513D-04 0.518D-05 0.660D-04 0.473D-04-0.505D-03
 Coeff-Com:  0.446D-03 0.240D-02-0.867D-02-0.269D-01 0.126D+00 0.625D-01
 Coeff-Com: -0.604D+00-0.127D+00 0.158D+01
 Coeff:      0.173D-04-0.513D-04 0.518D-05 0.660D-04 0.473D-04-0.505D-03
 Coeff:      0.446D-03 0.240D-02-0.867D-02-0.269D-01 0.126D+00 0.625D-01
 Coeff:     -0.604D+00-0.127D+00 0.158D+01
 RMSDP=1.07D-08 MaxDP=4.78D-07 DE=-1.36D-11 OVMax= 0.00D+00

 Cycle  21  Pass 1  IDiag  1:
 Restarting incremental Fock formation.
 E= -474.356986840349     Delta-E=        0.000000000009 Rises=F Damp=F
 DIIS: error= 1.16D-08 at cycle  21 NSaved=  16.
 NSaved=16 IEnMin=13 EnMin= -474.356986840367     IErMin=15 ErrMin= 1.11D-08
 ErrMax= 1.16D-08  0.00D+00 EMaxC= 1.00D-01 BMatC= 7.19D-15 BMatP= 2.49D-14
 IDIUse=1 WtCom= 1.00D+00 WtEn= 0.00D+00
 Large coefficients: NSaved= 16 BigCof=    0.00 CofMax=   10.00 Det=-2.11D-15
 Inversion failed.  Reducing to 15 matrices.
 Coeff-Com: -0.242D-04 0.172D-04 0.102D-03 0.866D-06-0.389D-03 0.247D-04
 Coeff-Com:  0.214D-02 0.339D-02-0.226D-01-0.427D-01 0.166D+00 0.336D+00
 Coeff-Com: -0.869D+00-0.193D+00 0.162D+01
 Coeff:     -0.242D-04 0.172D-04 0.102D-03 0.866D-06-0.389D-03 0.247D-04
 Coeff:      0.214D-02 0.339D-02-0.226D-01-0.427D-01 0.166D+00 0.336D+00
 Coeff:     -0.869D+00-0.193D+00 0.162D+01
 RMSDP=6.74D-09 MaxDP=2.97D-07 DE= 9.09D-12 OVMax= 0.00D+00

 SCF Done:  E(RZINDO/S) =  -474.356986840     A.U. after   21 cycles
            NFock= 21  Conv=0.67D-08     -V/T= 0.9491
 KE=-9.327325029780D+03 PE=-9.955329005606D-09 EE= 4.526614705594D+03
 Leave Link  502 at Wed May  4 05:03:11 2022, MaxMem=  6710886400 cpu:              23.3 elap:               1.0
 (Enter /sw/apps/gaussian-16.0/g16/l801.exe)
 Range of M.O.s used for correlation:     1   338
 NBasis=   338 NAE=   176 NBE=   176 NFC=     0 NFV=     0
 NROrb=    338 NOA=   176 NOB=   176 NVA=   162 NVB=   162
 Leave Link  801 at Wed May  4 05:03:11 2022, MaxMem=  6710886400 cpu:               0.5 elap:               0.0
 (Enter /sw/apps/gaussian-16.0/g16/l914.exe)
 RHF ground state
 Two-electron integral symmetry not used.
 MDV=  6710886400 DFT=F DoStab=F Mixed=F DoRPA=F DoScal=F NonHer=F
 Making orbital integer symmetry assigments:
 Orbital symmetries:
       Occupied  (A) (A) (A) (A) (A) (A) (A) (A) (A) (A) (A) (A)
                 (A) (A) (A) (A) (A) (A) (A) (A) (A) (A) (A) (A)
                 (A) (A) (A) (A) (A) (A) (A) (A) (A) (A) (A) (A)
                 (A) (A) (A) (A) (A) (A) (A) (A) (A) (A) (A) (A)
                 (A) (A) (A) (A) (A) (A) (A) (A) (A) (A) (A) (A)
                 (A) (A) (A) (A) (A) (A) (A) (A) (A) (A) (A) (A)
                 (A) (A) (A) (A) (A) (A) (A) (A) (A) (A) (A) (A)
                 (A) (A) (A) (A) (A) (A) (A) (A) (A) (A) (A) (A)
                 (A) (A) (A) (A) (A) (A) (A) (A) (A) (A) (A) (A)
                 (A) (A) (A) (A) (A) (A) (A) (A) (A) (A) (A) (A)
                 (A) (A) (A) (A) (A) (A) (A) (A) (A) (A) (A) (A)
                 (A) (A) (A) (A) (A) (A) (A) (A) (A) (A) (A) (A)
                 (A) (A) (A) (A) (A) (A) (A) (A) (A) (A) (A) (A)
                 (A) (A) (A) (A) (A) (A) (A) (A) (A) (A) (A) (A)
                 (A) (A) (A) (A) (A) (A) (A) (A)
       Virtual   (A) (A) (A) (A) (A) (A) (A) (A) (A) (A) (A) (A)
                 (A) (A) (A) (A) (A) (A) (A) (A) (A) (A) (A) (A)
                 (A) (A) (A) (A) (A) (A) (A) (A) (A) (A) (A) (A)
                 (A) (A) (A) (A) (A) (A) (A) (A) (A) (A) (A) (A)
                 (A) (A) (A) (A) (A) (A) (A) (A) (A) (A) (A) (A)
                 (A) (A) (A) (A) (A) (A) (A) (A) (A) (A) (A) (A)
                 (A) (A) (A) (A) (A) (A) (A) (A) (A) (A) (A) (A)
                 (A) (A) (A) (A) (A) (A) (A) (A) (A) (A) (A) (A)
                 (A) (A) (A) (A) (A) (A) (A) (A) (A) (A) (A) (A)
                 (A) (A) (A) (A) (A) (A) (A) (A) (A) (A) (A) (A)
                 (A) (A) (A) (A) (A) (A) (A) (A) (A) (A) (A) (A)
                 (A) (A) (A) (A) (A) (A) (A) (A) (A) (A) (A) (A)
                 (A) (A) (A) (A) (A) (A) (A) (A) (A) (A) (A) (A)
                 (A) (A) (A) (A) (A) (A)
    20 initial guesses have been made.
 Convergence on wavefunction:    0.001000000000000
 Davidson Disk Diagonalization:  ConvIn= 1.00D-03 SkipCon=T Conv= 1.00D-03.
 Max sub-space:  2000 roots to seek:    20 dimension of matrix:        57024
 Iteration     1 Dimension    20 NMult     0 NNew     20
 CISAX will form    20 AO SS matrices at one time.
 NMat=    20 NSing=    20 JSym2X= 0.
 New state      3 was old state      4
 New state      4 was old state      3
 New state      5 was old state      9
 Excitation Energies [eV] at current iteration:
 Root      1 :     1.597153188314071
 Root      2 :     2.139806515814394
 Root      3 :     3.227160675806114
 Root      4 :     3.418027915080926
 Root      5 :     3.516033229618801
 Root      6 :     3.625011496646900
 Root      7 :     3.678675618049420
 Root      8 :     3.812398981911755
 Root      9 :     3.888996521698192
 Root     10 :     3.955376683342087
 Root     11 :     4.086690879941764
 Root     12 :     4.134732248998057
 Root     13 :     4.172991223871358
 Root     14 :     4.371522910745652
 Root     15 :     4.404507217356153
 Root     16 :     4.602254312894947
 Root     17 :     4.673605958065297
 Root     18 :     5.001377539835058
 Root     19 :     5.309002923845961
 Root     20 :     5.414678890884169
 Iteration     2 Dimension    40 NMult    20 NNew     20
 CISAX will form    20 AO SS matrices at one time.
 NMat=    20 NSing=    20 JSym2X= 0.
 Root      1 not converged, maximum delta is    0.047696465293788
 Root      2 not converged, maximum delta is    0.028238588711532
 Root      3 not converged, maximum delta is    0.265292380592512
 Root      4 not converged, maximum delta is    0.345437424088985
 Root      5 not converged, maximum delta is    0.161281920955690
 Excitation Energies [eV] at current iteration:
 Root      1 :     1.242775803662901   Change is   -0.354377384651169
 Root      2 :     1.939065079443410   Change is   -0.200741436370984
 Root      3 :     3.010370429996080   Change is   -0.216790245810034
 Root      4 :     3.049018223555062   Change is   -0.369009691525864
 Root      5 :     3.323526136158521   Change is   -0.192507093460280
 Root      6 :     3.452849194690302   Change is   -0.225826423359118
 Root      7 :     3.532184208564716   Change is   -0.423192474777371
 Root      8 :     3.571000022210269   Change is   -0.054011474436632
 Root      9 :     3.645693121010359   Change is   -0.166705860901396
 Root     10 :     3.688747717208473   Change is   -0.200248804489719
 Root     11 :     3.759892777693684   Change is   -0.374839471304373
 Root     12 :     3.963165232518109   Change is   -0.209825991353249
 Root     13 :     3.994487414443820   Change is   -0.679118543621477
 Root     14 :     4.024063106589249   Change is   -0.062627773352514
 Root     15 :     4.123266703043528   Change is   -0.248256207702123
 Root     16 :     4.200102668596879   Change is   -0.204404548759275
 Root     17 :     4.302728577217749   Change is   -0.299525735677197
 Root     18 :     4.991178172498580   Change is   -0.010199367336478
 Root     19 :     5.233044848717761   Change is   -0.075958075128201
 Root     20 :     5.390160387215061   Change is   -0.024518503669108
 Iteration     3 Dimension    45 NMult    40 NNew      5
 CISAX will form     5 AO SS matrices at one time.
 NMat=     5 NSing=     5 JSym2X= 0.
 Root      1 not converged, maximum delta is    0.011328412633155
 Root      2 not converged, maximum delta is    0.020679345657277
 Root      3 not converged, maximum delta is    0.080891224987500
 Root      4 not converged, maximum delta is    0.107156520910816
 Root      5 not converged, maximum delta is    0.031511998476435
 Excitation Energies [eV] at current iteration:
 Root      1 :     1.225955588283459   Change is   -0.016820215379443
 Root      2 :     1.912073733122325   Change is   -0.026991346321085
 Root      3 :     2.986218378259295   Change is   -0.024152051736785
 Root      4 :     3.022378933195628   Change is   -0.026639290359434
 Root      5 :     3.293542648366552   Change is   -0.029983487791969
 Iteration     4 Dimension    50 NMult    45 NNew      5
 CISAX will form     5 AO SS matrices at one time.
 NMat=     5 NSing=     5 JSym2X= 0.
 Root      1 not converged, maximum delta is    0.002640283877228
 Root      2 not converged, maximum delta is    0.002180266480076
 Root      3 not converged, maximum delta is    0.004089697982998
 Root      4 not converged, maximum delta is    0.005538339478357
 Root      5 not converged, maximum delta is    0.007030964944792
 Excitation Energies [eV] at current iteration:
 Root      1 :     1.225135235798661   Change is   -0.000820352484797
 Root      2 :     1.911395399813892   Change is   -0.000678333308433
 Root      3 :     2.983993204745739   Change is   -0.002225173513556
 Root      4 :     3.019422957324021   Change is   -0.002955975871607
 Root      5 :     3.291284052075083   Change is   -0.002258596291470
 Iteration     5 Dimension    55 NMult    50 NNew      5
 CISAX will form     5 AO SS matrices at one time.
 NMat=     5 NSing=     5 JSym2X= 0.
 Root      1 has converged.
 Root      2 has converged.
 Root      3 not converged, maximum delta is    0.006050565715401
 Root      4 not converged, maximum delta is    0.001860598419027
 Root      5 not converged, maximum delta is    0.005838354138883
 Excitation Energies [eV] at current iteration:
 Root      1 :     1.225079857507075   Change is   -0.000055378291586
 Root      2 :     1.911355200122348   Change is   -0.000040199691544
 Root      3 :     2.983192391484189   Change is   -0.000800813261550
 Root      4 :     3.018990937456672   Change is   -0.000432019867349
 Root      5 :     3.290673664957064   Change is   -0.000610387118018
 Iteration     6 Dimension    58 NMult    55 NNew      3
 CISAX will form     3 AO SS matrices at one time.
 NMat=     3 NSing=     3 JSym2X= 0.
 Root      1 has converged.
 Root      2 has converged.
 Root      3 not converged, maximum delta is    0.019752845079615
 Root      4 not converged, maximum delta is    0.004674975757068
 Root      5 not converged, maximum delta is    0.043180038596906
 Excitation Energies [eV] at current iteration:
 Root      1 :     1.225077183107995   Change is   -0.000002674399080
 Root      2 :     1.911354556280007   Change is   -0.000000643842341
 Root      3 :     2.981748475750193   Change is   -0.001443915733997
 Root      4 :     3.018858169952400   Change is   -0.000132767504272
 Root      5 :     3.288763825637488   Change is   -0.001909839319576
 Iteration     7 Dimension    61 NMult    58 NNew      3
 CISAX will form     3 AO SS matrices at one time.
 NMat=     3 NSing=     3 JSym2X= 0.
 Root      1 has converged.
 Root      2 has converged.
 Root      3 not converged, maximum delta is    0.046024857339100
 Root      4 not converged, maximum delta is    0.014174788731244
 Root      5 not converged, maximum delta is    0.580661256741933
 Excitation Energies [eV] at current iteration:
 Root      1 :     1.225075763357881   Change is   -0.000001419750114
 Root      2 :     1.911353439892639   Change is   -0.000001116387368
 Root      3 :     2.978902214245899   Change is   -0.002846261504294
 Root      4 :     3.018625374814159   Change is   -0.000232795138241
 Root      5 :     3.139706253975628   Change is   -0.149057571661861
 Iteration     8 Dimension    64 NMult    61 NNew      3
 CISAX will form     3 AO SS matrices at one time.
 NMat=     3 NSing=     3 JSym2X= 0.
 Root      1 has converged.
 Root      2 has converged.
 Root      3 not converged, maximum delta is    0.031771525726608
 Root      4 not converged, maximum delta is    0.011381743531265
 Root      5 not converged, maximum delta is    0.485625310962691
 Excitation Energies [eV] at current iteration:
 Root      1 :     1.225075594267145   Change is   -0.000000169090736
 Root      2 :     1.911352640071945   Change is   -0.000000799820694
 Root      3 :     2.977111444972102   Change is   -0.001790769273797
 Root      4 :     3.018427753949541   Change is   -0.000197620864619
 Root      5 :     3.092700725016523   Change is   -0.047005528959104
 Iteration     9 Dimension    67 NMult    64 NNew      3
 CISAX will form     3 AO SS matrices at one time.
 NMat=     3 NSing=     3 JSym2X= 0.
 Root      1 has converged.
 Root      2 has converged.
 Root      3 not converged, maximum delta is    0.024736957781850
 Root      4 not converged, maximum delta is    0.007316602290680
 Root      5 not converged, maximum delta is    0.133689369287198
 Excitation Energies [eV] at current iteration:
 Root      1 :     1.225075512466468   Change is   -0.000000081800677
 Root      2 :     1.911352218830328   Change is   -0.000000421241616
 Root      3 :     2.975738225754748   Change is   -0.001373219217354
 Root      4 :     3.018345512155260   Change is   -0.000082241794280
 Root      5 :     3.069447193101806   Change is   -0.023253531914717
 Iteration    10 Dimension    70 NMult    67 NNew      3
 CISAX will form     3 AO SS matrices at one time.
 NMat=     3 NSing=     3 JSym2X= 0.
 Root      1 has converged.
 Root      2 has converged.
 Root      3 not converged, maximum delta is    0.014739610568473
 Root      4 not converged, maximum delta is    0.004950972853900
 Root      5 not converged, maximum delta is    0.032909314550577
 Excitation Energies [eV] at current iteration:
 Root      1 :     1.225075486299066   Change is   -0.000000026167402
 Root      2 :     1.911352084556833   Change is   -0.000000134273496
 Root      3 :     2.974898446950155   Change is   -0.000839778804593
 Root      4 :     3.018309989781615   Change is   -0.000035522373645
 Root      5 :     3.058482230838985   Change is   -0.010964962262822
 Iteration    11 Dimension    73 NMult    70 NNew      3
 CISAX will form     3 AO SS matrices at one time.
 NMat=     3 NSing=     3 JSym2X= 0.
 Root      1 has converged.
 Root      2 has converged.
 Root      3 not converged, maximum delta is    0.003982450323053
 Root      4 not converged, maximum delta is    0.001563101100373
 Root      5 not converged, maximum delta is    0.009700692281090
 Excitation Energies [eV] at current iteration:
 Root      1 :     1.225075439391470   Change is   -0.000000046907596
 Root      2 :     1.911352057056492   Change is   -0.000000027500341
 Root      3 :     2.974661764069950   Change is   -0.000236682880205
 Root      4 :     3.018300036662688   Change is   -0.000009953118927
 Root      5 :     3.055637700682541   Change is   -0.002844530156444
 Iteration    12 Dimension    76 NMult    73 NNew      3
 CISAX will form     3 AO SS matrices at one time.
 NMat=     3 NSing=     3 JSym2X= 0.
 Root      1 has converged.
 Root      2 has converged.
 Root      3 has converged.
 Root      4 has converged.
 Root      5 not converged, maximum delta is    0.002075112521819
 Excitation Energies [eV] at current iteration:
 Root      1 :     1.225075380292066   Change is   -0.000000059099404
 Root      2 :     1.911352032737012   Change is   -0.000000024319480
 Root      3 :     2.974622089592058   Change is   -0.000039674477891
 Root      4 :     3.018298371963540   Change is   -0.000001664699148
 Root      5 :     3.055157651050817   Change is   -0.000480049631724
 Iteration    13 Dimension    77 NMult    76 NNew      1
 CISAX will form     1 AO SS matrices at one time.
 NMat=     1 NSing=     1 JSym2X= 0.
 Root      1 has converged.
 Root      2 has converged.
 Root      3 has converged.
 Root      4 has converged.
 Root      5 not converged, maximum delta is    0.001005605314375
 Excitation Energies [eV] at current iteration:
 Root      1 :     1.225075371691416   Change is   -0.000000008600650
 Root      2 :     1.911352031758131   Change is   -0.000000000978881
 Root      3 :     2.974615967448730   Change is   -0.000006122143328
 Root      4 :     3.018298195297402   Change is   -0.000000176666137
 Root      5 :     3.055082543547928   Change is   -0.000075107502890
 Iteration    14 Dimension    78 NMult    77 NNew      1
 CISAX will form     1 AO SS matrices at one time.
 NMat=     1 NSing=     1 JSym2X= 0.
 Root      1 has converged.
 Root      2 has converged.
 Root      3 has converged.
 Root      4 has converged.
 Root      5 has converged.
 Excitation Energies [eV] at current iteration:
 Root      1 :     1.225075371684305   Change is   -0.000000000007112
 Root      2 :     1.911352031655850   Change is   -0.000000000102281
 Root      3 :     2.974614856455944   Change is   -0.000001110992787
 Root      4 :     3.018298182034371   Change is   -0.000000013263032
 Root      5 :     3.055069766325974   Change is   -0.000012777221954
 Convergence achieved on expansion vectors.
 ***********************************************************************
 Excited states from <AA,BB:AA,BB> singles matrix:
 ***********************************************************************
 
 1PDM for each excited state written to RWF  633
 Ground to excited state transition densities written to RWF  633
 Ground to excited state transition electric dipole moments (Au):
       state          X           Y           Z        Dip. S.      Osc.
         1        -2.7694      3.4439      0.0548     19.5328      0.5863
         2         0.6209      0.6246     -0.0407      0.7773      0.0364
         3         1.5564      0.9310     -0.1693      3.3176      0.2418
         4         2.7563      2.2220      0.0567     12.5377      0.9271
         5        -0.9134     -0.6753      0.0081      1.2904      0.0966
 Ground to excited state transition velocity dipole moments (Au):
       state          X           Y           Z        Dip. S.      Osc.
         1        -0.0658      0.0345      0.0070      0.0056      0.0824
         2        -0.0047     -0.0118     -0.0016      0.0002      0.0016
         3        -0.0433     -0.0251      0.0051      0.0025      0.0154
         4        -0.1006     -0.0532     -0.0001      0.0130      0.0779
         5         0.0343      0.0261     -0.0052      0.0019      0.0112
 Ground to excited state transition magnetic dipole moments (Au):
       state          X           Y           Z
         1         0.0456     -0.0489     -0.0330
         2         0.0093      0.0373     -0.1878
         3        -0.0902      0.2538      0.0660
         4        -0.0713      0.0382     -0.3878
         5        -0.2324      0.7048      0.4402
 Ground to excited state transition velocity quadrupole moments (Au):
       state          XX          YY          ZZ          XY          XZ          YZ
         1        -1.2915      0.0898      0.0306      0.3557      0.0663      0.1251
         2        -0.0718      0.0126      0.0134     -0.0478      0.0061      0.0310
         3        -0.2210     -0.3491      0.0354      0.1813      0.0173     -0.0368
         4        -1.9017      0.5341     -0.0508     -0.9846     -0.0100      0.1254
         5         0.4807      0.0962     -0.0187      0.0344     -0.0337      0.0465
 <0|del|b> * <b|rxdel|0> + <0|del|b> * <b|delr+rdel|0>
 Rotatory Strengths (R) in cgs (10**-40 erg-esu-cm/Gauss)
       state          XX          YY          ZZ    R(velocity)    E-M Angle
         1       -13.5897   -109.4489     45.7998    -25.7463      152.13
         2         0.0544      0.1828     -2.0743     -0.6124       94.25
         3       -15.0976     15.8764    -14.5372     -4.5862       98.77
         4        -7.7760    -17.5340     58.2868     10.9923       83.41
         5        52.9531    -26.6577     25.0417     17.1124       77.42
 1/2[<0|r|b>*<b|rxdel|0> + (<0|rxdel|b>*<b|r|0>)*]
 Rotatory Strengths (R) in cgs (10**-40 erg-esu-cm/Gauss)
       state          XX          YY          ZZ     R(length)
         1        89.3546    119.0622      1.2777     69.8982
         2        -4.0927    -16.4597     -5.4084     -8.6536
         3        99.2840   -167.0758      7.9063    -19.9619
         4       138.9095    -60.0997     15.5415     31.4504
         5      -150.0845    336.5802     -2.5250     61.3236
  1/2[<0|del|b>*<b|r|0> + (<0|r|b>*<b|del|0>)*] (Au)
       state          X           Y           Z        Dip. S.   Osc.(frdel)
         1         0.1822      0.1188      0.0004     -0.3014     -0.2009
         2        -0.0029     -0.0074      0.0001      0.0103      0.0068
         3        -0.0673     -0.0234     -0.0009      0.0916      0.0610
         4        -0.2774     -0.1182     -0.0000      0.3956      0.2637
         5        -0.0313     -0.0176     -0.0000      0.0490      0.0326

 Excitation energies and oscillator strengths:
 
 Excited State   1:      Singlet-A      1.2251 eV 1012.05 nm  f=0.5863  <S**2>=0.000
     175 ->178         0.20075
     176 ->177         0.66038
 This state for optimization and/or second-order correction.
 Total Energy, E(CIS/TDA) =  -474.311966149    
 Copying the excited state density for this state as the 1-particle RhoCI density.
 
 Excited State   2:      Singlet-A      1.9114 eV  648.67 nm  f=0.0364  <S**2>=0.000
     175 ->177         0.54111
     176 ->178        -0.43221
 
 Excited State   3:      Singlet-A      2.9746 eV  416.81 nm  f=0.2418  <S**2>=0.000
     168 ->177        -0.10992
     168 ->179         0.15706
     175 ->177         0.19310
     176 ->178         0.28240
     176 ->179         0.52815
     176 ->182         0.10904
 
 Excited State   4:      Singlet-A      3.0183 eV  410.78 nm  f=0.9271  <S**2>=0.000
     175 ->177         0.33858
     176 ->178         0.42412
     176 ->179        -0.36479
     176 ->181        -0.16034
 
 Excited State   5:      Singlet-A      3.0551 eV  405.83 nm  f=0.0966  <S**2>=0.000
     168 ->177        -0.29408
     168 ->178         0.11346
     168 ->179         0.42177
     168 ->181        -0.19866
     168 ->186         0.15927
     168 ->187        -0.12797
     175 ->177        -0.10661
     176 ->178        -0.14387
     176 ->179        -0.16386
 SavETr:  write IOETrn=   770 NScale= 10 NData=  16 NLR=1 NState=    5 LETran=     100.
 Leave Link  914 at Wed May  4 05:03:17 2022, MaxMem=  6710886400 cpu:             124.7 elap:               5.3
 (Enter /sw/apps/gaussian-16.0/g16/l601.exe)
 Copying SCF densities to generalized density rwf, IOpCl= 0 IROHF=0.

 **********************************************************************

            Population analysis using the SCF density.

 **********************************************************************

 Orbital symmetries:
       Occupied  (A) (A) (A) (A) (A) (A) (A) (A) (A) (A) (A) (A)
                 (A) (A) (A) (A) (A) (A) (A) (A) (A) (A) (A) (A)
                 (A) (A) (A) (A) (A) (A) (A) (A) (A) (A) (A) (A)
                 (A) (A) (A) (A) (A) (A) (A) (A) (A) (A) (A) (A)
                 (A) (A) (A) (A) (A) (A) (A) (A) (A) (A) (A) (A)
                 (A) (A) (A) (A) (A) (A) (A) (A) (A) (A) (A) (A)
                 (A) (A) (A) (A) (A) (A) (A) (A) (A) (A) (A) (A)
                 (A) (A) (A) (A) (A) (A) (A) (A) (A) (A) (A) (A)
                 (A) (A) (A) (A) (A) (A) (A) (A) (A) (A) (A) (A)
                 (A) (A) (A) (A) (A) (A) (A) (A) (A) (A) (A) (A)
                 (A) (A) (A) (A) (A) (A) (A) (A) (A) (A) (A) (A)
                 (A) (A) (A) (A) (A) (A) (A) (A) (A) (A) (A) (A)
                 (A) (A) (A) (A) (A) (A) (A) (A) (A) (A) (A) (A)
                 (A) (A) (A) (A) (A) (A) (A) (A) (A) (A) (A) (A)
                 (A) (A) (A) (A) (A) (A) (A) (A)
       Virtual   (A) (A) (A) (A) (A) (A) (A) (A) (A) (A) (A) (A)
                 (A) (A) (A) (A) (A) (A) (A) (A) (A) (A) (A) (A)
                 (A) (A) (A) (A) (A) (A) (A) (A) (A) (A) (A) (A)
                 (A) (A) (A) (A) (A) (A) (A) (A) (A) (A) (A) (A)
                 (A) (A) (A) (A) (A) (A) (A) (A) (A) (A) (A) (A)
                 (A) (A) (A) (A) (A) (A) (A) (A) (A) (A) (A) (A)
                 (A) (A) (A) (A) (A) (A) (A) (A) (A) (A) (A) (A)
                 (A) (A) (A) (A) (A) (A) (A) (A) (A) (A) (A) (A)
                 (A) (A) (A) (A) (A) (A) (A) (A) (A) (A) (A) (A)
                 (A) (A) (A) (A) (A) (A) (A) (A) (A) (A) (A) (A)
                 (A) (A) (A) (A) (A) (A) (A) (A) (A) (A) (A) (A)
                 (A) (A) (A) (A) (A) (A) (A) (A) (A) (A) (A) (A)
                 (A) (A) (A) (A) (A) (A) (A) (A) (A) (A) (A) (A)
                 (A) (A) (A) (A) (A) (A)
 The electronic state is 1-A.
 Alpha  occ. eigenvalues --   -1.87191  -1.82692  -1.79089  -1.73040  -1.72109
 Alpha  occ. eigenvalues --   -1.70070  -1.66759  -1.60824  -1.58934  -1.57944
 Alpha  occ. eigenvalues --   -1.54524  -1.52130  -1.49657  -1.48416  -1.45571
 Alpha  occ. eigenvalues --   -1.44212  -1.43041  -1.40669  -1.38708  -1.38591
 Alpha  occ. eigenvalues --   -1.36755  -1.35143  -1.31968  -1.30991  -1.29353
 Alpha  occ. eigenvalues --   -1.28381  -1.23930  -1.22597  -1.20743  -1.18504
 Alpha  occ. eigenvalues --   -1.17429  -1.15950  -1.14605  -1.14480  -1.13543
 Alpha  occ. eigenvalues --   -1.12812  -1.10485  -1.10049  -1.04708  -1.03046
 Alpha  occ. eigenvalues --   -1.02340  -1.01192  -0.98365  -0.98028  -0.96529
 Alpha  occ. eigenvalues --   -0.95713  -0.94533  -0.93736  -0.93510  -0.93196
 Alpha  occ. eigenvalues --   -0.92594  -0.90128  -0.89561  -0.88316  -0.86678
 Alpha  occ. eigenvalues --   -0.85007  -0.84572  -0.83106  -0.82363  -0.80899
 Alpha  occ. eigenvalues --   -0.78930  -0.78109  -0.77079  -0.76518  -0.75959
 Alpha  occ. eigenvalues --   -0.75750  -0.75271  -0.74525  -0.74496  -0.73945
 Alpha  occ. eigenvalues --   -0.73347  -0.72550  -0.72187  -0.71493  -0.71126
 Alpha  occ. eigenvalues --   -0.70520  -0.69575  -0.69089  -0.68700  -0.68283
 Alpha  occ. eigenvalues --   -0.67291  -0.67177  -0.66917  -0.66652  -0.65718
 Alpha  occ. eigenvalues --   -0.65328  -0.64671  -0.64199  -0.63644  -0.63548
 Alpha  occ. eigenvalues --   -0.63104  -0.62468  -0.62182  -0.62067  -0.61783
 Alpha  occ. eigenvalues --   -0.61528  -0.61364  -0.60784  -0.60462  -0.60111
 Alpha  occ. eigenvalues --   -0.59910  -0.59370  -0.59103  -0.58649  -0.57853
 Alpha  occ. eigenvalues --   -0.57458  -0.57409  -0.57102  -0.57062  -0.56429
 Alpha  occ. eigenvalues --   -0.56138  -0.55404  -0.55179  -0.54879  -0.54577
 Alpha  occ. eigenvalues --   -0.54114  -0.53492  -0.53368  -0.53239  -0.52614
 Alpha  occ. eigenvalues --   -0.52138  -0.51786  -0.51692  -0.51205  -0.51104
 Alpha  occ. eigenvalues --   -0.50949  -0.50371  -0.50313  -0.50132  -0.49851
 Alpha  occ. eigenvalues --   -0.49276  -0.49040  -0.48966  -0.48863  -0.48650
 Alpha  occ. eigenvalues --   -0.48323  -0.48242  -0.47709  -0.47576  -0.47309
 Alpha  occ. eigenvalues --   -0.47174  -0.46941  -0.46576  -0.46568  -0.46276
 Alpha  occ. eigenvalues --   -0.45770  -0.45666  -0.45555  -0.45376  -0.45202
 Alpha  occ. eigenvalues --   -0.45174  -0.44971  -0.44722  -0.44464  -0.44074
 Alpha  occ. eigenvalues --   -0.43957  -0.43817  -0.43011  -0.42886  -0.42336
 Alpha  occ. eigenvalues --   -0.41824  -0.41036  -0.40783  -0.39645  -0.38370
 Alpha  occ. eigenvalues --   -0.38193  -0.36968  -0.35641  -0.35180  -0.34576
 Alpha  occ. eigenvalues --   -0.33534  -0.32237  -0.31773  -0.31727  -0.26160
 Alpha  occ. eigenvalues --   -0.21316
 Alpha virt. eigenvalues --   -0.08123  -0.01823  -0.00438   0.00795   0.01395
 Alpha virt. eigenvalues --    0.02921   0.03290   0.03426   0.03932   0.04840
 Alpha virt. eigenvalues --    0.06450   0.07137   0.07617   0.07813   0.08615
 Alpha virt. eigenvalues --    0.08871   0.09187   0.09347   0.09537   0.09581
 Alpha virt. eigenvalues --    0.09962   0.10265   0.10358   0.10558   0.10647
 Alpha virt. eigenvalues --    0.10731   0.11449   0.11670   0.11994   0.12165
 Alpha virt. eigenvalues --    0.12835   0.12982   0.13179   0.13489   0.13625
 Alpha virt. eigenvalues --    0.13718   0.14020   0.14256   0.14809   0.15131
 Alpha virt. eigenvalues --    0.15226   0.15396   0.15425   0.15572   0.15861
 Alpha virt. eigenvalues --    0.15920   0.16197   0.16404   0.16730   0.16930
 Alpha virt. eigenvalues --    0.16992   0.17505   0.17756   0.17991   0.18005
 Alpha virt. eigenvalues --    0.18257   0.18399   0.18855   0.19077   0.19325
 Alpha virt. eigenvalues --    0.19649   0.19821   0.20012   0.21125   0.21395
 Alpha virt. eigenvalues --    0.21678   0.21906   0.22405   0.23412   0.23760
 Alpha virt. eigenvalues --    0.23791   0.23814   0.23916   0.23927   0.24253
 Alpha virt. eigenvalues --    0.24348   0.24551   0.24578   0.24579   0.24899
 Alpha virt. eigenvalues --    0.24961   0.25052   0.25084   0.25188   0.25204
 Alpha virt. eigenvalues --    0.25245   0.25294   0.25320   0.25417   0.25536
 Alpha virt. eigenvalues --    0.25652   0.25699   0.25748   0.25865   0.25902
 Alpha virt. eigenvalues --    0.26054   0.26077   0.26199   0.26206   0.26283
 Alpha virt. eigenvalues --    0.26300   0.26427   0.26433   0.26625   0.26734
 Alpha virt. eigenvalues --    0.26804   0.26917   0.27083   0.27277   0.27279
 Alpha virt. eigenvalues --    0.27303   0.27538   0.27717   0.27773   0.28224
 Alpha virt. eigenvalues --    0.28359   0.28439   0.28612   0.29034   0.29177
 Alpha virt. eigenvalues --    0.29705   0.30141   0.30676   0.30925   0.31647
 Alpha virt. eigenvalues --    0.32267   0.32851   0.32887   0.34136   0.35226
 Alpha virt. eigenvalues --    0.35601   0.35708   0.35860   0.36149   0.36441
 Alpha virt. eigenvalues --    0.36581   0.37097   0.37441   0.37581   0.38158
 Alpha virt. eigenvalues --    0.38825   0.39512   0.39622   0.40338   0.40925
 Alpha virt. eigenvalues --    0.41180   0.41205   0.41506   0.42172   0.42595
 Alpha virt. eigenvalues --    0.43671   0.44391   0.45504   0.45837   0.45984
 Alpha virt. eigenvalues --    0.47878   0.48415   0.48452   0.51211   0.53329
 Alpha virt. eigenvalues --    0.54347   0.56708
          Condensed to atoms (all electrons):
 Mulliken charges:
               1
     1  Mg   0.419534
     2  C   -0.056215
     3  C   -0.083722
     4  C   -0.063656
     5  C   -0.062406
     6  N   -0.310044
     7  C    0.133490
     8  C    0.016553
     9  C    0.012920
    10  C    0.131030
    11  C   -0.050537
    12  C   -0.009174
    13  C    0.006396
    14  C    0.482495
    15  O   -0.523473
    16  O   -0.268163
    17  N   -0.329082
    18  C    0.104870
    19  C    0.011125
    20  C   -0.066799
    21  C    0.115610
    22  C   -0.048198
    23  C    0.333309
    24  O   -0.503217
    25  C   -0.037376
    26  N   -0.244706
    27  C    0.112603
    28  C    0.004150
    29  C   -0.012153
    30  C    0.142823
    31  C   -0.056431
    32  C   -0.029069
    33  C   -0.055782
    34  N   -0.322770
    35  C    0.089876
    36  C    0.050579
    37  C   -0.046924
    38  C    0.125240
    39  C   -0.044278
    40  C    0.332045
    41  O   -0.505458
    42  C    0.052815
    43  C    0.495560
    44  O   -0.514049
    45  O   -0.269321
    46  C    0.073180
    47  C    0.104677
    48  C   -0.109061
    49  C   -0.003165
    50  C   -0.037535
    51  C   -0.019982
    52  C   -0.039518
    53  C   -0.035169
    54  C   -0.005399
    55  C   -0.055341
    56  C   -0.040302
    57  C   -0.043807
    58  C   -0.036166
    59  C   -0.005377
    60  C   -0.055213
    61  C   -0.034822
    62  C   -0.039966
    63  C   -0.041064
    64  C   -0.019866
    65  C   -0.068419
    66  C   -0.055426
    67  H    0.018082
    68  H    0.055905
    69  H    0.016008
    70  H    0.046145
    71  H    0.030193
    72  H    0.030816
    73  H    0.026961
    74  H    0.021619
    75  H    0.027161
    76  H    0.023227
    77  H    0.029892
    78  H    0.038906
    79  H    0.017003
    80  H    0.030761
    81  H    0.027960
    82  H    0.041211
    83  H    0.043484
    84  H    0.027545
    85  H    0.030410
    86  H    0.017709
    87  H    0.026571
    88  H    0.035925
    89  H    0.026422
    90  H    0.025569
    91  H    0.024889
    92  H    0.014333
    93  H    0.019701
    94  H    0.025723
    95  H    0.025483
    96  H    0.038073
    97  H    0.033233
    98  H    0.059014
    99  H    0.048038
   100  H    0.026246
   101  H    0.043887
   102  H    0.058381
   103  H    0.042521
   104  H    0.023964
   105  H    0.022866
   106  H    0.032424
   107  H    0.026056
   108  H    0.016046
   109  H    0.025130
   110  H    0.017580
   111  H    0.018841
   112  H    0.017376
   113  H    0.025900
   114  H    0.023569
   115  H    0.017508
   116  H    0.006188
   117  H    0.015351
   118  H    0.015291
   119  H    0.025136
   120  H    0.022256
   121  H    0.013848
   122  H    0.015929
   123  H    0.015428
   124  H    0.021043
   125  H    0.023642
   126  H    0.010781
   127  H    0.022712
   128  H    0.015992
   129  H    0.020362
   130  H    0.014263
   131  H    0.023833
   132  H    0.023048
   133  H    0.021851
   134  H    0.031180
   135  H    0.016421
   136  H    0.006764
   137  H    0.035367
   138  H    0.021849
   139  H    0.007743
   140  H    0.019176
 Sum of Mulliken charges =  -0.00000
 Mulliken charges with hydrogens summed into heavy atoms:
               1
     1  Mg   0.419534
     2  C   -0.056215
     3  C   -0.065640
     4  C   -0.007751
     5  C   -0.046398
     6  N   -0.310044
     7  C    0.133490
     8  C    0.062698
     9  C    0.043113
    10  C    0.131030
    11  C    0.028859
    12  C    0.041213
    13  C    0.075194
    14  C    0.482495
    15  O   -0.523473
    16  O   -0.268163
    17  N   -0.329082
    18  C    0.104870
    19  C    0.011125
    20  C   -0.066799
    21  C    0.115610
    22  C    0.027525
    23  C    0.333309
    24  O   -0.503217
    25  C    0.074864
    26  N   -0.244706
    27  C    0.112603
    28  C    0.034560
    29  C    0.005556
    30  C    0.142823
    31  C    0.032488
    32  C    0.021389
    33  C    0.003974
    34  N   -0.322770
    35  C    0.089876
    36  C    0.050579
    37  C   -0.046924
    38  C    0.125240
    39  C    0.052511
    40  C    0.332045
    41  O   -0.505458
    42  C    0.111829
    43  C    0.495560
    44  O   -0.514049
    45  O   -0.269321
    46  C    0.191351
    47  C    0.205579
    48  C   -0.085097
    49  C   -0.003165
    50  C    0.043812
    51  C    0.021193
    52  C   -0.003097
    53  C    0.008107
    54  C    0.018170
    55  C   -0.016294
    56  C    0.000124
    57  C   -0.007704
    58  C   -0.004809
    59  C    0.015667
    60  C    0.001922
    61  C    0.001533
    62  C   -0.001869
    63  C    0.003836
    64  C    0.011314
    65  C   -0.009866
    66  C   -0.006658
 Charge=             -0.0000 electrons
 Dipole moment (field-independent basis, Debye):
    X=             -5.5220    Y=              1.1621    Z=              5.1387  Tot=              7.6321
 N-N= 4.326353337356D+03 E-N= 0.000000000000D+00  KE=-9.327325029780D+03
 Leave Link  601 at Wed May  4 05:03:17 2022, MaxMem=  6710886400 cpu:               0.7 elap:               0.0
 (Enter /sw/apps/gaussian-16.0/g16/l9999.exe)
 1\1\GINC-BP1-COMPUTE067\SP\RZINDO CIS\STO-3G\C55H74Mg1N4O6\OF15641\04-
 May-2022\0\\#p ZINDO=(nstates=5)\\step_1351_chromophore_24 ZINDO\\0,1\
 Mg,0,-0.435,43.653,24.99\C,0,2.054,43.324,27.403\C,0,-2.779,42.952,27.
 554\C,0,-2.928,43.523,22.605\C,0,1.94,43.888,22.615\N,0,-0.388,43.368,
 27.247\C,0,0.765,43.239,28.004\C,0,0.359,43.093,29.442\C,0,-1.124,42.6
 97,29.453\C,0,-1.472,42.967,28.032\C,0,-1.447,41.237,29.867\C,0,0.574,
 44.418,30.2\C,0,0.458,44.247,31.715\C,0,0.365,42.97,32.354\O,0,1.29,42
 .164,32.463\O,0,-0.846,42.897,33.062\N,0,-2.543,43.35,25.09\C,0,-3.305
 ,43.117,26.226\C,0,-4.7,43.115,25.828\C,0,-4.771,43.119,24.39\C,0,-3.3
 78,43.367,23.965\C,0,-5.833,42.956,26.777\C,0,-5.967,43.093,23.368\O,0
 ,-5.885,43.055,22.162\C,0,-7.275,42.838,24.052\N,0,-0.396,43.829,22.87
 \C,0,-1.545,43.703,22.138\C,0,-1.149,43.607,20.655\C,0,0.35,44.061,20.
 673\C,0,0.682,43.885,22.152\C,0,-1.273,42.128,20.098\C,0,0.735,45.479,
 20.103\C,0,-0.084,46.631,20.666\N,0,1.527,43.604,24.98\C,0,2.406,43.82
 ,23.934\C,0,3.764,43.667,24.396\C,0,3.709,43.521,25.739\C,0,2.35,43.54
 3,26.052\C,0,5.,43.558,23.586\C,0,4.478,43.313,26.996\O,0,5.667,43.101
 ,27.234\C,0,3.357,43.288,28.129\C,0,3.553,41.966,28.791\O,0,3.011,40.9
 18,28.481\O,0,4.298,42.251,29.936\C,0,4.3,41.218,30.933\C,0,-0.841,41.
 753,34.025\C,0,-2.311,41.776,34.527\C,0,-2.847,42.172,35.747\C,0,-2.03
 ,42.865,36.748\C,0,-4.377,42.115,36.014\C,0,-5.145,43.384,35.417\C,0,-
 6.726,43.173,35.069\C,0,-7.597,43.583,36.282\C,0,-8.122,44.981,36.101\
 C,0,-8.785,42.629,36.504\C,0,-8.427,41.511,37.51\C,0,-8.92,41.93,38.91
 3\C,0,-10.45,41.646,39.169\C,0,-11.288,42.889,39.426\C,0,-10.648,40.55
 7,40.233\C,0,-11.015,39.187,39.66\C,0,-12.348,38.607,40.156\C,0,-13.11
 9,37.81,39.026\C,0,-14.273,38.613,38.342\C,0,-13.782,36.6,39.687\H,0,-
 3.54,42.712,28.3\H,0,-3.629,43.474,21.769\H,0,2.735,43.935,21.867\H,0,
 1.068,42.331,29.769\H,0,-1.684,43.346,30.125\H,0,-0.543,40.709,30.171\
 H,0,-1.841,40.643,29.043\H,0,-2.18,41.325,30.669\H,0,-0.174,45.136,29.
 863\H,0,1.557,44.833,29.979\H,0,-0.268,44.934,32.148\H,0,1.399,44.63,3
 2.109\H,0,-5.668,42.954,27.854\H,0,-6.255,41.982,26.531\H,0,-6.553,43.
 773,26.809\H,0,-7.539,43.697,24.67\H,0,-7.299,41.883,24.577\H,0,-7.96,
 42.698,23.216\H,0,-1.716,44.292,20.024\H,0,1.048,43.402,20.156\H,0,-2.
 09,41.73,20.701\H,0,-0.321,41.621,20.255\H,0,-1.663,42.178,19.081\H,0,
 0.647,45.334,19.026\H,0,1.73,45.737,20.466\H,0,-0.328,47.247,19.801\H,
 0,0.525,47.181,21.383\H,0,-1.025,46.394,21.162\H,0,4.841,43.457,22.513
 \H,0,5.499,42.71,24.055\H,0,5.738,44.346,23.734\H,0,3.451,44.133,28.81
 1\H,0,3.338,41.194,31.445\H,0,5.065,41.405,31.687\H,0,4.567,40.248,30.
 514\H,0,-0.094,41.685,34.816\H,0,-0.684,40.796,33.527\H,0,-3.064,41.38
 2,33.845\H,0,-2.143,42.272,37.656\H,0,-2.47,43.845,36.938\H,0,-0.97,42
 .896,36.498\H,0,-4.6,42.052,37.079\H,0,-4.763,41.139,35.721\H,0,-4.63,
 43.794,34.549\H,0,-4.991,44.214,36.106\H,0,-6.897,42.114,34.878\H,0,-7
 .005,43.706,34.16\H,0,-6.98,43.522,37.179\H,0,-8.306,45.335,35.087\H,0
 ,-7.375,45.703,36.432\H,0,-9.049,45.159,36.646\H,0,-9.028,42.136,35.56
 3\H,0,-9.612,43.221,36.898\H,0,-7.387,41.184,37.483\H,0,-8.984,40.705,
 37.033\H,0,-8.759,42.985,39.139\H,0,-8.139,41.468,39.517\H,0,-10.802,4
 1.205,38.237\H,0,-12.216,42.727,39.974\H,0,-11.545,43.17,38.404\H,0,-1
 0.741,43.726,39.86\H,0,-11.498,40.889,40.829\H,0,-9.774,40.457,40.876\
 H,0,-10.321,38.417,39.997\H,0,-11.007,39.23,38.571\H,0,-12.994,39.418,
 40.492\H,0,-12.159,37.867,40.933\H,0,-12.399,37.658,38.221\H,0,-14.043
 ,38.567,37.277\H,0,-14.075,39.675,38.485\H,0,-15.29,38.376,38.653\H,0,
 -13.775,36.566,40.777\H,0,-13.138,35.784,39.359\H,0,-14.805,36.365,39.
 394\\Version=ES64L-G16RevA.03\State=1-A\HF=-474.3569868\RMSD=6.735e-09
 \PG=C01 [X(C55H74Mg1N4O6)]\\@


  THE LARGE PRINT GIVETH,
  AND THE SMALL PRINT TAKETH AWAY.

                     -- TOM WAITS
 Job cpu time:       0 days  0 hours  2 minutes 53.2 seconds.
 Elapsed time:       0 days  0 hours  0 minutes  7.5 seconds.
 File lengths (MBytes):  RWF=   1274 Int=      0 D2E=      0 Chk=     38 Scr=      1
 Normal termination of Gaussian 16 at Wed May  4 05:03:17 2022.
