 Entering Gaussian System, Link 0=g16
 Initial command:
 /sw/apps/gaussian-16.0/g16/l1.exe "/tmp/Gau-156743.inp" -scrdir="/tmp/"
 Entering Link 1 = /sw/apps/gaussian-16.0/g16/l1.exe PID=    156744.
  
 Copyright (c) 1988,1990,1992,1993,1995,1998,2003,2009,2016,
            Gaussian, Inc.  All Rights Reserved.
  
 This is part of the Gaussian(R) 16 program.  It is based on
 the Gaussian(R) 09 system (copyright 2009, Gaussian, Inc.),
 the Gaussian(R) 03 system (copyright 2003, Gaussian, Inc.),
 the Gaussian(R) 98 system (copyright 1998, Gaussian, Inc.),
 the Gaussian(R) 94 system (copyright 1995, Gaussian, Inc.),
 the Gaussian 92(TM) system (copyright 1992, Gaussian, Inc.),
 the Gaussian 90(TM) system (copyright 1990, Gaussian, Inc.),
 the Gaussian 88(TM) system (copyright 1988, Gaussian, Inc.),
 the Gaussian 86(TM) system (copyright 1986, Carnegie Mellon
 University), and the Gaussian 82(TM) system (copyright 1983,
 Carnegie Mellon University). Gaussian is a federally registered
 trademark of Gaussian, Inc.
  
 This software contains proprietary and confidential information,
 including trade secrets, belonging to Gaussian, Inc.
  
 This software is provided under written license and may be
 used, copied, transmitted, or stored only in accord with that
 written license.
  
 The following legend is applicable only to US Government
 contracts under FAR:
  
                    RESTRICTED RIGHTS LEGEND
  
 Use, reproduction and disclosure by the US Government is
 subject to restrictions as set forth in subparagraphs (a)
 and (c) of the Commercial Computer Software - Restricted
 Rights clause in FAR 52.227-19.
  
 Gaussian, Inc.
 340 Quinnipiac St., Bldg. 40, Wallingford CT 06492
  
  
 ---------------------------------------------------------------
 Warning -- This program may not be used in any manner that
 competes with the business of Gaussian, Inc. or will provide
 assistance to any competitor of Gaussian, Inc.  The licensee
 of this program is prohibited from giving any competitor of
 Gaussian, Inc. access to this program.  By using this program,
 the user acknowledges that Gaussian, Inc. is engaged in the
 business of creating and licensing software in the field of
 computational chemistry and represents and warrants to the
 licensee that it is not a competitor of Gaussian, Inc. and that
 it will not use this program in any manner prohibited above.
 ---------------------------------------------------------------
  

 Cite this work as:
 Gaussian 16, Revision A.03,
 M. J. Frisch, G. W. Trucks, H. B. Schlegel, G. E. Scuseria, 
 M. A. Robb, J. R. Cheeseman, G. Scalmani, V. Barone, 
 G. A. Petersson, H. Nakatsuji, X. Li, M. Caricato, A. V. Marenich, 
 J. Bloino, B. G. Janesko, R. Gomperts, B. Mennucci, H. P. Hratchian, 
 J. V. Ortiz, A. F. Izmaylov, J. L. Sonnenberg, D. Williams-Young, 
 F. Ding, F. Lipparini, F. Egidi, J. Goings, B. Peng, A. Petrone, 
 T. Henderson, D. Ranasinghe, V. G. Zakrzewski, J. Gao, N. Rega, 
 G. Zheng, W. Liang, M. Hada, M. Ehara, K. Toyota, R. Fukuda, 
 J. Hasegawa, M. Ishida, T. Nakajima, Y. Honda, O. Kitao, H. Nakai, 
 T. Vreven, K. Throssell, J. A. Montgomery, Jr., J. E. Peralta, 
 F. Ogliaro, M. J. Bearpark, J. J. Heyd, E. N. Brothers, K. N. Kudin, 
 V. N. Staroverov, T. A. Keith, R. Kobayashi, J. Normand, 
 K. Raghavachari, A. P. Rendell, J. C. Burant, S. S. Iyengar, 
 J. Tomasi, M. Cossi, J. M. Millam, M. Klene, C. Adamo, R. Cammi, 
 J. W. Ochterski, R. L. Martin, K. Morokuma, O. Farkas, 
 J. B. Foresman, and D. J. Fox, Gaussian, Inc., Wallingford CT, 2016.
 
 ******************************************
 Gaussian 16:  ES64L-G16RevA.03 25-Dec-2016
                 4-May-2022 
 ******************************************
 %nproc=24
 Will use up to   24 processors via shared memory.
 %mem=75GB
 ---------------------------------
 #p PBE1PBE/Def2SVP td=(nstates=5)
 ---------------------------------
 1/38=1,172=1/1;
 2/12=2,17=6,18=5,40=1/2;
 3/5=43,7=101,11=9,25=1,30=1,74=-13/1,2,3,8;
 4//1;
 5/5=2,38=5/2;
 8/6=1,10=1,108=5/1;
 9/41=5,42=1,70=2/14;
 6/7=2,8=2,9=2,10=2/1;
 99/5=1,9=1/99;
 Leave Link    1 at Wed May  4 03:48:12 2022, MaxMem= 10066329600 cpu:               0.6 elap:               0.0
 (Enter /sw/apps/gaussian-16.0/g16/l101.exe)
 ------------------------------------------------------
 step_1351_chromophore_19 TDDFT with PBE1PBE functional
 ------------------------------------------------------
 Symbolic Z-matrix:
 Charge =  0 Multiplicity = 1
 Mg                    25.708    50.222    26.143 
 C                     23.728    51.567    28.688 
 C                     28.06     49.489    28.527 
 C                     27.861    49.583    23.662 
 C                     23.461    51.664    23.752 
 N                     25.92     50.48     28.317 
 C                     24.944    51.055    29.138 
 C                     25.345    50.91     30.574 
 C                     26.928    50.672    30.461 
 C                     27.002    50.184    29.027 
 C                     27.944    51.684    30.931 
 C                     24.547    49.867    31.391 
 C                     23.752    50.383    32.565 
 C                     24.416    51.075    33.751 
 O                     25.062    52.071    33.639 
 O                     24.123    50.383    34.937 
 N                     27.616    49.401    26.113 
 C                     28.445    49.155    27.189 
 C                     29.554    48.472    26.716 
 C                     29.549    48.37     25.345 
 C                     28.28     49.149    24.935 
 C                     30.567    47.871    27.668 
 C                     30.522    47.751    24.42 
 O                     30.283    47.856    23.206 
 C                     31.766    46.979    24.845 
 N                     25.682    50.642    24.102 
 C                     26.754    50.245    23.315 
 C                     26.425    50.629    21.868 
 C                     24.958    50.904    21.824 
 C                     24.655    51.085    23.283 
 C                     27.436    51.765    21.331 
 C                     24.038    49.8      21.2 
 C                     23.898    48.467    21.997 
 N                     23.917    51.309    26.15 
 C                     23.081    51.799    25.112 
 C                     21.967    52.524    25.678 
 C                     22.204    52.467    27.039 
 C                     23.398    51.696    27.338 
 C                     20.89     53.139    24.916 
 C                     21.647    52.898    28.343 
 O                     20.663    53.658    28.572 
 C                     22.656    52.298    29.488 
 C                     23.159    53.393    30.356 
 O                     24.161    54.003    30.142 
 O                     22.263    53.637    31.353 
 C                     22.584    54.806    32.265 
 C                     24.911    51.045    36.04 
 C                     24.794    50.18     37.255 
 C                     25.448    50.154    38.471 
 C                     26.347    51.369    38.819 
 C                     25.102    49.165    39.551 
 C                     26.138    48.088    39.915 
 C                     25.346    46.834    40.467 
 C                     26.188    45.898    41.328 
 C                     26.888    44.866    40.465 
 C                     25.365    45.239    42.461 
 C                     26.029    45.6      43.871 
 C                     25.129    46.615    44.692 
 C                     25.971    47.894    45.061 
 C                     25.697    48.427    46.478 
 C                     25.93     48.914    43.982 
 C                     27.405    49.456    43.754 
 C                     27.393    50.887    43.244 
 C                     27.848    51.986    44.309 
 C                     27.008    53.206    44.269 
 C                     29.318    52.282    44.13 
 H                     28.704    49.269    29.381 
 H                     28.503    49.396    22.799 
 H                     22.777    51.97     22.957 
 H                     25.289    51.927    30.964 
 H                     27.192    49.823    31.091 
 H                     28.821    51.806    30.295 
 H                     28.223    51.452    31.959 
 H                     27.452    52.65     30.818 
 H                     25.25     49.134    31.786 
 H                     23.975    49.181    30.767 
 H                     23.009    49.645    32.868 
 H                     23.084    51.127    32.132 
 H                     31.577    48.268    27.558 
 H                     30.521    46.797    27.485 
 H                     30.347    48.134    28.702 
 H                     32.431    47.752    25.229 
 H                     32.18     46.404    24.017 
 H                     31.53     46.223    25.595 
 H                     26.577    49.747    21.246 
 H                     24.834    51.828    21.26 
 H                     27.909    52.33     22.133 
 H                     26.857    52.368    20.631 
 H                     28.257    51.239    20.843 
 H                     24.221    49.625    20.14 
 H                     23.071    50.271    21.38 
 H                     23.738    47.71     21.228 
 H                     22.922    48.434    22.482 
 H                     24.777    48.224    22.593 
 H                     20.301    53.751    25.6 
 H                     20.346    52.385    24.348 
 H                     21.29     53.835    24.178 
 H                     22.208    51.576    30.17 
 H                     23.181    54.307    33.028 
 H                     21.673    55.17     32.74 
 H                     23.158    55.575    31.748 
 H                     24.612    52.08     36.204 
 H                     25.975    51.038    35.806 
 H                     24.164    49.314    37.055 
 H                     26.73     51.963    37.989 
 H                     27.138    51.094    39.517 
 H                     25.682    52.065    39.329 
 H                     24.123    48.75     39.311 
 H                     24.844    49.792    40.405 
 H                     26.963    48.473    40.516 
 H                     26.604    47.626    39.045 
 H                     24.966    46.3      39.597 
 H                     24.449    47.183    40.979 
 H                     26.895    46.537    41.856 
 H                     27.283    45.402    39.602 
 H                     26.324    43.999    40.121 
 H                     27.716    44.455    41.042 
 H                     25.373    44.15     42.43 
 H                     24.328    45.575    42.488 
 H                     27.012    46.053    43.736 
 H                     25.98     44.673    44.441 
 H                     24.668    46.206    45.591 
 H                     24.255    46.892    44.102 
 H                     27.005    47.551    45.094 
 H                     25.324    49.451    46.47 
 H                     26.598    48.499    47.087 
 H                     24.985    47.755    46.957 
 H                     25.082    49.584    44.124 
 H                     25.653    48.33     43.104 
 H                     27.966    48.722    43.176 
 H                     27.872    49.421    44.738 
 H                     26.382    51.075    42.884 
 H                     28.022    50.929    42.355 
 H                     27.679    51.449    45.241 
 H                     26.769    53.363    43.217 
 H                     27.583    54.065    44.617 
 H                     26.258    53.034    45.04 
 H                     29.495    53.261    43.684 
 H                     29.806    51.546    43.49 
 H                     29.859    52.227    45.074 
 
 ITRead=  0  0  0  0  0  0  0  0  0  0  0  0  0  0  0  0  0  0  0  0
 ITRead=  0  0  0  0  0  0  0  0  0  0  0  0  0  0  0  0  0  0  0  0
 ITRead=  0  0  0  0  0  0  0  0  0  0  0  0  0  0  0  0  0  0  0  0
 ITRead=  0  0  0  0  0  0  0  0  0  0  0  0  0  0  0  0  0  0  0  0
 ITRead=  0  0  0  0  0  0  0  0  0  0  0  0  0  0  0  0  0  0  0  0
 ITRead=  0  0  0  0  0  0  0  0  0  0  0  0  0  0  0  0  0  0  0  0
 ITRead=  0  0  0  0  0  0  0  0  0  0  0  0  0  0  0  0  0  0  0  0
 MicOpt= -1 -1 -1 -1 -1 -1 -1 -1 -1 -1 -1 -1 -1 -1 -1 -1 -1 -1 -1 -1
 MicOpt= -1 -1 -1 -1 -1 -1 -1 -1 -1 -1 -1 -1 -1 -1 -1 -1 -1 -1 -1 -1
 MicOpt= -1 -1 -1 -1 -1 -1 -1 -1 -1 -1 -1 -1 -1 -1 -1 -1 -1 -1 -1 -1
 MicOpt= -1 -1 -1 -1 -1 -1 -1 -1 -1 -1 -1 -1 -1 -1 -1 -1 -1 -1 -1 -1
 MicOpt= -1 -1 -1 -1 -1 -1 -1 -1 -1 -1 -1 -1 -1 -1 -1 -1 -1 -1 -1 -1
 MicOpt= -1 -1 -1 -1 -1 -1 -1 -1 -1 -1 -1 -1 -1 -1 -1 -1 -1 -1 -1 -1
 MicOpt= -1 -1 -1 -1 -1 -1 -1 -1 -1 -1 -1 -1 -1 -1 -1 -1 -1 -1 -1 -1
 NAtoms=    140 NQM=      140 NQMF=       0 NMMI=      0 NMMIF=      0
                NMic=       0 NMicF=      0.
                    Isotopes and Nuclear Properties:
 (Nuclear quadrupole moments (NQMom) in fm**2, nuclear magnetic moments (NMagM)
  in nuclear magnetons)

  Atom         1           2           3           4           5           6           7           8           9          10
 IAtWgt=          24          12          12          12          12          14          12          12          12          12
 AtmWgt=  23.9850450  12.0000000  12.0000000  12.0000000  12.0000000  14.0030740  12.0000000  12.0000000  12.0000000  12.0000000
 NucSpn=           0           0           0           0           0           2           0           0           0           0
 AtZEff=  -0.0000000  -0.0000000  -0.0000000  -0.0000000  -0.0000000  -0.0000000  -0.0000000  -0.0000000  -0.0000000  -0.0000000
 NQMom=    0.0000000   0.0000000   0.0000000   0.0000000   0.0000000   2.0440000   0.0000000   0.0000000   0.0000000   0.0000000
 NMagM=    0.0000000   0.0000000   0.0000000   0.0000000   0.0000000   0.4037610   0.0000000   0.0000000   0.0000000   0.0000000
 AtZNuc=  12.0000000   6.0000000   6.0000000   6.0000000   6.0000000   7.0000000   6.0000000   6.0000000   6.0000000   6.0000000

  Atom        11          12          13          14          15          16          17          18          19          20
 IAtWgt=          12          12          12          12          16          16          14          12          12          12
 AtmWgt=  12.0000000  12.0000000  12.0000000  12.0000000  15.9949146  15.9949146  14.0030740  12.0000000  12.0000000  12.0000000
 NucSpn=           0           0           0           0           0           0           2           0           0           0
 AtZEff=  -0.0000000  -0.0000000  -0.0000000  -0.0000000  -0.0000000  -0.0000000  -0.0000000  -0.0000000  -0.0000000  -0.0000000
 NQMom=    0.0000000   0.0000000   0.0000000   0.0000000   0.0000000   0.0000000   2.0440000   0.0000000   0.0000000   0.0000000
 NMagM=    0.0000000   0.0000000   0.0000000   0.0000000   0.0000000   0.0000000   0.4037610   0.0000000   0.0000000   0.0000000
 AtZNuc=   6.0000000   6.0000000   6.0000000   6.0000000   8.0000000   8.0000000   7.0000000   6.0000000   6.0000000   6.0000000

  Atom        21          22          23          24          25          26          27          28          29          30
 IAtWgt=          12          12          12          16          12          14          12          12          12          12
 AtmWgt=  12.0000000  12.0000000  12.0000000  15.9949146  12.0000000  14.0030740  12.0000000  12.0000000  12.0000000  12.0000000
 NucSpn=           0           0           0           0           0           2           0           0           0           0
 AtZEff=  -0.0000000  -0.0000000  -0.0000000  -0.0000000  -0.0000000  -0.0000000  -0.0000000  -0.0000000  -0.0000000  -0.0000000
 NQMom=    0.0000000   0.0000000   0.0000000   0.0000000   0.0000000   2.0440000   0.0000000   0.0000000   0.0000000   0.0000000
 NMagM=    0.0000000   0.0000000   0.0000000   0.0000000   0.0000000   0.4037610   0.0000000   0.0000000   0.0000000   0.0000000
 AtZNuc=   6.0000000   6.0000000   6.0000000   8.0000000   6.0000000   7.0000000   6.0000000   6.0000000   6.0000000   6.0000000

  Atom        31          32          33          34          35          36          37          38          39          40
 IAtWgt=          12          12          12          14          12          12          12          12          12          12
 AtmWgt=  12.0000000  12.0000000  12.0000000  14.0030740  12.0000000  12.0000000  12.0000000  12.0000000  12.0000000  12.0000000
 NucSpn=           0           0           0           2           0           0           0           0           0           0
 AtZEff=  -0.0000000  -0.0000000  -0.0000000  -0.0000000  -0.0000000  -0.0000000  -0.0000000  -0.0000000  -0.0000000  -0.0000000
 NQMom=    0.0000000   0.0000000   0.0000000   2.0440000   0.0000000   0.0000000   0.0000000   0.0000000   0.0000000   0.0000000
 NMagM=    0.0000000   0.0000000   0.0000000   0.4037610   0.0000000   0.0000000   0.0000000   0.0000000   0.0000000   0.0000000
 AtZNuc=   6.0000000   6.0000000   6.0000000   7.0000000   6.0000000   6.0000000   6.0000000   6.0000000   6.0000000   6.0000000

  Atom        41          42          43          44          45          46          47          48          49          50
 IAtWgt=          16          12          12          16          16          12          12          12          12          12
 AtmWgt=  15.9949146  12.0000000  12.0000000  15.9949146  15.9949146  12.0000000  12.0000000  12.0000000  12.0000000  12.0000000
 NucSpn=           0           0           0           0           0           0           0           0           0           0
 AtZEff=  -0.0000000  -0.0000000  -0.0000000  -0.0000000  -0.0000000  -0.0000000  -0.0000000  -0.0000000  -0.0000000  -0.0000000
 NQMom=    0.0000000   0.0000000   0.0000000   0.0000000   0.0000000   0.0000000   0.0000000   0.0000000   0.0000000   0.0000000
 NMagM=    0.0000000   0.0000000   0.0000000   0.0000000   0.0000000   0.0000000   0.0000000   0.0000000   0.0000000   0.0000000
 AtZNuc=   8.0000000   6.0000000   6.0000000   8.0000000   8.0000000   6.0000000   6.0000000   6.0000000   6.0000000   6.0000000

  Atom        51          52          53          54          55          56          57          58          59          60
 IAtWgt=          12          12          12          12          12          12          12          12          12          12
 AtmWgt=  12.0000000  12.0000000  12.0000000  12.0000000  12.0000000  12.0000000  12.0000000  12.0000000  12.0000000  12.0000000
 NucSpn=           0           0           0           0           0           0           0           0           0           0
 AtZEff=  -0.0000000  -0.0000000  -0.0000000  -0.0000000  -0.0000000  -0.0000000  -0.0000000  -0.0000000  -0.0000000  -0.0000000
 NQMom=    0.0000000   0.0000000   0.0000000   0.0000000   0.0000000   0.0000000   0.0000000   0.0000000   0.0000000   0.0000000
 NMagM=    0.0000000   0.0000000   0.0000000   0.0000000   0.0000000   0.0000000   0.0000000   0.0000000   0.0000000   0.0000000
 AtZNuc=   6.0000000   6.0000000   6.0000000   6.0000000   6.0000000   6.0000000   6.0000000   6.0000000   6.0000000   6.0000000

  Atom        61          62          63          64          65          66          67          68          69          70
 IAtWgt=          12          12          12          12          12          12           1           1           1           1
 AtmWgt=  12.0000000  12.0000000  12.0000000  12.0000000  12.0000000  12.0000000   1.0078250   1.0078250   1.0078250   1.0078250
 NucSpn=           0           0           0           0           0           0           1           1           1           1
 AtZEff=  -0.0000000  -0.0000000  -0.0000000  -0.0000000  -0.0000000  -0.0000000  -0.0000000  -0.0000000  -0.0000000  -0.0000000
 NQMom=    0.0000000   0.0000000   0.0000000   0.0000000   0.0000000   0.0000000   0.0000000   0.0000000   0.0000000   0.0000000
 NMagM=    0.0000000   0.0000000   0.0000000   0.0000000   0.0000000   0.0000000   2.7928460   2.7928460   2.7928460   2.7928460
 AtZNuc=   6.0000000   6.0000000   6.0000000   6.0000000   6.0000000   6.0000000   1.0000000   1.0000000   1.0000000   1.0000000

  Atom        71          72          73          74          75          76          77          78          79          80
 IAtWgt=           1           1           1           1           1           1           1           1           1           1
 AtmWgt=   1.0078250   1.0078250   1.0078250   1.0078250   1.0078250   1.0078250   1.0078250   1.0078250   1.0078250   1.0078250
 NucSpn=           1           1           1           1           1           1           1           1           1           1
 AtZEff=  -0.0000000  -0.0000000  -0.0000000  -0.0000000  -0.0000000  -0.0000000  -0.0000000  -0.0000000  -0.0000000  -0.0000000
 NQMom=    0.0000000   0.0000000   0.0000000   0.0000000   0.0000000   0.0000000   0.0000000   0.0000000   0.0000000   0.0000000
 NMagM=    2.7928460   2.7928460   2.7928460   2.7928460   2.7928460   2.7928460   2.7928460   2.7928460   2.7928460   2.7928460
 AtZNuc=   1.0000000   1.0000000   1.0000000   1.0000000   1.0000000   1.0000000   1.0000000   1.0000000   1.0000000   1.0000000

  Atom        81          82          83          84          85          86          87          88          89          90
 IAtWgt=           1           1           1           1           1           1           1           1           1           1
 AtmWgt=   1.0078250   1.0078250   1.0078250   1.0078250   1.0078250   1.0078250   1.0078250   1.0078250   1.0078250   1.0078250
 NucSpn=           1           1           1           1           1           1           1           1           1           1
 AtZEff=  -0.0000000  -0.0000000  -0.0000000  -0.0000000  -0.0000000  -0.0000000  -0.0000000  -0.0000000  -0.0000000  -0.0000000
 NQMom=    0.0000000   0.0000000   0.0000000   0.0000000   0.0000000   0.0000000   0.0000000   0.0000000   0.0000000   0.0000000
 NMagM=    2.7928460   2.7928460   2.7928460   2.7928460   2.7928460   2.7928460   2.7928460   2.7928460   2.7928460   2.7928460
 AtZNuc=   1.0000000   1.0000000   1.0000000   1.0000000   1.0000000   1.0000000   1.0000000   1.0000000   1.0000000   1.0000000

  Atom        91          92          93          94          95          96          97          98          99         100
 IAtWgt=           1           1           1           1           1           1           1           1           1           1
 AtmWgt=   1.0078250   1.0078250   1.0078250   1.0078250   1.0078250   1.0078250   1.0078250   1.0078250   1.0078250   1.0078250
 NucSpn=           1           1           1           1           1           1           1           1           1           1
 AtZEff=  -0.0000000  -0.0000000  -0.0000000  -0.0000000  -0.0000000  -0.0000000  -0.0000000  -0.0000000  -0.0000000  -0.0000000
 NQMom=    0.0000000   0.0000000   0.0000000   0.0000000   0.0000000   0.0000000   0.0000000   0.0000000   0.0000000   0.0000000
 NMagM=    2.7928460   2.7928460   2.7928460   2.7928460   2.7928460   2.7928460   2.7928460   2.7928460   2.7928460   2.7928460
 AtZNuc=   1.0000000   1.0000000   1.0000000   1.0000000   1.0000000   1.0000000   1.0000000   1.0000000   1.0000000   1.0000000

  Atom       101         102         103         104         105         106         107         108         109         110
 IAtWgt=           1           1           1           1           1           1           1           1           1           1
 AtmWgt=   1.0078250   1.0078250   1.0078250   1.0078250   1.0078250   1.0078250   1.0078250   1.0078250   1.0078250   1.0078250
 NucSpn=           1           1           1           1           1           1           1           1           1           1
 AtZEff=  -0.0000000  -0.0000000  -0.0000000  -0.0000000  -0.0000000  -0.0000000  -0.0000000  -0.0000000  -0.0000000  -0.0000000
 NQMom=    0.0000000   0.0000000   0.0000000   0.0000000   0.0000000   0.0000000   0.0000000   0.0000000   0.0000000   0.0000000
 NMagM=    2.7928460   2.7928460   2.7928460   2.7928460   2.7928460   2.7928460   2.7928460   2.7928460   2.7928460   2.7928460
 AtZNuc=   1.0000000   1.0000000   1.0000000   1.0000000   1.0000000   1.0000000   1.0000000   1.0000000   1.0000000   1.0000000

  Atom       111         112         113         114         115         116         117         118         119         120
 IAtWgt=           1           1           1           1           1           1           1           1           1           1
 AtmWgt=   1.0078250   1.0078250   1.0078250   1.0078250   1.0078250   1.0078250   1.0078250   1.0078250   1.0078250   1.0078250
 NucSpn=           1           1           1           1           1           1           1           1           1           1
 AtZEff=  -0.0000000  -0.0000000  -0.0000000  -0.0000000  -0.0000000  -0.0000000  -0.0000000  -0.0000000  -0.0000000  -0.0000000
 NQMom=    0.0000000   0.0000000   0.0000000   0.0000000   0.0000000   0.0000000   0.0000000   0.0000000   0.0000000   0.0000000
 NMagM=    2.7928460   2.7928460   2.7928460   2.7928460   2.7928460   2.7928460   2.7928460   2.7928460   2.7928460   2.7928460
 AtZNuc=   1.0000000   1.0000000   1.0000000   1.0000000   1.0000000   1.0000000   1.0000000   1.0000000   1.0000000   1.0000000

  Atom       121         122         123         124         125         126         127         128         129         130
 IAtWgt=           1           1           1           1           1           1           1           1           1           1
 AtmWgt=   1.0078250   1.0078250   1.0078250   1.0078250   1.0078250   1.0078250   1.0078250   1.0078250   1.0078250   1.0078250
 NucSpn=           1           1           1           1           1           1           1           1           1           1
 AtZEff=  -0.0000000  -0.0000000  -0.0000000  -0.0000000  -0.0000000  -0.0000000  -0.0000000  -0.0000000  -0.0000000  -0.0000000
 NQMom=    0.0000000   0.0000000   0.0000000   0.0000000   0.0000000   0.0000000   0.0000000   0.0000000   0.0000000   0.0000000
 NMagM=    2.7928460   2.7928460   2.7928460   2.7928460   2.7928460   2.7928460   2.7928460   2.7928460   2.7928460   2.7928460
 AtZNuc=   1.0000000   1.0000000   1.0000000   1.0000000   1.0000000   1.0000000   1.0000000   1.0000000   1.0000000   1.0000000

  Atom       131         132         133         134         135         136         137         138         139         140
 IAtWgt=           1           1           1           1           1           1           1           1           1           1
 AtmWgt=   1.0078250   1.0078250   1.0078250   1.0078250   1.0078250   1.0078250   1.0078250   1.0078250   1.0078250   1.0078250
 NucSpn=           1           1           1           1           1           1           1           1           1           1
 AtZEff=  -0.0000000  -0.0000000  -0.0000000  -0.0000000  -0.0000000  -0.0000000  -0.0000000  -0.0000000  -0.0000000  -0.0000000
 NQMom=    0.0000000   0.0000000   0.0000000   0.0000000   0.0000000   0.0000000   0.0000000   0.0000000   0.0000000   0.0000000
 NMagM=    2.7928460   2.7928460   2.7928460   2.7928460   2.7928460   2.7928460   2.7928460   2.7928460   2.7928460   2.7928460
 AtZNuc=   1.0000000   1.0000000   1.0000000   1.0000000   1.0000000   1.0000000   1.0000000   1.0000000   1.0000000   1.0000000
 Leave Link  101 at Wed May  4 03:48:13 2022, MaxMem= 10066329600 cpu:               2.8 elap:               0.1
 (Enter /sw/apps/gaussian-16.0/g16/l202.exe)
 Stoichiometry    C55H74MgN4O6
 Framework group  C1[X(C55H74MgN4O6)]
 Deg. of freedom   414
 Full point group                 C1      NOp   1
 Largest Abelian subgroup         C1      NOp   1
 Largest concise Abelian subgroup C1      NOp   1
                         Standard orientation:                         
 ---------------------------------------------------------------------
 Center     Atomic      Atomic             Coordinates (Angstroms)
 Number     Number       Type             X           Y           Z
 ---------------------------------------------------------------------
      1         12           0       -5.840404    0.397591   -0.289107
      2          6           0       -3.471005   -2.168675   -0.370830
      3          6           0       -3.342188    2.505880    0.743695
      4          6           0       -8.201240    2.650762    0.451675
      5          6           0       -8.402813   -2.073190   -0.706903
      6          7           0       -3.691214    0.240245    0.151361
      7          6           0       -2.947628   -0.937670    0.021602
      8          6           0       -1.494505   -0.641460    0.232822
      9          6           0       -1.545484    0.743891    1.041219
     10          6           0       -2.930638    1.212771    0.639375
     11          6           0       -1.136328    0.862950    2.488878
     12          6           0       -0.613386   -0.666745   -1.038056
     13          6           0        0.491543   -1.693272   -1.082002
     14          6           0        1.631738   -1.699353   -0.068950
     15          8           0        1.452845   -1.814404    1.104352
     16          8           0        2.863940   -1.580136   -0.731349
     17          7           0       -5.750887    2.394379    0.276782
     18          6           0       -4.636601    3.112379    0.661977
     19          6           0       -5.020937    4.435536    0.809082
     20          6           0       -6.378056    4.596531    0.659483
     21          6           0       -6.885561    3.154098    0.442392
     22          6           0       -3.995319    5.527920    1.029259
     23          6           0       -7.221590    5.807358    0.748156
     24          8           0       -8.445961    5.645533    0.619037
     25          6           0       -6.700390    7.224907    0.955640
     26          7           0       -7.909593    0.264398   -0.080610
     27          6           0       -8.631855    1.402689    0.249227
     28          6           0      -10.114266    1.013314    0.267981
     29          6           0      -10.219763   -0.293699   -0.446328
     30          6           0       -8.789736   -0.749592   -0.425447
     31          6           0      -10.718774    1.124898    1.758989
     32          6           0      -10.772018   -0.269287   -1.912278
     33          6           0       -9.869064    0.399063   -2.993795
     34          7           0       -5.972265   -1.673500   -0.576322
     35          6           0       -7.069523   -2.552683   -0.775079
     36          6           0       -6.596236   -3.912894   -0.888232
     37          6           0       -5.229555   -3.793532   -0.715967
     38          6           0       -4.835254   -2.406115   -0.545438
     39          6           0       -7.435460   -5.077683   -1.128579
     40          6           0       -3.981715   -4.591743   -0.669262
     41          8           0       -3.843662   -5.848251   -0.689903
     42          6           0       -2.764045   -3.517297   -0.441339
     43          6           0       -1.978904   -3.877472    0.766670
     44          8           0       -2.217425   -3.466916    1.860494
     45          8           0       -1.029917   -4.798800    0.439653
     46          6           0       -0.211973   -5.349769    1.592366
     47          6           0        3.927245   -1.465120    0.332583
     48          6           0        5.207574   -1.103078   -0.351390
     49          6           0        6.438120   -0.669032    0.100726
     50          6           0        6.705522   -0.758996    1.625827
     51          6           0        7.588473   -0.396941   -0.830345
     52          6           0        8.069265    1.054961   -0.993261
     53          6           0        8.704429    1.186108   -2.436816
     54          6           0        9.663263    2.362558   -2.588419
     55          6           0        8.909270    3.615967   -2.988736
     56          6           0       10.826006    2.053901   -3.562102
     57          6           0       12.217318    2.238823   -2.794396
     58          6           0       12.925677    0.844035   -2.535439
     59          6           0       13.207090    0.668194   -0.995681
     60          6           0       14.566267    0.017229   -0.685947
     61          6           0       12.044979    0.076424   -0.284606
     62          6           0       11.810648    0.897515    1.054151
     63          6           0       11.181297    0.028706    2.129833
     64          6           0       12.161069   -0.385711    3.320361
     65          6           0       11.996041   -1.799082    3.733578
     66          6           0       11.996223    0.582105    4.467844
     67          1           0       -2.456072    3.080432    1.021440
     68          1           0       -9.028225    3.329481    0.669251
     69          1           0       -9.238482   -2.737021   -0.940362
     70          1           0       -1.193525   -1.351132    1.004380
     71          1           0       -0.839235    1.434490    0.581130
     72          1           0       -1.757188    1.513530    3.105147
     73          1           0       -0.085438    1.149105    2.535707
     74          1           0       -1.343474   -0.115900    2.921235
     75          1           0       -0.139531    0.308944   -1.143013
     76          1           0       -1.191886   -0.634441   -1.960796
     77          1           0        0.836323   -1.829251   -2.107253
     78          1           0       -0.020176   -2.645912   -0.948322
     79          1           0       -4.112023    6.070548    1.968271
     80          1           0       -4.087962    6.178969    0.159412
     81          1           0       -2.993386    5.116291    1.145085
     82          1           0       -6.365871    7.227869    1.992606
     83          1           0       -7.465663    7.967428    0.730640
     84          1           0       -5.895570    7.460553    0.258168
     85          1           0      -10.655240    1.729900   -0.349889
     86          1           0      -10.862949   -0.927583    0.163385
     87          1           0       -9.955330    1.078552    2.534336
     88          1           0      -11.482188    0.349335    1.826453
     89          1           0      -11.138871    2.127357    1.845334
     90          1           0      -11.808262    0.060394   -1.984559
     91          1           0      -10.657882   -1.327837   -2.148446
     92          1           0      -10.575202    0.806113   -3.718839
     93          1           0       -9.408731   -0.372980   -3.610993
     94          1           0       -9.231837    1.189302   -2.598358
     95          1           0       -6.821333   -5.968534   -0.992366
     96          1           0       -7.951695   -4.985157   -2.083574
     97          1           0       -8.218959   -5.149396   -0.373565
     98          1           0       -2.035383   -3.462394   -1.249516
     99          1           0        0.605868   -4.630077    1.619903
    100          1           0        0.206521   -6.319526    1.323153
    101          1           0       -0.776960   -5.348552    2.524522
    102          1           0        3.995228   -2.357918    0.953721
    103          1           0        3.722613   -0.618225    0.986643
    104          1           0        5.065115   -1.034139   -1.429263
    105          1           0        5.838566   -0.773181    2.286593
    106          1           0        7.444750   -0.024463    1.946001
    107          1           0        7.137237   -1.748643    1.770612
    108          1           0        7.358886   -0.878473   -1.780967
    109          1           0        8.379330   -1.052973   -0.465411
    110          1           0        8.656939    1.409274   -0.145233
    111          1           0        7.253960    1.770071   -1.100014
    112          1           0        7.873065    1.290161   -3.132850
    113          1           0        9.161413    0.233889   -2.706999
    114          1           0       10.153650    2.471496   -1.621669
    115          1           0        8.014665    3.649878   -2.366948
    116          1           0        8.625189    3.747326   -4.032845
    117          1           0        9.540446    4.473361   -2.756516
    118          1           0       10.887449    2.745048   -4.402035
    119          1           0       10.797329    1.036948   -3.954501
    120          1           0       12.070268    2.727245   -1.830268
    121          1           0       12.862205    2.739960   -3.515237
    122          1           0       13.843671    0.676670   -3.098714
    123          1           0       12.291682    0.035919   -2.901094
    124          1           0       13.296044    1.682792   -0.607644
    125          1           0       14.461919   -0.913408   -0.128457
    126          1           0       15.190375    0.626112   -0.032022
    127          1           0       15.081585   -0.149035   -1.631871
    128          1           0       12.107548   -1.011774   -0.293468
    129          1           0       11.212572    0.292300   -0.954804
    130          1           0       11.311691    1.835322    0.811003
    131          1           0       12.805970    1.209238    1.369955
    132          1           0       10.780340   -0.846814    1.620164
    133          1           0       10.308705    0.555703    2.515298
    134          1           0       13.130406   -0.248779    2.843716
    135          1           0       10.928636   -2.005430    3.652704
    136          1           0       12.285071   -1.917188    4.778624
    137          1           0       12.758925   -2.329751    3.165314
    138          1           0       11.473801    0.138524    5.315781
    139          1           0       11.433767    1.469108    4.174061
    140          1           0       12.955332    0.966707    4.812856
 ---------------------------------------------------------------------
 Rotational constants (GHZ):           0.0530357           0.0091806           0.0084098
 Leave Link  202 at Wed May  4 03:48:13 2022, MaxMem= 10066329600 cpu:               0.2 elap:               0.0
 (Enter /sw/apps/gaussian-16.0/g16/l301.exe)
 Standard basis: def2SVP (5D, 7F)
 Ernie: Thresh=  0.10000D-02 Tol=  0.10000D-05 Strict=F.
 There are  1364 symmetry adapted cartesian basis functions of A   symmetry.
 There are  1298 symmetry adapted basis functions of A   symmetry.
  1298 basis functions,  2180 primitive gaussians,  1364 cartesian basis functions
   246 alpha electrons      246 beta electrons
       nuclear repulsion energy      9579.6515590517 Hartrees.
 IExCor= 1009 DFT=T Ex+Corr=PBE1PBE ExCW=0 ScaHFX=  0.250000
 ScaDFX=  0.750000  0.750000  1.000000  1.000000 ScalE2=  1.000000  1.000000
 IRadAn=      5 IRanWt=     -1 IRanGd=            0 ICorTp=0 IEmpDi=  4
 NAtoms=  140 NActive=  140 NUniq=  140 SFac= 1.00D+00 NAtFMM=   60 NAOKFM=T Big=T
 Integral buffers will be    131072 words long.
 Regular integral format.
 Two-electron integral symmetry is turned on.
 Leave Link  301 at Wed May  4 03:48:13 2022, MaxMem= 10066329600 cpu:               1.3 elap:               0.1
 (Enter /sw/apps/gaussian-16.0/g16/l302.exe)
 NPDir=0 NMtPBC=     1 NCelOv=     1 NCel=       1 NClECP=     1 NCelD=      1
         NCelK=      1 NCelE2=     1 NClLst=     1 CellRange=     0.0.
 One-electron integrals computed using PRISM.
 One-electron integral symmetry used in STVInt
   1 Symmetry operations used in ECPInt.
 ECPInt:  NShTT=  192510 NPrTT=  683786 LenC2=   93393 LenP2D=  207002.
 LDataN:  DoStor=T MaxTD1= 4 Len=   56
 NBasis=  1298 RedAO= T EigKep=  3.14D-04  NBF=  1298
 NBsUse=  1298 1.00D-06 EigRej= -1.00D+00 NBFU=  1298
 Precomputing XC quadrature grid using
 IXCGrd= 4 IRadAn=           5 IRanWt=          -1 IRanGd=           0 AccXCQ= 0.00D+00.
 Generated NRdTot=       0 NPtTot=           0 NUsed=           0 NTot=          32
 NSgBfM=   965   944   944   952   965 MxSgAt=   140 MxSgA2=   140.
 Leave Link  302 at Wed May  4 03:48:16 2022, MaxMem= 10066329600 cpu:              78.9 elap:               3.3
 (Enter /sw/apps/gaussian-16.0/g16/l303.exe)
 DipDrv:  MaxL=1.
 Leave Link  303 at Wed May  4 03:48:16 2022, MaxMem= 10066329600 cpu:               6.3 elap:               0.3
 (Enter /sw/apps/gaussian-16.0/g16/l308.exe)
 Leave Link  308 at Wed May  4 03:48:17 2022, MaxMem= 10066329600 cpu:              10.6 elap:               0.5
 (Enter /sw/apps/gaussian-16.0/g16/l401.exe)
 ExpMin= 3.36D-02 ExpMax= 4.95D+03 ExpMxC= 7.45D+02 IAcc=3 IRadAn=         5 AccDes= 0.00D+00
 Harris functional with IExCor= 1009 and IRadAn=       5 diagonalized for initial guess.
 HarFok:  IExCor= 1009 AccDes= 0.00D+00 IRadAn=         5 IDoV= 1 UseB2=F ITyADJ=14
 ICtDFT=  3500011 ScaDFX=  1.000000  1.000000  1.000000  1.000000
 FoFCou: FMM=F IPFlag=           0 FMFlag=      100000 FMFlg1=        2001
         NFxFlg=           0 DoJE=T BraDBF=F KetDBF=T FulRan=T
         wScrn=  0.000000 ICntrl=       500 IOpCl=  0 I1Cent=   200000004 NGrid=           0
         NMat0=    1 NMatS0=      1 NMatT0=    0 NMatD0=    1 NMtDS0=    0 NMtDT0=    0
 Petite list used in FoFCou.
 Harris En= -3006.17038792965    
 JPrj=0 DoOrth=F DoCkMO=F.
 Leave Link  401 at Wed May  4 03:48:22 2022, MaxMem= 10066329600 cpu:             131.6 elap:               5.5
 (Enter /sw/apps/gaussian-16.0/g16/l502.exe)
 Integral symmetry usage will be decided dynamically.
 Closed shell SCF:
 Using DIIS extrapolation, IDIIS=  1040.
 NGot= 10066329600 LenX= 10062561258 LenY= 10060699398
 Requested convergence on RMS density matrix=1.00D-08 within 128 cycles.
 Requested convergence on MAX density matrix=1.00D-06.
 Requested convergence on             energy=1.00D-06.
 No special actions if energy rises.
 Fock matrices will be formed incrementally for  20 cycles.

 Cycle   1  Pass 1  IDiag  1:
 FoFJK:  IHMeth= 1 ICntrl=       0 DoSepK=F KAlg= 0 I1Cent=           0 FoldK=F
 IRaf= 530000000 NMat=       1 IRICut=       1 DoRegI=T DoRafI=F ISym2E= 0 IDoP0=0 IntGTp=1.
 FoFCou: FMM=T IPFlag=           0 FMFlag=      100000 FMFlg1=        2001
         NFxFlg=           0 DoJE=F BraDBF=F KetDBF=F FulRan=T
         wScrn=  0.000000 ICntrl=         0 IOpCl=  0 I1Cent=           0 NGrid=           0
         NMat0=    1 NMatS0=      1 NMatT0=    0 NMatD0=    1 NMtDS0=    0 NMtDT0=    0
 Symmetry not used in FoFCou.
 FMM levels:  10  Number of levels for PrismC:   9
 E= -3003.83927321925    
 DIIS: error= 1.92D-02 at cycle   1 NSaved=   1.
 NSaved= 1 IEnMin= 1 EnMin= -3003.83927321925     IErMin= 1 ErrMin= 1.92D-02
 ErrMax= 1.92D-02  0.00D+00 EMaxC= 1.00D-01 BMatC= 1.45D+00 BMatP= 1.45D+00
 IDIUse=3 WtCom= 8.08D-01 WtEn= 1.92D-01
 Coeff-Com:  0.100D+01
 Coeff-En:   0.100D+01
 Coeff:      0.100D+01
 Gap=     0.080 Goal=   None    Shift=    0.000
 GapD=    0.080 DampG=0.500 DampE=0.500 DampFc=0.2500 IDamp=-1.
 Damping current iteration by 2.50D-01
 RMSDP=2.69D-03 MaxDP=5.39D-01              OVMax= 2.18D-01

 Cycle   2  Pass 1  IDiag  1:
 RMSU=  6.66D-04    CP:  9.89D-01
 E= -3004.38563171199     Delta-E=       -0.546358492744 Rises=F Damp=T
 DIIS: error= 9.54D-03 at cycle   2 NSaved=   2.
 NSaved= 2 IEnMin= 2 EnMin= -3004.38563171199     IErMin= 2 ErrMin= 9.54D-03
 ErrMax= 9.54D-03  0.00D+00 EMaxC= 1.00D-01 BMatC= 3.66D-01 BMatP= 1.45D+00
 IDIUse=3 WtCom= 9.05D-01 WtEn= 9.54D-02
 Coeff-Com: -0.788D+00 0.179D+01
 Coeff-En:   0.000D+00 0.100D+01
 Coeff:     -0.713D+00 0.171D+01
 Gap=     0.178 Goal=   None    Shift=    0.000
 RMSDP=9.76D-04 MaxDP=8.41D-02 DE=-5.46D-01 OVMax= 1.64D-01

 Cycle   3  Pass 1  IDiag  1:
 RMSU=  8.21D-04    CP:  9.64D-01  1.71D+00
 E= -3005.22499228983     Delta-E=       -0.839360577842 Rises=F Damp=F
 DIIS: error= 1.17D-02 at cycle   3 NSaved=   3.
 NSaved= 3 IEnMin= 3 EnMin= -3005.22499228983     IErMin= 2 ErrMin= 9.54D-03
 ErrMax= 1.17D-02  0.00D+00 EMaxC= 1.00D-01 BMatC= 1.59D-01 BMatP= 3.66D-01
 IDIUse=3 WtCom= 8.83D-01 WtEn= 1.17D-01
 Coeff-Com: -0.499D+00 0.105D+01 0.446D+00
 Coeff-En:   0.000D+00 0.000D+00 0.100D+01
 Coeff:     -0.441D+00 0.930D+00 0.511D+00
 Gap=     0.072 Goal=   None    Shift=    0.000
 RMSDP=5.71D-04 MaxDP=1.29D-01 DE=-8.39D-01 OVMax= 1.12D-01

 Cycle   4  Pass 1  IDiag  1:
 RMSU=  3.91D-04    CP:  9.70D-01  1.97D+00  5.46D-01
 E= -3005.32931339859     Delta-E=       -0.104321108760 Rises=F Damp=F
 DIIS: error= 4.90D-03 at cycle   4 NSaved=   4.
 NSaved= 4 IEnMin= 4 EnMin= -3005.32931339859     IErMin= 4 ErrMin= 4.90D-03
 ErrMax= 4.90D-03  0.00D+00 EMaxC= 1.00D-01 BMatC= 4.12D-02 BMatP= 1.59D-01
 IDIUse=3 WtCom= 9.51D-01 WtEn= 4.90D-02
 Coeff-Com: -0.102D+00 0.219D+00 0.336D+00 0.547D+00
 Coeff-En:   0.000D+00 0.000D+00 0.252D+00 0.748D+00
 Coeff:     -0.968D-01 0.209D+00 0.331D+00 0.557D+00
 Gap=     0.073 Goal=   None    Shift=    0.000
 RMSDP=2.79D-04 MaxDP=6.80D-02 DE=-1.04D-01 OVMax= 1.01D-01

 Cycle   5  Pass 1  IDiag  1:
 RMSU=  1.32D-04    CP:  9.68D-01  1.83D+00  7.08D-01  5.24D-01
 E= -3005.36046706177     Delta-E=       -0.031153663182 Rises=F Damp=F
 DIIS: error= 2.27D-03 at cycle   5 NSaved=   5.
 NSaved= 5 IEnMin= 5 EnMin= -3005.36046706177     IErMin= 5 ErrMin= 2.27D-03
 ErrMax= 2.27D-03  0.00D+00 EMaxC= 1.00D-01 BMatC= 5.24D-03 BMatP= 4.12D-02
 IDIUse=3 WtCom= 9.77D-01 WtEn= 2.27D-02
 Coeff-Com: -0.263D-01 0.592D-01 0.190D+00 0.384D+00 0.393D+00
 Coeff-En:   0.000D+00 0.000D+00 0.000D+00 0.135D+00 0.865D+00
 Coeff:     -0.257D-01 0.579D-01 0.186D+00 0.378D+00 0.404D+00
 Gap=     0.073 Goal=   None    Shift=    0.000
 RMSDP=1.21D-04 MaxDP=1.29D-02 DE=-3.12D-02 OVMax= 7.03D-02

 Cycle   6  Pass 1  IDiag  1:
 RMSU=  5.45D-05    CP:  9.68D-01  1.85D+00  6.84D-01  6.44D-01  2.82D-01
 E= -3005.36587554852     Delta-E=       -0.005408486746 Rises=F Damp=F
 DIIS: error= 1.11D-03 at cycle   6 NSaved=   6.
 NSaved= 6 IEnMin= 6 EnMin= -3005.36587554852     IErMin= 6 ErrMin= 1.11D-03
 ErrMax= 1.11D-03  0.00D+00 EMaxC= 1.00D-01 BMatC= 7.98D-04 BMatP= 5.24D-03
 IDIUse=3 WtCom= 9.89D-01 WtEn= 1.11D-02
 Coeff-Com: -0.652D-03 0.330D-02 0.717D-01 0.166D+00 0.294D+00 0.465D+00
 Coeff-En:   0.000D+00 0.000D+00 0.000D+00 0.000D+00 0.188D+00 0.812D+00
 Coeff:     -0.644D-03 0.326D-02 0.709D-01 0.164D+00 0.293D+00 0.469D+00
 Gap=     0.073 Goal=   None    Shift=    0.000
 RMSDP=4.79D-05 MaxDP=3.43D-03 DE=-5.41D-03 OVMax= 3.41D-02

 Cycle   7  Pass 1  IDiag  1:
 RMSU=  2.11D-05    CP:  9.68D-01  1.85D+00  6.94D-01  6.17D-01  4.85D-01
                    CP:  4.35D-01
 E= -3005.36680180782     Delta-E=       -0.000926259301 Rises=F Damp=F
 DIIS: error= 3.69D-04 at cycle   7 NSaved=   7.
 NSaved= 7 IEnMin= 7 EnMin= -3005.36680180782     IErMin= 7 ErrMin= 3.69D-04
 ErrMax= 3.69D-04  0.00D+00 EMaxC= 1.00D-01 BMatC= 1.15D-04 BMatP= 7.98D-04
 IDIUse=3 WtCom= 9.96D-01 WtEn= 3.69D-03
 Coeff-Com:  0.268D-02-0.480D-02 0.266D-01 0.674D-01 0.157D+00 0.333D+00
 Coeff-Com:  0.418D+00
 Coeff-En:   0.000D+00 0.000D+00 0.000D+00 0.000D+00 0.000D+00 0.138D+00
 Coeff-En:   0.862D+00
 Coeff:      0.267D-02-0.479D-02 0.265D-01 0.671D-01 0.156D+00 0.332D+00
 Coeff:      0.420D+00
 Gap=     0.074 Goal=   None    Shift=    0.000
 RMSDP=1.84D-05 MaxDP=1.56D-03 DE=-9.26D-04 OVMax= 1.38D-02

 Cycle   8  Pass 1  IDiag  1:
 RMSU=  9.23D-06    CP:  9.68D-01  1.85D+00  6.94D-01  6.22D-01  4.55D-01
                    CP:  5.70D-01  3.64D-01
 E= -3005.36692507631     Delta-E=       -0.000123268488 Rises=F Damp=F
 DIIS: error= 1.66D-04 at cycle   8 NSaved=   8.
 NSaved= 8 IEnMin= 8 EnMin= -3005.36692507631     IErMin= 8 ErrMin= 1.66D-04
 ErrMax= 1.66D-04  0.00D+00 EMaxC= 1.00D-01 BMatC= 2.11D-05 BMatP= 1.15D-04
 IDIUse=3 WtCom= 9.98D-01 WtEn= 1.66D-03
 Coeff-Com:  0.195D-02-0.380D-02 0.829D-02 0.228D-01 0.695D-01 0.175D+00
 Coeff-Com:  0.316D+00 0.411D+00
 Coeff-En:   0.000D+00 0.000D+00 0.000D+00 0.000D+00 0.000D+00 0.000D+00
 Coeff-En:   0.201D+00 0.799D+00
 Coeff:      0.194D-02-0.380D-02 0.828D-02 0.227D-01 0.694D-01 0.174D+00
 Coeff:      0.315D+00 0.412D+00
 Gap=     0.074 Goal=   None    Shift=    0.000
 RMSDP=7.17D-06 MaxDP=5.88D-04 DE=-1.23D-04 OVMax= 4.63D-03

 Cycle   9  Pass 1  IDiag  1:
 RMSU=  2.80D-06    CP:  9.68D-01  1.85D+00  6.94D-01  6.23D-01  4.60D-01
                    CP:  5.49D-01  5.37D-01  4.25D-01
 E= -3005.36695222446     Delta-E=       -0.000027148155 Rises=F Damp=F
 DIIS: error= 4.75D-05 at cycle   9 NSaved=   9.
 NSaved= 9 IEnMin= 9 EnMin= -3005.36695222446     IErMin= 9 ErrMin= 4.75D-05
 ErrMax= 4.75D-05  0.00D+00 EMaxC= 1.00D-01 BMatC= 1.81D-06 BMatP= 2.11D-05
 IDIUse=1 WtCom= 1.00D+00 WtEn= 0.00D+00
 Coeff-Com:  0.795D-03-0.159D-02 0.168D-02 0.484D-02 0.223D-01 0.649D-01
 Coeff-Com:  0.141D+00 0.270D+00 0.496D+00
 Coeff:      0.795D-03-0.159D-02 0.168D-02 0.484D-02 0.223D-01 0.649D-01
 Coeff:      0.141D+00 0.270D+00 0.496D+00
 Gap=     0.074 Goal=   None    Shift=    0.000
 RMSDP=1.99D-06 MaxDP=1.88D-04 DE=-2.71D-05 OVMax= 9.20D-04

 Cycle  10  Pass 1  IDiag  1:
 RMSU=  1.20D-06    CP:  9.68D-01  1.85D+00  6.95D-01  6.23D-01  4.61D-01
                    CP:  5.55D-01  5.11D-01  5.12D-01  5.78D-01
 E= -3005.36695422696     Delta-E=       -0.000002002500 Rises=F Damp=F
 DIIS: error= 1.11D-05 at cycle  10 NSaved=  10.
 NSaved=10 IEnMin=10 EnMin= -3005.36695422696     IErMin=10 ErrMin= 1.11D-05
 ErrMax= 1.11D-05  0.00D+00 EMaxC= 1.00D-01 BMatC= 2.21D-07 BMatP= 1.81D-06
 IDIUse=1 WtCom= 1.00D+00 WtEn= 0.00D+00
 Coeff-Com:  0.183D-03-0.363D-03-0.212D-03-0.725D-03 0.292D-02 0.127D-01
 Coeff-Com:  0.365D-01 0.105D+00 0.305D+00 0.539D+00
 Coeff:      0.183D-03-0.363D-03-0.212D-03-0.725D-03 0.292D-02 0.127D-01
 Coeff:      0.365D-01 0.105D+00 0.305D+00 0.539D+00
 Gap=     0.074 Goal=   None    Shift=    0.000
 RMSDP=7.42D-07 MaxDP=1.22D-04 DE=-2.00D-06 OVMax= 3.36D-04

 Cycle  11  Pass 1  IDiag  1:
 RMSU=  4.13D-07    CP:  9.68D-01  1.85D+00  6.95D-01  6.22D-01  4.61D-01
                    CP:  5.58D-01  5.17D-01  5.09D-01  7.04D-01  6.25D-01
 E= -3005.36695443361     Delta-E=       -0.000000206648 Rises=F Damp=F
 DIIS: error= 5.17D-06 at cycle  11 NSaved=  11.
 NSaved=11 IEnMin=11 EnMin= -3005.36695443361     IErMin=11 ErrMin= 5.17D-06
 ErrMax= 5.17D-06  0.00D+00 EMaxC= 1.00D-01 BMatC= 4.15D-08 BMatP= 2.21D-07
 IDIUse=1 WtCom= 1.00D+00 WtEn= 0.00D+00
 Coeff-Com:  0.160D-04-0.269D-04-0.371D-03-0.122D-02-0.121D-02-0.923D-03
 Coeff-Com:  0.395D-02 0.323D-01 0.128D+00 0.354D+00 0.486D+00
 Coeff:      0.160D-04-0.269D-04-0.371D-03-0.122D-02-0.121D-02-0.923D-03
 Coeff:      0.395D-02 0.323D-01 0.128D+00 0.354D+00 0.486D+00
 Gap=     0.074 Goal=   None    Shift=    0.000
 RMSDP=2.49D-07 MaxDP=2.47D-05 DE=-2.07D-07 OVMax= 9.51D-05

 Cycle  12  Pass 1  IDiag  1:
 RMSU=  1.50D-07    CP:  9.68D-01  1.85D+00  6.95D-01  6.22D-01  4.62D-01
                    CP:  5.58D-01  5.19D-01  5.17D-01  6.94D-01  7.21D-01
                    CP:  7.13D-01
 E= -3005.36695447633     Delta-E=       -0.000000042715 Rises=F Damp=F
 DIIS: error= 1.58D-06 at cycle  12 NSaved=  12.
 NSaved=12 IEnMin=12 EnMin= -3005.36695447633     IErMin=12 ErrMin= 1.58D-06
 ErrMax= 1.58D-06  0.00D+00 EMaxC= 1.00D-01 BMatC= 2.71D-09 BMatP= 4.15D-08
 IDIUse=1 WtCom= 1.00D+00 WtEn= 0.00D+00
 Coeff-Com: -0.603D-05 0.183D-04-0.161D-03-0.554D-03-0.945D-03-0.199D-02
 Coeff-Com: -0.238D-02 0.533D-02 0.284D-01 0.123D+00 0.248D+00 0.601D+00
 Coeff:     -0.603D-05 0.183D-04-0.161D-03-0.554D-03-0.945D-03-0.199D-02
 Coeff:     -0.238D-02 0.533D-02 0.284D-01 0.123D+00 0.248D+00 0.601D+00
 Gap=     0.074 Goal=   None    Shift=    0.000
 RMSDP=8.45D-08 MaxDP=1.68D-05 DE=-4.27D-08 OVMax= 3.54D-05

 Cycle  13  Pass 1  IDiag  1:
 RMSU=  6.31D-08    CP:  9.68D-01  1.85D+00  6.95D-01  6.22D-01  4.61D-01
                    CP:  5.58D-01  5.19D-01  5.18D-01  7.03D-01  7.33D-01
                    CP:  7.80D-01  8.28D-01
 E= -3005.36695447882     Delta-E=       -0.000000002494 Rises=F Damp=F
 DIIS: error= 4.05D-07 at cycle  13 NSaved=  13.
 NSaved=13 IEnMin=13 EnMin= -3005.36695447882     IErMin=13 ErrMin= 4.05D-07
 ErrMax= 4.05D-07  0.00D+00 EMaxC= 1.00D-01 BMatC= 5.67D-10 BMatP= 2.71D-09
 IDIUse=1 WtCom= 1.00D+00 WtEn= 0.00D+00
 Coeff-Com: -0.424D-05 0.123D-04-0.298D-04-0.117D-03-0.334D-03-0.102D-02
 Coeff-Com: -0.213D-02-0.200D-02-0.682D-02 0.106D-01 0.529D-01 0.343D+00
 Coeff-Com:  0.606D+00
 Coeff:     -0.424D-05 0.123D-04-0.298D-04-0.117D-03-0.334D-03-0.102D-02
 Coeff:     -0.213D-02-0.200D-02-0.682D-02 0.106D-01 0.529D-01 0.343D+00
 Coeff:      0.606D+00
 Gap=     0.074 Goal=   None    Shift=    0.000
 RMSDP=3.79D-08 MaxDP=3.80D-06 DE=-2.49D-09 OVMax= 1.70D-05

 Cycle  14  Pass 1  IDiag  1:
 RMSU=  2.35D-08    CP:  9.68D-01  1.85D+00  6.95D-01  6.22D-01  4.62D-01
                    CP:  5.58D-01  5.19D-01  5.18D-01  7.06D-01  7.42D-01
                    CP:  8.06D-01  9.45D-01  8.36D-01
 E= -3005.36695447960     Delta-E=       -0.000000000780 Rises=F Damp=F
 DIIS: error= 1.77D-07 at cycle  14 NSaved=  14.
 NSaved=14 IEnMin=14 EnMin= -3005.36695447960     IErMin=14 ErrMin= 1.77D-07
 ErrMax= 1.77D-07  0.00D+00 EMaxC= 1.00D-01 BMatC= 9.96D-11 BMatP= 5.67D-10
 IDIUse=1 WtCom= 1.00D+00 WtEn= 0.00D+00
 Coeff-Com: -0.505D-06 0.259D-05 0.984D-05 0.251D-04-0.434D-04-0.300D-03
 Coeff-Com: -0.972D-03-0.207D-02-0.100D-01-0.156D-01-0.142D-01 0.100D+00
 Coeff-Com:  0.350D+00 0.593D+00
 Coeff:     -0.505D-06 0.259D-05 0.984D-05 0.251D-04-0.434D-04-0.300D-03
 Coeff:     -0.972D-03-0.207D-02-0.100D-01-0.156D-01-0.142D-01 0.100D+00
 Coeff:      0.350D+00 0.593D+00
 Gap=     0.074 Goal=   None    Shift=    0.000
 RMSDP=1.70D-08 MaxDP=2.52D-06 DE=-7.80D-10 OVMax= 7.40D-06

 Cycle  15  Pass 1  IDiag  1:
 RMSU=  1.02D-08    CP:  9.68D-01  1.85D+00  6.95D-01  6.22D-01  4.62D-01
                    CP:  5.58D-01  5.19D-01  5.19D-01  7.06D-01  7.45D-01
                    CP:  8.21D-01  9.77D-01  9.49D-01  8.23D-01
 E= -3005.36695447984     Delta-E=       -0.000000000240 Rises=F Damp=F
 DIIS: error= 1.28D-07 at cycle  15 NSaved=  15.
 NSaved=15 IEnMin=15 EnMin= -3005.36695447984     IErMin=15 ErrMin= 1.28D-07
 ErrMax= 1.28D-07  0.00D+00 EMaxC= 1.00D-01 BMatC= 1.64D-11 BMatP= 9.96D-11
 IDIUse=1 WtCom= 1.00D+00 WtEn= 0.00D+00
 Coeff-Com:  0.890D-06-0.132D-05 0.105D-04 0.317D-04 0.384D-04 0.226D-04
 Coeff-Com: -0.130D-03-0.518D-03-0.401D-02-0.875D-02-0.155D-01-0.257D-02
 Coeff-Com:  0.809D-01 0.339D+00 0.612D+00
 Coeff:      0.890D-06-0.132D-05 0.105D-04 0.317D-04 0.384D-04 0.226D-04
 Coeff:     -0.130D-03-0.518D-03-0.401D-02-0.875D-02-0.155D-01-0.257D-02
 Coeff:      0.809D-01 0.339D+00 0.612D+00
 Gap=     0.074 Goal=   None    Shift=    0.000
 RMSDP=6.48D-09 MaxDP=6.41D-07 DE=-2.40D-10 OVMax= 3.42D-06

 SCF Done:  E(RPBE1PBE) =  -3005.36695448     A.U. after   15 cycles
            NFock= 15  Conv=0.65D-08     -V/T= 2.0101
 KE= 2.975349973481D+03 PE=-2.615139010885D+04 EE= 1.059102162184D+04
 Leave Link  502 at Wed May  4 03:52:52 2022, MaxMem= 10066329600 cpu:            6424.6 elap:             269.4
 (Enter /sw/apps/gaussian-16.0/g16/l801.exe)
 DoSCS=F DFT=T ScalE2(SS,OS)=  1.000000  1.000000
 ExpMin= 3.36D-02 ExpMax= 4.95D+03 ExpMxC= 7.45D+02 IAcc=3 IRadAn=         5 AccDes= 0.00D+00
 HarFok:  IExCor=  205 AccDes= 0.00D+00 IRadAn=         5 IDoV=-2 UseB2=F ITyADJ=14
 ICtDFT= 12500011 ScaDFX=  1.000000  1.000000  1.000000  1.000000
 GSVD:  LWork=       -5460 too small for GESVD, short by       25550 words or       25550 for optimal perf.
 Largest valence mixing into a core orbital is  1.45D-04
 Largest core mixing into a valence orbital is  5.47D-05
 Range of M.O.s used for correlation:    71  1298
 NBasis=  1298 NAE=   246 NBE=   246 NFC=    70 NFV=     0
 NROrb=   1228 NOA=   176 NOB=   176 NVA=  1052 NVB=  1052

 **** Warning!!: The smallest alpha delta epsilon is  0.73596769D-01

 Leave Link  801 at Wed May  4 03:52:52 2022, MaxMem= 10066329600 cpu:               7.5 elap:               0.3
 (Enter /sw/apps/gaussian-16.0/g16/l914.exe)
 RHF ground state
 Two-electron integrals replicated using symmetry.
 MDV= 10066329600 DFT=T DoStab=F Mixed=T DoRPA=T DoScal=F NonHer=T
 Making orbital integer symmetry assigments:
 Orbital symmetries:
       Occupied  (A) (A) (A) (A) (A) (A) (A) (A) (A) (A) (A) (A)
                 (A) (A) (A) (A) (A) (A) (A) (A) (A) (A) (A) (A)
                 (A) (A) (A) (A) (A) (A) (A) (A) (A) (A) (A) (A)
                 (A) (A) (A) (A) (A) (A) (A) (A) (A) (A) (A) (A)
                 (A) (A) (A) (A) (A) (A) (A) (A) (A) (A) (A) (A)
                 (A) (A) (A) (A) (A) (A) (A) (A) (A) (A) (A) (A)
                 (A) (A) (A) (A) (A) (A) (A) (A) (A) (A) (A) (A)
                 (A) (A) (A) (A) (A) (A) (A) (A) (A) (A) (A) (A)
                 (A) (A) (A) (A) (A) (A) (A) (A) (A) (A) (A) (A)
                 (A) (A) (A) (A) (A) (A) (A) (A) (A) (A) (A) (A)
                 (A) (A) (A) (A) (A) (A) (A) (A) (A) (A) (A) (A)
                 (A) (A) (A) (A) (A) (A) (A) (A) (A) (A) (A) (A)
                 (A) (A) (A) (A) (A) (A) (A) (A) (A) (A) (A) (A)
                 (A) (A) (A) (A) (A) (A) (A) (A) (A) (A) (A) (A)
                 (A) (A) (A) (A) (A) (A) (A) (A) (A) (A) (A) (A)
                 (A) (A) (A) (A) (A) (A) (A) (A) (A) (A) (A) (A)
                 (A) (A) (A) (A) (A) (A) (A) (A) (A) (A) (A) (A)
                 (A) (A) (A) (A) (A) (A) (A) (A) (A) (A) (A) (A)
                 (A) (A) (A) (A) (A) (A) (A) (A) (A) (A) (A) (A)
                 (A) (A) (A) (A) (A) (A) (A) (A) (A) (A) (A) (A)
                 (A) (A) (A) (A) (A) (A)
       Virtual   (A) (A) (A) (A) (A) (A) (A) (A) (A) (A) (A) (A)
                 (A) (A) (A) (A) (A) (A) (A) (A) (A) (A) (A) (A)
                 (A) (A) (A) (A) (A) (A) (A) (A) (A) (A) (A) (A)
                 (A) (A) (A) (A) (A) (A) (A) (A) (A) (A) (A) (A)
                 (A) (A) (A) (A) (A) (A) (A) (A) (A) (A) (A) (A)
                 (A) (A) (A) (A) (A) (A) (A) (A) (A) (A) (A) (A)
                 (A) (A) (A) (A) (A) (A) (A) (A) (A) (A) (A) (A)
                 (A) (A) (A) (A) (A) (A) (A) (A) (A) (A) (A) (A)
                 (A) (A) (A) (A) (A) (A) (A) (A) (A) (A) (A) (A)
                 (A) (A) (A) (A) (A) (A) (A) (A) (A) (A) (A) (A)
                 (A) (A) (A) (A) (A) (A) (A) (A) (A) (A) (A) (A)
                 (A) (A) (A) (A) (A) (A) (A) (A) (A) (A) (A) (A)
                 (A) (A) (A) (A) (A) (A) (A) (A) (A) (A) (A) (A)
                 (A) (A) (A) (A) (A) (A) (A) (A) (A) (A) (A) (A)
                 (A) (A) (A) (A) (A) (A) (A) (A) (A) (A) (A) (A)
                 (A) (A) (A) (A) (A) (A) (A) (A) (A) (A) (A) (A)
                 (A) (A) (A) (A) (A) (A) (A) (A) (A) (A) (A) (A)
                 (A) (A) (A) (A) (A) (A) (A) (A) (A) (A) (A) (A)
                 (A) (A) (A) (A) (A) (A) (A) (A) (A) (A) (A) (A)
                 (A) (A) (A) (A) (A) (A) (A) (A) (A) (A) (A) (A)
                 (A) (A) (A) (A) (A) (A) (A) (A) (A) (A) (A) (A)
                 (A) (A) (A) (A) (A) (A) (A) (A) (A) (A) (A) (A)
                 (A) (A) (A) (A) (A) (A) (A) (A) (A) (A) (A) (A)
                 (A) (A) (A) (A) (A) (A) (A) (A) (A) (A) (A) (A)
                 (A) (A) (A) (A) (A) (A) (A) (A) (A) (A) (A) (A)
                 (A) (A) (A) (A) (A) (A) (A) (A) (A) (A) (A) (A)
                 (A) (A) (A) (A) (A) (A) (A) (A) (A) (A) (A) (A)
                 (A) (A) (A) (A) (A) (A) (A) (A) (A) (A) (A) (A)
                 (A) (A) (A) (A) (A) (A) (A) (A) (A) (A) (A) (A)
                 (A) (A) (A) (A) (A) (A) (A) (A) (A) (A) (A) (A)
                 (A) (A) (A) (A) (A) (A) (A) (A) (A) (A) (A) (A)
                 (A) (A) (A) (A) (A) (A) (A) (A) (A) (A) (A) (A)
                 (A) (A) (A) (A) (A) (A) (A) (A) (A) (A) (A) (A)
                 (A) (A) (A) (A) (A) (A) (A) (A) (A) (A) (A) (A)
                 (A) (A) (A) (A) (A) (A) (A) (A) (A) (A) (A) (A)
                 (A) (A) (A) (A) (A) (A) (A) (A) (A) (A) (A) (A)
                 (A) (A) (A) (A) (A) (A) (A) (A) (A) (A) (A) (A)
                 (A) (A) (A) (A) (A) (A) (A) (A) (A) (A) (A) (A)
                 (A) (A) (A) (A) (A) (A) (A) (A) (A) (A) (A) (A)
                 (A) (A) (A) (A) (A) (A) (A) (A) (A) (A) (A) (A)
                 (A) (A) (A) (A) (A) (A) (A) (A) (A) (A) (A) (A)
                 (A) (A) (A) (A) (A) (A) (A) (A) (A) (A) (A) (A)
                 (A) (A) (A) (A) (A) (A) (A) (A) (A) (A) (A) (A)
                 (A) (A) (A) (A) (A) (A) (A) (A) (A) (A) (A) (A)
                 (A) (A) (A) (A) (A) (A) (A) (A) (A) (A) (A) (A)
                 (A) (A) (A) (A) (A) (A) (A) (A) (A) (A) (A) (A)
                 (A) (A) (A) (A) (A) (A) (A) (A) (A) (A) (A) (A)
                 (A) (A) (A) (A) (A) (A) (A) (A) (A) (A) (A) (A)
                 (A) (A) (A) (A) (A) (A) (A) (A) (A) (A) (A) (A)
                 (A) (A) (A) (A) (A) (A) (A) (A) (A) (A) (A) (A)
                 (A) (A) (A) (A) (A) (A) (A) (A) (A) (A) (A) (A)
                 (A) (A) (A) (A) (A) (A) (A) (A) (A) (A) (A) (A)
                 (A) (A) (A) (A) (A) (A) (A) (A) (A) (A) (A) (A)
                 (A) (A) (A) (A) (A) (A) (A) (A) (A) (A) (A) (A)
                 (A) (A) (A) (A) (A) (A) (A) (A) (A) (A) (A) (A)
                 (A) (A) (A) (A) (A) (A) (A) (A) (A) (A) (A) (A)
                 (A) (A) (A) (A) (A) (A) (A) (A) (A) (A) (A) (A)
                 (A) (A) (A) (A) (A) (A) (A) (A) (A) (A) (A) (A)
                 (A) (A) (A) (A) (A) (A) (A) (A) (A) (A) (A) (A)
                 (A) (A) (A) (A) (A) (A) (A) (A) (A) (A) (A) (A)
                 (A) (A) (A) (A) (A) (A) (A) (A) (A) (A) (A) (A)
                 (A) (A) (A) (A) (A) (A) (A) (A) (A) (A) (A) (A)
                 (A) (A) (A) (A) (A) (A) (A) (A) (A) (A) (A) (A)
                 (A) (A) (A) (A) (A) (A) (A) (A) (A) (A) (A) (A)
                 (A) (A) (A) (A) (A) (A) (A) (A) (A) (A) (A) (A)
                 (A) (A) (A) (A) (A) (A) (A) (A) (A) (A) (A) (A)
                 (A) (A) (A) (A) (A) (A) (A) (A) (A) (A) (A) (A)
                 (A) (A) (A) (A) (A) (A) (A) (A) (A) (A) (A) (A)
                 (A) (A) (A) (A) (A) (A) (A) (A) (A) (A) (A) (A)
                 (A) (A) (A) (A) (A) (A) (A) (A) (A) (A) (A) (A)
                 (A) (A) (A) (A) (A) (A) (A) (A) (A) (A) (A) (A)
                 (A) (A) (A) (A) (A) (A) (A) (A) (A) (A) (A) (A)
                 (A) (A) (A) (A) (A) (A) (A) (A) (A) (A) (A) (A)
                 (A) (A) (A) (A) (A) (A) (A) (A) (A) (A) (A) (A)
                 (A) (A) (A) (A) (A) (A) (A) (A) (A) (A) (A) (A)
                 (A) (A) (A) (A) (A) (A) (A) (A) (A) (A) (A) (A)
                 (A) (A) (A) (A) (A) (A) (A) (A) (A) (A) (A) (A)
                 (A) (A) (A) (A) (A) (A) (A) (A) (A) (A) (A) (A)
                 (A) (A) (A) (A) (A) (A) (A) (A) (A) (A) (A) (A)
                 (A) (A) (A) (A) (A) (A) (A) (A) (A) (A) (A) (A)
                 (A) (A) (A) (A) (A) (A) (A) (A) (A) (A) (A) (A)
                 (A) (A) (A) (A) (A) (A) (A) (A) (A) (A) (A) (A)
                 (A) (A) (A) (A) (A) (A) (A) (A) (A) (A) (A) (A)
                 (A) (A) (A) (A) (A) (A) (A) (A) (A) (A) (A) (A)
                 (A) (A) (A) (A) (A) (A) (A) (A) (A) (A) (A) (A)
                 (A) (A) (A) (A) (A) (A) (A) (A) (A) (A) (A) (A)
                 (A) (A) (A) (A) (A) (A) (A) (A) (A) (A) (A) (A)
                 (A) (A) (A) (A) (A) (A) (A) (A)
    20 initial guesses have been made.
 Convergence on wavefunction:    0.001000000000000
 Davidson Disk Diagonalization:  ConvIn= 1.00D-03 SkipCon=T Conv= 1.00D-03.
 Max sub-space:  2000 roots to seek:    20 dimension of matrix:       370304
 Iteration     1 Dimension    20 NMult     0 NNew     20
 CISAX will form    20 AO SS matrices at one time.
 NMat=    20 NSing=    20 JSym2X= 0.
 FoFJK:  IHMeth= 1 ICntrl=       0 DoSepK=F KAlg= 0 I1Cent=           0 FoldK=F
 IRaf= 530000000 NMat=      40 IRICut=       1 DoRegI=T DoRafI=F ISym2E= 0 IDoP0=3 IntGTp=3.
 FoFCou: FMM=T IPFlag=           0 FMFlag=      100000 FMFlg1=        2001
         NFxFlg=           0 DoJE=F BraDBF=F KetDBF=F FulRan=T
         wScrn=  0.000000 ICntrl=         0 IOpCl=  0 I1Cent=           0 NGrid=           0
         NMat0=   40 NMatS0=     20 NMatT0=    0 NMatD0=   40 NMtDS0=    0 NMtDT0=    0
 Symmetry not used in FoFCou.
 FMM levels:  10  Number of levels for PrismC:   9
 New state      3 was old state      6
 New state      4 was old state      7
 Excitation Energies [eV] at current iteration:
 Root      1 :     2.208560104308215
 Root      2 :     2.553627865160356
 Root      3 :     3.107194283635649
 Root      4 :     3.120029810893023
 Root      5 :     3.294174647134270
 Root      6 :     3.406255059575032
 Root      7 :     3.497270072274716
 Root      8 :     3.746880152024099
 Root      9 :     3.842426279314633
 Root     10 :     3.912825752717598
 Root     11 :     4.017824984528965
 Root     12 :     4.196641446536807
 Root     13 :     4.201475570905883
 Root     14 :     4.237507188147323
 Root     15 :     4.431597451570081
 Root     16 :     4.568092983466805
 Root     17 :     4.780652170143885
 Root     18 :     4.810869601083997
 Root     19 :     4.825873476314727
 Root     20 :     4.917956279374177
 Iteration     2 Dimension    30 NMult    20 NNew     10
 CISAX will form    10 AO SS matrices at one time.
 NMat=    10 NSing=    10 JSym2X= 0.
 Root      1 not converged, maximum delta is    0.056023592574984
 Root      2 not converged, maximum delta is    0.049964185492694
 New state      3 was old state      4
 Root      3 not converged, maximum delta is    0.156208846932855
 New state      4 was old state      3
 Root      4 not converged, maximum delta is    0.095182434497338
 Root      5 not converged, maximum delta is    0.050905081402808
 Excitation Energies [eV] at current iteration:
 Root      1 :     1.851585224175935   Change is   -0.356974880132280
 Root      2 :     2.294963043971296   Change is   -0.258664821189060
 Root      3 :     2.982700297055651   Change is   -0.137329513837372
 Root      4 :     2.991191239205468   Change is   -0.116003044430181
 Root      5 :     3.068128825831185   Change is   -0.226045821303085
 Iteration     3 Dimension    40 NMult    30 NNew     10
 CISAX will form    10 AO SS matrices at one time.
 NMat=    10 NSing=    10 JSym2X= 0.
 Root      1 not converged, maximum delta is    0.024802938475176
 Root      2 not converged, maximum delta is    0.022696606306383
 Root      3 not converged, maximum delta is    0.021082074636697
 Root      4 not converged, maximum delta is    0.025293518517427
 Root      5 not converged, maximum delta is    0.015211339245398
 Excitation Energies [eV] at current iteration:
 Root      1 :     1.817447133484278   Change is   -0.034138090691657
 Root      2 :     2.276637839930465   Change is   -0.018325204040831
 Root      3 :     2.967724376115981   Change is   -0.014975920939671
 Root      4 :     2.975367170463693   Change is   -0.015824068741775
 Root      5 :     3.057271038803316   Change is   -0.010857787027869
 Iteration     4 Dimension    50 NMult    40 NNew     10
 CISAX will form    10 AO SS matrices at one time.
 NMat=    10 NSing=    10 JSym2X= 0.
 Root      1 not converged, maximum delta is    0.002026509728643
 Root      2 not converged, maximum delta is    0.007220579347154
 Root      3 not converged, maximum delta is    0.010087979879637
 Root      4 not converged, maximum delta is    0.011920070743354
 Root      5 not converged, maximum delta is    0.013222069646699
 Excitation Energies [eV] at current iteration:
 Root      1 :     1.814201308917250   Change is   -0.003245824567028
 Root      2 :     2.273980310520858   Change is   -0.002657529409607
 Root      3 :     2.966185988043419   Change is   -0.001538388072561
 Root      4 :     2.973994111288024   Change is   -0.001373059175669
 Root      5 :     3.055210925145566   Change is   -0.002060113657750
 Iteration     5 Dimension    60 NMult    50 NNew     10
 CISAX will form    10 AO SS matrices at one time.
 NMat=    10 NSing=    10 JSym2X= 0.
 Root      1 has converged.
 Root      2 not converged, maximum delta is    0.001155297033677
 Root      3 not converged, maximum delta is    0.001134138307986
 Root      4 not converged, maximum delta is    0.001062547438530
 Root      5 not converged, maximum delta is    0.001337864517501
 Excitation Energies [eV] at current iteration:
 Root      1 :     1.813856297308213   Change is   -0.000345011609037
 Root      2 :     2.273735430049835   Change is   -0.000244880471023
 Root      3 :     2.965997246240006   Change is   -0.000188741803413
 Root      4 :     2.973831631380740   Change is   -0.000162479907284
 Root      5 :     3.054945689042072   Change is   -0.000265236103494
 Iteration     6 Dimension    68 NMult    60 NNew      8
 CISAX will form     8 AO SS matrices at one time.
 NMat=     8 NSing=     8 JSym2X= 0.
 Root      1 has converged.
 Root      2 has converged.
 Root      3 has converged.
 Root      4 has converged.
 Root      5 has converged.
 Excitation Energies [eV] at current iteration:
 Root      1 :     1.813852276899747   Change is   -0.000004020408466
 Root      2 :     2.273707629003838   Change is   -0.000027801045997
 Root      3 :     2.965977627883292   Change is   -0.000019618356714
 Root      4 :     2.973815436452468   Change is   -0.000016194928273
 Root      5 :     3.054918179522067   Change is   -0.000027509520005
 Convergence achieved on expansion vectors.
 ***********************************************************************
 Excited states from <AA,BB:AA,BB> singles matrix:
 ***********************************************************************
 
 1PDM for each excited state written to RWF  633
 Ground to excited state transition densities written to RWF  633
 Ground to excited state transition electric dipole moments (Au):
       state          X           Y           Z        Dip. S.      Osc.
         1        -0.1820     -2.8660     -0.6051      8.6132      0.3828
         2        -1.2662      0.4979     -0.0175      1.8514      0.1031
         3        -0.0366      0.0124     -0.0328      0.0026      0.0002
         4         0.0593     -0.0344      0.0083      0.0048      0.0003
         5        -0.0084      0.1229      0.0256      0.0158      0.0012
 Ground to excited state transition velocity dipole moments (Au):
       state          X           Y           Z        Dip. S.      Osc.
         1         0.0115      0.1860      0.0408      0.0364      0.3641
         2         0.1008     -0.0407      0.0006      0.0118      0.0943
         3         0.0031     -0.0020      0.0016      0.0000      0.0001
         4        -0.0082      0.0019      0.0017      0.0001      0.0004
         5        -0.0008     -0.0135     -0.0026      0.0002      0.0011
 Ground to excited state transition magnetic dipole moments (Au):
       state          X           Y           Z
         1        -0.0159      0.4461     -1.9458
         2         0.0126     -0.0143      0.2248
         3         0.1271     -0.5230     -0.0521
         4        -0.4350      0.0108     -0.1106
         5         0.0977      0.2191     -0.7460
 Ground to excited state transition velocity quadrupole moments (Au):
       state          XX          YY          ZZ          XY          XZ          YZ
         1        -0.3993      0.2949     -0.0098     -2.0457     -0.4913      0.0549
         2        -1.9507     -0.1078      0.0041      0.4290      0.0082     -0.0382
         3        -0.0525      0.0473      0.0091      0.0055     -0.0052     -0.0044
         4         0.1855     -0.0292      0.0003     -0.0531     -0.0286      0.0033
         5        -0.0191     -0.1291      0.0075      0.4438      0.0095      0.0401
 <0|del|b> * <b|rxdel|0> + <0|del|b> * <b|delr+rdel|0>
 Rotatory Strengths (R) in cgs (10**-40 erg-esu-cm/Gauss)
       state          XX          YY          ZZ    R(velocity)    E-M Angle
         1        60.3823     24.0055    -48.8580     11.8433       89.50
         2         5.6475    -11.4791     22.7219      5.6301       85.33
         3         3.1612      0.9398      4.8084      2.9698       51.35
         4        -0.6413     11.1250     11.5029      7.3289       28.14
         5        -6.3754      9.5771     -9.8370     -2.2118       95.61
 1/2[<0|r|b>*<b|rxdel|0> + (<0|rxdel|b>*<b|r|0>)*]
 Rotatory Strengths (R) in cgs (10**-40 erg-esu-cm/Gauss)
       state          XX          YY          ZZ     R(length)
         1        -2.0527    904.1795   -832.6191     23.1692
         2        11.2617      5.0502      2.7837      6.3652
         3         3.2878      4.5980     -1.2089      2.2257
         4        18.2297      0.2625      0.6489      6.3804
         5         0.5772    -19.0392     13.5113     -1.6503
  1/2[<0|del|b>*<b|r|0> + (<0|r|b>*<b|del|0>)*] (Au)
       state          X           Y           Z        Dip. S.   Osc.(frdel)
         1        -0.0021     -0.5332     -0.0247      0.5600      0.3733
         2        -0.1276     -0.0203     -0.0000      0.1479      0.0986
         3        -0.0001     -0.0000     -0.0001      0.0002      0.0001
         4        -0.0005     -0.0001      0.0000      0.0005      0.0004
         5         0.0000     -0.0017     -0.0001      0.0017      0.0011

 Excitation energies and oscillator strengths:
 
 Excited State   1:      Singlet-A      1.8139 eV  683.54 nm  f=0.3828  <S**2>=0.000
     245 -> 248        0.15617
     246 -> 247        0.69749
     246 <- 247       -0.11733
 This state for optimization and/or second-order correction.
 Total Energy, E(TD-HF/TD-DFT) =  -3005.30029664    
 Copying the excited state density for this state as the 1-particle RhoCI density.
 
 Excited State   2:      Singlet-A      2.2737 eV  545.30 nm  f=0.1031  <S**2>=0.000
     245 -> 247        0.64374
     246 -> 248       -0.27074
 
 Excited State   3:      Singlet-A      2.9660 eV  418.02 nm  f=0.0002  <S**2>=0.000
     240 -> 247       -0.11410
     241 -> 247        0.62409
     241 -> 249       -0.19061
     242 -> 247       -0.10901
     243 -> 247        0.18681
 
 Excited State   4:      Singlet-A      2.9738 eV  416.92 nm  f=0.0003  <S**2>=0.000
     242 -> 247        0.58625
     242 -> 248        0.10884
     242 -> 250        0.11814
     243 -> 247        0.32717
 
 Excited State   5:      Singlet-A      3.0549 eV  405.85 nm  f=0.0012  <S**2>=0.000
     241 -> 247       -0.22251
     242 -> 247       -0.31948
     243 -> 247        0.58164
 SavETr:  write IOETrn=   770 NScale= 10 NData=  16 NLR=1 NState=    5 LETran=     100.
 Leave Link  914 at Wed May  4 04:05:19 2022, MaxMem= 10066329600 cpu:           17877.7 elap:             746.3
 (Enter /sw/apps/gaussian-16.0/g16/l601.exe)
 Copying SCF densities to generalized density rwf, IOpCl= 0 IROHF=0.
 Hyperfine terms turned off by default for NAtoms > 100.

 **********************************************************************

            Population analysis using the SCF density.

 **********************************************************************

 Orbital symmetries:
       Occupied  (A) (A) (A) (A) (A) (A) (A) (A) (A) (A) (A) (A)
                 (A) (A) (A) (A) (A) (A) (A) (A) (A) (A) (A) (A)
                 (A) (A) (A) (A) (A) (A) (A) (A) (A) (A) (A) (A)
                 (A) (A) (A) (A) (A) (A) (A) (A) (A) (A) (A) (A)
                 (A) (A) (A) (A) (A) (A) (A) (A) (A) (A) (A) (A)
                 (A) (A) (A) (A) (A) (A) (A) (A) (A) (A) (A) (A)
                 (A) (A) (A) (A) (A) (A) (A) (A) (A) (A) (A) (A)
                 (A) (A) (A) (A) (A) (A) (A) (A) (A) (A) (A) (A)
                 (A) (A) (A) (A) (A) (A) (A) (A) (A) (A) (A) (A)
                 (A) (A) (A) (A) (A) (A) (A) (A) (A) (A) (A) (A)
                 (A) (A) (A) (A) (A) (A) (A) (A) (A) (A) (A) (A)
                 (A) (A) (A) (A) (A) (A) (A) (A) (A) (A) (A) (A)
                 (A) (A) (A) (A) (A) (A) (A) (A) (A) (A) (A) (A)
                 (A) (A) (A) (A) (A) (A) (A) (A) (A) (A) (A) (A)
                 (A) (A) (A) (A) (A) (A) (A) (A) (A) (A) (A) (A)
                 (A) (A) (A) (A) (A) (A) (A) (A) (A) (A) (A) (A)
                 (A) (A) (A) (A) (A) (A) (A) (A) (A) (A) (A) (A)
                 (A) (A) (A) (A) (A) (A) (A) (A) (A) (A) (A) (A)
                 (A) (A) (A) (A) (A) (A) (A) (A) (A) (A) (A) (A)
                 (A) (A) (A) (A) (A) (A) (A) (A) (A) (A) (A) (A)
                 (A) (A) (A) (A) (A) (A)
       Virtual   (A) (A) (A) (A) (A) (A) (A) (A) (A) (A) (A) (A)
                 (A) (A) (A) (A) (A) (A) (A) (A) (A) (A) (A) (A)
                 (A) (A) (A) (A) (A) (A) (A) (A) (A) (A) (A) (A)
                 (A) (A) (A) (A) (A) (A) (A) (A) (A) (A) (A) (A)
                 (A) (A) (A) (A) (A) (A) (A) (A) (A) (A) (A) (A)
                 (A) (A) (A) (A) (A) (A) (A) (A) (A) (A) (A) (A)
                 (A) (A) (A) (A) (A) (A) (A) (A) (A) (A) (A) (A)
                 (A) (A) (A) (A) (A) (A) (A) (A) (A) (A) (A) (A)
                 (A) (A) (A) (A) (A) (A) (A) (A) (A) (A) (A) (A)
                 (A) (A) (A) (A) (A) (A) (A) (A) (A) (A) (A) (A)
                 (A) (A) (A) (A) (A) (A) (A) (A) (A) (A) (A) (A)
                 (A) (A) (A) (A) (A) (A) (A) (A) (A) (A) (A) (A)
                 (A) (A) (A) (A) (A) (A) (A) (A) (A) (A) (A) (A)
                 (A) (A) (A) (A) (A) (A) (A) (A) (A) (A) (A) (A)
                 (A) (A) (A) (A) (A) (A) (A) (A) (A) (A) (A) (A)
                 (A) (A) (A) (A) (A) (A) (A) (A) (A) (A) (A) (A)
                 (A) (A) (A) (A) (A) (A) (A) (A) (A) (A) (A) (A)
                 (A) (A) (A) (A) (A) (A) (A) (A) (A) (A) (A) (A)
                 (A) (A) (A) (A) (A) (A) (A) (A) (A) (A) (A) (A)
                 (A) (A) (A) (A) (A) (A) (A) (A) (A) (A) (A) (A)
                 (A) (A) (A) (A) (A) (A) (A) (A) (A) (A) (A) (A)
                 (A) (A) (A) (A) (A) (A) (A) (A) (A) (A) (A) (A)
                 (A) (A) (A) (A) (A) (A) (A) (A) (A) (A) (A) (A)
                 (A) (A) (A) (A) (A) (A) (A) (A) (A) (A) (A) (A)
                 (A) (A) (A) (A) (A) (A) (A) (A) (A) (A) (A) (A)
                 (A) (A) (A) (A) (A) (A) (A) (A) (A) (A) (A) (A)
                 (A) (A) (A) (A) (A) (A) (A) (A) (A) (A) (A) (A)
                 (A) (A) (A) (A) (A) (A) (A) (A) (A) (A) (A) (A)
                 (A) (A) (A) (A) (A) (A) (A) (A) (A) (A) (A) (A)
                 (A) (A) (A) (A) (A) (A) (A) (A) (A) (A) (A) (A)
                 (A) (A) (A) (A) (A) (A) (A) (A) (A) (A) (A) (A)
                 (A) (A) (A) (A) (A) (A) (A) (A) (A) (A) (A) (A)
                 (A) (A) (A) (A) (A) (A) (A) (A) (A) (A) (A) (A)
                 (A) (A) (A) (A) (A) (A) (A) (A) (A) (A) (A) (A)
                 (A) (A) (A) (A) (A) (A) (A) (A) (A) (A) (A) (A)
                 (A) (A) (A) (A) (A) (A) (A) (A) (A) (A) (A) (A)
                 (A) (A) (A) (A) (A) (A) (A) (A) (A) (A) (A) (A)
                 (A) (A) (A) (A) (A) (A) (A) (A) (A) (A) (A) (A)
                 (A) (A) (A) (A) (A) (A) (A) (A) (A) (A) (A) (A)
                 (A) (A) (A) (A) (A) (A) (A) (A) (A) (A) (A) (A)
                 (A) (A) (A) (A) (A) (A) (A) (A) (A) (A) (A) (A)
                 (A) (A) (A) (A) (A) (A) (A) (A) (A) (A) (A) (A)
                 (A) (A) (A) (A) (A) (A) (A) (A) (A) (A) (A) (A)
                 (A) (A) (A) (A) (A) (A) (A) (A) (A) (A) (A) (A)
                 (A) (A) (A) (A) (A) (A) (A) (A) (A) (A) (A) (A)
                 (A) (A) (A) (A) (A) (A) (A) (A) (A) (A) (A) (A)
                 (A) (A) (A) (A) (A) (A) (A) (A) (A) (A) (A) (A)
                 (A) (A) (A) (A) (A) (A) (A) (A) (A) (A) (A) (A)
                 (A) (A) (A) (A) (A) (A) (A) (A) (A) (A) (A) (A)
                 (A) (A) (A) (A) (A) (A) (A) (A) (A) (A) (A) (A)
                 (A) (A) (A) (A) (A) (A) (A) (A) (A) (A) (A) (A)
                 (A) (A) (A) (A) (A) (A) (A) (A) (A) (A) (A) (A)
                 (A) (A) (A) (A) (A) (A) (A) (A) (A) (A) (A) (A)
                 (A) (A) (A) (A) (A) (A) (A) (A) (A) (A) (A) (A)
                 (A) (A) (A) (A) (A) (A) (A) (A) (A) (A) (A) (A)
                 (A) (A) (A) (A) (A) (A) (A) (A) (A) (A) (A) (A)
                 (A) (A) (A) (A) (A) (A) (A) (A) (A) (A) (A) (A)
                 (A) (A) (A) (A) (A) (A) (A) (A) (A) (A) (A) (A)
                 (A) (A) (A) (A) (A) (A) (A) (A) (A) (A) (A) (A)
[...]
 Alpha virt. eigenvalues --    1.15290   1.15623   1.15973   1.16830   1.16987
 Alpha virt. eigenvalues --    1.17480   1.18379   1.18519   1.19120   1.19533
 Alpha virt. eigenvalues --    1.20075   1.20773   1.21345   1.21587   1.21794
 Alpha virt. eigenvalues --    1.21947   1.22247   1.22674   1.23275   1.23861
 Alpha virt. eigenvalues --    1.24106   1.24456   1.25086   1.25348   1.25913
 Alpha virt. eigenvalues --    1.26468   1.27019   1.27507   1.27973   1.28415
 Alpha virt. eigenvalues --    1.28661   1.29284   1.29350   1.29701   1.30239
 Alpha virt. eigenvalues --    1.31431   1.31497   1.31628   1.32234   1.33062
 Alpha virt. eigenvalues --    1.33283   1.33516   1.33635   1.34525   1.34866
 Alpha virt. eigenvalues --    1.35308   1.35824   1.36061   1.36341   1.36881
 Alpha virt. eigenvalues --    1.37350   1.37489   1.38118   1.38155   1.38465
 Alpha virt. eigenvalues --    1.38826   1.39264   1.39911   1.40266   1.40717
 Alpha virt. eigenvalues --    1.40838   1.41426   1.41986   1.42425   1.42482
 Alpha virt. eigenvalues --    1.42623   1.43356   1.44258   1.44357   1.44495
 Alpha virt. eigenvalues --    1.44854   1.45249   1.45528   1.45741   1.46119
 Alpha virt. eigenvalues --    1.47130   1.47193   1.47942   1.48958   1.49506
 Alpha virt. eigenvalues --    1.49653   1.50317   1.50873   1.51479   1.51593
 Alpha virt. eigenvalues --    1.51925   1.52252   1.52518   1.52844   1.53010
 Alpha virt. eigenvalues --    1.53370   1.53502   1.53721   1.54159   1.54333
 Alpha virt. eigenvalues --    1.54396   1.54559   1.54932   1.55365   1.55436
 Alpha virt. eigenvalues --    1.55697   1.55854   1.56238   1.56694   1.56745
 Alpha virt. eigenvalues --    1.57179   1.57354   1.57459   1.57799   1.57986
 Alpha virt. eigenvalues --    1.58052   1.58199   1.58528   1.58884   1.59234
 Alpha virt. eigenvalues --    1.59873   1.60237   1.60819   1.61104   1.61494
 Alpha virt. eigenvalues --    1.61645   1.61798   1.62751   1.62889   1.63491
 Alpha virt. eigenvalues --    1.64529   1.64582   1.64973   1.65707   1.65787
 Alpha virt. eigenvalues --    1.66229   1.66749   1.66761   1.67365   1.68602
 Alpha virt. eigenvalues --    1.68799   1.69175   1.69403   1.69911   1.70222
 Alpha virt. eigenvalues --    1.70755   1.71059   1.71374   1.71763   1.71962
 Alpha virt. eigenvalues --    1.72348   1.72433   1.73043   1.73182   1.73307
 Alpha virt. eigenvalues --    1.73441   1.73638   1.74055   1.74170   1.74397
 Alpha virt. eigenvalues --    1.74680   1.74725   1.75008   1.75093   1.75599
 Alpha virt. eigenvalues --    1.75850   1.75938   1.76065   1.76256   1.76765
 Alpha virt. eigenvalues --    1.77095   1.77376   1.77464   1.77563   1.77903
 Alpha virt. eigenvalues --    1.78069   1.78290   1.78439   1.78613   1.78792
 Alpha virt. eigenvalues --    1.78989   1.79170   1.79358   1.79671   1.79738
 Alpha virt. eigenvalues --    1.79948   1.80247   1.80405   1.80665   1.80745
 Alpha virt. eigenvalues --    1.80979   1.81129   1.81452   1.81655   1.81706
 Alpha virt. eigenvalues --    1.82067   1.82156   1.82439   1.82541   1.82661
 Alpha virt. eigenvalues --    1.82735   1.82777   1.82964   1.83129   1.83241
 Alpha virt. eigenvalues --    1.83603   1.83910   1.84080   1.84422   1.84542
 Alpha virt. eigenvalues --    1.85024   1.85124   1.85417   1.85856   1.85972
 Alpha virt. eigenvalues --    1.86222   1.86319   1.86584   1.86799   1.87021
 Alpha virt. eigenvalues --    1.87625   1.87904   1.87949   1.88220   1.88588
 Alpha virt. eigenvalues --    1.88654   1.88699   1.89004   1.89149   1.89546
 Alpha virt. eigenvalues --    1.89917   1.90198   1.90296   1.90468   1.90606
 Alpha virt. eigenvalues --    1.91011   1.91517   1.91560   1.91645   1.91793
 Alpha virt. eigenvalues --    1.92268   1.92661   1.92748   1.92998   1.93293
 Alpha virt. eigenvalues --    1.93354   1.94095   1.94322   1.94599   1.94775
 Alpha virt. eigenvalues --    1.95380   1.95648   1.95858   1.95965   1.96091
 Alpha virt. eigenvalues --    1.96261   1.96324   1.96661   1.96803   1.97044
 Alpha virt. eigenvalues --    1.97514   1.97609   1.98247   1.98872   1.99058
 Alpha virt. eigenvalues --    1.99166   1.99497   1.99705   2.00310   2.00425
 Alpha virt. eigenvalues --    2.00763   2.01374   2.01679   2.01854   2.02047
 Alpha virt. eigenvalues --    2.02418   2.02817   2.03090   2.03228   2.03773
 Alpha virt. eigenvalues --    2.04019   2.04135   2.04325   2.04404   2.04888
 Alpha virt. eigenvalues --    2.05031   2.05088   2.05597   2.05822   2.05962
 Alpha virt. eigenvalues --    2.06287   2.06823   2.07084   2.07647   2.08157
 Alpha virt. eigenvalues --    2.08328   2.08439   2.08903   2.09232   2.09728
 Alpha virt. eigenvalues --    2.09889   2.10101   2.10167   2.10461   2.10779
 Alpha virt. eigenvalues --    2.11366   2.11620   2.11757   2.12293   2.12321
 Alpha virt. eigenvalues --    2.12625   2.12825   2.12889   2.13153   2.13551
 Alpha virt. eigenvalues --    2.14152   2.14218   2.14420   2.15072   2.15344
 Alpha virt. eigenvalues --    2.15573   2.15941   2.16186   2.16672   2.16807
 Alpha virt. eigenvalues --    2.16975   2.17712   2.17931   2.18028   2.18461
 Alpha virt. eigenvalues --    2.18603   2.18849   2.19165   2.20127   2.20674
 Alpha virt. eigenvalues --    2.21145   2.21529   2.22029   2.22431   2.22971
 Alpha virt. eigenvalues --    2.23094   2.23344   2.23793   2.23989   2.24427
 Alpha virt. eigenvalues --    2.25052   2.25152   2.25242   2.26257   2.26714
 Alpha virt. eigenvalues --    2.27207   2.27615   2.28439   2.28544   2.29443
 Alpha virt. eigenvalues --    2.30128   2.30474   2.30785   2.31142   2.31645
 Alpha virt. eigenvalues --    2.31706   2.32241   2.32837   2.33219   2.33283
 Alpha virt. eigenvalues --    2.33980   2.34270   2.34374   2.35321   2.35446
 Alpha virt. eigenvalues --    2.36368   2.36672   2.36921   2.37223   2.37473
 Alpha virt. eigenvalues --    2.37528   2.37960   2.38022   2.38349   2.39112
 Alpha virt. eigenvalues --    2.39320   2.39547   2.40212   2.40562   2.40726
 Alpha virt. eigenvalues --    2.40944   2.41059   2.41868   2.41898   2.42072
 Alpha virt. eigenvalues --    2.42414   2.42672   2.42801   2.43039   2.43292
 Alpha virt. eigenvalues --    2.43658   2.44193   2.44484   2.44712   2.45531
 Alpha virt. eigenvalues --    2.45656   2.46383   2.46712   2.47062   2.47175
 Alpha virt. eigenvalues --    2.48027   2.48098   2.48603   2.49369   2.49708
 Alpha virt. eigenvalues --    2.49985   2.50266   2.50612   2.51619   2.51779
 Alpha virt. eigenvalues --    2.52344   2.52850   2.53640   2.53846   2.54251
 Alpha virt. eigenvalues --    2.54431   2.55088   2.55585   2.56310   2.56603
 Alpha virt. eigenvalues --    2.56731   2.57638   2.58011   2.58394   2.58453
 Alpha virt. eigenvalues --    2.58677   2.59000   2.59207   2.59700   2.60414
 Alpha virt. eigenvalues --    2.60569   2.60721   2.61187   2.61587   2.62130
 Alpha virt. eigenvalues --    2.62520   2.62902   2.63045   2.63437   2.63683
 Alpha virt. eigenvalues --    2.64280   2.64451   2.64744   2.65643   2.66054
 Alpha virt. eigenvalues --    2.66709   2.67345   2.68007   2.68573   2.68808
 Alpha virt. eigenvalues --    2.68953   2.69329   2.69836   2.70793   2.70832
 Alpha virt. eigenvalues --    2.71032   2.71955   2.72073   2.72103   2.72727
 Alpha virt. eigenvalues --    2.72978   2.73283   2.73397   2.73490   2.74232
 Alpha virt. eigenvalues --    2.74379   2.74695   2.76162   2.76902   2.77237
 Alpha virt. eigenvalues --    2.77283   2.77681   2.78173   2.78825   2.79409
 Alpha virt. eigenvalues --    2.80023   2.80538   2.81048   2.81680   2.81888
 Alpha virt. eigenvalues --    2.82487   2.83372   2.83902   2.84504   2.84662
 Alpha virt. eigenvalues --    2.85192   2.85394   2.85752   2.85921   2.86841
 Alpha virt. eigenvalues --    2.87331   2.88003   2.88292   2.88803   2.89067
 Alpha virt. eigenvalues --    2.89620   2.89933   2.90436   2.90558   2.90694
 Alpha virt. eigenvalues --    2.91641   2.92498   2.92712   2.92801   2.93094
 Alpha virt. eigenvalues --    2.93458   2.93794   2.94020   2.94668   2.94928
 Alpha virt. eigenvalues --    2.94995   2.95095   2.95165   2.95605   2.95876
 Alpha virt. eigenvalues --    2.96346   2.96471   2.96774   2.97063   2.97308
 Alpha virt. eigenvalues --    2.97664   2.97907   2.98279   2.98509   2.98592
 Alpha virt. eigenvalues --    2.98785   2.98955   2.99099   2.99157   2.99765
 Alpha virt. eigenvalues --    3.00258   3.00598   3.01124   3.01387   3.01693
 Alpha virt. eigenvalues --    3.02123   3.02158   3.02631   3.02839   3.02945
 Alpha virt. eigenvalues --    3.03831   3.03953   3.04620   3.05080   3.05732
 Alpha virt. eigenvalues --    3.05822   3.05876   3.06962   3.07196   3.07709
 Alpha virt. eigenvalues --    3.07970   3.08064   3.08661   3.09753   3.10024
 Alpha virt. eigenvalues --    3.10626   3.11328   3.11498   3.12352   3.12561
 Alpha virt. eigenvalues --    3.12751   3.13603   3.14817   3.15514   3.16119
 Alpha virt. eigenvalues --    3.16310   3.16917   3.18237   3.18499   3.20036
 Alpha virt. eigenvalues --    3.21007   3.21248   3.22276   3.23423   3.23773
 Alpha virt. eigenvalues --    3.26678   3.29023   3.32953   3.38544   3.39187
 Alpha virt. eigenvalues --    3.39882   3.42384   3.47071   3.51700   3.52850
 Alpha virt. eigenvalues --    3.56106   3.62300   3.63344   3.64642   3.66322
 Alpha virt. eigenvalues --    3.68302   3.71805
          Condensed to atoms (all electrons):
 Mulliken charges:
               1
     1  Mg   0.974154
     2  C   -0.019393
     3  C   -0.074080
     4  C   -0.050677
     5  C   -0.072894
     6  N   -0.383114
     7  C    0.047727
     8  C   -0.132964
     9  C   -0.135939
    10  C    0.038601
    11  C    0.039545
    12  C    0.071229
    13  C   -0.016780
    14  C    0.240364
    15  O   -0.234839
    16  O   -0.385823
    17  N   -0.504694
    18  C    0.209032
    19  C   -0.180468
    20  C   -0.050014
    21  C    0.173455
    22  C    0.065646
    23  C    0.009625
    24  O   -0.268302
    25  C    0.005852
    26  N   -0.434847
    27  C    0.088248
    28  C   -0.119900
    29  C   -0.073720
    30  C    0.057458
    31  C    0.013359
    32  C   -0.040056
    33  C   -0.066406
    34  N   -0.490570
    35  C    0.151560
    36  C   -0.194114
    37  C   -0.048758
    38  C    0.167984
    39  C    0.079189
    40  C    0.195082
    41  O   -0.247870
    42  C   -0.119898
    43  C    0.264578
    44  O   -0.230422
    45  O   -0.382619
    46  C    0.117703
    47  C    0.235758
    48  C   -0.158612
    49  C   -0.204689
    50  C   -0.008285
    51  C    0.017232
    52  C   -0.033146
    53  C   -0.059279
    54  C   -0.186915
    55  C    0.004815
    56  C    0.008203
    57  C   -0.079929
    58  C   -0.003880
    59  C   -0.286148
    60  C    0.020053
    61  C    0.010839
    62  C   -0.071804
    63  C   -0.010711
    64  C   -0.257319
    65  C    0.019730
    66  C   -0.001681
    67  H   -0.008942
    68  H    0.025262
    69  H    0.005019
    70  H    0.080179
    71  H    0.030827
    72  H    0.040959
    73  H    0.049577
    74  H    0.052953
    75  H    0.029413
    76  H    0.041270
    77  H    0.045399
    78  H    0.054917
    79  H    0.047603
    80  H    0.062682
    81  H    0.032203
    82  H    0.066228
    83  H    0.056001
    84  H    0.048649
    85  H    0.037987
    86  H    0.027321
    87  H    0.056930
    88  H    0.043605
    89  H    0.051769
    90  H    0.051314
    91  H    0.030790
    92  H    0.033153
    93  H    0.044207
    94  H    0.073652
    95  H    0.064735
    96  H    0.055395
    97  H    0.044746
    98  H    0.074398
    99  H    0.060874
   100  H    0.068878
   101  H    0.080066
   102  H    0.065361
   103  H    0.065753
   104  H    0.034896
   105  H    0.039718
   106  H    0.047638
   107  H    0.052660
   108  H    0.030201
   109  H    0.036173
   110  H    0.039853
   111  H    0.034152
   112  H    0.031508
   113  H    0.028004
   114  H    0.030739
   115  H    0.028318
   116  H    0.042209
   117  H    0.029371
   118  H    0.021707
   119  H    0.028512
   120  H    0.048726
   121  H    0.036748
   122  H    0.015568
   123  H    0.019458
   124  H    0.037772
   125  H    0.022821
   126  H    0.030868
   127  H    0.030639
   128  H    0.028421
   129  H    0.029450
   130  H    0.032944
   131  H    0.033890
   132  H    0.026300
   133  H    0.022859
   134  H    0.030023
   135  H    0.044477
   136  H    0.026346
   137  H    0.038384
   138  H    0.032279
   139  H    0.025497
   140  H    0.034274
 Sum of Mulliken charges =  -0.00000
 Mulliken charges with hydrogens summed into heavy atoms:
               1
     1  Mg   0.974154
     2  C   -0.019393
     3  C   -0.083022
     4  C   -0.025415
     5  C   -0.067875
     6  N   -0.383114
     7  C    0.047727
     8  C   -0.052785
     9  C   -0.105112
    10  C    0.038601
    11  C    0.183035
    12  C    0.141912
    13  C    0.083536
    14  C    0.240364
    15  O   -0.234839
    16  O   -0.385823
    17  N   -0.504694
    18  C    0.209032
    19  C   -0.180468
    20  C   -0.050014
    21  C    0.173455
    22  C    0.208134
    23  C    0.009625
    24  O   -0.268302
    25  C    0.176730
    26  N   -0.434847
    27  C    0.088248
    28  C   -0.081912
    29  C   -0.046399
    30  C    0.057458
    31  C    0.165663
    32  C    0.042048
    33  C    0.084606
    34  N   -0.490570
    35  C    0.151560
    36  C   -0.194114
    37  C   -0.048758
    38  C    0.167984
    39  C    0.244066
    40  C    0.195082
    41  O   -0.247870
    42  C   -0.045500
    43  C    0.264578
    44  O   -0.230422
    45  O   -0.382619
    46  C    0.327522
    47  C    0.366872
    48  C   -0.123716
    49  C   -0.204689
    50  C    0.131731
    51  C    0.083606
    52  C    0.040859
    53  C    0.000233
    54  C   -0.156176
    55  C    0.104713
    56  C    0.058422
    57  C    0.005545
    58  C    0.031145
    59  C   -0.248376
    60  C    0.104382
    61  C    0.068710
    62  C   -0.004970
    63  C    0.038448
    64  C   -0.227295
    65  C    0.128937
    66  C    0.090369
 Electronic spatial extent (au):  <R**2>=         125016.7938
 Charge=             -0.0000 electrons
 Dipole moment (field-independent basis, Debye):
    X=              4.0332    Y=              3.2496    Z=             -1.1096  Tot=              5.2970
 Quadrupole moment (field-independent basis, Debye-Ang):
   XX=           -370.1331   YY=           -418.6546   ZZ=           -399.1417
   XY=              7.8809   XZ=             14.0526   YZ=             -0.2795
 Traceless Quadrupole moment (field-independent basis, Debye-Ang):
   XX=             25.8433   YY=            -22.6781   ZZ=             -3.1652
   XY=              7.8809   XZ=             14.0526   YZ=             -0.2795
 Octapole moment (field-independent basis, Debye-Ang**2):
  XXX=           -113.3289  YYY=            130.1187  ZZZ=             -4.4414  XYY=            154.0496
  XXY=           -252.6329  XXZ=            -80.1545  XZZ=             -3.7064  YZZ=             -1.7479
  YYZ=             64.7110  XYZ=            -26.8864
 Hexadecapole moment (field-independent basis, Debye-Ang**3):
 XXXX=        -140637.4836 YYYY=         -19539.2885 ZZZZ=          -6848.4141 XXXY=           3353.7666
 XXXZ=           1197.4426 YYYX=           -574.6039 YYYZ=           -273.3169 ZZZX=            -36.5691
 ZZZY=            -28.4268 XXYY=         -28967.3409 XXZZ=         -25183.9779 YYZZ=          -4304.3348
 XXYZ=             14.9093 YYXZ=            -72.5026 ZZXY=            -66.0632
 N-N= 9.579651559052D+03 E-N=-2.615139010776D+04  KE= 2.975349973481D+03
 Leave Link  601 at Wed May  4 04:05:19 2022, MaxMem= 10066329600 cpu:              13.8 elap:               0.7
 (Enter /sw/apps/gaussian-16.0/g16/l9999.exe)
 1\1\GINC-BP1-COMPUTE057\SP\RPBE1PBE TD-FC\def2SVP\C55H74Mg1N4O6\OF1564
 1\04-May-2022\0\\#p PBE1PBE/Def2SVP td=(nstates=5)\\step_1351_chromoph
 ore_19 TDDFT with PBE1PBE functional\\0,1\Mg,0,25.708,50.222,26.143\C,
 0,23.728,51.567,28.688\C,0,28.06,49.489,28.527\C,0,27.861,49.583,23.66
 2\C,0,23.461,51.664,23.752\N,0,25.92,50.48,28.317\C,0,24.944,51.055,29
 .138\C,0,25.345,50.91,30.574\C,0,26.928,50.672,30.461\C,0,27.002,50.18
 4,29.027\C,0,27.944,51.684,30.931\C,0,24.547,49.867,31.391\C,0,23.752,
 50.383,32.565\C,0,24.416,51.075,33.751\O,0,25.062,52.071,33.639\O,0,24
 .123,50.383,34.937\N,0,27.616,49.401,26.113\C,0,28.445,49.155,27.189\C
 ,0,29.554,48.472,26.716\C,0,29.549,48.37,25.345\C,0,28.28,49.149,24.93
 5\C,0,30.567,47.871,27.668\C,0,30.522,47.751,24.42\O,0,30.283,47.856,2
 3.206\C,0,31.766,46.979,24.845\N,0,25.682,50.642,24.102\C,0,26.754,50.
 245,23.315\C,0,26.425,50.629,21.868\C,0,24.958,50.904,21.824\C,0,24.65
 5,51.085,23.283\C,0,27.436,51.765,21.331\C,0,24.038,49.8,21.2\C,0,23.8
 98,48.467,21.997\N,0,23.917,51.309,26.15\C,0,23.081,51.799,25.112\C,0,
 21.967,52.524,25.678\C,0,22.204,52.467,27.039\C,0,23.398,51.696,27.338
 \C,0,20.89,53.139,24.916\C,0,21.647,52.898,28.343\O,0,20.663,53.658,28
 .572\C,0,22.656,52.298,29.488\C,0,23.159,53.393,30.356\O,0,24.161,54.0
 03,30.142\O,0,22.263,53.637,31.353\C,0,22.584,54.806,32.265\C,0,24.911
 ,51.045,36.04\C,0,24.794,50.18,37.255\C,0,25.448,50.154,38.471\C,0,26.
 347,51.369,38.819\C,0,25.102,49.165,39.551\C,0,26.138,48.088,39.915\C,
 0,25.346,46.834,40.467\C,0,26.188,45.898,41.328\C,0,26.888,44.866,40.4
 65\C,0,25.365,45.239,42.461\C,0,26.029,45.6,43.871\C,0,25.129,46.615,4
 4.692\C,0,25.971,47.894,45.061\C,0,25.697,48.427,46.478\C,0,25.93,48.9
 14,43.982\C,0,27.405,49.456,43.754\C,0,27.393,50.887,43.244\C,0,27.848
 ,51.986,44.309\C,0,27.008,53.206,44.269\C,0,29.318,52.282,44.13\H,0,28
 .704,49.269,29.381\H,0,28.503,49.396,22.799\H,0,22.777,51.97,22.957\H,
 0,25.289,51.927,30.964\H,0,27.192,49.823,31.091\H,0,28.821,51.806,30.2
 95\H,0,28.223,51.452,31.959\H,0,27.452,52.65,30.818\H,0,25.25,49.134,3
 1.786\H,0,23.975,49.181,30.767\H,0,23.009,49.645,32.868\H,0,23.084,51.
 127,32.132\H,0,31.577,48.268,27.558\H,0,30.521,46.797,27.485\H,0,30.34
 7,48.134,28.702\H,0,32.431,47.752,25.229\H,0,32.18,46.404,24.017\H,0,3
 1.53,46.223,25.595\H,0,26.577,49.747,21.246\H,0,24.834,51.828,21.26\H,
 0,27.909,52.33,22.133\H,0,26.857,52.368,20.631\H,0,28.257,51.239,20.84
 3\H,0,24.221,49.625,20.14\H,0,23.071,50.271,21.38\H,0,23.738,47.71,21.
 228\H,0,22.922,48.434,22.482\H,0,24.777,48.224,22.593\H,0,20.301,53.75
 1,25.6\H,0,20.346,52.385,24.348\H,0,21.29,53.835,24.178\H,0,22.208,51.
 576,30.17\H,0,23.181,54.307,33.028\H,0,21.673,55.17,32.74\H,0,23.158,5
 5.575,31.748\H,0,24.612,52.08,36.204\H,0,25.975,51.038,35.806\H,0,24.1
 64,49.314,37.055\H,0,26.73,51.963,37.989\H,0,27.138,51.094,39.517\H,0,
 25.682,52.065,39.329\H,0,24.123,48.75,39.311\H,0,24.844,49.792,40.405\
 H,0,26.963,48.473,40.516\H,0,26.604,47.626,39.045\H,0,24.966,46.3,39.5
 97\H,0,24.449,47.183,40.979\H,0,26.895,46.537,41.856\H,0,27.283,45.402
 ,39.602\H,0,26.324,43.999,40.121\H,0,27.716,44.455,41.042\H,0,25.373,4
 4.15,42.43\H,0,24.328,45.575,42.488\H,0,27.012,46.053,43.736\H,0,25.98
 ,44.673,44.441\H,0,24.668,46.206,45.591\H,0,24.255,46.892,44.102\H,0,2
 7.005,47.551,45.094\H,0,25.324,49.451,46.47\H,0,26.598,48.499,47.087\H
 ,0,24.985,47.755,46.957\H,0,25.082,49.584,44.124\H,0,25.653,48.33,43.1
 04\H,0,27.966,48.722,43.176\H,0,27.872,49.421,44.738\H,0,26.382,51.075
 ,42.884\H,0,28.022,50.929,42.355\H,0,27.679,51.449,45.241\H,0,26.769,5
 3.363,43.217\H,0,27.583,54.065,44.617\H,0,26.258,53.034,45.04\H,0,29.4
 95,53.261,43.684\H,0,29.806,51.546,43.49\H,0,29.859,52.227,45.074\\Ver
 sion=ES64L-G16RevA.03\State=1-A\HF=-3005.3669545\RMSD=6.479e-09\PG=C01
  [X(C55H74Mg1N4O6)]\\@


 BREAD HAS TO MOLD IN ORDER TO GET PENICILLIN.
          -- JERRY BOATZ
 Job cpu time:       0 days  6 hours 49 minutes 23.5 seconds.
 Elapsed time:       0 days  0 hours 17 minutes  7.0 seconds.
 File lengths (MBytes):  RWF=   8929 Int=      0 D2E=      0 Chk=    390 Scr=      1
 Normal termination of Gaussian 16 at Wed May  4 04:05:20 2022.
