 Entering Gaussian System, Link 0=g16
 Initial command:
 /sw/apps/gaussian-16.0/g16/l1.exe "/tmp/Gau-143678.inp" -scrdir="/tmp/"
 Entering Link 1 = /sw/apps/gaussian-16.0/g16/l1.exe PID=    143679.
  
 Copyright (c) 1988,1990,1992,1993,1995,1998,2003,2009,2016,
            Gaussian, Inc.  All Rights Reserved.
  
 This is part of the Gaussian(R) 16 program.  It is based on
 the Gaussian(R) 09 system (copyright 2009, Gaussian, Inc.),
 the Gaussian(R) 03 system (copyright 2003, Gaussian, Inc.),
 the Gaussian(R) 98 system (copyright 1998, Gaussian, Inc.),
 the Gaussian(R) 94 system (copyright 1995, Gaussian, Inc.),
 the Gaussian 92(TM) system (copyright 1992, Gaussian, Inc.),
 the Gaussian 90(TM) system (copyright 1990, Gaussian, Inc.),
 the Gaussian 88(TM) system (copyright 1988, Gaussian, Inc.),
 the Gaussian 86(TM) system (copyright 1986, Carnegie Mellon
 University), and the Gaussian 82(TM) system (copyright 1983,
 Carnegie Mellon University). Gaussian is a federally registered
 trademark of Gaussian, Inc.
  
 This software contains proprietary and confidential information,
 including trade secrets, belonging to Gaussian, Inc.
  
 This software is provided under written license and may be
 used, copied, transmitted, or stored only in accord with that
 written license.
  
 The following legend is applicable only to US Government
 contracts under FAR:
  
                    RESTRICTED RIGHTS LEGEND
  
 Use, reproduction and disclosure by the US Government is
 subject to restrictions as set forth in subparagraphs (a)
 and (c) of the Commercial Computer Software - Restricted
 Rights clause in FAR 52.227-19.
  
 Gaussian, Inc.
 340 Quinnipiac St., Bldg. 40, Wallingford CT 06492
  
  
 ---------------------------------------------------------------
 Warning -- This program may not be used in any manner that
 competes with the business of Gaussian, Inc. or will provide
 assistance to any competitor of Gaussian, Inc.  The licensee
 of this program is prohibited from giving any competitor of
 Gaussian, Inc. access to this program.  By using this program,
 the user acknowledges that Gaussian, Inc. is engaged in the
 business of creating and licensing software in the field of
 computational chemistry and represents and warrants to the
 licensee that it is not a competitor of Gaussian, Inc. and that
 it will not use this program in any manner prohibited above.
 ---------------------------------------------------------------
  

 Cite this work as:
 Gaussian 16, Revision A.03,
 M. J. Frisch, G. W. Trucks, H. B. Schlegel, G. E. Scuseria, 
 M. A. Robb, J. R. Cheeseman, G. Scalmani, V. Barone, 
 G. A. Petersson, H. Nakatsuji, X. Li, M. Caricato, A. V. Marenich, 
 J. Bloino, B. G. Janesko, R. Gomperts, B. Mennucci, H. P. Hratchian, 
 J. V. Ortiz, A. F. Izmaylov, J. L. Sonnenberg, D. Williams-Young, 
 F. Ding, F. Lipparini, F. Egidi, J. Goings, B. Peng, A. Petrone, 
 T. Henderson, D. Ranasinghe, V. G. Zakrzewski, J. Gao, N. Rega, 
 G. Zheng, W. Liang, M. Hada, M. Ehara, K. Toyota, R. Fukuda, 
 J. Hasegawa, M. Ishida, T. Nakajima, Y. Honda, O. Kitao, H. Nakai, 
 T. Vreven, K. Throssell, J. A. Montgomery, Jr., J. E. Peralta, 
 F. Ogliaro, M. J. Bearpark, J. J. Heyd, E. N. Brothers, K. N. Kudin, 
 V. N. Staroverov, T. A. Keith, R. Kobayashi, J. Normand, 
 K. Raghavachari, A. P. Rendell, J. C. Burant, S. S. Iyengar, 
 J. Tomasi, M. Cossi, J. M. Millam, M. Klene, C. Adamo, R. Cammi, 
 J. W. Ochterski, R. L. Martin, K. Morokuma, O. Farkas, 
 J. B. Foresman, and D. J. Fox, Gaussian, Inc., Wallingford CT, 2016.
 
 ******************************************
 Gaussian 16:  ES64L-G16RevA.03 25-Dec-2016
                26-Apr-2022 
 ******************************************
 %nproc=24
 Will use up to   24 processors via shared memory.
 %mem=75GB
 ------------------------------
 #p blyp/Def2SVP td=(nstates=5)
 ------------------------------
 1/38=1,172=1/1;
 2/12=2,17=6,18=5,40=1/2;
 3/5=43,7=101,11=9,25=1,30=1,74=402/1,2,3,8;
 4//1;
 5/5=2,38=5/2;
 8/6=1,10=1,108=5/1;
 9/41=5,42=1,70=2/14;
 6/7=2,8=2,9=2,10=2/1;
 99/5=1,9=1/99;
 Leave Link    1 at Tue Apr 26 23:58:55 2022, MaxMem= 10066329600 cpu:               1.7 elap:               0.1
 (Enter /sw/apps/gaussian-16.0/g16/l101.exe)
 --------------------------------------------------
 step_101_chromophore_11 TDDFT with blyp functional
 --------------------------------------------------
 Symbolic Z-matrix:
 Charge =  0 Multiplicity = 1
 Mg                    53.505    23.953    45.168 
 C                     50.636    25.863    44.491 
 C                     52.196    21.287    43.835 
 C                     56.711    22.603    45.093 
 C                     54.995    27.043    46.095 
 N                     51.656    23.686    44.239 
 C                     50.627    24.514    44.023 
 C                     49.314    23.808    43.75 
 C                     49.836    22.275    43.679 
 C                     51.337    22.44     43.96 
 C                     49.139    21.237    44.661 
 C                     48.546    24.235    42.542 
 C                     49.358    24.364    41.23 
 C                     48.856    23.749    39.993 
 O                     48.269    24.433    39.2 
 O                     48.792    22.371    40.131 
 N                     54.343    22.147    44.565 
 C                     53.599    21.141    44.117 
 C                     54.459    19.978    43.907 
 C                     55.802    20.336    44.223 
 C                     55.694    21.717    44.682 
 C                     53.907    18.64     43.283 
 C                     57.028    19.473    44.114 
 O                     56.929    18.347    43.665 
 C                     58.379    20.013    44.473 
 N                     55.559    24.753    45.407 
 C                     56.612    23.974    45.296 
 C                     57.939    24.786    45.584 
 C                     57.38     26.169    45.944 
 C                     55.845    26.004    45.771 
 C                     58.998    24.202    46.62 
 C                     57.745    27.371    45.025 
 C                     59.23     27.461    44.605 
 N                     52.915    26.       45.459 
 C                     53.589    27.069    45.923 
 C                     52.742    28.237    46.221 
 C                     51.566    27.857    45.585 
 C                     51.742    26.479    45.122 
 C                     53.171    29.505    46.932 
 C                     50.205    28.254    45.228 
 O                     49.542    29.303    45.461 
 C                     49.599    26.998    44.463 
 C                     49.354    27.524    43.126 
 O                     50.275    27.798    42.324 
 O                     47.999    27.594    42.866 
 C                     47.407    28.027    41.549 
 C                     48.201    21.703    38.959 
 C                     49.054    21.558    37.628 
 C                     48.919    20.866    36.488 
 C                     47.693    20.042    36.218 
 C                     50.055    20.742    35.416 
 C                     51.31     19.861    35.836 
 C                     51.451    18.676    34.92 
 C                     52.965    18.337    34.677 
 C                     53.712    19.249    33.712 
 C                     53.142    16.774    34.338 
 C                     52.227    16.136    33.258 
 C                     53.142    15.401    32.113 
 C                     52.872    13.965    31.687 
 C                     53.218    12.954    32.826 
 C                     53.622    13.733    30.345 
 C                     53.156    12.473    29.564 
 C                     54.3      11.476    29.104 
 C                     54.028    10.974    27.621 
 C                     54.136    9.457     27.587 
 C                     55.058    11.773    26.74 
 H                     51.587    20.393    43.684 
 H                     57.694    22.133    45.166 
 H                     55.374    28.048    46.294 
 H                     48.819    23.937    44.713 
 H                     49.775    21.921    42.649 
 H                     48.448    21.8      45.288 
 H                     49.813    20.628    45.263 
 H                     48.595    20.576    43.985 
 H                     48.013    25.167    42.728 
 H                     47.662    23.602    42.457 
 H                     50.33     23.919    41.442 
 H                     49.562    25.41     40.998 
 H                     54.42     18.398    42.352 
 H                     52.835    18.724    43.111 
 H                     54.055    17.752    43.897 
 H                     58.589    20.821    43.773 
 H                     59.046    19.174    44.275 
 H                     58.303    20.255    45.534 
 H                     58.47     24.818    44.633 
 H                     57.538    26.329    47.011 
 H                     59.704    23.543    46.116 
 H                     58.628    23.603    47.453 
 H                     59.62     24.973    47.074 
 H                     57.509    28.33     45.488 
 H                     57.196    27.184    44.102 
 H                     59.871    26.755    45.133 
 H                     59.732    28.41     44.797 
 H                     59.222    27.179    43.553 
 H                     52.299    30.13     47.127 
 H                     53.916    30.058    46.36 
 H                     53.583    29.283    47.916 
 H                     48.641    26.688    44.88 
 H                     46.805    28.935    41.545 
 H                     46.798    27.234    41.113 
 H                     48.232    28.287    40.886 
 H                     47.353    22.333    38.689 
 H                     47.84     20.705    39.208 
 H                     50.018    22.03     37.819 
 H                     48.111    19.036    36.185 
 H                     47.218    20.182    35.246 
 H                     46.976    20.076    37.039 
 H                     50.488    21.738    35.322 
 H                     49.553    20.494    34.482 
 H                     51.128    19.548    36.864 
 H                     52.237    20.426    35.735 
 H                     50.896    18.739    33.983 
 H                     50.923    17.87     35.431 
 H                     53.364    18.393    35.69 
 H                     54.486    19.84     34.202 
 H                     53.107    19.804    32.995 
 H                     54.304    18.588    33.078 
 H                     52.805    16.181    35.188 
 H                     54.194    16.528    34.194 
 H                     51.62     16.905    32.781 
 H                     51.609    15.415    33.793 
 H                     54.196    15.327    32.381 
 H                     52.982    16.067    31.265 
 H                     51.791    13.908    31.555 
 H                     52.368    12.273    32.868 
 H                     53.252    13.397    33.821 
 H                     54.18     12.471    32.654 
 H                     54.651    13.492    30.612 
 H                     53.697    14.597    29.686 
 H                     52.588    12.839    28.709 
 H                     52.45     11.882    30.147 
 H                     54.348    10.661    29.826 
 H                     55.227    12.047    29.156 
 H                     53.004    11.217    27.337 
 H                     53.154    9.015     27.757 
 H                     54.785    9.1       28.387 
 H                     54.53     9.114     26.631 
 H                     55.46     11.16     25.934 
 H                     55.841    12.329    27.257 
 H                     54.45     12.501    26.203 
 
 ITRead=  0  0  0  0  0  0  0  0  0  0  0  0  0  0  0  0  0  0  0  0
 ITRead=  0  0  0  0  0  0  0  0  0  0  0  0  0  0  0  0  0  0  0  0
 ITRead=  0  0  0  0  0  0  0  0  0  0  0  0  0  0  0  0  0  0  0  0
 ITRead=  0  0  0  0  0  0  0  0  0  0  0  0  0  0  0  0  0  0  0  0
 ITRead=  0  0  0  0  0  0  0  0  0  0  0  0  0  0  0  0  0  0  0  0
 ITRead=  0  0  0  0  0  0  0  0  0  0  0  0  0  0  0  0  0  0  0  0
 ITRead=  0  0  0  0  0  0  0  0  0  0  0  0  0  0  0  0  0  0  0  0
 MicOpt= -1 -1 -1 -1 -1 -1 -1 -1 -1 -1 -1 -1 -1 -1 -1 -1 -1 -1 -1 -1
 MicOpt= -1 -1 -1 -1 -1 -1 -1 -1 -1 -1 -1 -1 -1 -1 -1 -1 -1 -1 -1 -1
 MicOpt= -1 -1 -1 -1 -1 -1 -1 -1 -1 -1 -1 -1 -1 -1 -1 -1 -1 -1 -1 -1
 MicOpt= -1 -1 -1 -1 -1 -1 -1 -1 -1 -1 -1 -1 -1 -1 -1 -1 -1 -1 -1 -1
 MicOpt= -1 -1 -1 -1 -1 -1 -1 -1 -1 -1 -1 -1 -1 -1 -1 -1 -1 -1 -1 -1
 MicOpt= -1 -1 -1 -1 -1 -1 -1 -1 -1 -1 -1 -1 -1 -1 -1 -1 -1 -1 -1 -1
 MicOpt= -1 -1 -1 -1 -1 -1 -1 -1 -1 -1 -1 -1 -1 -1 -1 -1 -1 -1 -1 -1
 NAtoms=    140 NQM=      140 NQMF=       0 NMMI=      0 NMMIF=      0
                NMic=       0 NMicF=      0.
                    Isotopes and Nuclear Properties:
 (Nuclear quadrupole moments (NQMom) in fm**2, nuclear magnetic moments (NMagM)
  in nuclear magnetons)

  Atom         1           2           3           4           5           6           7           8           9          10
 IAtWgt=          24          12          12          12          12          14          12          12          12          12
 AtmWgt=  23.9850450  12.0000000  12.0000000  12.0000000  12.0000000  14.0030740  12.0000000  12.0000000  12.0000000  12.0000000
 NucSpn=           0           0           0           0           0           2           0           0           0           0
 AtZEff=  -0.0000000  -0.0000000  -0.0000000  -0.0000000  -0.0000000  -0.0000000  -0.0000000  -0.0000000  -0.0000000  -0.0000000
 NQMom=    0.0000000   0.0000000   0.0000000   0.0000000   0.0000000   2.0440000   0.0000000   0.0000000   0.0000000   0.0000000
 NMagM=    0.0000000   0.0000000   0.0000000   0.0000000   0.0000000   0.4037610   0.0000000   0.0000000   0.0000000   0.0000000
 AtZNuc=  12.0000000   6.0000000   6.0000000   6.0000000   6.0000000   7.0000000   6.0000000   6.0000000   6.0000000   6.0000000

  Atom        11          12          13          14          15          16          17          18          19          20
 IAtWgt=          12          12          12          12          16          16          14          12          12          12
 AtmWgt=  12.0000000  12.0000000  12.0000000  12.0000000  15.9949146  15.9949146  14.0030740  12.0000000  12.0000000  12.0000000
 NucSpn=           0           0           0           0           0           0           2           0           0           0
 AtZEff=  -0.0000000  -0.0000000  -0.0000000  -0.0000000  -0.0000000  -0.0000000  -0.0000000  -0.0000000  -0.0000000  -0.0000000
 NQMom=    0.0000000   0.0000000   0.0000000   0.0000000   0.0000000   0.0000000   2.0440000   0.0000000   0.0000000   0.0000000
 NMagM=    0.0000000   0.0000000   0.0000000   0.0000000   0.0000000   0.0000000   0.4037610   0.0000000   0.0000000   0.0000000
 AtZNuc=   6.0000000   6.0000000   6.0000000   6.0000000   8.0000000   8.0000000   7.0000000   6.0000000   6.0000000   6.0000000

  Atom        21          22          23          24          25          26          27          28          29          30
 IAtWgt=          12          12          12          16          12          14          12          12          12          12
 AtmWgt=  12.0000000  12.0000000  12.0000000  15.9949146  12.0000000  14.0030740  12.0000000  12.0000000  12.0000000  12.0000000
 NucSpn=           0           0           0           0           0           2           0           0           0           0
 AtZEff=  -0.0000000  -0.0000000  -0.0000000  -0.0000000  -0.0000000  -0.0000000  -0.0000000  -0.0000000  -0.0000000  -0.0000000
 NQMom=    0.0000000   0.0000000   0.0000000   0.0000000   0.0000000   2.0440000   0.0000000   0.0000000   0.0000000   0.0000000
 NMagM=    0.0000000   0.0000000   0.0000000   0.0000000   0.0000000   0.4037610   0.0000000   0.0000000   0.0000000   0.0000000
 AtZNuc=   6.0000000   6.0000000   6.0000000   8.0000000   6.0000000   7.0000000   6.0000000   6.0000000   6.0000000   6.0000000

  Atom        31          32          33          34          35          36          37          38          39          40
 IAtWgt=          12          12          12          14          12          12          12          12          12          12
 AtmWgt=  12.0000000  12.0000000  12.0000000  14.0030740  12.0000000  12.0000000  12.0000000  12.0000000  12.0000000  12.0000000
 NucSpn=           0           0           0           2           0           0           0           0           0           0
 AtZEff=  -0.0000000  -0.0000000  -0.0000000  -0.0000000  -0.0000000  -0.0000000  -0.0000000  -0.0000000  -0.0000000  -0.0000000
 NQMom=    0.0000000   0.0000000   0.0000000   2.0440000   0.0000000   0.0000000   0.0000000   0.0000000   0.0000000   0.0000000
 NMagM=    0.0000000   0.0000000   0.0000000   0.4037610   0.0000000   0.0000000   0.0000000   0.0000000   0.0000000   0.0000000
 AtZNuc=   6.0000000   6.0000000   6.0000000   7.0000000   6.0000000   6.0000000   6.0000000   6.0000000   6.0000000   6.0000000

  Atom        41          42          43          44          45          46          47          48          49          50
 IAtWgt=          16          12          12          16          16          12          12          12          12          12
 AtmWgt=  15.9949146  12.0000000  12.0000000  15.9949146  15.9949146  12.0000000  12.0000000  12.0000000  12.0000000  12.0000000
 NucSpn=           0           0           0           0           0           0           0           0           0           0
 AtZEff=  -0.0000000  -0.0000000  -0.0000000  -0.0000000  -0.0000000  -0.0000000  -0.0000000  -0.0000000  -0.0000000  -0.0000000
 NQMom=    0.0000000   0.0000000   0.0000000   0.0000000   0.0000000   0.0000000   0.0000000   0.0000000   0.0000000   0.0000000
 NMagM=    0.0000000   0.0000000   0.0000000   0.0000000   0.0000000   0.0000000   0.0000000   0.0000000   0.0000000   0.0000000
 AtZNuc=   8.0000000   6.0000000   6.0000000   8.0000000   8.0000000   6.0000000   6.0000000   6.0000000   6.0000000   6.0000000

  Atom        51          52          53          54          55          56          57          58          59          60
 IAtWgt=          12          12          12          12          12          12          12          12          12          12
 AtmWgt=  12.0000000  12.0000000  12.0000000  12.0000000  12.0000000  12.0000000  12.0000000  12.0000000  12.0000000  12.0000000
 NucSpn=           0           0           0           0           0           0           0           0           0           0
 AtZEff=  -0.0000000  -0.0000000  -0.0000000  -0.0000000  -0.0000000  -0.0000000  -0.0000000  -0.0000000  -0.0000000  -0.0000000
 NQMom=    0.0000000   0.0000000   0.0000000   0.0000000   0.0000000   0.0000000   0.0000000   0.0000000   0.0000000   0.0000000
 NMagM=    0.0000000   0.0000000   0.0000000   0.0000000   0.0000000   0.0000000   0.0000000   0.0000000   0.0000000   0.0000000
 AtZNuc=   6.0000000   6.0000000   6.0000000   6.0000000   6.0000000   6.0000000   6.0000000   6.0000000   6.0000000   6.0000000

  Atom        61          62          63          64          65          66          67          68          69          70
 IAtWgt=          12          12          12          12          12          12           1           1           1           1
 AtmWgt=  12.0000000  12.0000000  12.0000000  12.0000000  12.0000000  12.0000000   1.0078250   1.0078250   1.0078250   1.0078250
 NucSpn=           0           0           0           0           0           0           1           1           1           1
 AtZEff=  -0.0000000  -0.0000000  -0.0000000  -0.0000000  -0.0000000  -0.0000000  -0.0000000  -0.0000000  -0.0000000  -0.0000000
 NQMom=    0.0000000   0.0000000   0.0000000   0.0000000   0.0000000   0.0000000   0.0000000   0.0000000   0.0000000   0.0000000
 NMagM=    0.0000000   0.0000000   0.0000000   0.0000000   0.0000000   0.0000000   2.7928460   2.7928460   2.7928460   2.7928460
 AtZNuc=   6.0000000   6.0000000   6.0000000   6.0000000   6.0000000   6.0000000   1.0000000   1.0000000   1.0000000   1.0000000

  Atom        71          72          73          74          75          76          77          78          79          80
 IAtWgt=           1           1           1           1           1           1           1           1           1           1
 AtmWgt=   1.0078250   1.0078250   1.0078250   1.0078250   1.0078250   1.0078250   1.0078250   1.0078250   1.0078250   1.0078250
 NucSpn=           1           1           1           1           1           1           1           1           1           1
 AtZEff=  -0.0000000  -0.0000000  -0.0000000  -0.0000000  -0.0000000  -0.0000000  -0.0000000  -0.0000000  -0.0000000  -0.0000000
 NQMom=    0.0000000   0.0000000   0.0000000   0.0000000   0.0000000   0.0000000   0.0000000   0.0000000   0.0000000   0.0000000
 NMagM=    2.7928460   2.7928460   2.7928460   2.7928460   2.7928460   2.7928460   2.7928460   2.7928460   2.7928460   2.7928460
 AtZNuc=   1.0000000   1.0000000   1.0000000   1.0000000   1.0000000   1.0000000   1.0000000   1.0000000   1.0000000   1.0000000

  Atom        81          82          83          84          85          86          87          88          89          90
 IAtWgt=           1           1           1           1           1           1           1           1           1           1
 AtmWgt=   1.0078250   1.0078250   1.0078250   1.0078250   1.0078250   1.0078250   1.0078250   1.0078250   1.0078250   1.0078250
 NucSpn=           1           1           1           1           1           1           1           1           1           1
 AtZEff=  -0.0000000  -0.0000000  -0.0000000  -0.0000000  -0.0000000  -0.0000000  -0.0000000  -0.0000000  -0.0000000  -0.0000000
 NQMom=    0.0000000   0.0000000   0.0000000   0.0000000   0.0000000   0.0000000   0.0000000   0.0000000   0.0000000   0.0000000
 NMagM=    2.7928460   2.7928460   2.7928460   2.7928460   2.7928460   2.7928460   2.7928460   2.7928460   2.7928460   2.7928460
 AtZNuc=   1.0000000   1.0000000   1.0000000   1.0000000   1.0000000   1.0000000   1.0000000   1.0000000   1.0000000   1.0000000

  Atom        91          92          93          94          95          96          97          98          99         100
 IAtWgt=           1           1           1           1           1           1           1           1           1           1
 AtmWgt=   1.0078250   1.0078250   1.0078250   1.0078250   1.0078250   1.0078250   1.0078250   1.0078250   1.0078250   1.0078250
 NucSpn=           1           1           1           1           1           1           1           1           1           1
 AtZEff=  -0.0000000  -0.0000000  -0.0000000  -0.0000000  -0.0000000  -0.0000000  -0.0000000  -0.0000000  -0.0000000  -0.0000000
 NQMom=    0.0000000   0.0000000   0.0000000   0.0000000   0.0000000   0.0000000   0.0000000   0.0000000   0.0000000   0.0000000
 NMagM=    2.7928460   2.7928460   2.7928460   2.7928460   2.7928460   2.7928460   2.7928460   2.7928460   2.7928460   2.7928460
 AtZNuc=   1.0000000   1.0000000   1.0000000   1.0000000   1.0000000   1.0000000   1.0000000   1.0000000   1.0000000   1.0000000

  Atom       101         102         103         104         105         106         107         108         109         110
 IAtWgt=           1           1           1           1           1           1           1           1           1           1
 AtmWgt=   1.0078250   1.0078250   1.0078250   1.0078250   1.0078250   1.0078250   1.0078250   1.0078250   1.0078250   1.0078250
 NucSpn=           1           1           1           1           1           1           1           1           1           1
 AtZEff=  -0.0000000  -0.0000000  -0.0000000  -0.0000000  -0.0000000  -0.0000000  -0.0000000  -0.0000000  -0.0000000  -0.0000000
 NQMom=    0.0000000   0.0000000   0.0000000   0.0000000   0.0000000   0.0000000   0.0000000   0.0000000   0.0000000   0.0000000
 NMagM=    2.7928460   2.7928460   2.7928460   2.7928460   2.7928460   2.7928460   2.7928460   2.7928460   2.7928460   2.7928460
 AtZNuc=   1.0000000   1.0000000   1.0000000   1.0000000   1.0000000   1.0000000   1.0000000   1.0000000   1.0000000   1.0000000

  Atom       111         112         113         114         115         116         117         118         119         120
 IAtWgt=           1           1           1           1           1           1           1           1           1           1
 AtmWgt=   1.0078250   1.0078250   1.0078250   1.0078250   1.0078250   1.0078250   1.0078250   1.0078250   1.0078250   1.0078250
 NucSpn=           1           1           1           1           1           1           1           1           1           1
 AtZEff=  -0.0000000  -0.0000000  -0.0000000  -0.0000000  -0.0000000  -0.0000000  -0.0000000  -0.0000000  -0.0000000  -0.0000000
 NQMom=    0.0000000   0.0000000   0.0000000   0.0000000   0.0000000   0.0000000   0.0000000   0.0000000   0.0000000   0.0000000
 NMagM=    2.7928460   2.7928460   2.7928460   2.7928460   2.7928460   2.7928460   2.7928460   2.7928460   2.7928460   2.7928460
 AtZNuc=   1.0000000   1.0000000   1.0000000   1.0000000   1.0000000   1.0000000   1.0000000   1.0000000   1.0000000   1.0000000

  Atom       121         122         123         124         125         126         127         128         129         130
 IAtWgt=           1           1           1           1           1           1           1           1           1           1
 AtmWgt=   1.0078250   1.0078250   1.0078250   1.0078250   1.0078250   1.0078250   1.0078250   1.0078250   1.0078250   1.0078250
 NucSpn=           1           1           1           1           1           1           1           1           1           1
 AtZEff=  -0.0000000  -0.0000000  -0.0000000  -0.0000000  -0.0000000  -0.0000000  -0.0000000  -0.0000000  -0.0000000  -0.0000000
 NQMom=    0.0000000   0.0000000   0.0000000   0.0000000   0.0000000   0.0000000   0.0000000   0.0000000   0.0000000   0.0000000
 NMagM=    2.7928460   2.7928460   2.7928460   2.7928460   2.7928460   2.7928460   2.7928460   2.7928460   2.7928460   2.7928460
 AtZNuc=   1.0000000   1.0000000   1.0000000   1.0000000   1.0000000   1.0000000   1.0000000   1.0000000   1.0000000   1.0000000

  Atom       131         132         133         134         135         136         137         138         139         140
 IAtWgt=           1           1           1           1           1           1           1           1           1           1
 AtmWgt=   1.0078250   1.0078250   1.0078250   1.0078250   1.0078250   1.0078250   1.0078250   1.0078250   1.0078250   1.0078250
 NucSpn=           1           1           1           1           1           1           1           1           1           1
 AtZEff=  -0.0000000  -0.0000000  -0.0000000  -0.0000000  -0.0000000  -0.0000000  -0.0000000  -0.0000000  -0.0000000  -0.0000000
 NQMom=    0.0000000   0.0000000   0.0000000   0.0000000   0.0000000   0.0000000   0.0000000   0.0000000   0.0000000   0.0000000
 NMagM=    2.7928460   2.7928460   2.7928460   2.7928460   2.7928460   2.7928460   2.7928460   2.7928460   2.7928460   2.7928460
 AtZNuc=   1.0000000   1.0000000   1.0000000   1.0000000   1.0000000   1.0000000   1.0000000   1.0000000   1.0000000   1.0000000
 Leave Link  101 at Tue Apr 26 23:58:55 2022, MaxMem= 10066329600 cpu:               3.8 elap:               0.2
 (Enter /sw/apps/gaussian-16.0/g16/l202.exe)
 Stoichiometry    C55H74MgN4O6
 Framework group  C1[X(C55H74MgN4O6)]
 Deg. of freedom   414
 Full point group                 C1      NOp   1
 Largest Abelian subgroup         C1      NOp   1
 Largest concise Abelian subgroup C1      NOp   1
                         Standard orientation:                         
 ---------------------------------------------------------------------
 Center     Atomic      Atomic             Coordinates (Angstroms)
 Number     Number       Type             X           Y           Z
 ---------------------------------------------------------------------
      1         12           0       -4.938782    1.338086    0.885610
      2          6           0       -5.664651   -2.063521    0.395939
      3          6           0       -2.193689    0.648402    2.493941
      4          6           0       -4.004833    4.655152    0.404596
      5          6           0       -7.650552    1.941870   -1.330079
      6          7           0       -4.059045   -0.505344    1.311006
      7          6           0       -4.432625   -1.764250    1.052791
      8          6           0       -3.766537   -2.799053    1.937349
      9          6           0       -2.716850   -1.849929    2.727877
     10          6           0       -3.037635   -0.467607    2.140111
     11          6           0       -2.789362   -1.872645    4.315896
     12          6           0       -3.125382   -3.966423    1.260901
     13          6           0       -2.211551   -3.636569    0.055314
     14          6           0       -0.871557   -4.233829   -0.034655
     15          8           0       -0.712867   -5.205852   -0.721141
     16          8           0       -0.081475   -3.807254    1.021673
     17          7           0       -3.307260    2.514327    1.416725
     18          6           0       -2.313242    2.043061    2.162454
     19          6           0       -1.398171    3.139694    2.472790
     20          6           0       -1.870926    4.326245    1.840121
     21          6           0       -3.116897    3.908265    1.205805
     22          6           0       -0.054689    2.900967    3.261707
     23          6           0       -1.227491    5.684796    1.847522
     24          8           0       -0.154754    5.835674    2.400466
     25          6           0       -1.851151    6.831537    1.111509
     26          7           0       -5.640049    3.003448   -0.399236
     27          6           0       -5.049656    4.177722   -0.377105
     28          6           0       -5.795996    5.195011   -1.331734
     29          6           0       -6.968003    4.340955   -1.833489
     30          6           0       -6.729338    2.957754   -1.167776
     31          6           0       -6.204389    6.628918   -0.772307
     32          6           0       -7.049922    4.027614   -3.355887
     33          6           0       -6.788982    5.225793   -4.297164
     34          7           0       -6.489594    0.221840   -0.100275
     35          6           0       -7.536698    0.613797   -0.850124
     36          6           0       -8.521929   -0.448345   -1.117727
     37          6           0       -7.791564   -1.565219   -0.729099
     38          6           0       -6.544498   -1.087796   -0.128162
     39          6           0       -9.886100   -0.274158   -1.754972
     40          6           0       -7.778007   -3.023922   -0.632246
     41          8           0       -8.636518   -3.899037   -0.934558
     42          6           0       -6.380576   -3.377076    0.040408
     43          6           0       -5.705619   -4.139025   -1.002730
     44          8           0       -5.273746   -3.616405   -2.054812
     45          8           0       -5.553430   -5.459555   -0.626480
     46          6           0       -4.833288   -6.499793   -1.446077
     47          6           0        1.243517   -4.449885    1.044271
     48          6           0        2.349759   -3.999453   -0.001450
     49          6           0        3.666021   -4.212897   -0.137779
     50          6           0        4.406471   -5.129941    0.792659
     51          6           0        4.561699   -3.441563   -1.166303
     52          6           0        4.814596   -1.904577   -0.848023
     53          6           0        6.280749   -1.646666   -0.631140
     54          6           0        6.685742   -0.234335   -1.185638
     55          6           0        6.827166   -0.120870   -2.698286
     56          6           0        7.958681    0.338219   -0.384995
     57          6           0        9.194225   -0.581809   -0.190960
     58          6           0       10.542248    0.167266   -0.747913
     59          6           0       11.798838    0.270198    0.104647
     60          6           0       11.589444    1.225819    1.322063
     61          6           0       12.969948    0.652575   -0.843813
     62          6           0       14.382147    0.422953   -0.237444
     63          6           0       15.379500    1.653598   -0.309186
     64          6           0       16.833156    1.159765   -0.719418
     65          6           0       17.844305    1.739383    0.258195
     66          6           0       16.984112    1.589110   -2.225518
     67          1           0       -1.498238    0.345178    3.279639
     68          1           0       -3.755045    5.716927    0.352095
     69          1           0       -8.454601    2.014335   -2.065960
     70          1           0       -4.582564   -3.022228    2.625337
     71          1           0       -1.703757   -2.075455    2.392143
     72          1           0       -3.631797   -2.506676    4.591370
     73          1           0       -2.851532   -0.899048    4.801493
     74          1           0       -1.846054   -2.337784    4.605117
     75          1           0       -3.872160   -4.699034    0.956084
     76          1           0       -2.649643   -4.584719    2.022972
     77          1           0       -2.083690   -2.554383    0.071980
     78          1           0       -2.714520   -3.854965   -0.887491
     79          1           0        0.810401    3.185878    2.662592
     80          1           0        0.021503    1.856292    3.559488
     81          1           0        0.055212    3.492352    4.170348
     82          1           0       -1.843690    6.566162    0.054871
     83          1           0       -1.155649    7.651942    1.288217
     84          1           0       -2.815075    6.977965    1.600866
     85          1           0       -5.093662    5.401933   -2.138763
     86          1           0       -7.883223    4.727309   -1.383872
     87          1           0       -5.393125    7.341644   -0.915851
     88          1           0       -6.448728    6.718645    0.286862
     89          1           0       -7.050340    7.067576   -1.300878
     90          1           0       -8.024848    3.631609   -3.643021
     91          1           0       -6.226669    3.336095   -3.535759
     92          1           0       -6.731885    6.180475   -3.774265
     93          1           0       -7.551333    5.425741   -5.051028
     94          1           0       -5.805924    5.018812   -4.717934
     95          1           0      -10.440335   -1.211555   -1.698901
     96          1           0       -9.810326    0.062506   -2.788864
     97          1           0      -10.490093    0.442754   -1.199532
     98          1           0       -6.496328   -4.028036    0.906783
     99          1           0       -5.420011   -7.339628   -1.816640
    100          1           0       -3.986734   -6.914584   -0.897332
    101          1           0       -4.498015   -6.021035   -2.365956
    102          1           0        1.039603   -5.495848    0.813436
    103          1           0        1.702379   -4.384376    2.030922
    104          1           0        1.897994   -3.227306   -0.624554
    105          1           0        5.084974   -4.435076    1.287275
    106          1           0        5.054597   -5.873973    0.327517
    107          1           0        3.760111   -5.562489    1.557124
    108          1           0        3.986282   -3.398397   -2.091167
    109          1           0        5.432937   -4.073847   -1.330696
    110          1           0        4.236234   -1.683433    0.048900
    111          1           0        4.524451   -1.276818   -1.690928
    112          1           0        6.952272   -2.428456   -0.988667
    113          1           0        6.415688   -1.721940    0.448520
    114          1           0        5.879137    0.388803   -0.798865
    115          1           0        6.070757    0.523566   -3.146621
    116          1           0        7.011854   -1.046371   -3.243702
    117          1           0        7.738573    0.453394   -2.868284
    118          1           0        7.697519    0.460562    0.665978
    119          1           0        8.227981    1.329833   -0.748499
    120          1           0        9.057432   -1.512022   -0.741714
    121          1           0        9.255704   -0.759397    0.882666
    122          1           0       10.386565    1.218978   -0.988494
    123          1           0       10.754461   -0.427822   -1.636224
    124          1           0       11.936195   -0.725886    0.526766
    125          1           0       11.999794    0.688969    2.177300
    126          1           0       10.545157    1.388408    1.587506
    127          1           0       12.033963    2.205017    1.143484
    128          1           0       12.923492    1.735479   -0.959448
    129          1           0       12.909858    0.258268   -1.857378
    130          1           0       14.794521   -0.446043   -0.749693
    131          1           0       14.322692    0.136925    0.812441
    132          1           0       15.359865    2.160749    0.655296
    133          1           0       14.969123    2.321747   -1.066313
    134          1           0       16.891239    0.076033   -0.617279
    135          1           0       18.002095    1.041119    1.080459
    136          1           0       17.467908    2.663531    0.697430
    137          1           0       18.794000    1.942425   -0.235438
    138          1           0       17.995118    1.928338   -2.448675
    139          1           0       16.229906    2.260495   -2.637744
    140          1           0       16.919570    0.654669   -2.782898
 ---------------------------------------------------------------------
 Rotational constants (GHZ):           0.0394734           0.0098677           0.0085235
 Leave Link  202 at Tue Apr 26 23:58:55 2022, MaxMem= 10066329600 cpu:               0.2 elap:               0.0
 (Enter /sw/apps/gaussian-16.0/g16/l301.exe)
 Standard basis: def2SVP (5D, 7F)
 Ernie: Thresh=  0.10000D-02 Tol=  0.10000D-05 Strict=F.
 There are  1364 symmetry adapted cartesian basis functions of A   symmetry.
 There are  1298 symmetry adapted basis functions of A   symmetry.
  1298 basis functions,  2180 primitive gaussians,  1364 cartesian basis functions
   246 alpha electrons      246 beta electrons
       nuclear repulsion energy      9521.2031388203 Hartrees.
 IExCor=  402 DFT=T Ex=B Corr=LYP ExCW=0 ScaHFX=  0.000000
 ScaDFX=  1.000000  1.000000  1.000000  1.000000 ScalE2=  1.000000  1.000000
 IRadAn=      5 IRanWt=     -1 IRanGd=            0 ICorTp=0 IEmpDi=  4
 NAtoms=  140 NActive=  140 NUniq=  140 SFac= 1.00D+00 NAtFMM=   60 NAOKFM=T Big=T
 Integral buffers will be    131072 words long.
 Regular integral format.
 Two-electron integral symmetry is turned on.
 Leave Link  301 at Tue Apr 26 23:58:56 2022, MaxMem= 10066329600 cpu:               1.3 elap:               0.1
 (Enter /sw/apps/gaussian-16.0/g16/l302.exe)
 NPDir=0 NMtPBC=     1 NCelOv=     1 NCel=       1 NClECP=     1 NCelD=      1
         NCelK=      1 NCelE2=     1 NClLst=     1 CellRange=     0.0.
 One-electron integrals computed using PRISM.
 One-electron integral symmetry used in STVInt
   1 Symmetry operations used in ECPInt.
 ECPInt:  NShTT=  192510 NPrTT=  683786 LenC2=   94041 LenP2D=  205570.
 LDataN:  DoStor=T MaxTD1= 4 Len=   56
 NBasis=  1298 RedAO= T EigKep=  3.38D-04  NBF=  1298
 NBsUse=  1298 1.00D-06 EigRej= -1.00D+00 NBFU=  1298
 Precomputing XC quadrature grid using
 IXCGrd= 4 IRadAn=           5 IRanWt=          -1 IRanGd=           0 AccXCQ= 0.00D+00.
 Generated NRdTot=       0 NPtTot=           0 NUsed=           0 NTot=          32
 NSgBfM=  1002  1002  1002  1002  1002 MxSgAt=   140 MxSgA2=   139.
 Leave Link  302 at Tue Apr 26 23:58:59 2022, MaxMem= 10066329600 cpu:              81.7 elap:               3.4
 (Enter /sw/apps/gaussian-16.0/g16/l303.exe)
 DipDrv:  MaxL=1.
 Leave Link  303 at Tue Apr 26 23:58:59 2022, MaxMem= 10066329600 cpu:               8.1 elap:               0.4
 (Enter /sw/apps/gaussian-16.0/g16/l308.exe)
 Leave Link  308 at Tue Apr 26 23:59:00 2022, MaxMem= 10066329600 cpu:               8.5 elap:               0.4
 (Enter /sw/apps/gaussian-16.0/g16/l401.exe)
 ExpMin= 3.36D-02 ExpMax= 4.95D+03 ExpMxC= 7.45D+02 IAcc=3 IRadAn=         5 AccDes= 0.00D+00
 Harris functional with IExCor=  402 and IRadAn=       5 diagonalized for initial guess.
 HarFok:  IExCor=  402 AccDes= 0.00D+00 IRadAn=         5 IDoV= 1 UseB2=F ITyADJ=14
 ICtDFT=  3500011 ScaDFX=  1.000000  1.000000  1.000000  1.000000
 FoFCou: FMM=F IPFlag=           0 FMFlag=      100000 FMFlg1=        2001
         NFxFlg=           0 DoJE=T BraDBF=F KetDBF=T FulRan=T
         wScrn=  0.000000 ICntrl=       500 IOpCl=  0 I1Cent=   200000004 NGrid=           0
         NMat0=    1 NMatS0=      1 NMatT0=    0 NMatD0=    1 NMtDS0=    0 NMtDT0=    0
 Petite list used in FoFCou.
 Harris En= -3008.74486646854    
 JPrj=0 DoOrth=F DoCkMO=F.
 Leave Link  401 at Tue Apr 26 23:59:05 2022, MaxMem= 10066329600 cpu:             128.6 elap:               5.4
 (Enter /sw/apps/gaussian-16.0/g16/l502.exe)
 Integral symmetry usage will be decided dynamically.
 Closed shell SCF:
 Using DIIS extrapolation, IDIIS=  1040.
 NGot= 10066329600 LenX= 10062561258 LenY= 10060699398
 Requested convergence on RMS density matrix=1.00D-08 within 128 cycles.
 Requested convergence on MAX density matrix=1.00D-06.
 Requested convergence on             energy=1.00D-06.
 No special actions if energy rises.
 Fock matrices will be formed incrementally for  20 cycles.

 Cycle   1  Pass 1  IDiag  1:
 FoFJK:  IHMeth= 1 ICntrl=     500 DoSepK=F KAlg= 0 I1Cent=           0 FoldK=F
 IRaf= 510000000 NMat=       1 IRICut=       1 DoRegI=T DoRafI=F ISym2E= 0 IDoP0=0 IntGTp=1.
 FoFCou: FMM=T IPFlag=           0 FMFlag=      100000 FMFlg1=        2001
         NFxFlg=           0 DoJE=T BraDBF=F KetDBF=F FulRan=T
         wScrn=  0.000000 ICntrl=       500 IOpCl=  0 I1Cent=           0 NGrid=           0
         NMat0=    1 NMatS0=      1 NMatT0=    0 NMatD0=    1 NMtDS0=    0 NMtDT0=    0
 Symmetry not used in FoFCou.
 FMM levels:  10  Number of levels for PrismC:   9
 E= -3005.69197606641    
 DIIS: error= 1.78D-02 at cycle   1 NSaved=   1.
 NSaved= 1 IEnMin= 1 EnMin= -3005.69197606641     IErMin= 1 ErrMin= 1.78D-02
 ErrMax= 1.78D-02  0.00D+00 EMaxC= 1.00D-01 BMatC= 1.52D+00 BMatP= 1.52D+00
 IDIUse=3 WtCom= 8.22D-01 WtEn= 1.78D-01
 Coeff-Com:  0.100D+01
 Coeff-En:   0.100D+01
 Coeff:      0.100D+01
 Gap=     0.059 Goal=   None    Shift=    0.000
 GapD=    0.059 DampG=0.500 DampE=0.500 DampFc=0.2500 IDamp=-1.
 Damping current iteration by 2.50D-01
 RMSDP=3.80D-03 MaxDP=9.31D-01              OVMax= 9.51D-01

 Cycle   2  Pass 1  IDiag  1:
 RMSU=  9.45D-04    CP:  9.89D-01
 E= -3006.14369201174     Delta-E=       -0.451715945333 Rises=F Damp=T
 DIIS: error= 7.01D-03 at cycle   2 NSaved=   2.
 NSaved= 2 IEnMin= 2 EnMin= -3006.14369201174     IErMin= 2 ErrMin= 7.01D-03
 ErrMax= 7.01D-03  0.00D+00 EMaxC= 1.00D-01 BMatC= 2.62D-01 BMatP= 1.52D+00
 IDIUse=3 WtCom= 9.30D-01 WtEn= 7.01D-02
 Coeff-Com: -0.253D+00 0.125D+01
 Coeff-En:   0.138D+00 0.862D+00
 Coeff:     -0.225D+00 0.123D+01
 Gap=     0.113 Goal=   None    Shift=    0.000
 RMSDP=1.66D-03 MaxDP=2.16D-01 DE=-4.52D-01 OVMax= 5.74D-01

 Cycle   3  Pass 1  IDiag  1:
 RMSU=  1.64D-03    CP:  9.65D-01  1.16D+00
 E= -3004.78448787232     Delta-E=        1.359204139422 Rises=F Damp=F
 DIIS: error= 4.86D-02 at cycle   3 NSaved=   3.
 NSaved= 3 IEnMin= 2 EnMin= -3006.14369201174     IErMin= 2 ErrMin= 7.01D-03
 ErrMax= 4.86D-02  0.00D+00 EMaxC= 1.00D-01 BMatC= 1.89D+00 BMatP= 2.62D-01
 IDIUse=2 WtCom= 0.00D+00 WtEn= 1.00D+00
 Coeff-En:   0.000D+00 0.716D+00 0.284D+00
 Coeff:      0.000D+00 0.716D+00 0.284D+00
 Gap=    -0.013 Goal=   None    Shift=    0.000
 RMSDP=2.18D-03 MaxDP=4.62D-01 DE= 1.36D+00 OVMax= 9.25D-01

 Cycle   4  Pass 1  IDiag  1:
 RMSU=  1.13D-03    CP:  9.70D-01  1.94D+00 -4.63D-02
 E= -3004.92682727373     Delta-E=       -0.142339401405 Rises=F Damp=F
 DIIS: error= 4.73D-02 at cycle   4 NSaved=   4.
 NSaved= 4 IEnMin= 2 EnMin= -3006.14369201174     IErMin= 2 ErrMin= 7.01D-03
 ErrMax= 4.73D-02  0.00D+00 EMaxC= 1.00D-01 BMatC= 1.47D+00 BMatP= 2.62D-01
 IDIUse=2 WtCom= 0.00D+00 WtEn= 1.00D+00
 EnCoef did     1 forward-backward iterations
 Coeff-En:   0.136D+00 0.000D+00 0.415D+00 0.449D+00
 Coeff:      0.136D+00 0.000D+00 0.415D+00 0.449D+00
 Gap=     0.054 Goal=   None    Shift=    0.000
 RMSDP=1.83D-03 MaxDP=4.00D-01 DE=-1.42D-01 OVMax= 8.62D-01

 Cycle   5  Pass 1  IDiag  1:
 RMSU=  1.19D-03    CP:  9.72D-01  1.07D+00  2.11D-01  7.51D-02
 E= -3005.23980466816     Delta-E=       -0.312977394429 Rises=F Damp=F
 DIIS: error= 4.29D-02 at cycle   5 NSaved=   5.
 NSaved= 5 IEnMin= 2 EnMin= -3006.14369201174     IErMin= 2 ErrMin= 7.01D-03
 ErrMax= 4.29D-02  0.00D+00 EMaxC= 1.00D-01 BMatC= 1.21D+00 BMatP= 2.62D-01
 IDIUse=2 WtCom= 0.00D+00 WtEn= 1.00D+00
 EnCoef did     3 forward-backward iterations
 Coeff-En:   0.791D-01 0.000D+00 0.364D+00 0.397D+00 0.160D+00
 Coeff:      0.791D-01 0.000D+00 0.364D+00 0.397D+00 0.160D+00
 Gap=    -0.191 Goal=   None    Shift=    0.000
 RMSDP=1.29D-03 MaxDP=2.51D-01 DE=-3.13D-01 OVMax= 4.87D-01

 Cycle   6  Pass 1  IDiag  1:
 RMSU=  7.15D-04    CP:  9.78D-01  9.11D-01  2.68D-01  1.51D-01  1.20D-01
 E= -3007.03687678593     Delta-E=       -1.797072117773 Rises=F Damp=F
 DIIS: error= 1.85D-02 at cycle   6 NSaved=   6.
 NSaved= 6 IEnMin= 6 EnMin= -3007.03687678593     IErMin= 2 ErrMin= 7.01D-03
 ErrMax= 1.85D-02  0.00D+00 EMaxC= 1.00D-01 BMatC= 2.67D-01 BMatP= 2.62D-01
 IDIUse=3 WtCom= 8.15D-01 WtEn= 1.85D-01
 EnCoef did     2 forward-backward iterations
 Coeff-Com: -0.162D+00 0.567D+00 0.165D+00 0.910D-01 0.703D-01 0.269D+00
 Coeff-En:   0.000D+00 0.000D+00 0.000D+00 0.573D-01 0.194D+00 0.749D+00
 Coeff:     -0.132D+00 0.462D+00 0.134D+00 0.848D-01 0.932D-01 0.358D+00
 Gap=     0.034 Goal=   None    Shift=    0.000
 RMSDP=8.71D-04 MaxDP=1.16D-01 DE=-1.80D+00 OVMax= 5.89D-01

 Cycle   7  Pass 1  IDiag  1:
 RMSU=  7.04D-04    CP:  9.75D-01  1.11D+00  2.51D-01  2.22D-01  9.90D-02
                    CP:  3.48D-01
 E= -3007.22122818336     Delta-E=       -0.184351397425 Rises=F Damp=F
 DIIS: error= 1.84D-02 at cycle   7 NSaved=   7.
 NSaved= 7 IEnMin= 7 EnMin= -3007.22122818336     IErMin= 2 ErrMin= 7.01D-03
 ErrMax= 1.84D-02  0.00D+00 EMaxC= 1.00D-01 BMatC= 1.40D-01 BMatP= 2.62D-01
 IDIUse=3 WtCom= 8.16D-01 WtEn= 1.84D-01
 EnCoef did     5 forward-backward iterations
 Coeff-Com: -0.203D+00 0.445D+00 0.170D-01-0.119D-01 0.455D-01 0.300D+00
 Coeff-Com:  0.407D+00
 Coeff-En:   0.000D+00 0.000D+00 0.000D+00 0.142D-01 0.249D-01 0.333D+00
 Coeff-En:   0.628D+00
 Coeff:     -0.166D+00 0.363D+00 0.139D-01-0.713D-02 0.417D-01 0.306D+00
 Coeff:      0.448D+00
 Gap=     0.038 Goal=   None    Shift=    0.000
 RMSDP=5.63D-04 MaxDP=7.68D-02 DE=-1.84D-01 OVMax= 3.58D-01

 Cycle   8  Pass 1  IDiag  1:
 RMSU=  3.82D-04    CP:  9.78D-01  1.18D+00  1.93D-01  1.93D-01  8.65D-02
                    CP:  6.90D-01  5.58D-01
 E= -3007.31009624488     Delta-E=       -0.088868061524 Rises=F Damp=F
 DIIS: error= 7.71D-03 at cycle   8 NSaved=   8.
 NSaved= 8 IEnMin= 8 EnMin= -3007.31009624488     IErMin= 2 ErrMin= 7.01D-03
 ErrMax= 7.71D-03  0.00D+00 EMaxC= 1.00D-01 BMatC= 4.35D-02 BMatP= 1.40D-01
 IDIUse=3 WtCom= 9.23D-01 WtEn= 7.71D-02
 Coeff-Com: -0.122D+00 0.267D+00-0.338D-02-0.134D-01 0.158D-01 0.175D+00
 Coeff-Com:  0.359D+00 0.323D+00
 Coeff-En:   0.000D+00 0.000D+00 0.000D+00 0.000D+00 0.000D+00 0.000D+00
 Coeff-En:   0.322D+00 0.678D+00
 Coeff:     -0.112D+00 0.246D+00-0.312D-02-0.124D-01 0.146D-01 0.161D+00
 Coeff:      0.356D+00 0.350D+00
 Gap=     0.037 Goal=   None    Shift=    0.000
 RMSDP=4.04D-04 MaxDP=5.17D-02 DE=-8.89D-02 OVMax= 3.28D-01

 Cycle   9  Pass 1  IDiag  1:
 RMSU=  2.14D-04    CP:  9.78D-01  1.13D+00  2.05D-01  1.57D-01  1.35D-01
                    CP:  5.41D-01  8.04D-01  3.16D-01
 E= -3007.33068035372     Delta-E=       -0.020584108841 Rises=F Damp=F
 DIIS: error= 5.04D-03 at cycle   9 NSaved=   9.
 NSaved= 9 IEnMin= 9 EnMin= -3007.33068035372     IErMin= 9 ErrMin= 5.04D-03
 ErrMax= 5.04D-03  0.00D+00 EMaxC= 1.00D-01 BMatC= 1.98D-02 BMatP= 4.35D-02
 IDIUse=3 WtCom= 9.50D-01 WtEn= 5.04D-02
 EnCoef did     4 forward-backward iterations
 Coeff-Com: -0.517D-01 0.120D+00-0.757D-02 0.468D-02-0.832D-03 0.781D-01
 Coeff-Com:  0.233D+00 0.340D+00 0.285D+00
 Coeff-En:   0.000D+00 0.000D+00 0.000D+00 0.000D+00 0.000D+00 0.000D+00
 Coeff-En:   0.934D-02 0.414D+00 0.576D+00
 Coeff:     -0.491D-01 0.114D+00-0.719D-02 0.444D-02-0.790D-03 0.742D-01
 Coeff:      0.221D+00 0.343D+00 0.300D+00
 Gap=     0.040 Goal=   None    Shift=    0.000
 RMSDP=2.33D-04 MaxDP=2.08D-02 DE=-2.06D-02 OVMax= 1.97D-01

 Cycle  10  Pass 1  IDiag  1:
 RMSU=  8.22D-05    CP:  9.78D-01  1.15D+00  1.95D-01  1.92D-01  9.43D-02
                    CP:  6.15D-01  7.27D-01  6.19D-01  2.80D-01
 E= -3007.36085395964     Delta-E=       -0.030173605914 Rises=F Damp=F
 DIIS: error= 2.19D-03 at cycle  10 NSaved=  10.
 NSaved=10 IEnMin=10 EnMin= -3007.36085395964     IErMin=10 ErrMin= 2.19D-03
 ErrMax= 2.19D-03  0.00D+00 EMaxC= 1.00D-01 BMatC= 2.15D-03 BMatP= 1.98D-02
 IDIUse=3 WtCom= 9.78D-01 WtEn= 2.19D-02
 Coeff-Com: -0.226D-01 0.533D-01-0.560D-02 0.574D-02-0.594D-02 0.215D-01
 Coeff-Com:  0.762D-01 0.160D+00 0.241D+00 0.477D+00
 Coeff-En:   0.000D+00 0.000D+00 0.000D+00 0.000D+00 0.000D+00 0.000D+00
 Coeff-En:   0.000D+00 0.000D+00 0.966D-01 0.903D+00
 Coeff:     -0.221D-01 0.522D-01-0.548D-02 0.561D-02-0.581D-02 0.210D-01
 Coeff:      0.746D-01 0.156D+00 0.238D+00 0.486D+00
 Gap=     0.042 Goal=   None    Shift=    0.000
 RMSDP=5.59D-05 MaxDP=6.21D-03 DE=-3.02D-02 OVMax= 3.19D-02

 Cycle  11  Pass 1  IDiag  1:
 RMSU=  3.59D-05    CP:  9.78D-01  1.15D+00  1.92D-01  1.87D-01  1.03D-01
                    CP:  6.11D-01  7.44D-01  6.06D-01  4.33D-01  7.47D-01
 E= -3007.36264058762     Delta-E=       -0.001786627983 Rises=F Damp=F
 DIIS: error= 7.64D-04 at cycle  11 NSaved=  11.
 NSaved=11 IEnMin=11 EnMin= -3007.36264058762     IErMin=11 ErrMin= 7.64D-04
 ErrMax= 7.64D-04  0.00D+00 EMaxC= 1.00D-01 BMatC= 4.84D-04 BMatP= 2.15D-03
 IDIUse=3 WtCom= 9.92D-01 WtEn= 7.64D-03
 Coeff-Com: -0.119D-01 0.242D-01-0.274D-02 0.213D-02-0.364D-02 0.450D-02
 Coeff-Com: -0.743D-02-0.130D-02 0.825D-01 0.370D+00 0.544D+00
 Coeff-En:   0.000D+00 0.000D+00 0.000D+00 0.000D+00 0.000D+00 0.000D+00
 Coeff-En:   0.000D+00 0.000D+00 0.000D+00 0.153D+00 0.847D+00
 Coeff:     -0.118D-01 0.240D-01-0.272D-02 0.211D-02-0.361D-02 0.447D-02
 Coeff:     -0.737D-02-0.129D-02 0.819D-01 0.368D+00 0.546D+00
 Gap=     0.042 Goal=   None    Shift=    0.000
 RMSDP=2.95D-05 MaxDP=2.86D-03 DE=-1.79D-03 OVMax= 1.15D-02

 Cycle  12  Pass 1  IDiag  1:
 RMSU=  2.15D-05    CP:  9.78D-01  1.15D+00  1.92D-01  1.86D-01  1.03D-01
                    CP:  6.20D-01  7.43D-01  6.06D-01  4.25D-01  8.79D-01
                    CP:  5.62D-01
 E= -3007.36290859449     Delta-E=       -0.000268006872 Rises=F Damp=F
 DIIS: error= 4.89D-04 at cycle  12 NSaved=  12.
 NSaved=12 IEnMin=12 EnMin= -3007.36290859449     IErMin=12 ErrMin= 4.89D-04
 ErrMax= 4.89D-04  0.00D+00 EMaxC= 1.00D-01 BMatC= 2.06D-04 BMatP= 4.84D-04
 IDIUse=3 WtCom= 9.95D-01 WtEn= 4.89D-03
 Coeff-Com: -0.769D-02 0.129D-01-0.146D-02 0.655D-03-0.908D-03 0.275D-02
 Coeff-Com: -0.210D-01-0.400D-01 0.108D-01 0.191D+00 0.458D+00 0.395D+00
 Coeff-En:   0.000D+00 0.000D+00 0.000D+00 0.000D+00 0.000D+00 0.000D+00
 Coeff-En:   0.000D+00 0.000D+00 0.000D+00 0.000D+00 0.307D+00 0.693D+00
 Coeff:     -0.765D-02 0.129D-01-0.145D-02 0.652D-03-0.903D-03 0.273D-02
 Coeff:     -0.209D-01-0.398D-01 0.108D-01 0.190D+00 0.457D+00 0.397D+00
 Gap=     0.042 Goal=   None    Shift=    0.000
 RMSDP=1.86D-05 MaxDP=1.61D-03 DE=-2.68D-04 OVMax= 1.14D-02

 Cycle  13  Pass 1  IDiag  1:
 RMSU=  1.00D-05    CP:  9.78D-01  1.15D+00  1.91D-01  1.87D-01  1.03D-01
                    CP:  6.25D-01  7.40D-01  6.02D-01  4.41D-01  9.07D-01
                    CP:  7.92D-01  4.67D-01
 E= -3007.36308901933     Delta-E=       -0.000180424844 Rises=F Damp=F
 DIIS: error= 1.60D-04 at cycle  13 NSaved=  13.
 NSaved=13 IEnMin=13 EnMin= -3007.36308901933     IErMin=13 ErrMin= 1.60D-04
 ErrMax= 1.60D-04  0.00D+00 EMaxC= 1.00D-01 BMatC= 3.98D-05 BMatP= 2.06D-04
 IDIUse=3 WtCom= 9.98D-01 WtEn= 1.60D-03
 Coeff-Com: -0.521D-02 0.828D-02-0.987D-03 0.502D-04 0.981D-04 0.163D-02
 Coeff-Com: -0.151D-01-0.326D-01-0.759D-02 0.858D-01 0.272D+00 0.312D+00
 Coeff-Com:  0.381D+00
 Coeff-En:   0.000D+00 0.000D+00 0.000D+00 0.000D+00 0.000D+00 0.000D+00
 Coeff-En:   0.000D+00 0.000D+00 0.000D+00 0.000D+00 0.000D+00 0.159D+00
 Coeff-En:   0.841D+00
 Coeff:     -0.520D-02 0.826D-02-0.985D-03 0.501D-04 0.980D-04 0.163D-02
 Coeff:     -0.151D-01-0.326D-01-0.757D-02 0.857D-01 0.272D+00 0.312D+00
 Coeff:      0.382D+00
 Gap=     0.042 Goal=   None    Shift=    0.000
 RMSDP=9.81D-06 MaxDP=1.03D-03 DE=-1.80D-04 OVMax= 6.75D-03

 Cycle  14  Pass 1  IDiag  1:
 RMSU=  5.61D-06    CP:  9.78D-01  1.15D+00  1.91D-01  1.86D-01  1.04D-01
                    CP:  6.24D-01  7.42D-01  6.03D-01  4.39D-01  9.25D-01
                    CP:  7.59D-01  6.35D-01  3.50D-01
 E= -3007.36311738694     Delta-E=       -0.000028367604 Rises=F Damp=F
 DIIS: error= 1.29D-04 at cycle  14 NSaved=  14.
 NSaved=14 IEnMin=14 EnMin= -3007.36311738694     IErMin=14 ErrMin= 1.29D-04
 ErrMax= 1.29D-04  0.00D+00 EMaxC= 1.00D-01 BMatC= 1.53D-05 BMatP= 3.98D-05
 IDIUse=3 WtCom= 9.99D-01 WtEn= 1.29D-03
 Coeff-Com: -0.282D-02 0.448D-02-0.664D-03 0.167D-03 0.343D-03 0.249D-03
 Coeff-Com: -0.779D-02-0.179D-01-0.102D-01 0.237D-01 0.118D+00 0.165D+00
 Coeff-Com:  0.335D+00 0.392D+00
 Coeff-En:   0.000D+00 0.000D+00 0.000D+00 0.000D+00 0.000D+00 0.000D+00
 Coeff-En:   0.000D+00 0.000D+00 0.000D+00 0.000D+00 0.000D+00 0.000D+00
 Coeff-En:   0.289D+00 0.711D+00
 Coeff:     -0.282D-02 0.447D-02-0.664D-03 0.167D-03 0.342D-03 0.249D-03
 Coeff:     -0.778D-02-0.179D-01-0.102D-01 0.237D-01 0.118D+00 0.165D+00
 Coeff:      0.335D+00 0.392D+00
 Gap=     0.042 Goal=   None    Shift=    0.000
 RMSDP=5.42D-06 MaxDP=4.25D-04 DE=-2.84D-05 OVMax= 3.78D-03

 Cycle  15  Pass 1  IDiag  1:
 RMSU=  2.48D-06    CP:  9.78D-01  1.15D+00  1.90D-01  1.87D-01  1.04D-01
                    CP:  6.24D-01  7.42D-01  6.03D-01  4.40D-01  9.31D-01
                    CP:  7.97D-01  5.76D-01  5.73D-01  4.01D-01
 E= -3007.36313282066     Delta-E=       -0.000015433718 Rises=F Damp=F
 DIIS: error= 7.98D-05 at cycle  15 NSaved=  15.
 NSaved=15 IEnMin=15 EnMin= -3007.36313282066     IErMin=15 ErrMin= 7.98D-05
 ErrMax= 7.98D-05  0.00D+00 EMaxC= 1.00D-01 BMatC= 4.95D-06 BMatP= 1.53D-05
 IDIUse=1 WtCom= 1.00D+00 WtEn= 0.00D+00
 Coeff-Com: -0.876D-03 0.175D-02-0.285D-03 0.425D-04 0.216D-03-0.113D-02
 Coeff-Com: -0.169D-02-0.469D-02-0.913D-02-0.175D-01-0.119D-02 0.263D-01
 Coeff-Com:  0.165D+00 0.366D+00 0.477D+00
 Coeff:     -0.876D-03 0.175D-02-0.285D-03 0.425D-04 0.216D-03-0.113D-02
 Coeff:     -0.169D-02-0.469D-02-0.913D-02-0.175D-01-0.119D-02 0.263D-01
 Coeff:      0.165D+00 0.366D+00 0.477D+00
 Gap=     0.042 Goal=   None    Shift=    0.000
 RMSDP=2.60D-06 MaxDP=3.40D-04 DE=-1.54D-05 OVMax= 1.16D-03

 Cycle  16  Pass 1  IDiag  1:
 RMSU=  1.29D-06    CP:  9.78D-01  1.15D+00  1.90D-01  1.87D-01  1.04D-01
                    CP:  6.24D-01  7.43D-01  6.06D-01  4.41D-01  9.37D-01
                    CP:  7.97D-01  6.11D-01  5.27D-01  6.00D-01  6.18D-01
 E= -3007.36313724174     Delta-E=       -0.000004421081 Rises=F Damp=F
 DIIS: error= 2.09D-05 at cycle  16 NSaved=  16.
 NSaved=16 IEnMin=16 EnMin= -3007.36313724174     IErMin=16 ErrMin= 2.09D-05
 ErrMax= 2.09D-05  0.00D+00 EMaxC= 1.00D-01 BMatC= 6.32D-07 BMatP= 4.95D-06
 IDIUse=1 WtCom= 1.00D+00 WtEn= 0.00D+00
 Coeff-Com: -0.175D-03 0.543D-03-0.998D-04 0.303D-04 0.891D-04-0.705D-03
 Coeff-Com:  0.375D-03-0.101D-03-0.550D-02-0.195D-01-0.238D-01-0.151D-01
 Coeff-Com:  0.447D-01 0.155D+00 0.309D+00 0.555D+00
 Coeff:     -0.175D-03 0.543D-03-0.998D-04 0.303D-04 0.891D-04-0.705D-03
 Coeff:      0.375D-03-0.101D-03-0.550D-02-0.195D-01-0.238D-01-0.151D-01
 Coeff:      0.447D-01 0.155D+00 0.309D+00 0.555D+00
 Gap=     0.042 Goal=   None    Shift=    0.000
 RMSDP=1.02D-06 MaxDP=1.17D-04 DE=-4.42D-06 OVMax= 4.14D-04

 Cycle  17  Pass 1  IDiag  1:
 RMSU=  6.52D-07    CP:  9.78D-01  1.15D+00  1.89D-01  1.87D-01  1.04D-01
                    CP:  6.24D-01  7.43D-01  6.06D-01  4.41D-01  9.39D-01
                    CP:  8.08D-01  6.15D-01  5.61D-01  6.08D-01  7.22D-01
                    CP:  7.44D-01
 E= -3007.36313781278     Delta-E=       -0.000000571044 Rises=F Damp=F
 DIIS: error= 7.38D-06 at cycle  17 NSaved=  17.
 NSaved=17 IEnMin=17 EnMin= -3007.36313781278     IErMin=17 ErrMin= 7.38D-06
 ErrMax= 7.38D-06  0.00D+00 EMaxC= 1.00D-01 BMatC= 1.80D-07 BMatP= 6.32D-07
 IDIUse=1 WtCom= 1.00D+00 WtEn= 0.00D+00
 Coeff-Com:  0.324D-04 0.423D-04-0.231D-04 0.210D-04 0.145D-04-0.191D-03
 Coeff-Com:  0.609D-03 0.717D-03-0.245D-02-0.111D-01-0.164D-01-0.167D-01
 Coeff-Com: -0.575D-02 0.228D-01 0.108D+00 0.446D+00 0.474D+00
 Coeff:      0.324D-04 0.423D-04-0.231D-04 0.210D-04 0.145D-04-0.191D-03
 Coeff:      0.609D-03 0.717D-03-0.245D-02-0.111D-01-0.164D-01-0.167D-01
 Coeff:     -0.575D-02 0.228D-01 0.108D+00 0.446D+00 0.474D+00
 Gap=     0.042 Goal=   None    Shift=    0.000
 RMSDP=5.21D-07 MaxDP=7.57D-05 DE=-5.71D-07 OVMax= 1.37D-04

 Cycle  18  Pass 1  IDiag  1:
 RMSU=  2.64D-07    CP:  9.78D-01  1.15D+00  1.89D-01  1.87D-01  1.04D-01
                    CP:  6.25D-01  7.43D-01  6.06D-01  4.41D-01  9.40D-01
                    CP:  8.10D-01  6.21D-01  5.63D-01  6.15D-01  7.17D-01
                    CP:  8.38D-01  5.29D-01
 E= -3007.36313798573     Delta-E=       -0.000000172950 Rises=F Damp=F
 DIIS: error= 2.61D-06 at cycle  18 NSaved=  18.
 NSaved=18 IEnMin=18 EnMin= -3007.36313798573     IErMin=18 ErrMin= 2.61D-06
 ErrMax= 2.61D-06  0.00D+00 EMaxC= 1.00D-01 BMatC= 1.95D-08 BMatP= 1.80D-07
 IDIUse=1 WtCom= 1.00D+00 WtEn= 0.00D+00
 Coeff-Com:  0.399D-04-0.402D-04-0.626D-05 0.721D-05-0.105D-05-0.276D-04
 Coeff-Com:  0.332D-03 0.356D-03-0.126D-02-0.560D-02-0.832D-02-0.912D-02
 Coeff-Com: -0.837D-02-0.367D-02 0.343D-01 0.235D+00 0.327D+00 0.439D+00
 Coeff:      0.399D-04-0.402D-04-0.626D-05 0.721D-05-0.105D-05-0.276D-04
 Coeff:      0.332D-03 0.356D-03-0.126D-02-0.560D-02-0.832D-02-0.912D-02
 Coeff:     -0.837D-02-0.367D-02 0.343D-01 0.235D+00 0.327D+00 0.439D+00
 Gap=     0.042 Goal=   None    Shift=    0.000
 RMSDP=1.74D-07 MaxDP=1.53D-05 DE=-1.73D-07 OVMax= 5.56D-05

 Cycle  19  Pass 1  IDiag  1:
 RMSU=  7.75D-08    CP:  9.78D-01  1.15D+00  1.89D-01  1.87D-01  1.04D-01
                    CP:  6.25D-01  7.43D-01  6.06D-01  4.41D-01  9.41D-01
                    CP:  8.11D-01  6.21D-01  5.64D-01  6.20D-01  7.30D-01
                    CP:  8.55D-01  5.80D-01  5.74D-01
 E= -3007.36313800515     Delta-E=       -0.000000019420 Rises=F Damp=F
 DIIS: error= 7.16D-07 at cycle  19 NSaved=  19.
 NSaved=19 IEnMin=19 EnMin= -3007.36313800515     IErMin=19 ErrMin= 7.16D-07
 ErrMax= 7.16D-07  0.00D+00 EMaxC= 1.00D-01 BMatC= 1.57D-09 BMatP= 1.95D-08
 IDIUse=1 WtCom= 1.00D+00 WtEn= 0.00D+00
 Coeff-Com:  0.180D-04-0.237D-04-0.269D-05 0.397D-05-0.150D-05 0.744D-05
 Coeff-Com:  0.144D-03 0.133D-03-0.568D-03-0.233D-02-0.350D-02-0.388D-02
 Coeff-Com: -0.421D-02-0.401D-02 0.114D-01 0.999D-01 0.157D+00 0.278D+00
 Coeff-Com:  0.471D+00
 Coeff:      0.180D-04-0.237D-04-0.269D-05 0.397D-05-0.150D-05 0.744D-05
 Coeff:      0.144D-03 0.133D-03-0.568D-03-0.233D-02-0.350D-02-0.388D-02
 Coeff:     -0.421D-02-0.401D-02 0.114D-01 0.999D-01 0.157D+00 0.278D+00
 Coeff:      0.471D+00
 Gap=     0.042 Goal=   None    Shift=    0.000
 RMSDP=5.76D-08 MaxDP=4.58D-06 DE=-1.94D-08 OVMax= 2.21D-05

 Cycle  20  Pass 1  IDiag  1:
 RMSU=  3.33D-08    CP:  9.78D-01  1.15D+00  1.89D-01  1.87D-01  1.04D-01
                    CP:  6.25D-01  7.43D-01  6.06D-01  4.41D-01  9.41D-01
                    CP:  8.11D-01  6.22D-01  5.64D-01  6.19D-01  7.30D-01
                    CP:  8.55D-01  5.77D-01  5.78D-01  5.12D-01
 E= -3007.36313800656     Delta-E=       -0.000000001413 Rises=F Damp=F
 DIIS: error= 2.77D-07 at cycle  20 NSaved=  20.
 NSaved=20 IEnMin=20 EnMin= -3007.36313800656     IErMin=20 ErrMin= 2.77D-07
 ErrMax= 2.77D-07  0.00D+00 EMaxC= 1.00D-01 BMatC= 2.93D-10 BMatP= 1.57D-09
 IDIUse=1 WtCom= 1.00D+00 WtEn= 0.00D+00
 Coeff-Com:  0.830D-05-0.109D-04-0.395D-06 0.653D-06-0.141D-05 0.357D-05
 Coeff-Com:  0.562D-04 0.493D-04-0.233D-03-0.888D-03-0.142D-02-0.154D-02
 Coeff-Com: -0.175D-02-0.185D-02 0.394D-02 0.367D-01 0.634D-01 0.131D+00
 Coeff-Com:  0.326D+00 0.447D+00
 Coeff:      0.830D-05-0.109D-04-0.395D-06 0.653D-06-0.141D-05 0.357D-05
 Coeff:      0.562D-04 0.493D-04-0.233D-03-0.888D-03-0.142D-02-0.154D-02
 Coeff:     -0.175D-02-0.185D-02 0.394D-02 0.367D-01 0.634D-01 0.131D+00
 Coeff:      0.326D+00 0.447D+00
 Gap=     0.042 Goal=   None    Shift=    0.000
 RMSDP=2.46D-08 MaxDP=2.68D-06 DE=-1.41D-09 OVMax= 7.93D-06

 Cycle  21  Pass 1  IDiag  1:
 Restarting incremental Fock formation.
 E= -3007.36313800680     Delta-E=       -0.000000000240 Rises=F Damp=F
 DIIS: error= 1.59D-07 at cycle  21 NSaved=  20.
 NSaved=20 IEnMin=20 EnMin= -3007.36313800680     IErMin=20 ErrMin= 1.59D-07
 ErrMax= 1.59D-07  0.00D+00 EMaxC= 1.00D-01 BMatC= 7.09D-11 BMatP= 2.93D-10
 IDIUse=1 WtCom= 1.00D+00 WtEn= 0.00D+00
 Coeff-Com:  0.159D-05-0.178D-05 0.129D-06-0.393D-06 0.281D-05 0.151D-04
 Coeff-Com:  0.892D-05-0.702D-04-0.224D-03-0.392D-03-0.406D-03-0.473D-03
 Coeff-Com: -0.398D-03 0.114D-02 0.949D-02 0.189D-01 0.464D-01 0.154D+00
 Coeff-Com:  0.335D+00 0.437D+00
 Coeff:      0.159D-05-0.178D-05 0.129D-06-0.393D-06 0.281D-05 0.151D-04
 Coeff:      0.892D-05-0.702D-04-0.224D-03-0.392D-03-0.406D-03-0.473D-03
 Coeff:     -0.398D-03 0.114D-02 0.949D-02 0.189D-01 0.464D-01 0.154D+00
 Coeff:      0.335D+00 0.437D+00
 Gap=     0.042 Goal=   None    Shift=    0.000
 RMSDP=1.18D-08 MaxDP=1.08D-06 DE=-2.40D-10 OVMax= 3.59D-06

 Cycle  22  Pass 1  IDiag  1:
 RMSU=  1.18D-08    CP:  1.00D+00
 E= -3007.36313800685     Delta-E=       -0.000000000049 Rises=F Damp=F
 DIIS: error= 1.09D-07 at cycle  22 NSaved=  20.
 NSaved=20 IEnMin=20 EnMin= -3007.36313800685     IErMin=20 ErrMin= 1.09D-07
 ErrMax= 1.09D-07  0.00D+00 EMaxC= 1.00D-01 BMatC= 1.37D-11 BMatP= 7.09D-11
 IDIUse=1 WtCom= 1.00D+00 WtEn= 0.00D+00
 Coeff-Com:  0.256D-06-0.107D-06-0.103D-06 0.113D-05 0.452D-05 0.215D-05
 Coeff-Com: -0.210D-04-0.546D-04-0.120D-03-0.114D-03-0.120D-03 0.166D-04
 Coeff-Com:  0.473D-03 0.239D-02 0.577D-02 0.173D-01 0.711D-01 0.192D+00
 Coeff-Com:  0.335D+00 0.377D+00
 Coeff:      0.256D-06-0.107D-06-0.103D-06 0.113D-05 0.452D-05 0.215D-05
 Coeff:     -0.210D-04-0.546D-04-0.120D-03-0.114D-03-0.120D-03 0.166D-04
 Coeff:      0.473D-03 0.239D-02 0.577D-02 0.173D-01 0.711D-01 0.192D+00
 Coeff:      0.335D+00 0.377D+00
 Gap=     0.042 Goal=   None    Shift=    0.000
 RMSDP=4.51D-09 MaxDP=4.67D-07 DE=-4.91D-11 OVMax= 1.33D-06

 SCF Done:  E(RB-LYP) =  -3007.36313801     A.U. after   22 cycles
            NFock= 22  Conv=0.45D-08     -V/T= 2.0100
 KE= 2.977465066516D+03 PE=-2.603758515263D+04 EE= 1.053155380929D+04
 Leave Link  502 at Wed Apr 27 00:02:49 2022, MaxMem= 10066329600 cpu:            5351.0 elap:             223.8
 (Enter /sw/apps/gaussian-16.0/g16/l801.exe)
 DoSCS=F DFT=T ScalE2(SS,OS)=  1.000000  1.000000
 ExpMin= 3.36D-02 ExpMax= 4.95D+03 ExpMxC= 7.45D+02 IAcc=3 IRadAn=         5 AccDes= 0.00D+00
 HarFok:  IExCor=  205 AccDes= 0.00D+00 IRadAn=         5 IDoV=-2 UseB2=F ITyADJ=14
 ICtDFT= 12500011 ScaDFX=  1.000000  1.000000  1.000000  1.000000
 GSVD:  LWork=       -5460 too small for GESVD, short by       25550 words or       25550 for optimal perf.
 Largest valence mixing into a core orbital is  1.27D-04
 Largest core mixing into a valence orbital is  4.41D-05
 Range of M.O.s used for correlation:    71  1298
 NBasis=  1298 NAE=   246 NBE=   246 NFC=    70 NFV=     0
 NROrb=   1228 NOA=   176 NOB=   176 NVA=  1052 NVB=  1052

 **** Warning!!: The largest alpha MO coefficient is  0.11361169D+02


 **** Warning!!: The smallest alpha delta epsilon is  0.42441944D-01

 Leave Link  801 at Wed Apr 27 00:02:49 2022, MaxMem= 10066329600 cpu:               7.9 elap:               0.4
 (Enter /sw/apps/gaussian-16.0/g16/l914.exe)
 RHF ground state
 Two-electron integrals replicated using symmetry.
 MDV= 10066329600 DFT=T DoStab=F Mixed=F DoRPA=T DoScal=T NonHer=F
 Making orbital integer symmetry assigments:
 Orbital symmetries:
       Occupied  (A) (A) (A) (A) (A) (A) (A) (A) (A) (A) (A) (A)
                 (A) (A) (A) (A) (A) (A) (A) (A) (A) (A) (A) (A)
                 (A) (A) (A) (A) (A) (A) (A) (A) (A) (A) (A) (A)
                 (A) (A) (A) (A) (A) (A) (A) (A) (A) (A) (A) (A)
                 (A) (A) (A) (A) (A) (A) (A) (A) (A) (A) (A) (A)
                 (A) (A) (A) (A) (A) (A) (A) (A) (A) (A) (A) (A)
                 (A) (A) (A) (A) (A) (A) (A) (A) (A) (A) (A) (A)
                 (A) (A) (A) (A) (A) (A) (A) (A) (A) (A) (A) (A)
                 (A) (A) (A) (A) (A) (A) (A) (A) (A) (A) (A) (A)
                 (A) (A) (A) (A) (A) (A) (A) (A) (A) (A) (A) (A)
                 (A) (A) (A) (A) (A) (A) (A) (A) (A) (A) (A) (A)
                 (A) (A) (A) (A) (A) (A) (A) (A) (A) (A) (A) (A)
                 (A) (A) (A) (A) (A) (A) (A) (A) (A) (A) (A) (A)
                 (A) (A) (A) (A) (A) (A) (A) (A) (A) (A) (A) (A)
                 (A) (A) (A) (A) (A) (A) (A) (A) (A) (A) (A) (A)
                 (A) (A) (A) (A) (A) (A) (A) (A) (A) (A) (A) (A)
                 (A) (A) (A) (A) (A) (A) (A) (A) (A) (A) (A) (A)
                 (A) (A) (A) (A) (A) (A) (A) (A) (A) (A) (A) (A)
                 (A) (A) (A) (A) (A) (A) (A) (A) (A) (A) (A) (A)
                 (A) (A) (A) (A) (A) (A) (A) (A) (A) (A) (A) (A)
                 (A) (A) (A) (A) (A) (A)
       Virtual   (A) (A) (A) (A) (A) (A) (A) (A) (A) (A) (A) (A)
                 (A) (A) (A) (A) (A) (A) (A) (A) (A) (A) (A) (A)
                 (A) (A) (A) (A) (A) (A) (A) (A) (A) (A) (A) (A)
                 (A) (A) (A) (A) (A) (A) (A) (A) (A) (A) (A) (A)
                 (A) (A) (A) (A) (A) (A) (A) (A) (A) (A) (A) (A)
                 (A) (A) (A) (A) (A) (A) (A) (A) (A) (A) (A) (A)
                 (A) (A) (A) (A) (A) (A) (A) (A) (A) (A) (A) (A)
                 (A) (A) (A) (A) (A) (A) (A) (A) (A) (A) (A) (A)
                 (A) (A) (A) (A) (A) (A) (A) (A) (A) (A) (A) (A)
                 (A) (A) (A) (A) (A) (A) (A) (A) (A) (A) (A) (A)
                 (A) (A) (A) (A) (A) (A) (A) (A) (A) (A) (A) (A)
                 (A) (A) (A) (A) (A) (A) (A) (A) (A) (A) (A) (A)
                 (A) (A) (A) (A) (A) (A) (A) (A) (A) (A) (A) (A)
                 (A) (A) (A) (A) (A) (A) (A) (A) (A) (A) (A) (A)
                 (A) (A) (A) (A) (A) (A) (A) (A) (A) (A) (A) (A)
                 (A) (A) (A) (A) (A) (A) (A) (A) (A) (A) (A) (A)
                 (A) (A) (A) (A) (A) (A) (A) (A) (A) (A) (A) (A)
                 (A) (A) (A) (A) (A) (A) (A) (A) (A) (A) (A) (A)
                 (A) (A) (A) (A) (A) (A) (A) (A) (A) (A) (A) (A)
                 (A) (A) (A) (A) (A) (A) (A) (A) (A) (A) (A) (A)
                 (A) (A) (A) (A) (A) (A) (A) (A) (A) (A) (A) (A)
                 (A) (A) (A) (A) (A) (A) (A) (A) (A) (A) (A) (A)
                 (A) (A) (A) (A) (A) (A) (A) (A) (A) (A) (A) (A)
                 (A) (A) (A) (A) (A) (A) (A) (A) (A) (A) (A) (A)
                 (A) (A) (A) (A) (A) (A) (A) (A) (A) (A) (A) (A)
                 (A) (A) (A) (A) (A) (A) (A) (A) (A) (A) (A) (A)
                 (A) (A) (A) (A) (A) (A) (A) (A) (A) (A) (A) (A)
                 (A) (A) (A) (A) (A) (A) (A) (A) (A) (A) (A) (A)
                 (A) (A) (A) (A) (A) (A) (A) (A) (A) (A) (A) (A)
                 (A) (A) (A) (A) (A) (A) (A) (A) (A) (A) (A) (A)
                 (A) (A) (A) (A) (A) (A) (A) (A) (A) (A) (A) (A)
                 (A) (A) (A) (A) (A) (A) (A) (A) (A) (A) (A) (A)
                 (A) (A) (A) (A) (A) (A) (A) (A) (A) (A) (A) (A)
                 (A) (A) (A) (A) (A) (A) (A) (A) (A) (A) (A) (A)
                 (A) (A) (A) (A) (A) (A) (A) (A) (A) (A) (A) (A)
                 (A) (A) (A) (A) (A) (A) (A) (A) (A) (A) (A) (A)
                 (A) (A) (A) (A) (A) (A) (A) (A) (A) (A) (A) (A)
                 (A) (A) (A) (A) (A) (A) (A) (A) (A) (A) (A) (A)
                 (A) (A) (A) (A) (A) (A) (A) (A) (A) (A) (A) (A)
                 (A) (A) (A) (A) (A) (A) (A) (A) (A) (A) (A) (A)
                 (A) (A) (A) (A) (A) (A) (A) (A) (A) (A) (A) (A)
                 (A) (A) (A) (A) (A) (A) (A) (A) (A) (A) (A) (A)
                 (A) (A) (A) (A) (A) (A) (A) (A) (A) (A) (A) (A)
                 (A) (A) (A) (A) (A) (A) (A) (A) (A) (A) (A) (A)
                 (A) (A) (A) (A) (A) (A) (A) (A) (A) (A) (A) (A)
                 (A) (A) (A) (A) (A) (A) (A) (A) (A) (A) (A) (A)
                 (A) (A) (A) (A) (A) (A) (A) (A) (A) (A) (A) (A)
                 (A) (A) (A) (A) (A) (A) (A) (A) (A) (A) (A) (A)
                 (A) (A) (A) (A) (A) (A) (A) (A) (A) (A) (A) (A)
                 (A) (A) (A) (A) (A) (A) (A) (A) (A) (A) (A) (A)
                 (A) (A) (A) (A) (A) (A) (A) (A) (A) (A) (A) (A)
                 (A) (A) (A) (A) (A) (A) (A) (A) (A) (A) (A) (A)
                 (A) (A) (A) (A) (A) (A) (A) (A) (A) (A) (A) (A)
                 (A) (A) (A) (A) (A) (A) (A) (A) (A) (A) (A) (A)
                 (A) (A) (A) (A) (A) (A) (A) (A) (A) (A) (A) (A)
                 (A) (A) (A) (A) (A) (A) (A) (A) (A) (A) (A) (A)
                 (A) (A) (A) (A) (A) (A) (A) (A) (A) (A) (A) (A)
                 (A) (A) (A) (A) (A) (A) (A) (A) (A) (A) (A) (A)
                 (A) (A) (A) (A) (A) (A) (A) (A) (A) (A) (A) (A)
                 (A) (A) (A) (A) (A) (A) (A) (A) (A) (A) (A) (A)
                 (A) (A) (A) (A) (A) (A) (A) (A) (A) (A) (A) (A)
                 (A) (A) (A) (A) (A) (A) (A) (A) (A) (A) (A) (A)
                 (A) (A) (A) (A) (A) (A) (A) (A) (A) (A) (A) (A)
                 (A) (A) (A) (A) (A) (A) (A) (A) (A) (A) (A) (A)
                 (A) (A) (A) (A) (A) (A) (A) (A) (A) (A) (A) (A)
                 (A) (A) (A) (A) (A) (A) (A) (A) (A) (A) (A) (A)
                 (A) (A) (A) (A) (A) (A) (A) (A) (A) (A) (A) (A)
                 (A) (A) (A) (A) (A) (A) (A) (A) (A) (A) (A) (A)
                 (A) (A) (A) (A) (A) (A) (A) (A) (A) (A) (A) (A)
                 (A) (A) (A) (A) (A) (A) (A) (A) (A) (A) (A) (A)
                 (A) (A) (A) (A) (A) (A) (A) (A) (A) (A) (A) (A)
                 (A) (A) (A) (A) (A) (A) (A) (A) (A) (A) (A) (A)
                 (A) (A) (A) (A) (A) (A) (A) (A) (A) (A) (A) (A)
                 (A) (A) (A) (A) (A) (A) (A) (A) (A) (A) (A) (A)
                 (A) (A) (A) (A) (A) (A) (A) (A) (A) (A) (A) (A)
                 (A) (A) (A) (A) (A) (A) (A) (A) (A) (A) (A) (A)
                 (A) (A) (A) (A) (A) (A) (A) (A) (A) (A) (A) (A)
                 (A) (A) (A) (A) (A) (A) (A) (A) (A) (A) (A) (A)
                 (A) (A) (A) (A) (A) (A) (A) (A) (A) (A) (A) (A)
                 (A) (A) (A) (A) (A) (A) (A) (A) (A) (A) (A) (A)
                 (A) (A) (A) (A) (A) (A) (A) (A) (A) (A) (A) (A)
                 (A) (A) (A) (A) (A) (A) (A) (A) (A) (A) (A) (A)
                 (A) (A) (A) (A) (A) (A) (A) (A) (A) (A) (A) (A)
                 (A) (A) (A) (A) (A) (A) (A) (A) (A) (A) (A) (A)
                 (A) (A) (A) (A) (A) (A) (A) (A) (A) (A) (A) (A)
                 (A) (A) (A) (A) (A) (A) (A) (A) (A) (A) (A) (A)
                 (A) (A) (A) (A) (A) (A) (A) (A) (A) (A) (A) (A)
                 (A) (A) (A) (A) (A) (A) (A) (A)
    20 initial guesses have been made.
 Convergence on wavefunction:    0.001000000000000
 Davidson Disk Diagonalization:  ConvIn= 1.00D-03 SkipCon=T Conv= 1.00D-03.
 Max sub-space:  2000 roots to seek:    20 dimension of matrix:       370304
 Iteration     1 Dimension    20 NMult     0 NNew     20
 CISAX will form    20 AO SS matrices at one time.
 NMat=    20 NSing=    20 JSym2X= 0.
 FoFJK:  IHMeth= 1 ICntrl=     500 DoSepK=F KAlg= 0 I1Cent=           0 FoldK=F
 IRaf= 510000000 NMat=      20 IRICut=       1 DoRegI=T DoRafI=F ISym2E= 0 IDoP0=0 IntGTp=1.
 FoFCou: FMM=T IPFlag=           0 FMFlag=      100000 FMFlg1=        2001
         NFxFlg=           0 DoJE=F BraDBF=F KetDBF=F FulRan=T
         wScrn=  0.000000 ICntrl=       500 IOpCl=  0 I1Cent=           0 NGrid=           0
         NMat0=   20 NMatS0=     20 NMatT0=    0 NMatD0=   20 NMtDS0=    0 NMtDT0=    0
 Symmetry not used in FoFCou.
 FMM levels:  10  Number of levels for PrismC:   9
 New state      1 was old state      3
 New state      2 was old state      4
 New state      3 was old state      1
 New state      4 was old state      5
 New state      5 was old state      2
 Excitation Energies [eV] at current iteration:
 Root      1 :     2.006001421547192
 Root      2 :     2.081944229923236
 Root      3 :     2.145809480563817
 Root      4 :     2.293235628732876
 Root      5 :     2.295739910551359
 Root      6 :     2.707481425569061
 Root      7 :     2.889999109634751
 Root      8 :     2.953867179228792
 Root      9 :     2.987365926696046
 Root     10 :     3.077572510114364
 Root     11 :     3.109726273297857
 Root     12 :     3.167089834681713
 Root     13 :     3.219674994419943
 Root     14 :     3.246766228747628
 Root     15 :     3.290395290339791
 Root     16 :     3.414667361874895
 Root     17 :     3.564776441299947
 Root     18 :     3.911790000622538
 Root     19 :     4.054150189892564
 Root     20 :     4.387420522790565
 Iteration     2 Dimension    40 NMult    20 NNew     20
 CISAX will form    20 AO SS matrices at one time.
 NMat=    20 NSing=    20 JSym2X= 0.
 New state      1 was old state      3
 Root      1 not converged, maximum delta is    0.314731905127311
 New state      2 was old state      1
 Root      2 not converged, maximum delta is    0.018375897458388
 New state      3 was old state      5
 Root      3 not converged, maximum delta is    0.478812035277816
 New state      4 was old state      2
 Root      4 not converged, maximum delta is    0.417376335245265
 New state      5 was old state      4
 Root      5 not converged, maximum delta is    0.116922688288617
 Excitation Energies [eV] at current iteration:
 Root      1 :     1.880815669280376   Change is   -0.264993811283441
 Root      2 :     2.002253755057330   Change is   -0.003747666489862
 Root      3 :     2.053946850528980   Change is   -0.241793060022378
 Root      4 :     2.102140679486302   Change is    0.020196449563066
 Root      5 :     2.293316446052385   Change is    0.000080817319509
 Root      6 :     2.659436771118497   Change is   -0.294430408110295
 Root      7 :     2.706498681994716   Change is   -0.000982743574346
 Root      8 :     2.753096778464290   Change is   -0.356629494833567
 Root      9 :     2.889075834400362   Change is   -0.000923275234389
 Root     10 :     2.893960492832623   Change is   -0.670815948467323
 Root     11 :     2.947617059087809   Change is   -0.039748867608237
 Root     12 :     3.063077809884644   Change is   -0.351589551990251
 Root     13 :     3.077575085708207   Change is    0.000002575593843
 Root     14 :     3.163394687592588   Change is   -0.003695147089125
 Root     15 :     3.223677076711503   Change is   -0.023089152036125
 Root     16 :     3.233405984215235   Change is    0.013730989795292
 Root     17 :     3.331465359028239   Change is    0.041070068688448
 Root     18 :     3.395203114044189   Change is   -0.516586886578349
 Root     19 :     3.565843018456244   Change is   -0.488307171436319
 Root     20 :     3.734199470873625
 Iteration     3 Dimension    45 NMult    40 NNew      5
 CISAX will form     5 AO SS matrices at one time.
 NMat=     5 NSing=     5 JSym2X= 0.
 Root      1 not converged, maximum delta is    0.019888984836628
 Root      2 not converged, maximum delta is    0.022626939196913
 Root      3 not converged, maximum delta is    0.143349194589513
 Root      4 not converged, maximum delta is    0.123016725188896
 Root      5 has converged.
 Excitation Energies [eV] at current iteration:
 Root      1 :     1.834505223994230   Change is   -0.046310445286145
 Root      2 :     2.000941120028228   Change is   -0.001312635029103
 Root      3 :     2.026570079458378   Change is   -0.027376771070603
 Root      4 :     2.093401296517639   Change is   -0.008739382968663
 Root      5 :     2.293313425032351   Change is   -0.000003021020034
 Iteration     4 Dimension    49 NMult    45 NNew      4
 CISAX will form     4 AO SS matrices at one time.
 NMat=     4 NSing=     4 JSym2X= 0.
 Root      1 not converged, maximum delta is    0.012753852840196
 Root      2 not converged, maximum delta is    0.040926211422846
 Root      3 not converged, maximum delta is    0.045854334259863
 Root      4 not converged, maximum delta is    0.031999170070065
 Root      5 has converged.
 Excitation Energies [eV] at current iteration:
 Root      1 :     1.815335309983658   Change is   -0.019169914010572
 Root      2 :     2.000505040015981   Change is   -0.000436080012247
 Root      3 :     2.013658384852860   Change is   -0.012911694605518
 Root      4 :     2.090751277957941   Change is   -0.002650018559698
 Root      5 :     2.293313370524028   Change is   -0.000000054508323
 Iteration     5 Dimension    53 NMult    49 NNew      4
 CISAX will form     4 AO SS matrices at one time.
 NMat=     4 NSing=     4 JSym2X= 0.
 Root      1 not converged, maximum delta is    0.004166829997580
 Root      2 not converged, maximum delta is    0.037527619584239
 Root      3 not converged, maximum delta is    0.042108179194310
 Root      4 not converged, maximum delta is    0.008528394698401
 Root      5 has converged.
 Excitation Energies [eV] at current iteration:
 Root      1 :     1.809311610137115   Change is   -0.006023699846543
 Root      2 :     2.000249724727165   Change is   -0.000255315288816
 Root      3 :     2.009460010236137   Change is   -0.004198374616724
 Root      4 :     2.089830316208862   Change is   -0.000920961749079
 Root      5 :     2.293313367393042   Change is   -0.000000003130987
 Iteration     6 Dimension    57 NMult    53 NNew      4
 CISAX will form     4 AO SS matrices at one time.
 NMat=     4 NSing=     4 JSym2X= 0.
 Root      1 not converged, maximum delta is    0.003264897676488
 Root      2 not converged, maximum delta is    0.027443894041174
 Root      3 not converged, maximum delta is    0.030946320910159
 Root      4 not converged, maximum delta is    0.003503405385838
 Root      5 has converged.
 Excitation Energies [eV] at current iteration:
 Root      1 :     1.806467401350108   Change is   -0.002844208787007
 Root      2 :     2.000082586650742   Change is   -0.000167138076423
 Root      3 :     2.007663710711333   Change is   -0.001796299524803
 Root      4 :     2.089390431803914   Change is   -0.000439884404948
 Root      5 :     2.293313364835278   Change is   -0.000000002557763
 Iteration     7 Dimension    61 NMult    57 NNew      4
 CISAX will form     4 AO SS matrices at one time.
 NMat=     4 NSing=     4 JSym2X= 0.
 Root      1 not converged, maximum delta is    0.002296802890422
 Root      2 not converged, maximum delta is    0.014776849324732
 Root      3 not converged, maximum delta is    0.016721695853658
 Root      4 not converged, maximum delta is    0.001909307407904
 Root      5 has converged.
 Excitation Energies [eV] at current iteration:
 Root      1 :     1.805238743956974   Change is   -0.001228657393134
 Root      2 :     1.999990031797886   Change is   -0.000092554852856
 Root      3 :     2.006933858514587   Change is   -0.000729852196746
[...]
 Alpha virt. eigenvalues --    1.10538   1.11171   1.11668   1.11871   1.12236
 Alpha virt. eigenvalues --    1.12590   1.12712   1.12908   1.13733   1.14234
 Alpha virt. eigenvalues --    1.14690   1.14942   1.15281   1.15957   1.16287
 Alpha virt. eigenvalues --    1.16560   1.16926   1.17560   1.18192   1.18251
 Alpha virt. eigenvalues --    1.19356   1.19599   1.19846   1.20318   1.21200
 Alpha virt. eigenvalues --    1.22090   1.22436   1.22915   1.23499   1.24033
 Alpha virt. eigenvalues --    1.24659   1.24914   1.25432   1.25545   1.26010
 Alpha virt. eigenvalues --    1.26475   1.26995   1.27438   1.27733   1.28236
 Alpha virt. eigenvalues --    1.28562   1.28834   1.29160   1.29623   1.29831
 Alpha virt. eigenvalues --    1.30666   1.30741   1.30941   1.31190   1.31988
 Alpha virt. eigenvalues --    1.32347   1.32702   1.32902   1.32955   1.33723
 Alpha virt. eigenvalues --    1.33878   1.34617   1.35159   1.35460   1.35747
 Alpha virt. eigenvalues --    1.36210   1.36962   1.37192   1.37536   1.37991
 Alpha virt. eigenvalues --    1.38212   1.38394   1.38437   1.38995   1.39883
 Alpha virt. eigenvalues --    1.39973   1.40673   1.41464   1.41566   1.41739
 Alpha virt. eigenvalues --    1.42468   1.43282   1.43847   1.44055   1.44463
 Alpha virt. eigenvalues --    1.44988   1.45733   1.45863   1.46297   1.46507
 Alpha virt. eigenvalues --    1.46719   1.46800   1.47418   1.47644   1.47844
 Alpha virt. eigenvalues --    1.48025   1.48324   1.48499   1.48541   1.48852
 Alpha virt. eigenvalues --    1.48955   1.49063   1.49386   1.49425   1.49662
 Alpha virt. eigenvalues --    1.49704   1.50062   1.50322   1.50489   1.50934
 Alpha virt. eigenvalues --    1.51061   1.51144   1.51508   1.51818   1.51952
 Alpha virt. eigenvalues --    1.52850   1.53603   1.53812   1.53941   1.54510
 Alpha virt. eigenvalues --    1.54738   1.55208   1.55313   1.55908   1.56500
 Alpha virt. eigenvalues --    1.56607   1.57011   1.57730   1.58018   1.59010
 Alpha virt. eigenvalues --    1.59070   1.59991   1.60352   1.60556   1.61175
 Alpha virt. eigenvalues --    1.61508   1.61763   1.61904   1.62121   1.63097
 Alpha virt. eigenvalues --    1.63164   1.63640   1.64014   1.64071   1.64397
 Alpha virt. eigenvalues --    1.64529   1.64795   1.65022   1.65340   1.65610
 Alpha virt. eigenvalues --    1.65796   1.65889   1.66065   1.66213   1.67052
 Alpha virt. eigenvalues --    1.67121   1.67166   1.67715   1.68074   1.68166
 Alpha virt. eigenvalues --    1.68634   1.69036   1.69137   1.69416   1.69512
 Alpha virt. eigenvalues --    1.69672   1.69769   1.70172   1.70443   1.70504
 Alpha virt. eigenvalues --    1.70614   1.70871   1.70997   1.71324   1.71475
 Alpha virt. eigenvalues --    1.71963   1.72068   1.72176   1.72346   1.72402
 Alpha virt. eigenvalues --    1.72571   1.72985   1.73303   1.73447   1.73782
 Alpha virt. eigenvalues --    1.73808   1.73828   1.74227   1.74384   1.74626
 Alpha virt. eigenvalues --    1.74915   1.75019   1.75058   1.75122   1.75292
 Alpha virt. eigenvalues --    1.75573   1.75829   1.75843   1.76045   1.76293
 Alpha virt. eigenvalues --    1.76430   1.76566   1.76865   1.76984   1.77358
 Alpha virt. eigenvalues --    1.77401   1.77594   1.77920   1.78045   1.78424
 Alpha virt. eigenvalues --    1.78559   1.78631   1.78794   1.79073   1.79228
 Alpha virt. eigenvalues --    1.79312   1.79414   1.79736   1.80171   1.80306
 Alpha virt. eigenvalues --    1.80378   1.80704   1.80866   1.80932   1.81174
 Alpha virt. eigenvalues --    1.81854   1.82266   1.82317   1.82410   1.82527
 Alpha virt. eigenvalues --    1.82638   1.82864   1.83218   1.83460   1.83738
 Alpha virt. eigenvalues --    1.83893   1.84618   1.84636   1.85284   1.85565
 Alpha virt. eigenvalues --    1.85888   1.86211   1.86257   1.86644   1.86907
 Alpha virt. eigenvalues --    1.87029   1.87303   1.87835   1.88136   1.88214
 Alpha virt. eigenvalues --    1.88713   1.88799   1.88929   1.89491   1.89536
 Alpha virt. eigenvalues --    1.89986   1.90077   1.90420   1.90830   1.91157
 Alpha virt. eigenvalues --    1.91255   1.91803   1.91914   1.92370   1.92623
 Alpha virt. eigenvalues --    1.92855   1.93263   1.93445   1.93580   1.94220
 Alpha virt. eigenvalues --    1.94523   1.94721   1.94778   1.95253   1.95629
 Alpha virt. eigenvalues --    1.95706   1.95933   1.96357   1.96504   1.96637
 Alpha virt. eigenvalues --    1.97106   1.97238   1.97361   1.97605   1.97612
 Alpha virt. eigenvalues --    1.98294   1.98673   1.99102   1.99495   1.99579
 Alpha virt. eigenvalues --    1.99901   1.99982   2.00258   2.00833   2.01320
 Alpha virt. eigenvalues --    2.01398   2.01641   2.02153   2.02437   2.02755
 Alpha virt. eigenvalues --    2.02987   2.03232   2.03421   2.03657   2.03988
 Alpha virt. eigenvalues --    2.04106   2.04221   2.04806   2.05302   2.05417
 Alpha virt. eigenvalues --    2.06079   2.06229   2.06256   2.06928   2.06952
 Alpha virt. eigenvalues --    2.07092   2.07880   2.08247   2.08881   2.09093
 Alpha virt. eigenvalues --    2.09516   2.09760   2.10006   2.10651   2.11491
 Alpha virt. eigenvalues --    2.11697   2.12034   2.12353   2.12750   2.13414
 Alpha virt. eigenvalues --    2.13782   2.13866   2.14385   2.14564   2.15276
 Alpha virt. eigenvalues --    2.15564   2.15753   2.15979   2.16535   2.17043
 Alpha virt. eigenvalues --    2.17328   2.18827   2.19215   2.19299   2.19623
 Alpha virt. eigenvalues --    2.20019   2.20416   2.20637   2.20693   2.21278
 Alpha virt. eigenvalues --    2.21578   2.22231   2.22642   2.22815   2.23441
 Alpha virt. eigenvalues --    2.23540   2.23871   2.24037   2.24813   2.25271
 Alpha virt. eigenvalues --    2.25601   2.25642   2.26293   2.26596   2.26694
 Alpha virt. eigenvalues --    2.27264   2.27434   2.27714   2.28051   2.28578
 Alpha virt. eigenvalues --    2.28891   2.29206   2.29231   2.29474   2.29936
 Alpha virt. eigenvalues --    2.30117   2.30352   2.31802   2.32012   2.32609
 Alpha virt. eigenvalues --    2.32814   2.33151   2.33436   2.33866   2.34036
 Alpha virt. eigenvalues --    2.34298   2.34503   2.34780   2.35357   2.35698
 Alpha virt. eigenvalues --    2.35893   2.36275   2.36816   2.37009   2.37298
 Alpha virt. eigenvalues --    2.37691   2.37903   2.38492   2.38524   2.38625
 Alpha virt. eigenvalues --    2.39283   2.39391   2.40693   2.40712   2.41159
 Alpha virt. eigenvalues --    2.41278   2.41849   2.42220   2.43144   2.43565
 Alpha virt. eigenvalues --    2.43763   2.44070   2.44256   2.44746   2.45195
 Alpha virt. eigenvalues --    2.45956   2.46227   2.46554   2.47011   2.47027
 Alpha virt. eigenvalues --    2.47379   2.47653   2.48245   2.48650   2.48893
 Alpha virt. eigenvalues --    2.49347   2.49417   2.49646   2.49841   2.51405
 Alpha virt. eigenvalues --    2.51690   2.52319   2.52674   2.53289   2.53381
 Alpha virt. eigenvalues --    2.54022   2.54330   2.54726   2.54807   2.55058
 Alpha virt. eigenvalues --    2.55483   2.55813   2.56104   2.56443   2.56988
 Alpha virt. eigenvalues --    2.57555   2.58195   2.58204   2.58664   2.58967
 Alpha virt. eigenvalues --    2.59540   2.59970   2.60167   2.60649   2.61086
 Alpha virt. eigenvalues --    2.61139   2.61615   2.61996   2.62035   2.62753
 Alpha virt. eigenvalues --    2.63347   2.63632   2.63918   2.64528   2.64751
 Alpha virt. eigenvalues --    2.65104   2.65708   2.65886   2.66561   2.67036
 Alpha virt. eigenvalues --    2.67186   2.67272   2.68056   2.68305   2.68792
 Alpha virt. eigenvalues --    2.69196   2.69295   2.71478   2.72151   2.72402
 Alpha virt. eigenvalues --    2.72485   2.72985   2.73770   2.74272   2.75009
 Alpha virt. eigenvalues --    2.75176   2.75515   2.76292   2.76666   2.77622
 Alpha virt. eigenvalues --    2.78152   2.78522   2.78990   2.79366   2.79553
 Alpha virt. eigenvalues --    2.79792   2.80262   2.80695   2.80835   2.81523
 Alpha virt. eigenvalues --    2.81535   2.81838   2.82185   2.82544   2.82975
 Alpha virt. eigenvalues --    2.83460   2.83587   2.84175   2.84461   2.84576
 Alpha virt. eigenvalues --    2.84660   2.84849   2.85204   2.85865   2.85969
 Alpha virt. eigenvalues --    2.86294   2.86675   2.86829   2.87054   2.87242
 Alpha virt. eigenvalues --    2.87404   2.87892   2.87977   2.88351   2.88494
 Alpha virt. eigenvalues --    2.88701   2.88711   2.89216   2.89410   2.89554
 Alpha virt. eigenvalues --    2.90027   2.90314   2.90935   2.91369   2.91475
 Alpha virt. eigenvalues --    2.91527   2.91949   2.92158   2.92775   2.92913
 Alpha virt. eigenvalues --    2.93245   2.93459   2.93649   2.95023   2.95650
 Alpha virt. eigenvalues --    2.95772   2.95991   2.96684   2.96763   2.97002
 Alpha virt. eigenvalues --    2.97459   2.97630   2.97741   2.98065   2.98350
 Alpha virt. eigenvalues --    2.98999   3.00118   3.00208   3.00698   3.01101
 Alpha virt. eigenvalues --    3.02279   3.02344   3.03092   3.04357   3.04602
 Alpha virt. eigenvalues --    3.05342   3.06089   3.07238   3.08011   3.09167
 Alpha virt. eigenvalues --    3.09547   3.10695   3.11615   3.14315   3.14793
 Alpha virt. eigenvalues --    3.18534   3.18712   3.24934   3.28710   3.29079
 Alpha virt. eigenvalues --    3.33196   3.33519   3.36657   3.39892   3.43453
 Alpha virt. eigenvalues --    3.44420   3.47648   3.52373   3.53156   3.54839
 Alpha virt. eigenvalues --    3.56212   3.58104
          Condensed to atoms (all electrons):
 Mulliken charges:
               1
     1  Mg   0.707095
     2  C    0.027343
     3  C   -0.044291
     4  C   -0.063034
     5  C   -0.073518
     6  N   -0.197822
     7  C   -0.092243
     8  C    0.016718
     9  C   -0.038117
    10  C   -0.020818
    11  C    0.125152
    12  C    0.152776
    13  C    0.133062
    14  C    0.066200
    15  O   -0.163661
    16  O   -0.272998
    17  N   -0.304889
    18  C    0.147874
    19  C   -0.133357
    20  C    0.059563
    21  C    0.095160
    22  C    0.170671
    23  C   -0.139009
    24  O   -0.152183
    25  C    0.169654
    26  N   -0.136952
    27  C    0.012869
    28  C    0.036744
    29  C    0.030356
    30  C    0.012997
    31  C    0.104252
    32  C    0.070658
    33  C    0.067196
    34  N   -0.174077
    35  C    0.055552
    36  C   -0.194893
    37  C    0.127569
    38  C    0.009496
    39  C    0.180807
    40  C   -0.025799
    41  O   -0.167685
    42  C    0.069009
    43  C    0.137683
    44  O   -0.208983
    45  O   -0.286231
    46  C    0.201141
    47  C    0.290301
    48  C   -0.088151
    49  C   -0.173915
    50  C    0.137242
    51  C    0.129562
    52  C    0.109005
    53  C    0.062135
    54  C   -0.059510
    55  C    0.145303
    56  C    0.054735
    57  C    0.084167
    58  C    0.046646
    59  C   -0.050488
    60  C    0.101110
    61  C    0.090173
    62  C    0.063302
    63  C    0.077115
    64  C   -0.093685
    65  C    0.111340
    66  C    0.100998
    67  H   -0.052680
    68  H   -0.094086
    69  H   -0.063275
    70  H   -0.019025
    71  H   -0.007039
    72  H   -0.010105
    73  H    0.008679
    74  H   -0.003291
    75  H   -0.019603
    76  H   -0.029078
    77  H   -0.006129
    78  H    0.007693
    79  H    0.006295
    80  H   -0.028810
    81  H   -0.001733
    82  H    0.022600
    83  H   -0.012771
    84  H    0.026328
    85  H   -0.025067
    86  H   -0.029176
    87  H   -0.011180
    88  H   -0.010336
    89  H   -0.005703
    90  H   -0.005266
    91  H   -0.011739
    92  H   -0.018246
    93  H   -0.009542
    94  H   -0.005953
    95  H    0.007692
    96  H    0.015237
    97  H   -0.005862
    98  H   -0.019123
    99  H    0.023817
   100  H    0.029296
   101  H    0.023667
   102  H    0.002350
   103  H    0.006656
   104  H   -0.039951
   105  H   -0.010388
   106  H    0.001029
   107  H   -0.016893
   108  H   -0.021909
   109  H   -0.029116
   110  H   -0.016652
   111  H   -0.021976
   112  H   -0.029027
   113  H   -0.046896
   114  H   -0.038748
   115  H   -0.009634
   116  H   -0.011828
   117  H   -0.030275
   118  H   -0.043336
   119  H   -0.025690
   120  H   -0.021217
   121  H   -0.030246
   122  H   -0.030122
   123  H   -0.033963
   124  H   -0.045313
   125  H   -0.011783
   126  H   -0.017004
   127  H   -0.010586
   128  H   -0.040097
   129  H   -0.032259
   130  H   -0.031127
   131  H   -0.034424
   132  H   -0.026019
   133  H   -0.025570
   134  H   -0.023437
   135  H   -0.017070
   136  H   -0.016885
   137  H   -0.022738
   138  H   -0.023977
   139  H   -0.001396
   140  H   -0.023395
 Sum of Mulliken charges =  -0.00000
 Mulliken charges with hydrogens summed into heavy atoms:
               1
     1  Mg   0.707095
     2  C    0.027343
     3  C   -0.096971
     4  C   -0.157121
     5  C   -0.136793
     6  N   -0.197822
     7  C   -0.092243
     8  C   -0.002307
     9  C   -0.045156
    10  C   -0.020818
    11  C    0.120435
    12  C    0.104096
    13  C    0.134625
    14  C    0.066200
    15  O   -0.163661
    16  O   -0.272998
    17  N   -0.304889
    18  C    0.147874
    19  C   -0.133357
    20  C    0.059563
    21  C    0.095160
    22  C    0.146424
    23  C   -0.139009
    24  O   -0.152183
    25  C    0.205811
    26  N   -0.136952
    27  C    0.012869
    28  C    0.011677
    29  C    0.001179
    30  C    0.012997
    31  C    0.077034
    32  C    0.053653
    33  C    0.033455
    34  N   -0.174077
    35  C    0.055552
    36  C   -0.194893
    37  C    0.127569
    38  C    0.009496
    39  C    0.197874
    40  C   -0.025799
    41  O   -0.167685
    42  C    0.049885
    43  C    0.137683
    44  O   -0.208983
    45  O   -0.286231
    46  C    0.277922
    47  C    0.299307
    48  C   -0.128102
    49  C   -0.173915
    50  C    0.110990
    51  C    0.078538
    52  C    0.070378
    53  C   -0.013788
    54  C   -0.098258
    55  C    0.093568
    56  C   -0.014291
    57  C    0.032704
    58  C   -0.017440
    59  C   -0.095800
    60  C    0.061737
    61  C    0.017817
    62  C   -0.002249
    63  C    0.025527
    64  C   -0.117122
    65  C    0.054648
    66  C    0.052230
 Electronic spatial extent (au):  <R**2>=         123962.2181
 Charge=             -0.0000 electrons
 Dipole moment (field-independent basis, Debye):
    X=              0.4945    Y=              2.0148    Z=              2.0595  Tot=              2.9232
 Quadrupole moment (field-independent basis, Debye-Ang):
   XX=           -401.7407   YY=           -403.9808   ZZ=           -401.6605
   XY=            -53.7198   XZ=            -11.0876   YZ=            -27.3504
 Traceless Quadrupole moment (field-independent basis, Debye-Ang):
   XX=              0.7199   YY=             -1.5201   ZZ=              0.8002
   XY=            -53.7198   XZ=            -11.0876   YZ=            -27.3504
 Octapole moment (field-independent basis, Debye-Ang**2):
  XXX=              6.5440  YYY=            -82.8720  ZZZ=             11.6804  XYY=            -93.2057
  XXY=            269.4456  XXZ=              8.7840  XZZ=            -65.4247  YZZ=            -41.3073
  YYZ=            -46.0114  XYZ=             58.9622
 Hexadecapole moment (field-independent basis, Debye-Ang**3):
 XXXX=        -139399.1045 YYYY=         -27110.1153 ZZZZ=          -7120.6251 XXXY=          -4255.4277
 XXXZ=            -73.4684 YYYX=           -505.7207 YYYZ=           -295.8851 ZZZX=             92.5058
 ZZZY=            -16.5324 XXYY=         -27812.8509 XXZZ=         -23836.9959 YYZZ=          -5949.2436
 XXYZ=           -535.4987 YYXZ=             76.1651 ZZXY=            -54.2247
 N-N= 9.521203138820D+03 E-N=-2.603758513002D+04  KE= 2.977465066516D+03
 Leave Link  601 at Wed Apr 27 00:12:20 2022, MaxMem= 10066329600 cpu:              10.1 elap:               0.5
 (Enter /sw/apps/gaussian-16.0/g16/l9999.exe)
 1\1\GINC-BP1-COMPUTE139\SP\RBLYP TD-FC\def2SVP\C55H74Mg1N4O6\OF15641\2
 7-Apr-2022\0\\#p blyp/Def2SVP td=(nstates=5)\\step_101_chromophore_11 
 TDDFT with blyp functional\\0,1\Mg,0,53.505,23.953,45.168\C,0,50.636,2
 5.863,44.491\C,0,52.196,21.287,43.835\C,0,56.711,22.603,45.093\C,0,54.
 995,27.043,46.095\N,0,51.656,23.686,44.239\C,0,50.627,24.514,44.023\C,
 0,49.314,23.808,43.75\C,0,49.836,22.275,43.679\C,0,51.337,22.44,43.96\
 C,0,49.139,21.237,44.661\C,0,48.546,24.235,42.542\C,0,49.358,24.364,41
 .23\C,0,48.856,23.749,39.993\O,0,48.269,24.433,39.2\O,0,48.792,22.371,
 40.131\N,0,54.343,22.147,44.565\C,0,53.599,21.141,44.117\C,0,54.459,19
 .978,43.907\C,0,55.802,20.336,44.223\C,0,55.694,21.717,44.682\C,0,53.9
 07,18.64,43.283\C,0,57.028,19.473,44.114\O,0,56.929,18.347,43.665\C,0,
 58.379,20.013,44.473\N,0,55.559,24.753,45.407\C,0,56.612,23.974,45.296
 \C,0,57.939,24.786,45.584\C,0,57.38,26.169,45.944\C,0,55.845,26.004,45
 .771\C,0,58.998,24.202,46.62\C,0,57.745,27.371,45.025\C,0,59.23,27.461
 ,44.605\N,0,52.915,26.,45.459\C,0,53.589,27.069,45.923\C,0,52.742,28.2
 37,46.221\C,0,51.566,27.857,45.585\C,0,51.742,26.479,45.122\C,0,53.171
 ,29.505,46.932\C,0,50.205,28.254,45.228\O,0,49.542,29.303,45.461\C,0,4
 9.599,26.998,44.463\C,0,49.354,27.524,43.126\O,0,50.275,27.798,42.324\
 O,0,47.999,27.594,42.866\C,0,47.407,28.027,41.549\C,0,48.201,21.703,38
 .959\C,0,49.054,21.558,37.628\C,0,48.919,20.866,36.488\C,0,47.693,20.0
 42,36.218\C,0,50.055,20.742,35.416\C,0,51.31,19.861,35.836\C,0,51.451,
 18.676,34.92\C,0,52.965,18.337,34.677\C,0,53.712,19.249,33.712\C,0,53.
 142,16.774,34.338\C,0,52.227,16.136,33.258\C,0,53.142,15.401,32.113\C,
 0,52.872,13.965,31.687\C,0,53.218,12.954,32.826\C,0,53.622,13.733,30.3
 45\C,0,53.156,12.473,29.564\C,0,54.3,11.476,29.104\C,0,54.028,10.974,2
 7.621\C,0,54.136,9.457,27.587\C,0,55.058,11.773,26.74\H,0,51.587,20.39
 3,43.684\H,0,57.694,22.133,45.166\H,0,55.374,28.048,46.294\H,0,48.819,
 23.937,44.713\H,0,49.775,21.921,42.649\H,0,48.448,21.8,45.288\H,0,49.8
 13,20.628,45.263\H,0,48.595,20.576,43.985\H,0,48.013,25.167,42.728\H,0
 ,47.662,23.602,42.457\H,0,50.33,23.919,41.442\H,0,49.562,25.41,40.998\
 H,0,54.42,18.398,42.352\H,0,52.835,18.724,43.111\H,0,54.055,17.752,43.
 897\H,0,58.589,20.821,43.773\H,0,59.046,19.174,44.275\H,0,58.303,20.25
 5,45.534\H,0,58.47,24.818,44.633\H,0,57.538,26.329,47.011\H,0,59.704,2
 3.543,46.116\H,0,58.628,23.603,47.453\H,0,59.62,24.973,47.074\H,0,57.5
 09,28.33,45.488\H,0,57.196,27.184,44.102\H,0,59.871,26.755,45.133\H,0,
 59.732,28.41,44.797\H,0,59.222,27.179,43.553\H,0,52.299,30.13,47.127\H
 ,0,53.916,30.058,46.36\H,0,53.583,29.283,47.916\H,0,48.641,26.688,44.8
 8\H,0,46.805,28.935,41.545\H,0,46.798,27.234,41.113\H,0,48.232,28.287,
 40.886\H,0,47.353,22.333,38.689\H,0,47.84,20.705,39.208\H,0,50.018,22.
 03,37.819\H,0,48.111,19.036,36.185\H,0,47.218,20.182,35.246\H,0,46.976
 ,20.076,37.039\H,0,50.488,21.738,35.322\H,0,49.553,20.494,34.482\H,0,5
 1.128,19.548,36.864\H,0,52.237,20.426,35.735\H,0,50.896,18.739,33.983\
 H,0,50.923,17.87,35.431\H,0,53.364,18.393,35.69\H,0,54.486,19.84,34.20
 2\H,0,53.107,19.804,32.995\H,0,54.304,18.588,33.078\H,0,52.805,16.181,
 35.188\H,0,54.194,16.528,34.194\H,0,51.62,16.905,32.781\H,0,51.609,15.
 415,33.793\H,0,54.196,15.327,32.381\H,0,52.982,16.067,31.265\H,0,51.79
 1,13.908,31.555\H,0,52.368,12.273,32.868\H,0,53.252,13.397,33.821\H,0,
 54.18,12.471,32.654\H,0,54.651,13.492,30.612\H,0,53.697,14.597,29.686\
 H,0,52.588,12.839,28.709\H,0,52.45,11.882,30.147\H,0,54.348,10.661,29.
 826\H,0,55.227,12.047,29.156\H,0,53.004,11.217,27.337\H,0,53.154,9.015
 ,27.757\H,0,54.785,9.1,28.387\H,0,54.53,9.114,26.631\H,0,55.46,11.16,2
 5.934\H,0,55.841,12.329,27.257\H,0,54.45,12.501,26.203\\Version=ES64L-
 G16RevA.03\State=1-A\HF=-3007.363138\RMSD=4.509e-09\PG=C01 [X(C55H74Mg
 1N4O6)]\\@


 TOWERING GENIUS DISDAINS A BEATEN PATH.  IT SEEKS 
 REGIONS HITHERTO UNEXPLORED.

                                -- ABRAHAM LINCOLN
 Job cpu time:       0 days  5 hours 20 minutes 51.7 seconds.
 Elapsed time:       0 days  0 hours 13 minutes 25.3 seconds.
 File lengths (MBytes):  RWF=   8028 Int=      0 D2E=      0 Chk=    390 Scr=      1
 Normal termination of Gaussian 16 at Wed Apr 27 00:12:21 2022.
