 Entering Gaussian System, Link 0=g16
 Initial command:
 /sw/apps/gaussian-16.0/g16/l1.exe "/tmp/Gau-82088.inp" -scrdir="/tmp/"
 Entering Link 1 = /sw/apps/gaussian-16.0/g16/l1.exe PID=     82089.
  
 Copyright (c) 1988,1990,1992,1993,1995,1998,2003,2009,2016,
            Gaussian, Inc.  All Rights Reserved.
  
 This is part of the Gaussian(R) 16 program.  It is based on
 the Gaussian(R) 09 system (copyright 2009, Gaussian, Inc.),
 the Gaussian(R) 03 system (copyright 2003, Gaussian, Inc.),
 the Gaussian(R) 98 system (copyright 1998, Gaussian, Inc.),
 the Gaussian(R) 94 system (copyright 1995, Gaussian, Inc.),
 the Gaussian 92(TM) system (copyright 1992, Gaussian, Inc.),
 the Gaussian 90(TM) system (copyright 1990, Gaussian, Inc.),
 the Gaussian 88(TM) system (copyright 1988, Gaussian, Inc.),
 the Gaussian 86(TM) system (copyright 1986, Carnegie Mellon
 University), and the Gaussian 82(TM) system (copyright 1983,
 Carnegie Mellon University). Gaussian is a federally registered
 trademark of Gaussian, Inc.
  
 This software contains proprietary and confidential information,
 including trade secrets, belonging to Gaussian, Inc.
  
 This software is provided under written license and may be
 used, copied, transmitted, or stored only in accord with that
 written license.
  
 The following legend is applicable only to US Government
 contracts under FAR:
  
                    RESTRICTED RIGHTS LEGEND
  
 Use, reproduction and disclosure by the US Government is
 subject to restrictions as set forth in subparagraphs (a)
 and (c) of the Commercial Computer Software - Restricted
 Rights clause in FAR 52.227-19.
  
 Gaussian, Inc.
 340 Quinnipiac St., Bldg. 40, Wallingford CT 06492
  
  
 ---------------------------------------------------------------
 Warning -- This program may not be used in any manner that
 competes with the business of Gaussian, Inc. or will provide
 assistance to any competitor of Gaussian, Inc.  The licensee
 of this program is prohibited from giving any competitor of
 Gaussian, Inc. access to this program.  By using this program,
 the user acknowledges that Gaussian, Inc. is engaged in the
 business of creating and licensing software in the field of
 computational chemistry and represents and warrants to the
 licensee that it is not a competitor of Gaussian, Inc. and that
 it will not use this program in any manner prohibited above.
 ---------------------------------------------------------------
  

 Cite this work as:
 Gaussian 16, Revision A.03,
 M. J. Frisch, G. W. Trucks, H. B. Schlegel, G. E. Scuseria, 
 M. A. Robb, J. R. Cheeseman, G. Scalmani, V. Barone, 
 G. A. Petersson, H. Nakatsuji, X. Li, M. Caricato, A. V. Marenich, 
 J. Bloino, B. G. Janesko, R. Gomperts, B. Mennucci, H. P. Hratchian, 
 J. V. Ortiz, A. F. Izmaylov, J. L. Sonnenberg, D. Williams-Young, 
 F. Ding, F. Lipparini, F. Egidi, J. Goings, B. Peng, A. Petrone, 
 T. Henderson, D. Ranasinghe, V. G. Zakrzewski, J. Gao, N. Rega, 
 G. Zheng, W. Liang, M. Hada, M. Ehara, K. Toyota, R. Fukuda, 
 J. Hasegawa, M. Ishida, T. Nakajima, Y. Honda, O. Kitao, H. Nakai, 
 T. Vreven, K. Throssell, J. A. Montgomery, Jr., J. E. Peralta, 
 F. Ogliaro, M. J. Bearpark, J. J. Heyd, E. N. Brothers, K. N. Kudin, 
 V. N. Staroverov, T. A. Keith, R. Kobayashi, J. Normand, 
 K. Raghavachari, A. P. Rendell, J. C. Burant, S. S. Iyengar, 
 J. Tomasi, M. Cossi, J. M. Millam, M. Klene, C. Adamo, R. Cammi, 
 J. W. Ochterski, R. L. Martin, K. Morokuma, O. Farkas, 
 J. B. Foresman, and D. J. Fox, Gaussian, Inc., Wallingford CT, 2016.
 
 ******************************************
 Gaussian 16:  ES64L-G16RevA.03 25-Dec-2016
                 4-May-2022 
 ******************************************
 %nproc=24
 Will use up to   24 processors via shared memory.
 %mem=75GB
 -----------------------------------
 #p cam-b3lyp/Def2SVP td=(nstates=5)
 -----------------------------------
 1/38=1,172=1/1;
 2/12=2,17=6,18=5,40=1/2;
 3/5=43,7=101,11=9,25=1,30=1,74=-40/1,2,3,8;
 4//1;
 5/5=2,38=5/2;
 8/6=1,10=1,108=5/1;
 9/41=5,42=1,70=2/14;
 6/7=2,8=2,9=2,10=2/1;
 99/5=1,9=1/99;
 Leave Link    1 at Wed May  4 15:28:52 2022, MaxMem= 10066329600 cpu:               0.6 elap:               0.0
 (Enter /sw/apps/gaussian-16.0/g16/l101.exe)
 ----------------------------------------------------
 step_1_chromophore_8 TDDFT with cam-b3lyp functional
 ----------------------------------------------------
 Symbolic Z-matrix:
 Charge =  0 Multiplicity = 1
 Mg                    44.805    2.872     46.678 
 C                     42.564    5.571     46.818 
 C                     42.138    0.792     46.357 
 C                     47.013    0.524     46.123 
 C                     47.342    5.378     46.178 
 N                     42.641    3.171     46.669 
 C                     41.942    4.344     46.717 
 C                     40.483    4.049     46.338 
 C                     40.34     2.59      46.757 
 C                     41.789    2.143     46.484 
 C                     39.961    2.426     48.247 
 C                     40.236    4.257     44.798 
 C                     39.269    5.454     44.334 
 C                     39.839    6.574     43.447 
 O                     39.909    7.8       43.735 
 O                     40.258    6.011     42.288 
 N                     44.607    0.937     46.236 
 C                     43.419    0.246     46.169 
 C                     43.72    -1.144     46.025 
 C                     45.142   -1.325     46.069 
 C                     45.676    0.066     46.14 
 C                     42.621   -2.253     45.89 
 C                     45.872   -2.717     46.064 
 O                     45.237   -3.725     46.117 
 C                     47.314   -2.741     46.277 
 N                     46.838    2.954     45.9 
 C                     47.545    1.827     46.153 
 C                     49.019    2.09      46.412 
 C                     49.175    3.562     46.062 
 C                     47.676    4.022     46.033 
 C                     49.446    1.783     47.895 
 C                     49.966    3.979     44.734 
 C                     51.333    4.607     44.784 
 N                     45.003    4.992     46.726 
 C                     46.077    5.865     46.51 
 C                     45.657    7.249     46.552 
 C                     44.294    7.169     46.699 
 C                     43.899    5.793     46.779 
 C                     46.537    8.416     46.377 
 C                     43.082    7.966     46.811 
 O                     42.95     9.194     46.884 
 C                     41.945    6.984     47. 
 C                     41.328    7.264     48.366 
 O                     42.006    7.201     49.389 
 O                     40.001    7.707     48.253 
 C                     39.367    8.023     49.505 
 C                     40.734    6.971     41.278 
 C                     40.929    6.279     39.954 
 C                     39.945    5.903     39.081 
 C                     38.433    6.215     39.304 
 C                     40.231    5.164     37.78 
 C                     40.224    3.607     38.037 
 C                     41.579    2.833     38.222 
 C                     42.051    2.044     36.889 
 C                     42.658    0.718     37.242 
 C                     42.953    2.919     35.904 
 C                     42.39     2.823     34.428 
 C                     42.039    4.13      33.765 
 C                     42.943    4.45      32.506 
 C                     44.091    5.479     32.843 
 C                     42.191    4.949     31.209 
 C                     42.21     3.914     30.017 
 C                     43.423    4.168     29.071 
 C                     43.036    4.286     27.586 
 C                     44.105    5.092     26.712 
 C                     42.825    2.982     26.907 
 H                     41.262    0.143     46.414 
 H                     47.712   -0.302     46.263 
 H                     48.133    6.13      46.137 
 H                     39.873    4.807     46.83 
 H                     39.594    2.126     46.113 
 H                     39.125    1.738     48.126 
 H                     39.668    3.426     48.568 
 H                     40.731    2.033     48.911 
 H                     39.762    3.35      44.423 
 H                     41.21     4.308     44.312 
 H                     38.982    5.962     45.255 
 H                     38.337    5.132     43.871 
 H                     42.716   -2.971     45.076 
 H                     41.68    -1.717     45.762 
 H                     42.518   -2.855     46.793 
 H                     47.887   -2.174     45.543 
 H                     47.646   -3.779     46.258 
 H                     47.544   -2.496     47.313 
 H                     49.67     1.444     45.822 
 H                     49.627    4.102     46.894 
 H                     49.918    0.808     48.015 
 H                     48.604    1.968     48.562 
 H                     50.202    2.521     48.167 
 H                     49.412    4.488     43.946 
 H                     50.095    2.959     44.371 
 H                     52.118    3.973     44.373 
 H                     51.6      4.817     45.82 
 H                     51.226    5.529     44.213 
 H                     47.399    8.096     45.791 
 H                     46.889    8.667     47.378 
 H                     45.995    9.266     45.965 
 H                     41.251    7.276     46.213 
 H                     39.046    7.156     50.083 
 H                     38.484    8.645     49.361 
 H                     39.982    8.613     50.184 
 H                     41.72     7.217     41.674 
 H                     40.076    7.834     41.171 
 H                     41.954    6.089     39.635 
 H                     38.257    6.543     40.328 
 H                     37.775    5.354     39.189 
 H                     38.187    6.844     38.448 
 H                     41.162    5.507     37.33 
 H                     39.514    5.279     36.967 
 H                     39.716    3.107     37.212 
 H                     39.546    3.342     38.849 
 H                     41.625    2.262     39.15 
 H                     42.353    3.598     38.283 
 H                     41.131    1.716     36.406 
 H                     42.012   -0.12      36.979 
 H                     42.765    0.593     38.32 
 H                     43.605    0.622     36.711 
 H                     44.01     2.654     35.941 
 H                     42.985    3.944     36.272 
 H                     41.403    2.362     34.48 
 H                     43.085    2.245     33.819 
 H                     41.986    4.989     34.433 
 H                     41.048    4.17      33.313 
 H                     43.496    3.585     32.14 
 H                     44.209    6.321     32.162 
 H                     45.058    4.977     32.853 
 H                     44.014    5.897     33.847 
 H                     42.608    5.793     30.661 
 H                     41.161    5.217     31.442 
 H                     41.256    3.929     29.49 
 H                     42.306    2.972     30.557 
 H                     44.006    3.266     29.259 
 H                     44.045    5.047     29.244 
 H                     42.148    4.914     27.507 
 H                     43.632    6.071     26.646 
 H                     44.187    4.595     25.746 
 H                     45.085    5.06      27.188 
 H                     42.139    3.354     26.145 
 H                     42.235    2.317     27.538 
 H                     43.741    2.653     26.415 
 
 ITRead=  0  0  0  0  0  0  0  0  0  0  0  0  0  0  0  0  0  0  0  0
 ITRead=  0  0  0  0  0  0  0  0  0  0  0  0  0  0  0  0  0  0  0  0
 ITRead=  0  0  0  0  0  0  0  0  0  0  0  0  0  0  0  0  0  0  0  0
 ITRead=  0  0  0  0  0  0  0  0  0  0  0  0  0  0  0  0  0  0  0  0
 ITRead=  0  0  0  0  0  0  0  0  0  0  0  0  0  0  0  0  0  0  0  0
 ITRead=  0  0  0  0  0  0  0  0  0  0  0  0  0  0  0  0  0  0  0  0
 ITRead=  0  0  0  0  0  0  0  0  0  0  0  0  0  0  0  0  0  0  0  0
 MicOpt= -1 -1 -1 -1 -1 -1 -1 -1 -1 -1 -1 -1 -1 -1 -1 -1 -1 -1 -1 -1
 MicOpt= -1 -1 -1 -1 -1 -1 -1 -1 -1 -1 -1 -1 -1 -1 -1 -1 -1 -1 -1 -1
 MicOpt= -1 -1 -1 -1 -1 -1 -1 -1 -1 -1 -1 -1 -1 -1 -1 -1 -1 -1 -1 -1
 MicOpt= -1 -1 -1 -1 -1 -1 -1 -1 -1 -1 -1 -1 -1 -1 -1 -1 -1 -1 -1 -1
 MicOpt= -1 -1 -1 -1 -1 -1 -1 -1 -1 -1 -1 -1 -1 -1 -1 -1 -1 -1 -1 -1
 MicOpt= -1 -1 -1 -1 -1 -1 -1 -1 -1 -1 -1 -1 -1 -1 -1 -1 -1 -1 -1 -1
 MicOpt= -1 -1 -1 -1 -1 -1 -1 -1 -1 -1 -1 -1 -1 -1 -1 -1 -1 -1 -1 -1
 NAtoms=    140 NQM=      140 NQMF=       0 NMMI=      0 NMMIF=      0
                NMic=       0 NMicF=      0.
                    Isotopes and Nuclear Properties:
 (Nuclear quadrupole moments (NQMom) in fm**2, nuclear magnetic moments (NMagM)
  in nuclear magnetons)

  Atom         1           2           3           4           5           6           7           8           9          10
 IAtWgt=          24          12          12          12          12          14          12          12          12          12
 AtmWgt=  23.9850450  12.0000000  12.0000000  12.0000000  12.0000000  14.0030740  12.0000000  12.0000000  12.0000000  12.0000000
 NucSpn=           0           0           0           0           0           2           0           0           0           0
 AtZEff=  -0.0000000  -0.0000000  -0.0000000  -0.0000000  -0.0000000  -0.0000000  -0.0000000  -0.0000000  -0.0000000  -0.0000000
 NQMom=    0.0000000   0.0000000   0.0000000   0.0000000   0.0000000   2.0440000   0.0000000   0.0000000   0.0000000   0.0000000
 NMagM=    0.0000000   0.0000000   0.0000000   0.0000000   0.0000000   0.4037610   0.0000000   0.0000000   0.0000000   0.0000000
 AtZNuc=  12.0000000   6.0000000   6.0000000   6.0000000   6.0000000   7.0000000   6.0000000   6.0000000   6.0000000   6.0000000

  Atom        11          12          13          14          15          16          17          18          19          20
 IAtWgt=          12          12          12          12          16          16          14          12          12          12
 AtmWgt=  12.0000000  12.0000000  12.0000000  12.0000000  15.9949146  15.9949146  14.0030740  12.0000000  12.0000000  12.0000000
 NucSpn=           0           0           0           0           0           0           2           0           0           0
 AtZEff=  -0.0000000  -0.0000000  -0.0000000  -0.0000000  -0.0000000  -0.0000000  -0.0000000  -0.0000000  -0.0000000  -0.0000000
 NQMom=    0.0000000   0.0000000   0.0000000   0.0000000   0.0000000   0.0000000   2.0440000   0.0000000   0.0000000   0.0000000
 NMagM=    0.0000000   0.0000000   0.0000000   0.0000000   0.0000000   0.0000000   0.4037610   0.0000000   0.0000000   0.0000000
 AtZNuc=   6.0000000   6.0000000   6.0000000   6.0000000   8.0000000   8.0000000   7.0000000   6.0000000   6.0000000   6.0000000

  Atom        21          22          23          24          25          26          27          28          29          30
 IAtWgt=          12          12          12          16          12          14          12          12          12          12
 AtmWgt=  12.0000000  12.0000000  12.0000000  15.9949146  12.0000000  14.0030740  12.0000000  12.0000000  12.0000000  12.0000000
 NucSpn=           0           0           0           0           0           2           0           0           0           0
 AtZEff=  -0.0000000  -0.0000000  -0.0000000  -0.0000000  -0.0000000  -0.0000000  -0.0000000  -0.0000000  -0.0000000  -0.0000000
 NQMom=    0.0000000   0.0000000   0.0000000   0.0000000   0.0000000   2.0440000   0.0000000   0.0000000   0.0000000   0.0000000
 NMagM=    0.0000000   0.0000000   0.0000000   0.0000000   0.0000000   0.4037610   0.0000000   0.0000000   0.0000000   0.0000000
 AtZNuc=   6.0000000   6.0000000   6.0000000   8.0000000   6.0000000   7.0000000   6.0000000   6.0000000   6.0000000   6.0000000

  Atom        31          32          33          34          35          36          37          38          39          40
 IAtWgt=          12          12          12          14          12          12          12          12          12          12
 AtmWgt=  12.0000000  12.0000000  12.0000000  14.0030740  12.0000000  12.0000000  12.0000000  12.0000000  12.0000000  12.0000000
 NucSpn=           0           0           0           2           0           0           0           0           0           0
 AtZEff=  -0.0000000  -0.0000000  -0.0000000  -0.0000000  -0.0000000  -0.0000000  -0.0000000  -0.0000000  -0.0000000  -0.0000000
 NQMom=    0.0000000   0.0000000   0.0000000   2.0440000   0.0000000   0.0000000   0.0000000   0.0000000   0.0000000   0.0000000
 NMagM=    0.0000000   0.0000000   0.0000000   0.4037610   0.0000000   0.0000000   0.0000000   0.0000000   0.0000000   0.0000000
 AtZNuc=   6.0000000   6.0000000   6.0000000   7.0000000   6.0000000   6.0000000   6.0000000   6.0000000   6.0000000   6.0000000

  Atom        41          42          43          44          45          46          47          48          49          50
 IAtWgt=          16          12          12          16          16          12          12          12          12          12
 AtmWgt=  15.9949146  12.0000000  12.0000000  15.9949146  15.9949146  12.0000000  12.0000000  12.0000000  12.0000000  12.0000000
 NucSpn=           0           0           0           0           0           0           0           0           0           0
 AtZEff=  -0.0000000  -0.0000000  -0.0000000  -0.0000000  -0.0000000  -0.0000000  -0.0000000  -0.0000000  -0.0000000  -0.0000000
 NQMom=    0.0000000   0.0000000   0.0000000   0.0000000   0.0000000   0.0000000   0.0000000   0.0000000   0.0000000   0.0000000
 NMagM=    0.0000000   0.0000000   0.0000000   0.0000000   0.0000000   0.0000000   0.0000000   0.0000000   0.0000000   0.0000000
 AtZNuc=   8.0000000   6.0000000   6.0000000   8.0000000   8.0000000   6.0000000   6.0000000   6.0000000   6.0000000   6.0000000

  Atom        51          52          53          54          55          56          57          58          59          60
 IAtWgt=          12          12          12          12          12          12          12          12          12          12
 AtmWgt=  12.0000000  12.0000000  12.0000000  12.0000000  12.0000000  12.0000000  12.0000000  12.0000000  12.0000000  12.0000000
 NucSpn=           0           0           0           0           0           0           0           0           0           0
 AtZEff=  -0.0000000  -0.0000000  -0.0000000  -0.0000000  -0.0000000  -0.0000000  -0.0000000  -0.0000000  -0.0000000  -0.0000000
 NQMom=    0.0000000   0.0000000   0.0000000   0.0000000   0.0000000   0.0000000   0.0000000   0.0000000   0.0000000   0.0000000
 NMagM=    0.0000000   0.0000000   0.0000000   0.0000000   0.0000000   0.0000000   0.0000000   0.0000000   0.0000000   0.0000000
 AtZNuc=   6.0000000   6.0000000   6.0000000   6.0000000   6.0000000   6.0000000   6.0000000   6.0000000   6.0000000   6.0000000

  Atom        61          62          63          64          65          66          67          68          69          70
 IAtWgt=          12          12          12          12          12          12           1           1           1           1
 AtmWgt=  12.0000000  12.0000000  12.0000000  12.0000000  12.0000000  12.0000000   1.0078250   1.0078250   1.0078250   1.0078250
 NucSpn=           0           0           0           0           0           0           1           1           1           1
 AtZEff=  -0.0000000  -0.0000000  -0.0000000  -0.0000000  -0.0000000  -0.0000000  -0.0000000  -0.0000000  -0.0000000  -0.0000000
 NQMom=    0.0000000   0.0000000   0.0000000   0.0000000   0.0000000   0.0000000   0.0000000   0.0000000   0.0000000   0.0000000
 NMagM=    0.0000000   0.0000000   0.0000000   0.0000000   0.0000000   0.0000000   2.7928460   2.7928460   2.7928460   2.7928460
 AtZNuc=   6.0000000   6.0000000   6.0000000   6.0000000   6.0000000   6.0000000   1.0000000   1.0000000   1.0000000   1.0000000

  Atom        71          72          73          74          75          76          77          78          79          80
 IAtWgt=           1           1           1           1           1           1           1           1           1           1
 AtmWgt=   1.0078250   1.0078250   1.0078250   1.0078250   1.0078250   1.0078250   1.0078250   1.0078250   1.0078250   1.0078250
 NucSpn=           1           1           1           1           1           1           1           1           1           1
 AtZEff=  -0.0000000  -0.0000000  -0.0000000  -0.0000000  -0.0000000  -0.0000000  -0.0000000  -0.0000000  -0.0000000  -0.0000000
 NQMom=    0.0000000   0.0000000   0.0000000   0.0000000   0.0000000   0.0000000   0.0000000   0.0000000   0.0000000   0.0000000
 NMagM=    2.7928460   2.7928460   2.7928460   2.7928460   2.7928460   2.7928460   2.7928460   2.7928460   2.7928460   2.7928460
 AtZNuc=   1.0000000   1.0000000   1.0000000   1.0000000   1.0000000   1.0000000   1.0000000   1.0000000   1.0000000   1.0000000

  Atom        81          82          83          84          85          86          87          88          89          90
 IAtWgt=           1           1           1           1           1           1           1           1           1           1
 AtmWgt=   1.0078250   1.0078250   1.0078250   1.0078250   1.0078250   1.0078250   1.0078250   1.0078250   1.0078250   1.0078250
 NucSpn=           1           1           1           1           1           1           1           1           1           1
 AtZEff=  -0.0000000  -0.0000000  -0.0000000  -0.0000000  -0.0000000  -0.0000000  -0.0000000  -0.0000000  -0.0000000  -0.0000000
 NQMom=    0.0000000   0.0000000   0.0000000   0.0000000   0.0000000   0.0000000   0.0000000   0.0000000   0.0000000   0.0000000
 NMagM=    2.7928460   2.7928460   2.7928460   2.7928460   2.7928460   2.7928460   2.7928460   2.7928460   2.7928460   2.7928460
 AtZNuc=   1.0000000   1.0000000   1.0000000   1.0000000   1.0000000   1.0000000   1.0000000   1.0000000   1.0000000   1.0000000

  Atom        91          92          93          94          95          96          97          98          99         100
 IAtWgt=           1           1           1           1           1           1           1           1           1           1
 AtmWgt=   1.0078250   1.0078250   1.0078250   1.0078250   1.0078250   1.0078250   1.0078250   1.0078250   1.0078250   1.0078250
 NucSpn=           1           1           1           1           1           1           1           1           1           1
 AtZEff=  -0.0000000  -0.0000000  -0.0000000  -0.0000000  -0.0000000  -0.0000000  -0.0000000  -0.0000000  -0.0000000  -0.0000000
 NQMom=    0.0000000   0.0000000   0.0000000   0.0000000   0.0000000   0.0000000   0.0000000   0.0000000   0.0000000   0.0000000
 NMagM=    2.7928460   2.7928460   2.7928460   2.7928460   2.7928460   2.7928460   2.7928460   2.7928460   2.7928460   2.7928460
 AtZNuc=   1.0000000   1.0000000   1.0000000   1.0000000   1.0000000   1.0000000   1.0000000   1.0000000   1.0000000   1.0000000

  Atom       101         102         103         104         105         106         107         108         109         110
 IAtWgt=           1           1           1           1           1           1           1           1           1           1
 AtmWgt=   1.0078250   1.0078250   1.0078250   1.0078250   1.0078250   1.0078250   1.0078250   1.0078250   1.0078250   1.0078250
 NucSpn=           1           1           1           1           1           1           1           1           1           1
 AtZEff=  -0.0000000  -0.0000000  -0.0000000  -0.0000000  -0.0000000  -0.0000000  -0.0000000  -0.0000000  -0.0000000  -0.0000000
 NQMom=    0.0000000   0.0000000   0.0000000   0.0000000   0.0000000   0.0000000   0.0000000   0.0000000   0.0000000   0.0000000
 NMagM=    2.7928460   2.7928460   2.7928460   2.7928460   2.7928460   2.7928460   2.7928460   2.7928460   2.7928460   2.7928460
 AtZNuc=   1.0000000   1.0000000   1.0000000   1.0000000   1.0000000   1.0000000   1.0000000   1.0000000   1.0000000   1.0000000

  Atom       111         112         113         114         115         116         117         118         119         120
 IAtWgt=           1           1           1           1           1           1           1           1           1           1
 AtmWgt=   1.0078250   1.0078250   1.0078250   1.0078250   1.0078250   1.0078250   1.0078250   1.0078250   1.0078250   1.0078250
 NucSpn=           1           1           1           1           1           1           1           1           1           1
 AtZEff=  -0.0000000  -0.0000000  -0.0000000  -0.0000000  -0.0000000  -0.0000000  -0.0000000  -0.0000000  -0.0000000  -0.0000000
 NQMom=    0.0000000   0.0000000   0.0000000   0.0000000   0.0000000   0.0000000   0.0000000   0.0000000   0.0000000   0.0000000
 NMagM=    2.7928460   2.7928460   2.7928460   2.7928460   2.7928460   2.7928460   2.7928460   2.7928460   2.7928460   2.7928460
 AtZNuc=   1.0000000   1.0000000   1.0000000   1.0000000   1.0000000   1.0000000   1.0000000   1.0000000   1.0000000   1.0000000

  Atom       121         122         123         124         125         126         127         128         129         130
 IAtWgt=           1           1           1           1           1           1           1           1           1           1
 AtmWgt=   1.0078250   1.0078250   1.0078250   1.0078250   1.0078250   1.0078250   1.0078250   1.0078250   1.0078250   1.0078250
 NucSpn=           1           1           1           1           1           1           1           1           1           1
 AtZEff=  -0.0000000  -0.0000000  -0.0000000  -0.0000000  -0.0000000  -0.0000000  -0.0000000  -0.0000000  -0.0000000  -0.0000000
 NQMom=    0.0000000   0.0000000   0.0000000   0.0000000   0.0000000   0.0000000   0.0000000   0.0000000   0.0000000   0.0000000
 NMagM=    2.7928460   2.7928460   2.7928460   2.7928460   2.7928460   2.7928460   2.7928460   2.7928460   2.7928460   2.7928460
 AtZNuc=   1.0000000   1.0000000   1.0000000   1.0000000   1.0000000   1.0000000   1.0000000   1.0000000   1.0000000   1.0000000

  Atom       131         132         133         134         135         136         137         138         139         140
 IAtWgt=           1           1           1           1           1           1           1           1           1           1
 AtmWgt=   1.0078250   1.0078250   1.0078250   1.0078250   1.0078250   1.0078250   1.0078250   1.0078250   1.0078250   1.0078250
 NucSpn=           1           1           1           1           1           1           1           1           1           1
 AtZEff=  -0.0000000  -0.0000000  -0.0000000  -0.0000000  -0.0000000  -0.0000000  -0.0000000  -0.0000000  -0.0000000  -0.0000000
 NQMom=    0.0000000   0.0000000   0.0000000   0.0000000   0.0000000   0.0000000   0.0000000   0.0000000   0.0000000   0.0000000
 NMagM=    2.7928460   2.7928460   2.7928460   2.7928460   2.7928460   2.7928460   2.7928460   2.7928460   2.7928460   2.7928460
 AtZNuc=   1.0000000   1.0000000   1.0000000   1.0000000   1.0000000   1.0000000   1.0000000   1.0000000   1.0000000   1.0000000
 Leave Link  101 at Wed May  4 15:28:52 2022, MaxMem= 10066329600 cpu:               2.8 elap:               0.1
 (Enter /sw/apps/gaussian-16.0/g16/l202.exe)
 Stoichiometry    C55H74MgN4O6
 Framework group  C1[X(C55H74MgN4O6)]
 Deg. of freedom   414
 Full point group                 C1      NOp   1
 Largest Abelian subgroup         C1      NOp   1
 Largest concise Abelian subgroup C1      NOp   1
                         Standard orientation:                         
 ---------------------------------------------------------------------
 Center     Atomic      Atomic             Coordinates (Angstroms)
 Number     Number       Type             X           Y           Z
 ---------------------------------------------------------------------
      1         12           0        4.394167    1.225056    0.007282
      2          6           0        4.173500   -2.261166    0.359197
      3          6           0        3.818528    0.834624   -3.318155
      4          6           0        4.187795    4.487579   -0.091429
      5          6           0        4.125779    1.315191    3.597024
      6          7           0        4.112467   -0.510202   -1.289599
      7          6           0        4.037253   -1.829927   -0.943908
      8          6           0        3.493377   -2.611435   -2.149227
      9          6           0        3.938727   -1.736593   -3.315849
     10          6           0        3.858502   -0.371402   -2.606091
     11          6           0        5.376097   -2.051967   -3.790342
     12          6           0        1.928868   -2.763104   -2.077248
     13          6           0        1.312361   -4.232796   -1.869598
     14          6           0        0.465585   -4.517872   -0.617491
     15          8           0        0.720260   -5.358326    0.287881
     16          8           0       -0.615098   -3.701428   -0.654265
     17          7           0        3.994024    2.488423   -1.483550
     18          6           0        3.805395    2.141304   -2.801595
     19          6           0        3.743978    3.342624   -3.573925
     20          6           0        3.966371    4.467893   -2.713058
     21          6           0        4.056866    3.863016   -1.352539
     22          6           0        3.512195    3.358394   -5.123743
     23          6           0        4.095078    5.958127   -3.195996
     24          8           0        4.102962    6.210036   -4.361576
     25          6           0        4.482496    6.969121   -2.219724
     26          7           0        3.866900    2.687103    1.533553
     27          6           0        4.240211    3.947383    1.207484
     28          6           0        4.667897    4.774988    2.407934
     29          6           0        4.292161    3.892679    3.588600
     30          6           0        4.066285    2.516100    2.872045
     31          6           0        6.200939    5.129206    2.394557
     32          6           0        3.057438    4.303921    4.521067
     33          6           0        3.252999    4.823307    5.920198
     34          7           0        4.397472   -0.124795    1.654644
     35          6           0        4.285617    0.045377    3.040570
     36          6           0        4.231568   -1.224565    3.731907
     37          6           0        4.214251   -2.146331    2.714153
     38          6           0        4.289974   -1.470376    1.451952
     39          6           0        4.127314   -1.401600    5.189544
     40          6           0        4.152281   -3.571761    2.429533
     41          8           0        4.169037   -4.532656    3.208723
     42          6           0        4.233207   -3.707119    0.923564
     43          6           0        5.504300   -4.487743    0.607346
     44          8           0        6.603645   -4.077004    0.971923
     45          8           0        5.216554   -5.721881    0.003980
     46          6           0        6.371325   -6.527251   -0.291318
     47          6           0       -1.590165   -3.927369    0.425768
     48          6           0       -2.857613   -3.160632    0.150897
     49          6           0       -3.831196   -3.496303   -0.749782
     50          6           0       -3.803880   -4.805964   -1.596694
     51          6           0       -5.063246   -2.634963   -0.996083
     52          6           0       -4.758912   -1.577848   -2.127558
     53          6           0       -4.385656   -0.100070   -1.745228
     54          6           0       -5.625222    0.931013   -1.895348
     55          6           0       -5.158445    2.249138   -2.439406
     56          6           0       -6.520947    1.062435   -0.580107
     57          6           0       -8.050581    0.893653   -0.949556
     58          6           0       -8.793155   -0.196672   -0.220999
     59          6           0       -9.942557    0.354678    0.716864
     60          6           0       -9.501840    0.407426    2.231229
     61          6           0      -11.336788   -0.383605    0.628701
     62          6           0      -12.483620    0.484678   -0.021921
     63          6           0      -13.282807    1.266070    1.065060
     64          6           0      -14.806873    1.072623    0.971679
     65          6           0      -15.569948    1.358062    2.347365
     66          6           0      -15.464069    1.910916   -0.063375
     67          1           0        3.789497    0.664696   -4.396166
     68          1           0        4.438322    5.543814   -0.201341
     69          1           0        4.157025    1.351280    4.688165
     70          1           0        3.882845   -3.626307   -2.065103
     71          1           0        3.224103   -1.867739   -4.127428
     72          1           0        5.176601   -2.146920   -4.857144
     73          1           0        5.626661   -2.993922   -3.301641
     74          1           0        6.141125   -1.306045   -3.574526
     75          1           0        1.528471   -2.421552   -3.031698
     76          1           0        1.563515   -2.058472   -1.330600
     77          1           0        2.174760   -4.891593   -1.765059
     78          1           0        0.750102   -4.614376   -2.721032
     79          1           0        2.739375    4.017059   -5.518779
     80          1           0        3.253503    2.333138   -5.390369
     81          1           0        4.414917    3.608556   -5.681357
     82          1           0        3.805709    7.056629   -1.369504
     83          1           0        4.537500    7.932207   -2.727139
     84          1           0        5.530329    6.846690   -1.949025
     85          1           0        4.182579    5.751080    2.438431
     86          1           0        5.155091    3.742632    4.237418
     87          1           0        6.408829    6.131779    2.021143
     88          1           0        6.754291    4.332703    1.897101
     89          1           0        6.538895    5.116207    3.431755
     90          1           0        2.191916    3.642736    4.546516
     91          1           0        2.745911    5.148750    3.906230
     92          1           0        2.961166    5.865990    6.041637
     93          1           0        4.306460    4.751488    6.191763
     94          1           0        2.643783    4.164653    6.538748
     95          1           0        3.661105   -0.505314    5.599618
     96          1           0        5.155065   -1.438326    5.551875
     97          1           0        3.625264   -2.334145    5.443143
     98          1           0        3.358654   -4.315264    0.696436
     99          1           0        6.933670   -6.209862   -1.169866
    100          1           0        6.101038   -7.570047   -0.455115
    101          1           0        7.100677   -6.580580    0.516498
    102          1           0       -1.085357   -3.447156    1.264870
    103          1           0       -1.804162   -4.984185    0.588636
    104          1           0       -3.043318   -2.269524    0.750836
    105          1           0       -2.819996   -5.271667   -1.549477
    106          1           0       -3.970199   -4.654851   -2.663002
    107          1           0       -4.703282   -5.326416   -1.266393
    108          1           0       -5.407533   -2.169048   -0.073424
    109          1           0       -5.960679   -3.132570   -1.363894
    110          1           0       -5.622997   -1.496084   -2.787376
    111          1           0       -4.027253   -1.959409   -2.840539
    112          1           0       -3.441015    0.230789   -2.178271
    113          1           0       -4.255706   -0.096221   -0.663044
    114          1           0       -6.205669    0.564286   -2.741436
    115          1           0       -5.470871    2.408783   -3.471700
    116          1           0       -4.071966    2.294385   -2.521103
    117          1           0       -5.566982    3.042557   -1.813650
    118          1           0       -6.347169    1.989741   -0.033528
    119          1           0       -6.185045    0.327159    0.150381
    120          1           0       -8.104135    0.514322   -1.970651
    121          1           0       -8.551591    1.855255   -0.838655
    122          1           0       -8.164617   -0.908473    0.313035
    123          1           0       -9.363353   -0.874537   -0.856104
    124          1           0      -10.210505    1.390482    0.508769
    125          1           0      -10.190244   -0.024441    2.956652
    126          1           0       -9.358146    1.440114    2.547617
    127          1           0       -8.528663   -0.049251    2.413000
    128          1           0      -11.856957   -0.620431    1.555991
    129          1           0      -11.239524   -1.323457    0.086271
    130          1           0      -13.122917   -0.141383   -0.644349
    131          1           0      -11.905849    1.152960   -0.660482
    132          1           0      -12.996315    2.288424    0.816964
    133          1           0      -13.063906    1.070617    2.115458
    134          1           0      -15.013478    0.014996    0.804617
    135          1           0      -15.724518    0.346083    2.719565
    136          1           0      -16.502270    1.869428    2.110366
    137          1           0      -14.977536    2.019943    2.979000
    138          1           0      -16.315428    1.249673   -0.229416
    139          1           0      -14.888369    1.891281   -0.988940
    140          1           0      -15.830169    2.841335    0.372115
 ---------------------------------------------------------------------
 Rotational constants (GHZ):           0.0326603           0.0125239           0.0111604
 Leave Link  202 at Wed May  4 15:28:52 2022, MaxMem= 10066329600 cpu:               0.2 elap:               0.0
 (Enter /sw/apps/gaussian-16.0/g16/l301.exe)
 Standard basis: def2SVP (5D, 7F)
 Ernie: Thresh=  0.10000D-02 Tol=  0.10000D-05 Strict=F.
 There are  1364 symmetry adapted cartesian basis functions of A   symmetry.
 There are  1298 symmetry adapted basis functions of A   symmetry.
  1298 basis functions,  2180 primitive gaussians,  1364 cartesian basis functions
   246 alpha electrons      246 beta electrons
       nuclear repulsion energy      9764.9372007717 Hartrees.
 IExCor=20419 DFT=T Ex+Corr=CAM-B3LYP ExCW=0 ScaHFX=  1.000000
 ScaDFX=  1.000000  1.000000  1.000000  0.810000 ScalE2=  1.000000  1.000000
 IRadAn=      5 IRanWt=     -1 IRanGd=            0 ICorTp=0 IEmpDi=  4
 HFx  wShort=  0.000000 wLong=  0.330000 cFull=  0.190000 cShort=  0.000000 cLong=  0.460000
 DFx  wShort=  0.000000 wLong=  0.330000 cFull=  0.190000 cShort=  0.000000 cLong=  0.460000
 NAtoms=  140 NActive=  140 NUniq=  140 SFac= 1.00D+00 NAtFMM=   60 NAOKFM=T Big=T
 Integral buffers will be    131072 words long.
 Raffenetti 1 integral format.
 Two-electron integral symmetry is turned on.
 Leave Link  301 at Wed May  4 15:28:52 2022, MaxMem= 10066329600 cpu:               1.3 elap:               0.1
 (Enter /sw/apps/gaussian-16.0/g16/l302.exe)
 NPDir=0 NMtPBC=     1 NCelOv=     1 NCel=       1 NClECP=     1 NCelD=      1
         NCelK=      1 NCelE2=     1 NClLst=     1 CellRange=     0.0.
 One-electron integrals computed using PRISM.
 One-electron integral symmetry used in STVInt
   1 Symmetry operations used in ECPInt.
 ECPInt:  NShTT=  192510 NPrTT=  683786 LenC2=  100812 LenP2D=  217102.
 LDataN:  DoStor=T MaxTD1= 4 Len=   56
 NBasis=  1298 RedAO= T EigKep=  2.54D-04  NBF=  1298
 NBsUse=  1298 1.00D-06 EigRej= -1.00D+00 NBFU=  1298
 Precomputing XC quadrature grid using
 IXCGrd= 4 IRadAn=           5 IRanWt=          -1 IRanGd=           0 AccXCQ= 0.00D+00.
 Generated NRdTot=       0 NPtTot=           0 NUsed=           0 NTot=          32
 NSgBfM=  1006   967   974   985  1006 MxSgAt=   140 MxSgA2=   140.
 Leave Link  302 at Wed May  4 15:28:56 2022, MaxMem= 10066329600 cpu:              93.2 elap:               3.9
 (Enter /sw/apps/gaussian-16.0/g16/l303.exe)
 DipDrv:  MaxL=1.
 Leave Link  303 at Wed May  4 15:28:56 2022, MaxMem= 10066329600 cpu:               6.4 elap:               0.3
 (Enter /sw/apps/gaussian-16.0/g16/l308.exe)
 Leave Link  308 at Wed May  4 15:28:57 2022, MaxMem= 10066329600 cpu:              10.3 elap:               0.5
 (Enter /sw/apps/gaussian-16.0/g16/l401.exe)
 ExpMin= 3.36D-02 ExpMax= 4.95D+03 ExpMxC= 7.45D+02 IAcc=3 IRadAn=         5 AccDes= 0.00D+00
 Harris functional with IExCor=20419 and IRadAn=       5 diagonalized for initial guess.
 HarFok:  IExCor=20419 AccDes= 0.00D+00 IRadAn=         5 IDoV= 1 UseB2=F ITyADJ=14
 ICtDFT=  3500011 ScaDFX=  1.000000  1.000000  1.000000  1.000000
 FoFCou: FMM=F IPFlag=           0 FMFlag=      100000 FMFlg1=        2001
         NFxFlg=           0 DoJE=T BraDBF=F KetDBF=T FulRan=T
         wScrn=  0.000000 ICntrl=       500 IOpCl=  0 I1Cent=   200000004 NGrid=           0
         NMat0=    1 NMatS0=      1 NMatT0=    0 NMatD0=    1 NMtDS0=    0 NMtDT0=    0
 Petite list used in FoFCou.
 Harris En= -2890.85800430963    
 JPrj=0 DoOrth=F DoCkMO=F.
 Leave Link  401 at Wed May  4 15:29:03 2022, MaxMem= 10066329600 cpu:             142.8 elap:               6.0
 (Enter /sw/apps/gaussian-16.0/g16/l502.exe)
 Integral symmetry usage will be decided dynamically.
 Closed shell SCF:
 Using DIIS extrapolation, IDIIS=  1040.
 NGot= 10066329600 LenX= 10062561258 LenY= 10060699398
 Requested convergence on RMS density matrix=1.00D-08 within 128 cycles.
 Requested convergence on MAX density matrix=1.00D-06.
 Requested convergence on             energy=1.00D-06.
 No special actions if energy rises.
 Fock matrices will be formed incrementally for  20 cycles.

 Cycle   1  Pass 1  IDiag  1:
 FoFJK:  IHMeth= 1 ICntrl=       0 DoSepK=T KAlg= 0 I1Cent=           0 FoldK=F
 IRaf=         1 NMat=       1 IRICut=       1 DoRegI=T DoRafI=F ISym2E= 0 IDoP0=0 IntGTp=1.
 FoFCou: FMM=T IPFlag=           0 FMFlag=      100000 FMFlg1=        2001
         NFxFlg=           0 DoJE=T BraDBF=F KetDBF=F FulRan=T
         wScrn=  0.000000 ICntrl=       500 IOpCl=  0 I1Cent=           0 NGrid=           0
         NMat0=    1 NMatS0=      1 NMatT0=    0 NMatD0=    1 NMtDS0=    0 NMtDT0=    0
 Symmetry not used in FoFCou.
 FMM levels:  10  Number of levels for PrismC:   9
 E= -3006.48605045649    
 DIIS: error= 2.25D-02 at cycle   1 NSaved=   1.
 NSaved= 1 IEnMin= 1 EnMin= -3006.48605045649     IErMin= 1 ErrMin= 2.25D-02
 ErrMax= 2.25D-02  0.00D+00 EMaxC= 1.00D-01 BMatC= 1.26D+00 BMatP= 1.26D+00
 IDIUse=3 WtCom= 7.75D-01 WtEn= 2.25D-01
 Coeff-Com:  0.100D+01
 Coeff-En:   0.100D+01
 Coeff:      0.100D+01
 Gap=     0.130 Goal=   None    Shift=    0.000
 GapD=    0.130 DampG=1.000 DampE=0.500 DampFc=0.5000 IDamp=-1.
 Damping current iteration by 5.00D-01
 RMSDP=1.52D-03 MaxDP=1.69D-01              OVMax= 1.90D-01

 Cycle   2  Pass 1  IDiag  1:
 RMSU=  7.45D-04    CP:  9.85D-01
 E= -3006.79081754354     Delta-E=       -0.304767087049 Rises=F Damp=T
 DIIS: error= 1.36D-02 at cycle   2 NSaved=   2.
 NSaved= 2 IEnMin= 2 EnMin= -3006.79081754354     IErMin= 2 ErrMin= 1.36D-02
 ErrMax= 1.36D-02  0.00D+00 EMaxC= 1.00D-01 BMatC= 2.30D-01 BMatP= 1.26D+00
 IDIUse=3 WtCom= 8.64D-01 WtEn= 1.36D-01
 Coeff-Com: -0.234D+00 0.123D+01
 Coeff-En:   0.000D+00 0.100D+01
 Coeff:     -0.203D+00 0.120D+01
 Gap=     0.140 Goal=   None    Shift=    0.000
 RMSDP=7.10D-04 MaxDP=6.31D-02 DE=-3.05D-01 OVMax= 1.64D-01

 Cycle   3  Pass 1  IDiag  1:
 RMSU=  6.89D-04    CP:  9.75D-01  1.20D+00
 E= -3007.02007732706     Delta-E=       -0.229259783526 Rises=F Damp=F
 DIIS: error= 1.26D-02 at cycle   3 NSaved=   3.
 NSaved= 3 IEnMin= 3 EnMin= -3007.02007732706     IErMin= 3 ErrMin= 1.26D-02
 ErrMax= 1.26D-02  0.00D+00 EMaxC= 1.00D-01 BMatC= 1.41D-01 BMatP= 2.30D-01
 IDIUse=3 WtCom= 8.74D-01 WtEn= 1.26D-01
 Coeff-Com: -0.267D+00 0.650D+00 0.617D+00
 Coeff-En:   0.000D+00 0.000D+00 0.100D+01
 Coeff:     -0.233D+00 0.568D+00 0.665D+00
 Gap=     0.130 Goal=   None    Shift=    0.000
 RMSDP=4.75D-04 MaxDP=5.06D-02 DE=-2.29D-01 OVMax= 1.23D-01

 Cycle   4  Pass 1  IDiag  1:
 RMSU=  2.67D-04    CP:  9.72D-01  1.51D+00  5.40D-01
 E= -3007.11480134716     Delta-E=       -0.094724020095 Rises=F Damp=F
 DIIS: error= 5.54D-03 at cycle   4 NSaved=   4.
 NSaved= 4 IEnMin= 4 EnMin= -3007.11480134716     IErMin= 4 ErrMin= 5.54D-03
 ErrMax= 5.54D-03  0.00D+00 EMaxC= 1.00D-01 BMatC= 3.25D-02 BMatP= 1.41D-01
 IDIUse=3 WtCom= 9.45D-01 WtEn= 5.54D-02
 Coeff-Com: -0.110D+00 0.226D+00 0.398D+00 0.486D+00
 Coeff-En:   0.000D+00 0.000D+00 0.198D+00 0.802D+00
 Coeff:     -0.104D+00 0.213D+00 0.387D+00 0.504D+00
 Gap=     0.127 Goal=   None    Shift=    0.000
 RMSDP=1.74D-04 MaxDP=1.80D-02 DE=-9.47D-02 OVMax= 4.62D-02

 Cycle   5  Pass 1  IDiag  1:
 RMSU=  6.72D-05    CP:  9.72D-01  1.46D+00  6.95D-01  5.70D-01
 E= -3007.14262622443     Delta-E=       -0.027824877276 Rises=F Damp=F
 DIIS: error= 5.64D-04 at cycle   5 NSaved=   5.
 NSaved= 5 IEnMin= 5 EnMin= -3007.14262622443     IErMin= 5 ErrMin= 5.64D-04
 ErrMax= 5.64D-04  0.00D+00 EMaxC= 1.00D-01 BMatC= 6.57D-04 BMatP= 3.25D-02
 IDIUse=3 WtCom= 9.94D-01 WtEn= 5.64D-03
 Coeff-Com: -0.392D-01 0.770D-01 0.163D+00 0.246D+00 0.553D+00
 Coeff-En:   0.000D+00 0.000D+00 0.000D+00 0.000D+00 0.100D+01
 Coeff:     -0.390D-01 0.766D-01 0.162D+00 0.244D+00 0.556D+00
 Gap=     0.127 Goal=   None    Shift=    0.000
 RMSDP=3.57D-05 MaxDP=6.49D-03 DE=-2.78D-02 OVMax= 1.54D-02

 Cycle   6  Pass 1  IDiag  1:
 RMSU=  2.78D-05    CP:  9.72D-01  1.47D+00  6.95D-01  6.25D-01  7.50D-01
 E= -3007.14315342013     Delta-E=       -0.000527195691 Rises=F Damp=F
 DIIS: error= 2.28D-04 at cycle   6 NSaved=   6.
 NSaved= 6 IEnMin= 6 EnMin= -3007.14315342013     IErMin= 6 ErrMin= 2.28D-04
 ErrMax= 2.28D-04  0.00D+00 EMaxC= 1.00D-01 BMatC= 1.05D-04 BMatP= 6.57D-04
 IDIUse=3 WtCom= 9.98D-01 WtEn= 2.28D-03
 Coeff-Com:  0.148D-02-0.478D-02 0.912D-02 0.315D-01 0.302D+00 0.661D+00
 Coeff-En:   0.000D+00 0.000D+00 0.000D+00 0.000D+00 0.110D+00 0.890D+00
 Coeff:      0.148D-02-0.477D-02 0.910D-02 0.315D-01 0.302D+00 0.661D+00
 Gap=     0.127 Goal=   None    Shift=    0.000
 RMSDP=1.46D-05 MaxDP=1.36D-03 DE=-5.27D-04 OVMax= 5.94D-03

 Cycle   7  Pass 1  IDiag  1:
 RMSU=  9.59D-06    CP:  9.72D-01  1.47D+00  6.99D-01  6.28D-01  8.61D-01
                    CP:  7.38D-01
 E= -3007.14326092922     Delta-E=       -0.000107509099 Rises=F Damp=F
 DIIS: error= 7.98D-05 at cycle   7 NSaved=   7.
 NSaved= 7 IEnMin= 7 EnMin= -3007.14326092922     IErMin= 7 ErrMin= 7.98D-05
 ErrMax= 7.98D-05  0.00D+00 EMaxC= 1.00D-01 BMatC= 1.26D-05 BMatP= 1.05D-04
 IDIUse=1 WtCom= 1.00D+00 WtEn= 0.00D+00
 Coeff-Com:  0.423D-02-0.917D-02-0.940D-02-0.737D-02 0.100D+00 0.333D+00
 Coeff-Com:  0.588D+00
 Coeff:      0.423D-02-0.917D-02-0.940D-02-0.737D-02 0.100D+00 0.333D+00
 Coeff:      0.588D+00
 Gap=     0.127 Goal=   None    Shift=    0.000
 RMSDP=6.70D-06 MaxDP=1.67D-03 DE=-1.08D-04 OVMax= 3.94D-03

 Cycle   8  Pass 1  IDiag  1:
 RMSU=  4.37D-06    CP:  9.72D-01  1.47D+00  7.00D-01  6.35D-01  8.63D-01
                    CP:  8.95D-01  8.33D-01
 E= -3007.14327715347     Delta-E=       -0.000016224247 Rises=F Damp=F
 DIIS: error= 4.48D-05 at cycle   8 NSaved=   8.
 NSaved= 8 IEnMin= 8 EnMin= -3007.14327715347     IErMin= 8 ErrMin= 4.48D-05
 ErrMax= 4.48D-05  0.00D+00 EMaxC= 1.00D-01 BMatC= 2.92D-06 BMatP= 1.26D-05
 IDIUse=1 WtCom= 1.00D+00 WtEn= 0.00D+00
 Coeff-Com:  0.227D-02-0.448D-02-0.774D-02-0.127D-01-0.106D-01 0.338D-01
 Coeff-Com:  0.342D+00 0.657D+00
 Coeff:      0.227D-02-0.448D-02-0.774D-02-0.127D-01-0.106D-01 0.338D-01
 Coeff:      0.342D+00 0.657D+00
 Gap=     0.127 Goal=   None    Shift=    0.000
 RMSDP=2.86D-06 MaxDP=3.94D-04 DE=-1.62D-05 OVMax= 1.23D-03

 Cycle   9  Pass 1  IDiag  1:
 RMSU=  1.71D-06    CP:  9.72D-01  1.47D+00  7.01D-01  6.35D-01  8.81D-01
                    CP:  9.10D-01  1.03D+00  1.03D+00
 E= -3007.14328206827     Delta-E=       -0.000004914795 Rises=F Damp=F
 DIIS: error= 1.78D-05 at cycle   9 NSaved=   9.
 NSaved= 9 IEnMin= 9 EnMin= -3007.14328206827     IErMin= 9 ErrMin= 1.78D-05
 ErrMax= 1.78D-05  0.00D+00 EMaxC= 1.00D-01 BMatC= 3.42D-07 BMatP= 2.92D-06
 IDIUse=1 WtCom= 1.00D+00 WtEn= 0.00D+00
 Coeff-Com:  0.419D-03-0.716D-03-0.207D-02-0.497D-02-0.183D-01-0.385D-01
 Coeff-Com:  0.938D-01 0.263D+00 0.708D+00
 Coeff:      0.419D-03-0.716D-03-0.207D-02-0.497D-02-0.183D-01-0.385D-01
 Coeff:      0.938D-01 0.263D+00 0.708D+00
 Gap=     0.127 Goal=   None    Shift=    0.000
 RMSDP=1.61D-06 MaxDP=3.14D-04 DE=-4.91D-06 OVMax= 1.10D-03

 Cycle  10  Pass 1  IDiag  1:
 RMSU=  8.77D-07    CP:  9.72D-01  1.47D+00  7.01D-01  6.37D-01  8.84D-01
                    CP:  9.33D-01  1.08D+00  1.23D+00  1.23D+00
 E= -3007.14328318076     Delta-E=       -0.000001112498 Rises=F Damp=F
 DIIS: error= 1.61D-05 at cycle  10 NSaved=  10.
 NSaved=10 IEnMin=10 EnMin= -3007.14328318076     IErMin=10 ErrMin= 1.61D-05
 ErrMax= 1.61D-05  0.00D+00 EMaxC= 1.00D-01 BMatC= 1.67D-07 BMatP= 3.42D-07
 IDIUse=1 WtCom= 1.00D+00 WtEn= 0.00D+00
 Coeff-Com: -0.524D-03 0.108D-02 0.155D-02 0.164D-02-0.319D-02-0.335D-01
 Coeff-Com: -0.472D-01-0.130D+00 0.371D+00 0.839D+00
 Coeff:     -0.524D-03 0.108D-02 0.155D-02 0.164D-02-0.319D-02-0.335D-01
 Coeff:     -0.472D-01-0.130D+00 0.371D+00 0.839D+00
 Gap=     0.127 Goal=   None    Shift=    0.000
 RMSDP=1.38D-06 MaxDP=1.96D-04 DE=-1.11D-06 OVMax= 7.48D-04

 Cycle  11  Pass 1  IDiag  1:
 RMSU=  4.96D-07    CP:  9.72D-01  1.47D+00  7.01D-01  6.37D-01  8.86D-01
                    CP:  9.44D-01  1.14D+00  1.38D+00  1.67D+00  1.44D+00
 E= -3007.14328390588     Delta-E=       -0.000000725120 Rises=F Damp=F
 DIIS: error= 7.05D-06 at cycle  11 NSaved=  11.
 NSaved=11 IEnMin=11 EnMin= -3007.14328390588     IErMin=11 ErrMin= 7.05D-06
 ErrMax= 7.05D-06  0.00D+00 EMaxC= 1.00D-01 BMatC= 4.70D-08 BMatP= 1.67D-07
 IDIUse=1 WtCom= 1.00D+00 WtEn= 0.00D+00
 Coeff-Com: -0.373D-03 0.725D-03 0.139D-02 0.228D-02 0.522D-02-0.670D-02
 Coeff-Com: -0.390D-01-0.170D+00 0.371D-02 0.328D+00 0.875D+00
 Coeff:     -0.373D-03 0.725D-03 0.139D-02 0.228D-02 0.522D-02-0.670D-02
 Coeff:     -0.390D-01-0.170D+00 0.371D-02 0.328D+00 0.875D+00
 Gap=     0.127 Goal=   None    Shift=    0.000
 RMSDP=9.94D-07 MaxDP=1.38D-04 DE=-7.25D-07 OVMax= 6.48D-04

 Cycle  12  Pass 1  IDiag  1:
 RMSU=  2.61D-07    CP:  9.72D-01  1.47D+00  7.01D-01  6.37D-01  8.87D-01
                    CP:  9.51D-01  1.18D+00  1.49D+00  1.98D+00  1.96D+00
                    CP:  1.39D+00
 E= -3007.14328419237     Delta-E=       -0.000000286482 Rises=F Damp=F
 DIIS: error= 5.63D-06 at cycle  12 NSaved=  12.
 NSaved=12 IEnMin=12 EnMin= -3007.14328419237     IErMin=12 ErrMin= 5.63D-06
 ErrMax= 5.63D-06  0.00D+00 EMaxC= 1.00D-01 BMatC= 1.85D-08 BMatP= 4.70D-08
 IDIUse=1 WtCom= 1.00D+00 WtEn= 0.00D+00
 Coeff-Com:  0.353D-04-0.877D-04 0.137D-04 0.334D-03 0.371D-02 0.748D-02
 Coeff-Com:  0.103D-01-0.372D-01-0.789D-01-0.239D+00 0.367D+00 0.967D+00
 Coeff:      0.353D-04-0.877D-04 0.137D-04 0.334D-03 0.371D-02 0.748D-02
 Coeff:      0.103D-01-0.372D-01-0.789D-01-0.239D+00 0.367D+00 0.967D+00
 Gap=     0.127 Goal=   None    Shift=    0.000
 RMSDP=6.69D-07 MaxDP=4.97D-05 DE=-2.86D-07 OVMax= 4.23D-04

 Cycle  13  Pass 1  IDiag  1:
 RMSU=  1.58D-07    CP:  9.72D-01  1.47D+00  7.01D-01  6.38D-01  8.88D-01
                    CP:  9.53D-01  1.20D+00  1.55D+00  2.19D+00  2.32D+00
                    CP:  1.95D+00  1.38D+00
 E= -3007.14328429798     Delta-E=       -0.000000105618 Rises=F Damp=F
 DIIS: error= 2.17D-06 at cycle  13 NSaved=  13.
 NSaved=13 IEnMin=13 EnMin= -3007.14328429798     IErMin=13 ErrMin= 2.17D-06
 ErrMax= 2.17D-06  0.00D+00 EMaxC= 1.00D-01 BMatC= 5.33D-09 BMatP= 1.85D-08
 IDIUse=1 WtCom= 1.00D+00 WtEn= 0.00D+00
 Coeff-Com:  0.141D-03-0.287D-03-0.447D-03-0.552D-03 0.486D-03 0.572D-02
 Coeff-Com:  0.208D-01 0.278D-01-0.296D-01-0.276D+00-0.719D-01 0.544D+00
 Coeff-Com:  0.780D+00
 Coeff:      0.141D-03-0.287D-03-0.447D-03-0.552D-03 0.486D-03 0.572D-02
 Coeff:      0.208D-01 0.278D-01-0.296D-01-0.276D+00-0.719D-01 0.544D+00
 Coeff:      0.780D+00
 Gap=     0.127 Goal=   None    Shift=    0.000
 RMSDP=3.70D-07 MaxDP=3.66D-05 DE=-1.06D-07 OVMax= 2.27D-04

 Cycle  14  Pass 1  IDiag  1:
 RMSU=  7.52D-08    CP:  9.72D-01  1.47D+00  7.01D-01  6.38D-01  8.88D-01
                    CP:  9.55D-01  1.21D+00  1.58D+00  2.30D+00  2.51D+00
                    CP:  2.25D+00  1.82D+00  1.02D+00
 E= -3007.14328432162     Delta-E=       -0.000000023636 Rises=F Damp=F
 DIIS: error= 6.98D-07 at cycle  14 NSaved=  14.
 NSaved=14 IEnMin=14 EnMin= -3007.14328432162     IErMin=14 ErrMin= 6.98D-07
 ErrMax= 6.98D-07  0.00D+00 EMaxC= 1.00D-01 BMatC= 9.50D-10 BMatP= 5.33D-09
 IDIUse=1 WtCom= 1.00D+00 WtEn= 0.00D+00
 Coeff-Com:  0.734D-04-0.145D-03-0.260D-03-0.393D-03-0.504D-03 0.128D-02
 Coeff-Com:  0.102D-01 0.220D-01 0.903D-02-0.101D+00-0.113D+00 0.898D-01
 Coeff-Com:  0.426D+00 0.657D+00
 Coeff:      0.734D-04-0.145D-03-0.260D-03-0.393D-03-0.504D-03 0.128D-02
 Coeff:      0.102D-01 0.220D-01 0.903D-02-0.101D+00-0.113D+00 0.898D-01
 Coeff:      0.426D+00 0.657D+00
 Gap=     0.127 Goal=   None    Shift=    0.000
 RMSDP=9.14D-08 MaxDP=6.91D-06 DE=-2.36D-08 OVMax= 5.71D-05

 Cycle  15  Pass 1  IDiag  1:
 RMSU=  3.49D-08    CP:  9.72D-01  1.47D+00  7.01D-01  6.38D-01  8.88D-01
                    CP:  9.55D-01  1.21D+00  1.59D+00  2.32D+00  2.56D+00
                    CP:  2.34D+00  1.92D+00  1.25D+00  8.95D-01
 E= -3007.14328432387     Delta-E=       -0.000000002248 Rises=F Damp=F
 DIIS: error= 3.10D-07 at cycle  15 NSaved=  15.
 NSaved=15 IEnMin=15 EnMin= -3007.14328432387     IErMin=15 ErrMin= 3.10D-07
 ErrMax= 3.10D-07  0.00D+00 EMaxC= 1.00D-01 BMatC= 1.22D-10 BMatP= 9.50D-10
 IDIUse=1 WtCom= 1.00D+00 WtEn= 0.00D+00
 Coeff-Com:  0.674D-05-0.119D-04-0.330D-04-0.695D-04-0.265D-03-0.448D-03
 Coeff-Com:  0.776D-03 0.352D-02 0.885D-02-0.210D-02-0.353D-01-0.486D-01
 Coeff-Com:  0.440D-01 0.275D+00 0.755D+00
 Coeff:      0.674D-05-0.119D-04-0.330D-04-0.695D-04-0.265D-03-0.448D-03
 Coeff:      0.776D-03 0.352D-02 0.885D-02-0.210D-02-0.353D-01-0.486D-01
 Coeff:      0.440D-01 0.275D+00 0.755D+00
 Gap=     0.127 Goal=   None    Shift=    0.000
 RMSDP=4.23D-08 MaxDP=3.92D-06 DE=-2.25D-09 OVMax= 2.28D-05

 Cycle  16  Pass 1  IDiag  1:
 RMSU=  1.59D-08    CP:  9.72D-01  1.47D+00  7.01D-01  6.38D-01  8.88D-01
                    CP:  9.55D-01  1.21D+00  1.59D+00  2.33D+00  2.57D+00
                    CP:  2.37D+00  1.98D+00  1.29D+00  1.07D+00  1.00D+00
 E= -3007.14328432413     Delta-E=       -0.000000000264 Rises=F Damp=F
 DIIS: error= 1.07D-07 at cycle  16 NSaved=  16.
 NSaved=16 IEnMin=16 EnMin= -3007.14328432413     IErMin=16 ErrMin= 1.07D-07
 ErrMax= 1.07D-07  0.00D+00 EMaxC= 1.00D-01 BMatC= 3.15D-11 BMatP= 1.22D-10
 IDIUse=1 WtCom= 1.00D+00 WtEn= 0.00D+00
 Coeff-Com: -0.114D-04 0.232D-04 0.356D-04 0.416D-04-0.352D-04-0.527D-03
 Coeff-Com: -0.158D-02-0.286D-02 0.391D-02 0.191D-01 0.585D-02-0.403D-01
 Coeff-Com: -0.647D-01 0.363D-02 0.397D+00 0.680D+00
 Coeff:     -0.114D-04 0.232D-04 0.356D-04 0.416D-04-0.352D-04-0.527D-03
 Coeff:     -0.158D-02-0.286D-02 0.391D-02 0.191D-01 0.585D-02-0.403D-01
 Coeff:     -0.647D-01 0.363D-02 0.397D+00 0.680D+00
 Gap=     0.127 Goal=   None    Shift=    0.000
 RMSDP=1.30D-08 MaxDP=1.19D-06 DE=-2.64D-10 OVMax= 7.12D-06

 Cycle  17  Pass 1  IDiag  1:
 RMSU=  7.90D-09    CP:  9.72D-01  1.47D+00  7.01D-01  6.38D-01  8.88D-01
                    CP:  9.55D-01  1.21D+00  1.59D+00  2.33D+00  2.57D+00
                    CP:  2.38D+00  1.99D+00  1.32D+00  1.12D+00  1.21D+00
                    CP:  1.08D+00
 E= -3007.14328432397     Delta-E=        0.000000000160 Rises=F Damp=F
 DIIS: error= 8.05D-08 at cycle  17 NSaved=  17.
 NSaved=17 IEnMin=16 EnMin= -3007.14328432413     IErMin=17 ErrMin= 8.05D-08
 ErrMax= 8.05D-08  0.00D+00 EMaxC= 1.00D-01 BMatC= 5.97D-12 BMatP= 3.15D-11
 IDIUse=1 WtCom= 1.00D+00 WtEn= 0.00D+00
 Coeff-Com: -0.668D-05 0.132D-04 0.232D-04 0.324D-04 0.396D-04-0.158D-03
 Coeff-Com: -0.900D-03-0.215D-02 0.386D-03 0.935D-02 0.971D-02-0.969D-02
 Coeff-Com: -0.417D-01-0.569D-01 0.574D-01 0.316D+00 0.719D+00
 Coeff:     -0.668D-05 0.132D-04 0.232D-04 0.324D-04 0.396D-04-0.158D-03
 Coeff:     -0.900D-03-0.215D-02 0.386D-03 0.935D-02 0.971D-02-0.969D-02
 Coeff:     -0.417D-01-0.569D-01 0.574D-01 0.316D+00 0.719D+00
 Gap=     0.127 Goal=   None    Shift=    0.000
 RMSDP=7.31D-09 MaxDP=5.25D-07 DE= 1.60D-10 OVMax= 4.57D-06

 SCF Done:  E(RCAM-B3LYP) =  -3007.14328432     A.U. after   17 cycles
            NFock= 17  Conv=0.73D-08     -V/T= 2.0107
 KE= 2.975229773276D+03 PE=-2.652171558816D+04 EE= 1.077440532979D+04
 Leave Link  502 at Wed May  4 15:35:26 2022, MaxMem= 10066329600 cpu:            8816.4 elap:             383.7
 (Enter /sw/apps/gaussian-16.0/g16/l801.exe)
 DoSCS=F DFT=T ScalE2(SS,OS)=  1.000000  1.000000
 ExpMin= 3.36D-02 ExpMax= 4.95D+03 ExpMxC= 7.45D+02 IAcc=3 IRadAn=         5 AccDes= 0.00D+00
 HarFok:  IExCor=  205 AccDes= 0.00D+00 IRadAn=         5 IDoV=-2 UseB2=F ITyADJ=14
 ICtDFT= 12500011 ScaDFX=  1.000000  1.000000  1.000000  1.000000
 GSVD:  LWork=       -5460 too small for GESVD, short by       25550 words or       25550 for optimal perf.
 Largest valence mixing into a core orbital is  1.84D-04
 Largest core mixing into a valence orbital is  5.28D-05
 Range of M.O.s used for correlation:    71  1298
 NBasis=  1298 NAE=   246 NBE=   246 NFC=    70 NFV=     0
 NROrb=   1228 NOA=   176 NOB=   176 NVA=  1052 NVB=  1052
 Leave Link  801 at Wed May  4 15:35:27 2022, MaxMem= 10066329600 cpu:               6.7 elap:               0.3
 (Enter /sw/apps/gaussian-16.0/g16/l914.exe)
 RHF ground state
 Two-electron integrals replicated using symmetry.
 MDV= 10066329600 DFT=T DoStab=F Mixed=T DoRPA=T DoScal=F NonHer=T
 Making orbital integer symmetry assigments:
 Orbital symmetries:
       Occupied  (A) (A) (A) (A) (A) (A) (A) (A) (A) (A) (A) (A)
                 (A) (A) (A) (A) (A) (A) (A) (A) (A) (A) (A) (A)
                 (A) (A) (A) (A) (A) (A) (A) (A) (A) (A) (A) (A)
                 (A) (A) (A) (A) (A) (A) (A) (A) (A) (A) (A) (A)
                 (A) (A) (A) (A) (A) (A) (A) (A) (A) (A) (A) (A)
                 (A) (A) (A) (A) (A) (A) (A) (A) (A) (A) (A) (A)
                 (A) (A) (A) (A) (A) (A) (A) (A) (A) (A) (A) (A)
                 (A) (A) (A) (A) (A) (A) (A) (A) (A) (A) (A) (A)
                 (A) (A) (A) (A) (A) (A) (A) (A) (A) (A) (A) (A)
                 (A) (A) (A) (A) (A) (A) (A) (A) (A) (A) (A) (A)
                 (A) (A) (A) (A) (A) (A) (A) (A) (A) (A) (A) (A)
                 (A) (A) (A) (A) (A) (A) (A) (A) (A) (A) (A) (A)
                 (A) (A) (A) (A) (A) (A) (A) (A) (A) (A) (A) (A)
                 (A) (A) (A) (A) (A) (A) (A) (A) (A) (A) (A) (A)
                 (A) (A) (A) (A) (A) (A) (A) (A) (A) (A) (A) (A)
                 (A) (A) (A) (A) (A) (A) (A) (A) (A) (A) (A) (A)
                 (A) (A) (A) (A) (A) (A) (A) (A) (A) (A) (A) (A)
                 (A) (A) (A) (A) (A) (A) (A) (A) (A) (A) (A) (A)
                 (A) (A) (A) (A) (A) (A) (A) (A) (A) (A) (A) (A)
                 (A) (A) (A) (A) (A) (A) (A) (A) (A) (A) (A) (A)
                 (A) (A) (A) (A) (A) (A)
       Virtual   (A) (A) (A) (A) (A) (A) (A) (A) (A) (A) (A) (A)
                 (A) (A) (A) (A) (A) (A) (A) (A) (A) (A) (A) (A)
                 (A) (A) (A) (A) (A) (A) (A) (A) (A) (A) (A) (A)
                 (A) (A) (A) (A) (A) (A) (A) (A) (A) (A) (A) (A)
                 (A) (A) (A) (A) (A) (A) (A) (A) (A) (A) (A) (A)
                 (A) (A) (A) (A) (A) (A) (A) (A) (A) (A) (A) (A)
                 (A) (A) (A) (A) (A) (A) (A) (A) (A) (A) (A) (A)
                 (A) (A) (A) (A) (A) (A) (A) (A) (A) (A) (A) (A)
                 (A) (A) (A) (A) (A) (A) (A) (A) (A) (A) (A) (A)
                 (A) (A) (A) (A) (A) (A) (A) (A) (A) (A) (A) (A)
                 (A) (A) (A) (A) (A) (A) (A) (A) (A) (A) (A) (A)
                 (A) (A) (A) (A) (A) (A) (A) (A) (A) (A) (A) (A)
                 (A) (A) (A) (A) (A) (A) (A) (A) (A) (A) (A) (A)
                 (A) (A) (A) (A) (A) (A) (A) (A) (A) (A) (A) (A)
                 (A) (A) (A) (A) (A) (A) (A) (A) (A) (A) (A) (A)
                 (A) (A) (A) (A) (A) (A) (A) (A) (A) (A) (A) (A)
                 (A) (A) (A) (A) (A) (A) (A) (A) (A) (A) (A) (A)
                 (A) (A) (A) (A) (A) (A) (A) (A) (A) (A) (A) (A)
                 (A) (A) (A) (A) (A) (A) (A) (A) (A) (A) (A) (A)
                 (A) (A) (A) (A) (A) (A) (A) (A) (A) (A) (A) (A)
                 (A) (A) (A) (A) (A) (A) (A) (A) (A) (A) (A) (A)
                 (A) (A) (A) (A) (A) (A) (A) (A) (A) (A) (A) (A)
                 (A) (A) (A) (A) (A) (A) (A) (A) (A) (A) (A) (A)
                 (A) (A) (A) (A) (A) (A) (A) (A) (A) (A) (A) (A)
                 (A) (A) (A) (A) (A) (A) (A) (A) (A) (A) (A) (A)
                 (A) (A) (A) (A) (A) (A) (A) (A) (A) (A) (A) (A)
                 (A) (A) (A) (A) (A) (A) (A) (A) (A) (A) (A) (A)
                 (A) (A) (A) (A) (A) (A) (A) (A) (A) (A) (A) (A)
                 (A) (A) (A) (A) (A) (A) (A) (A) (A) (A) (A) (A)
                 (A) (A) (A) (A) (A) (A) (A) (A) (A) (A) (A) (A)
                 (A) (A) (A) (A) (A) (A) (A) (A) (A) (A) (A) (A)
                 (A) (A) (A) (A) (A) (A) (A) (A) (A) (A) (A) (A)
                 (A) (A) (A) (A) (A) (A) (A) (A) (A) (A) (A) (A)
                 (A) (A) (A) (A) (A) (A) (A) (A) (A) (A) (A) (A)
                 (A) (A) (A) (A) (A) (A) (A) (A) (A) (A) (A) (A)
                 (A) (A) (A) (A) (A) (A) (A) (A) (A) (A) (A) (A)
                 (A) (A) (A) (A) (A) (A) (A) (A) (A) (A) (A) (A)
                 (A) (A) (A) (A) (A) (A) (A) (A) (A) (A) (A) (A)
                 (A) (A) (A) (A) (A) (A) (A) (A) (A) (A) (A) (A)
                 (A) (A) (A) (A) (A) (A) (A) (A) (A) (A) (A) (A)
                 (A) (A) (A) (A) (A) (A) (A) (A) (A) (A) (A) (A)
                 (A) (A) (A) (A) (A) (A) (A) (A) (A) (A) (A) (A)
                 (A) (A) (A) (A) (A) (A) (A) (A) (A) (A) (A) (A)
                 (A) (A) (A) (A) (A) (A) (A) (A) (A) (A) (A) (A)
                 (A) (A) (A) (A) (A) (A) (A) (A) (A) (A) (A) (A)
                 (A) (A) (A) (A) (A) (A) (A) (A) (A) (A) (A) (A)
                 (A) (A) (A) (A) (A) (A) (A) (A) (A) (A) (A) (A)
                 (A) (A) (A) (A) (A) (A) (A) (A) (A) (A) (A) (A)
                 (A) (A) (A) (A) (A) (A) (A) (A) (A) (A) (A) (A)
                 (A) (A) (A) (A) (A) (A) (A) (A) (A) (A) (A) (A)
                 (A) (A) (A) (A) (A) (A) (A) (A) (A) (A) (A) (A)
                 (A) (A) (A) (A) (A) (A) (A) (A) (A) (A) (A) (A)
                 (A) (A) (A) (A) (A) (A) (A) (A) (A) (A) (A) (A)
                 (A) (A) (A) (A) (A) (A) (A) (A) (A) (A) (A) (A)
                 (A) (A) (A) (A) (A) (A) (A) (A) (A) (A) (A) (A)
                 (A) (A) (A) (A) (A) (A) (A) (A) (A) (A) (A) (A)
                 (A) (A) (A) (A) (A) (A) (A) (A) (A) (A) (A) (A)
                 (A) (A) (A) (A) (A) (A) (A) (A) (A) (A) (A) (A)
                 (A) (A) (A) (A) (A) (A) (A) (A) (A) (A) (A) (A)
                 (A) (A) (A) (A) (A) (A) (A) (A) (A) (A) (A) (A)
                 (A) (A) (A) (A) (A) (A) (A) (A) (A) (A) (A) (A)
                 (A) (A) (A) (A) (A) (A) (A) (A) (A) (A) (A) (A)
                 (A) (A) (A) (A) (A) (A) (A) (A) (A) (A) (A) (A)
                 (A) (A) (A) (A) (A) (A) (A) (A) (A) (A) (A) (A)
                 (A) (A) (A) (A) (A) (A) (A) (A) (A) (A) (A) (A)
                 (A) (A) (A) (A) (A) (A) (A) (A) (A) (A) (A) (A)
                 (A) (A) (A) (A) (A) (A) (A) (A) (A) (A) (A) (A)
                 (A) (A) (A) (A) (A) (A) (A) (A) (A) (A) (A) (A)
                 (A) (A) (A) (A) (A) (A) (A) (A) (A) (A) (A) (A)
                 (A) (A) (A) (A) (A) (A) (A) (A) (A) (A) (A) (A)
                 (A) (A) (A) (A) (A) (A) (A) (A) (A) (A) (A) (A)
                 (A) (A) (A) (A) (A) (A) (A) (A) (A) (A) (A) (A)
                 (A) (A) (A) (A) (A) (A) (A) (A) (A) (A) (A) (A)
                 (A) (A) (A) (A) (A) (A) (A) (A) (A) (A) (A) (A)
                 (A) (A) (A) (A) (A) (A) (A) (A) (A) (A) (A) (A)
                 (A) (A) (A) (A) (A) (A) (A) (A) (A) (A) (A) (A)
                 (A) (A) (A) (A) (A) (A) (A) (A) (A) (A) (A) (A)
                 (A) (A) (A) (A) (A) (A) (A) (A) (A) (A) (A) (A)
                 (A) (A) (A) (A) (A) (A) (A) (A) (A) (A) (A) (A)
                 (A) (A) (A) (A) (A) (A) (A) (A) (A) (A) (A) (A)
                 (A) (A) (A) (A) (A) (A) (A) (A) (A) (A) (A) (A)
                 (A) (A) (A) (A) (A) (A) (A) (A) (A) (A) (A) (A)
                 (A) (A) (A) (A) (A) (A) (A) (A) (A) (A) (A) (A)
                 (A) (A) (A) (A) (A) (A) (A) (A) (A) (A) (A) (A)
                 (A) (A) (A) (A) (A) (A) (A) (A) (A) (A) (A) (A)
                 (A) (A) (A) (A) (A) (A) (A) (A) (A) (A) (A) (A)
                 (A) (A) (A) (A) (A) (A) (A) (A) (A) (A) (A) (A)
                 (A) (A) (A) (A) (A) (A) (A) (A)
    20 initial guesses have been made.
 Convergence on wavefunction:    0.001000000000000
 Davidson Disk Diagonalization:  ConvIn= 1.00D-03 SkipCon=T Conv= 1.00D-03.
 Max sub-space:  2000 roots to seek:    20 dimension of matrix:       370304
 Iteration     1 Dimension    20 NMult     0 NNew     20
 CISAX will form    20 AO SS matrices at one time.
 NMat=    20 NSing=    20 JSym2X= 0.
 FoFJK:  IHMeth= 1 ICntrl=       0 DoSepK=T KAlg= 0 I1Cent=           0 FoldK=F
 IRaf=         1 NMat=      40 IRICut=       1 DoRegI=T DoRafI=F ISym2E= 0 IDoP0=3 IntGTp=3.
 FoFCou: FMM=T IPFlag=           0 FMFlag=      100000 FMFlg1=        2001
         NFxFlg=           0 DoJE=F BraDBF=F KetDBF=F FulRan=T
         wScrn=  0.000000 ICntrl=       500 IOpCl=  0 I1Cent=           0 NGrid=           0
         NMat0=   20 NMatS0=     20 NMatT0=    0 NMatD0=   20 NMtDS0=    0 NMtDT0=    0
 Symmetry not used in FoFCou.
 FMM levels:  10  Number of levels for PrismC:   9
 New state      3 was old state      4
 New state      4 was old state     10
 New state      5 was old state      6
 Excitation Energies [eV] at current iteration:
 Root      1 :     2.233722132907160
 Root      2 :     2.638661577113479
 Root      3 :     3.820296072020278
 Root      4 :     3.884016840956984
 Root      5 :     3.960670963847391
 Root      6 :     4.090514611195114
 Root      7 :     4.362107968683711
 Root      8 :     4.457875414774358
 Root      9 :     4.513367767700862
 Root     10 :     4.552025318955262
 Root     11 :     4.715837445303465
 Root     12 :     4.838513322284359
 Root     13 :     4.930858210832870
 Root     14 :     5.051392333176048
 Root     15 :     5.127368434096716
 Root     16 :     5.279054078254101
 Root     17 :     5.340568321741763
 Root     18 :     5.580696107381658
 Root     19 :     5.654162790235536
 Root     20 :     5.835494221587919
 Iteration     2 Dimension    30 NMult    20 NNew     10
 CISAX will form    10 AO SS matrices at one time.
 NMat=    10 NSing=    10 JSym2X= 0.
 Root      1 not converged, maximum delta is    0.071713105793075
 Root      2 not converged, maximum delta is    0.045487424541393
 Root      3 not converged, maximum delta is    0.045261872874436
 New state      4 was old state      5
 Root      4 not converged, maximum delta is    0.395619331408072
 New state      5 was old state      4
 Root      5 not converged, maximum delta is    0.433689461373094
 Excitation Energies [eV] at current iteration:
 Root      1 :     1.767364745269215   Change is   -0.466357387637944
 Root      2 :     2.304022630142972   Change is   -0.334638946970508
 Root      3 :     3.504504430205543   Change is   -0.315791641814734
 Root      4 :     3.538478022545556   Change is   -0.422192941301834
 Root      5 :     3.812861009526971   Change is   -0.071155831430012
 Iteration     3 Dimension    40 NMult    30 NNew     10
 CISAX will form    10 AO SS matrices at one time.
 NMat=    10 NSing=    10 JSym2X= 0.
 Root      1 not converged, maximum delta is    0.016977210645393
 Root      2 not converged, maximum delta is    0.014600116706795
 New state      3 was old state      4
 Root      3 not converged, maximum delta is    0.135865164735124
 New state      4 was old state      3
 Root      4 not converged, maximum delta is    0.033922871198725
 Root      5 not converged, maximum delta is    0.285719894638628
 Excitation Energies [eV] at current iteration:
 Root      1 :     1.732335487288649   Change is   -0.035029257980566
 Root      2 :     2.286360861758624   Change is   -0.017661768384348
 Root      3 :     3.460889031643891   Change is   -0.077588990901666
 Root      4 :     3.492539852513473   Change is   -0.011964577692070
 Root      5 :     3.747114047998264   Change is   -0.065746961528708
 Iteration     4 Dimension    50 NMult    40 NNew     10
 CISAX will form    10 AO SS matrices at one time.
 NMat=    10 NSing=    10 JSym2X= 0.
 Root      1 not converged, maximum delta is    0.002656933416828
 Root      2 not converged, maximum delta is    0.002464413411166
 Root      3 not converged, maximum delta is    0.074561728867773
 Root      4 not converged, maximum delta is    0.018386965823529
 Root      5 not converged, maximum delta is    0.178627976057700
 Excitation Energies [eV] at current iteration:
 Root      1 :     1.728343226870018   Change is   -0.003992260418631
 Root      2 :     2.283900019724662   Change is   -0.002460842033962
 Root      3 :     3.437691161769174   Change is   -0.023197869874717
 Root      4 :     3.488919465900701   Change is   -0.003620386612772
 Root      5 :     3.689867122081599   Change is   -0.057246925916665
 Iteration     5 Dimension    60 NMult    50 NNew     10
 CISAX will form    10 AO SS matrices at one time.
 NMat=    10 NSing=    10 JSym2X= 0.
 Root      1 not converged, maximum delta is    0.001291758175548
 Root      2 has converged.
 Root      3 not converged, maximum delta is    0.046242797863960
 Root      4 not converged, maximum delta is    0.082530302631025
 Root      5 not converged, maximum delta is    0.427167330462701
 Excitation Energies [eV] at current iteration:
 Root      1 :     1.728001377629289   Change is   -0.000341849240729
 Root      2 :     2.283739691379066   Change is   -0.000160328345596
 Root      3 :     3.433107348402382   Change is   -0.004583813366792
 Root      4 :     3.486590148252489   Change is   -0.002329317648212
 Root      5 :     3.544975853304864   Change is   -0.144891268776736
 Iteration     6 Dimension    68 NMult    60 NNew      8
 CISAX will form     8 AO SS matrices at one time.
 NMat=     8 NSing=     8 JSym2X= 0.
 Root      1 has converged.
 Root      2 has converged.
 Root      3 not converged, maximum delta is    0.124439841584749
 New state      4 was old state      5
 Root      4 not converged, maximum delta is    0.371440948779779
 New state      5 was old state      4
 Root      5 not converged, maximum delta is    0.277510927739919
 Excitation Energies [eV] at current iteration:
 Root      1 :     1.727968140267213   Change is   -0.000033237362075
 Root      2 :     2.283738243528407   Change is   -0.000001447850659
 Root      3 :     3.429251325869892   Change is   -0.003856022532490
 Root      4 :     3.462730091593717   Change is   -0.082245761711147
 Root      5 :     3.493037875791875   Change is    0.006447727539386
 Iteration     7 Dimension    74 NMult    68 NNew      6
 CISAX will form     6 AO SS matrices at one time.
 NMat=     6 NSing=     6 JSym2X= 0.
 Root      1 has converged.
 Root      2 has converged.
 Root      3 not converged, maximum delta is    0.038088485685787
 Root      4 not converged, maximum delta is    0.050657244168150
 Root      5 not converged, maximum delta is    0.032244457921129
 Excitation Energies [eV] at current iteration:
 Root      1 :     1.727967885862736   Change is   -0.000000254404478
 Root      2 :     2.283737011673812   Change is   -0.000001231854595
 Root      3 :     3.427948459278599   Change is   -0.001302866591293
 Root      4 :     3.456812993870266   Change is   -0.005917097723451
 Root      5 :     3.492115186862030   Change is   -0.000922688929845
 Iteration     8 Dimension    80 NMult    74 NNew      6
 CISAX will form     6 AO SS matrices at one time.
 NMat=     6 NSing=     6 JSym2X= 0.
 Root      1 has converged.
 Root      2 has converged.
 Root      3 not converged, maximum delta is    0.005906310944410
 Root      4 not converged, maximum delta is    0.007087706938617
 Root      5 not converged, maximum delta is    0.003732853204556
 Excitation Energies [eV] at current iteration:
 Root      1 :     1.727967828267498   Change is   -0.000000057595238
 Root      2 :     2.283736772359062   Change is   -0.000000239314750
 Root      3 :     3.427722388645779   Change is   -0.000226070632820
 Root      4 :     3.456048271159501   Change is   -0.000764722710765
 Root      5 :     3.492005261304526   Change is   -0.000109925557505
 Iteration     9 Dimension    86 NMult    80 NNew      6
 CISAX will form     6 AO SS matrices at one time.
 NMat=     6 NSing=     6 JSym2X= 0.
 Root      1 has converged.
 Root      2 has converged.
 Root      3 has converged.
 Root      4 has converged.
 Root      5 has converged.
 Excitation Energies [eV] at current iteration:
 Root      1 :     1.727967769764294   Change is   -0.000000058503203
 Root      2 :     2.283736446513557   Change is   -0.000000325845506
 Root      3 :     3.427694067038272   Change is   -0.000028321607507
 Root      4 :     3.455952860542732   Change is   -0.000095410616769
 Root      5 :     3.491988623538570   Change is   -0.000016637765956
 Convergence achieved on expansion vectors.
 ***********************************************************************
 Excited states from <AA,BB:AA,BB> singles matrix:
 ***********************************************************************
 
 1PDM for each excited state written to RWF  633
 Ground to excited state transition densities written to RWF  633
 Ground to excited state transition electric dipole moments (Au):
       state          X           Y           Z        Dip. S.      Osc.
         1        -0.0231      1.8537     -2.1830      8.2023      0.3472
         2         0.0169     -0.8266     -0.4716      0.9060      0.0507
         3         0.2060      1.7994      1.2626      4.8745      0.4093
         4         0.0582      0.8837      0.6341      1.1864      0.1005
         5         0.0025     -0.0342     -0.1916      0.0379      0.0032
 Ground to excited state transition velocity dipole moments (Au):
       state          X           Y           Z        Dip. S.      Osc.
         1         0.0010     -0.1139      0.1350      0.0312      0.3275
         2        -0.0013      0.0643      0.0362      0.0054      0.0433
         3        -0.0247     -0.2181     -0.1504      0.0708      0.3747
         4        -0.0102     -0.1088     -0.0736      0.0174      0.0911
         5         0.0005      0.0053      0.0246      0.0006      0.0033
 Ground to excited state transition magnetic dipole moments (Au):
       state          X           Y           Z
         1         0.3489     -1.0671     -0.8993
         2         0.0601     -0.3625      0.5510
         3        -0.5327      1.6592     -2.0030
         4        -0.4826      0.1687     -0.5196
         5        -0.8290      0.0300      0.0407
 Ground to excited state transition velocity quadrupole moments (Au):
       state          XX          YY          ZZ          XY          XZ          YZ
         1         0.0673     -0.4100      0.0379     -0.9408      1.0747      0.3349
         2        -0.0922      0.2458      0.0726      0.5343      0.2701      0.0387
         3        -0.0791     -0.7244     -0.1140     -1.7440     -1.1515     -0.7470
         4         0.0155     -0.5224      0.0193     -0.8987     -0.5704     -0.2777
         5         0.0267     -0.4801      0.2186      0.0592      0.2900      0.1875
 <0|del|b> * <b|rxdel|0> + <0|del|b> * <b|delr+rdel|0>
 Rotatory Strengths (R) in cgs (10**-40 erg-esu-cm/Gauss)
       state          XX          YY          ZZ    R(velocity)    E-M Angle
         1       -23.9385     34.9960     -4.7381      2.1065       89.87
         2        -5.8015      2.0128    -25.1209     -9.6365       94.03
         3      -139.0692    198.1319   -325.7389    -88.8921       93.86
         4        66.6266    -55.9668    127.4927     46.0508       75.03
         5         2.9456     -2.2261      3.1657      1.2951       88.07
 1/2[<0|r|b>*<b|rxdel|0> + (<0|rxdel|b>*<b|r|0>)*]
 Rotatory Strengths (R) in cgs (10**-40 erg-esu-cm/Gauss)
       state          XX          YY          ZZ     R(length)
         1         5.7109   1398.7824  -1388.3697      5.3745
         2        -0.7173   -211.8784    183.7563     -9.6131
         3        77.5831  -2111.2971   1788.4546    -81.7531
         4        19.8715   -105.4567    233.0100     49.1416
         5         1.4841      0.7253      5.5131      2.5742
  1/2[<0|del|b>*<b|r|0> + (<0|r|b>*<b|del|0>)*] (Au)
       state          X           Y           Z        Dip. S.   Osc.(frdel)
         1        -0.0000     -0.2112     -0.2946      0.5059      0.3372
         2        -0.0000     -0.0532     -0.0171      0.0702      0.0468
         3        -0.0051     -0.3925     -0.1899      0.5874      0.3916
         4        -0.0006     -0.0961     -0.0467      0.1434      0.0956
         5         0.0000     -0.0002     -0.0047      0.0049      0.0033

 Excitation energies and oscillator strengths:
 
 Excited State   1:      Singlet-A      1.7280 eV  717.51 nm  f=0.3472  <S**2>=0.000
     245 -> 248       -0.19218
     246 -> 247        0.68288
     245 <- 248       -0.11104
 This state for optimization and/or second-order correction.
 Total Energy, E(TD-HF/TD-DFT) =  -3007.07978268    
 Copying the excited state density for this state as the 1-particle RhoCI density.
 
 Excited State   2:      Singlet-A      2.2837 eV  542.90 nm  f=0.0507  <S**2>=0.000
     245 -> 247        0.60396
     246 -> 248        0.35741
 
 Excited State   3:      Singlet-A      3.4277 eV  361.71 nm  f=0.4093  <S**2>=0.000
     241 -> 247       -0.31727
     241 -> 249       -0.15743
     243 -> 247       -0.16367
     244 -> 247       -0.10659
     245 -> 247       -0.26186
     246 -> 248        0.49685
 
 Excited State   4:      Singlet-A      3.4560 eV  358.76 nm  f=0.1005  <S**2>=0.000
     241 -> 247        0.39302
     241 -> 249        0.25364
     241 -> 250       -0.11584
     241 -> 251        0.14009
     243 -> 247       -0.35983
     244 -> 247        0.13389
     245 -> 247       -0.12510
     246 -> 248        0.23871
 
 Excited State   5:      Singlet-A      3.4920 eV  355.05 nm  f=0.0032  <S**2>=0.000
     241 -> 247       -0.19768
     243 -> 247       -0.10287
     244 -> 247        0.64741
 SavETr:  write IOETrn=   770 NScale= 10 NData=  16 NLR=1 NState=    5 LETran=     100.
 Leave Link  914 at Wed May  4 15:54:45 2022, MaxMem= 10066329600 cpu:           27553.5 elap:            1158.6
 (Enter /sw/apps/gaussian-16.0/g16/l601.exe)
 Copying SCF densities to generalized density rwf, IOpCl= 0 IROHF=0.
 Hyperfine terms turned off by default for NAtoms > 100.

 **********************************************************************

            Population analysis using the SCF density.

 **********************************************************************

 Orbital symmetries:
       Occupied  (A) (A) (A) (A) (A) (A) (A) (A) (A) (A) (A) (A)
                 (A) (A) (A) (A) (A) (A) (A) (A) (A) (A) (A) (A)
                 (A) (A) (A) (A) (A) (A) (A) (A) (A) (A) (A) (A)
                 (A) (A) (A) (A) (A) (A) (A) (A) (A) (A) (A) (A)
[...]
 Alpha virt. eigenvalues --    1.16882   1.17198   1.18152   1.18548   1.18765
 Alpha virt. eigenvalues --    1.19259   1.20279   1.20374   1.20584   1.20768
 Alpha virt. eigenvalues --    1.21373   1.21756   1.21863   1.22626   1.24100
 Alpha virt. eigenvalues --    1.24218   1.24860   1.25242   1.25334   1.25893
 Alpha virt. eigenvalues --    1.26397   1.26802   1.27430   1.27587   1.27979
 Alpha virt. eigenvalues --    1.28270   1.29264   1.30018   1.30233   1.30492
 Alpha virt. eigenvalues --    1.31016   1.31463   1.32380   1.32500   1.32740
 Alpha virt. eigenvalues --    1.33175   1.33549   1.33596   1.34686   1.35652
 Alpha virt. eigenvalues --    1.36545   1.36833   1.37193   1.38298   1.38397
 Alpha virt. eigenvalues --    1.38702   1.39454   1.39938   1.40348   1.40373
 Alpha virt. eigenvalues --    1.41010   1.41125   1.41611   1.41724   1.41945
 Alpha virt. eigenvalues --    1.43078   1.43275   1.43756   1.44022   1.44087
 Alpha virt. eigenvalues --    1.44493   1.44962   1.45272   1.45439   1.46423
 Alpha virt. eigenvalues --    1.46560   1.47352   1.47651   1.47710   1.48145
 Alpha virt. eigenvalues --    1.48177   1.48919   1.49358   1.49493   1.49791
 Alpha virt. eigenvalues --    1.49945   1.50418   1.51324   1.51607   1.51689
 Alpha virt. eigenvalues --    1.52219   1.52613   1.53073   1.53207   1.53724
 Alpha virt. eigenvalues --    1.54190   1.54276   1.55111   1.55732   1.56060
 Alpha virt. eigenvalues --    1.56183   1.57158   1.57639   1.57781   1.58107
 Alpha virt. eigenvalues --    1.58155   1.58542   1.58999   1.59462   1.59701
 Alpha virt. eigenvalues --    1.59801   1.60003   1.60143   1.60309   1.60489
 Alpha virt. eigenvalues --    1.60639   1.61038   1.61164   1.61612   1.61861
 Alpha virt. eigenvalues --    1.62333   1.62537   1.62662   1.62789   1.63250
 Alpha virt. eigenvalues --    1.63518   1.63980   1.64339   1.64366   1.64886
 Alpha virt. eigenvalues --    1.65067   1.65140   1.65727   1.65963   1.66241
 Alpha virt. eigenvalues --    1.66600   1.67462   1.67645   1.67953   1.69361
 Alpha virt. eigenvalues --    1.69929   1.70039   1.70288   1.70780   1.71600
 Alpha virt. eigenvalues --    1.71624   1.71981   1.72445   1.72884   1.73101
 Alpha virt. eigenvalues --    1.73757   1.74016   1.74457   1.75065   1.75246
 Alpha virt. eigenvalues --    1.75716   1.76012   1.76580   1.76642   1.77143
 Alpha virt. eigenvalues --    1.77274   1.77749   1.78005   1.78275   1.78549
 Alpha virt. eigenvalues --    1.78638   1.78998   1.79151   1.79476   1.79664
 Alpha virt. eigenvalues --    1.79878   1.80053   1.80273   1.80750   1.81080
 Alpha virt. eigenvalues --    1.81185   1.81253   1.81493   1.81843   1.82432
 Alpha virt. eigenvalues --    1.82578   1.82908   1.83010   1.83201   1.83416
 Alpha virt. eigenvalues --    1.83651   1.83768   1.83889   1.84091   1.84187
 Alpha virt. eigenvalues --    1.84404   1.84426   1.84706   1.84786   1.84982
 Alpha virt. eigenvalues --    1.85099   1.85249   1.85418   1.85510   1.85631
 Alpha virt. eigenvalues --    1.85840   1.85892   1.86252   1.86368   1.86617
 Alpha virt. eigenvalues --    1.86843   1.86938   1.87170   1.87359   1.88023
 Alpha virt. eigenvalues --    1.88156   1.88223   1.88675   1.88910   1.89007
 Alpha virt. eigenvalues --    1.89205   1.89316   1.89662   1.89873   1.90181
 Alpha virt. eigenvalues --    1.90316   1.90376   1.90713   1.90823   1.90961
 Alpha virt. eigenvalues --    1.91066   1.91750   1.91917   1.92034   1.92135
 Alpha virt. eigenvalues --    1.92347   1.92778   1.92890   1.93146   1.93478
 Alpha virt. eigenvalues --    1.93503   1.93880   1.94187   1.94221   1.94661
 Alpha virt. eigenvalues --    1.94867   1.94970   1.95294   1.95536   1.95987
 Alpha virt. eigenvalues --    1.96074   1.96343   1.96922   1.97070   1.97285
 Alpha virt. eigenvalues --    1.97469   1.97626   1.97697   1.98104   1.98243
 Alpha virt. eigenvalues --    1.98688   1.99012   1.99330   1.99479   1.99796
 Alpha virt. eigenvalues --    2.00157   2.00509   2.00679   2.00816   2.00998
 Alpha virt. eigenvalues --    2.01614   2.01968   2.02176   2.02746   2.03033
 Alpha virt. eigenvalues --    2.03459   2.03643   2.03788   2.03921   2.04225
 Alpha virt. eigenvalues --    2.04639   2.05177   2.05344   2.06109   2.06587
 Alpha virt. eigenvalues --    2.06879   2.06961   2.07050   2.07253   2.07312
 Alpha virt. eigenvalues --    2.07872   2.07970   2.08493   2.08701   2.08898
 Alpha virt. eigenvalues --    2.09314   2.09522   2.09770   2.09821   2.10213
 Alpha virt. eigenvalues --    2.10729   2.10972   2.11451   2.11646   2.11812
 Alpha virt. eigenvalues --    2.12238   2.12438   2.12842   2.12899   2.13571
 Alpha virt. eigenvalues --    2.13909   2.14026   2.14056   2.14260   2.14829
 Alpha virt. eigenvalues --    2.15206   2.15513   2.15586   2.15808   2.15963
 Alpha virt. eigenvalues --    2.16234   2.17203   2.17393   2.17655   2.18033
 Alpha virt. eigenvalues --    2.18061   2.18336   2.18452   2.18893   2.18939
 Alpha virt. eigenvalues --    2.19271   2.19817   2.19925   2.20473   2.20817
 Alpha virt. eigenvalues --    2.21061   2.21235   2.21558   2.21653   2.22207
 Alpha virt. eigenvalues --    2.22719   2.23149   2.23550   2.24296   2.24414
 Alpha virt. eigenvalues --    2.24684   2.25627   2.26066   2.26377   2.27081
 Alpha virt. eigenvalues --    2.27488   2.27717   2.28378   2.28565   2.28709
 Alpha virt. eigenvalues --    2.29130   2.29359   2.30239   2.30779   2.30987
 Alpha virt. eigenvalues --    2.30995   2.32390   2.32441   2.32719   2.33109
 Alpha virt. eigenvalues --    2.33249   2.33598   2.33873   2.34737   2.35042
 Alpha virt. eigenvalues --    2.35332   2.35561   2.36006   2.36518   2.36596
 Alpha virt. eigenvalues --    2.37080   2.37281   2.37504   2.37786   2.37879
 Alpha virt. eigenvalues --    2.38159   2.38683   2.38934   2.39075   2.39534
 Alpha virt. eigenvalues --    2.39732   2.40090   2.40323   2.40651   2.41008
 Alpha virt. eigenvalues --    2.41861   2.42097   2.42337   2.42692   2.43074
 Alpha virt. eigenvalues --    2.43451   2.43770   2.44205   2.44712   2.45361
 Alpha virt. eigenvalues --    2.45403   2.45691   2.45827   2.46219   2.46439
 Alpha virt. eigenvalues --    2.47031   2.47247   2.47750   2.48779   2.48803
 Alpha virt. eigenvalues --    2.49467   2.49632   2.49892   2.50619   2.51158
 Alpha virt. eigenvalues --    2.51501   2.51611   2.51938   2.52977   2.53528
 Alpha virt. eigenvalues --    2.54006   2.54082   2.54337   2.54856   2.55075
 Alpha virt. eigenvalues --    2.55674   2.55762   2.56408   2.56578   2.57674
 Alpha virt. eigenvalues --    2.58188   2.58511   2.59058   2.59506   2.59771
 Alpha virt. eigenvalues --    2.60725   2.61294   2.61411   2.61671   2.62000
 Alpha virt. eigenvalues --    2.62335   2.62419   2.62947   2.63246   2.63608
 Alpha virt. eigenvalues --    2.63945   2.64227   2.64575   2.65465   2.65832
 Alpha virt. eigenvalues --    2.66604   2.66623   2.67077   2.67248   2.67644
 Alpha virt. eigenvalues --    2.67877   2.68053   2.68474   2.69118   2.69596
 Alpha virt. eigenvalues --    2.70549   2.70722   2.70863   2.70990   2.71312
 Alpha virt. eigenvalues --    2.71351   2.71796   2.72051   2.72600   2.73129
 Alpha virt. eigenvalues --    2.73933   2.74218   2.74587   2.75977   2.76124
 Alpha virt. eigenvalues --    2.76719   2.76937   2.77011   2.77433   2.78155
 Alpha virt. eigenvalues --    2.78372   2.78665   2.79222   2.79393   2.79443
 Alpha virt. eigenvalues --    2.79818   2.80107   2.80534   2.81402   2.81602
 Alpha virt. eigenvalues --    2.81961   2.82126   2.82219   2.82773   2.83937
 Alpha virt. eigenvalues --    2.84101   2.84387   2.85669   2.86102   2.86248
 Alpha virt. eigenvalues --    2.87183   2.87288   2.87858   2.88367   2.88745
 Alpha virt. eigenvalues --    2.89969   2.90435   2.90747   2.91196   2.91637
 Alpha virt. eigenvalues --    2.92323   2.92618   2.93152   2.93615   2.93845
 Alpha virt. eigenvalues --    2.94190   2.95265   2.95442   2.95793   2.96085
 Alpha virt. eigenvalues --    2.96196   2.97046   2.97087   2.97433   2.97788
 Alpha virt. eigenvalues --    2.97844   2.98081   2.98325   2.98574   2.98634
 Alpha virt. eigenvalues --    2.99140   2.99245   3.00033   3.00191   3.00513
 Alpha virt. eigenvalues --    3.00854   3.01028   3.01221   3.01802   3.02174
 Alpha virt. eigenvalues --    3.02719   3.03020   3.03315   3.03872   3.04095
 Alpha virt. eigenvalues --    3.04221   3.04478   3.04563   3.04839   3.04958
 Alpha virt. eigenvalues --    3.05517   3.05611   3.05729   3.06452   3.06788
 Alpha virt. eigenvalues --    3.07147   3.07369   3.07459   3.07783   3.08178
 Alpha virt. eigenvalues --    3.08410   3.08904   3.09064   3.09234   3.09365
 Alpha virt. eigenvalues --    3.09760   3.10194   3.10288   3.10938   3.11329
 Alpha virt. eigenvalues --    3.12148   3.12898   3.13754   3.14286   3.14291
 Alpha virt. eigenvalues --    3.14499   3.14602   3.14972   3.16151   3.16897
 Alpha virt. eigenvalues --    3.17049   3.18049   3.18752   3.19932   3.20464
 Alpha virt. eigenvalues --    3.21121   3.21861   3.22840   3.24449   3.24747
 Alpha virt. eigenvalues --    3.25024   3.26500   3.27113   3.27636   3.29288
 Alpha virt. eigenvalues --    3.31450   3.32531   3.41575   3.44312   3.46686
 Alpha virt. eigenvalues --    3.49435   3.51205   3.51800   3.55377   3.57497
 Alpha virt. eigenvalues --    3.62906   3.64793   3.65592   3.68216   3.70657
 Alpha virt. eigenvalues --    3.72750   3.74179
          Condensed to atoms (all electrons):
 Mulliken charges:
               1
     1  Mg   0.818568
     2  C   -0.031758
     3  C   -0.090207
     4  C   -0.046622
     5  C   -0.088113
     6  N   -0.260859
     7  C   -0.075904
     8  C   -0.069163
     9  C   -0.061464
    10  C    0.016129
    11  C    0.108665
    12  C    0.095092
    13  C    0.059593
    14  C    0.159673
    15  O   -0.268058
    16  O   -0.325410
    17  N   -0.432356
    18  C    0.195638
    19  C   -0.155577
    20  C   -0.066522
    21  C    0.128792
    22  C    0.128515
    23  C    0.011233
    24  O   -0.165711
    25  C    0.047208
    26  N   -0.261043
    27  C    0.045298
    28  C   -0.043608
    29  C   -0.029944
    30  C    0.050235
    31  C    0.066876
    32  C    0.022846
    33  C    0.021421
    34  N   -0.342443
    35  C    0.111970
    36  C   -0.194450
    37  C    0.034000
    38  C    0.151472
    39  C    0.142272
    40  C    0.023044
    41  O   -0.181297
    42  C    0.036683
    43  C    0.219720
    44  O   -0.217945
    45  O   -0.326191
    46  C    0.181692
    47  C    0.284527
    48  C   -0.129493
    49  C   -0.145727
    50  C    0.080296
    51  C    0.075484
    52  C    0.009050
    53  C    0.045975
    54  C   -0.157907
    55  C    0.062957
    56  C    0.055731
    57  C    0.045561
    58  C    0.068481
    59  C   -0.135076
    60  C    0.034101
    61  C    0.032379
    62  C   -0.012021
    63  C    0.063550
    64  C   -0.207869
    65  C    0.030747
    66  C    0.075431
    67  H   -0.024944
    68  H   -0.052955
    69  H   -0.027381
    70  H   -0.002742
    71  H   -0.003900
    72  H    0.020197
    73  H    0.017821
    74  H    0.033420
    75  H    0.007535
    76  H    0.030735
    77  H    0.021772
    78  H    0.036209
    79  H    0.031569
    80  H   -0.009802
    81  H    0.027556
    82  H    0.050146
    83  H    0.014288
    84  H    0.046875
    85  H    0.006212
    86  H    0.001346
    87  H    0.023606
    88  H    0.019770
    89  H    0.008110
    90  H    0.018877
    91  H   -0.007989
    92  H    0.021731
    93  H    0.005839
    94  H    0.020074
    95  H    0.015145
    96  H    0.033965
    97  H    0.042889
    98  H    0.038160
    99  H    0.021752
   100  H    0.032241
   101  H    0.035518
   102  H    0.019018
   103  H    0.048467
   104  H   -0.002683
   105  H    0.023247
   106  H    0.012039
   107  H    0.029516
   108  H    0.008536
   109  H   -0.004464
   110  H   -0.014932
   111  H   -0.002709
   112  H    0.008442
   113  H   -0.011708
   114  H    0.004375
   115  H    0.001604
   116  H    0.001375
   117  H    0.002753
   118  H   -0.000985
   119  H   -0.010602
   120  H    0.006229
   121  H    0.010401
   122  H   -0.005151
   123  H   -0.016844
   124  H   -0.000529
   125  H    0.008291
   126  H   -0.003043
   127  H   -0.004128
   128  H   -0.007003
   129  H   -0.013814
   130  H    0.001442
   131  H   -0.003508
   132  H   -0.008007
   133  H    0.001122
   134  H   -0.006157
   135  H    0.015588
   136  H    0.002898
   137  H    0.015470
   138  H   -0.002312
   139  H    0.006349
   140  H    0.019605
 Sum of Mulliken charges =  -0.00000
 Mulliken charges with hydrogens summed into heavy atoms:
               1
     1  Mg   0.818568
     2  C   -0.031758
     3  C   -0.115151
     4  C   -0.099577
     5  C   -0.115494
     6  N   -0.260859
     7  C   -0.075904
     8  C   -0.071905
     9  C   -0.065365
    10  C    0.016129
    11  C    0.180102
    12  C    0.133361
    13  C    0.117574
    14  C    0.159673
    15  O   -0.268058
    16  O   -0.325410
    17  N   -0.432356
    18  C    0.195638
    19  C   -0.155577
    20  C   -0.066522
    21  C    0.128792
    22  C    0.177837
    23  C    0.011233
    24  O   -0.165711
    25  C    0.158517
    26  N   -0.261043
    27  C    0.045298
    28  C   -0.037396
    29  C   -0.028597
    30  C    0.050235
    31  C    0.118362
    32  C    0.033734
    33  C    0.069065
    34  N   -0.342443
    35  C    0.111970
    36  C   -0.194450
    37  C    0.034000
    38  C    0.151472
    39  C    0.234272
    40  C    0.023044
    41  O   -0.181297
    42  C    0.074842
    43  C    0.219720
    44  O   -0.217945
    45  O   -0.326191
    46  C    0.271203
    47  C    0.352012
    48  C   -0.132176
    49  C   -0.145727
    50  C    0.145098
    51  C    0.079556
    52  C   -0.008591
    53  C    0.042709
    54  C   -0.153532
    55  C    0.068689
    56  C    0.044145
    57  C    0.062192
    58  C    0.046486
    59  C   -0.135605
    60  C    0.035220
    61  C    0.011562
    62  C   -0.014087
    63  C    0.056666
    64  C   -0.214026
    65  C    0.064703
    66  C    0.099074
 Electronic spatial extent (au):  <R**2>=         101817.9852
 Charge=             -0.0000 electrons
 Dipole moment (field-independent basis, Debye):
    X=             -1.5278    Y=              2.9432    Z=             -1.0454  Tot=              3.4770
 Quadrupole moment (field-independent basis, Debye-Ang):
   XX=           -390.4547   YY=           -413.2949   ZZ=           -401.9016
   XY=             23.5127   XZ=              1.3168   YZ=             57.7904
 Traceless Quadrupole moment (field-independent basis, Debye-Ang):
   XX=             11.4290   YY=            -11.4112   ZZ=             -0.0179
   XY=             23.5127   XZ=              1.3168   YZ=             57.7904
 Octapole moment (field-independent basis, Debye-Ang**2):
  XXX=             59.1518  YYY=             30.4258  ZZZ=             60.7307  XYY=             71.8243
  XXY=            -11.6677  XXZ=            -38.4280  XZZ=             33.6170  YZZ=            -79.5948
  YYZ=             14.5279  XYZ=            197.6731
 Hexadecapole moment (field-independent basis, Debye-Ang**3):
 XXXX=         -99137.5694 YYYY=         -26653.9951 ZZZZ=         -14886.7391 XXXY=            945.4323
 XXXZ=           -234.4351 YYYX=           -206.6063 YYYZ=           1571.0568 ZZZX=            486.9472
 ZZZY=            685.4675 XXYY=         -20056.0003 XXZZ=         -19337.6594 YYZZ=          -7767.9426
 XXYZ=           1099.9073 YYXZ=            125.8293 ZZXY=           -173.1221
 N-N= 9.764937200772D+03 E-N=-2.652171560287D+04  KE= 2.975229773276D+03
 Leave Link  601 at Wed May  4 15:54:46 2022, MaxMem= 10066329600 cpu:              12.3 elap:               0.6
 (Enter /sw/apps/gaussian-16.0/g16/l9999.exe)
 1\1\GINC-BP1-COMPUTE065\SP\RCAM-B3LYP TD-FC\def2SVP\C55H74Mg1N4O6\OF15
 641\04-May-2022\0\\#p cam-b3lyp/Def2SVP td=(nstates=5)\\step_1_chromop
 hore_8 TDDFT with cam-b3lyp functional\\0,1\Mg,0,44.805,2.872,46.678\C
 ,0,42.564,5.571,46.818\C,0,42.138,0.792,46.357\C,0,47.013,0.524,46.123
 \C,0,47.342,5.378,46.178\N,0,42.641,3.171,46.669\C,0,41.942,4.344,46.7
 17\C,0,40.483,4.049,46.338\C,0,40.34,2.59,46.757\C,0,41.789,2.143,46.4
 84\C,0,39.961,2.426,48.247\C,0,40.236,4.257,44.798\C,0,39.269,5.454,44
 .334\C,0,39.839,6.574,43.447\O,0,39.909,7.8,43.735\O,0,40.258,6.011,42
 .288\N,0,44.607,0.937,46.236\C,0,43.419,0.246,46.169\C,0,43.72,-1.144,
 46.025\C,0,45.142,-1.325,46.069\C,0,45.676,0.066,46.14\C,0,42.621,-2.2
 53,45.89\C,0,45.872,-2.717,46.064\O,0,45.237,-3.725,46.117\C,0,47.314,
 -2.741,46.277\N,0,46.838,2.954,45.9\C,0,47.545,1.827,46.153\C,0,49.019
 ,2.09,46.412\C,0,49.175,3.562,46.062\C,0,47.676,4.022,46.033\C,0,49.44
 6,1.783,47.895\C,0,49.966,3.979,44.734\C,0,51.333,4.607,44.784\N,0,45.
 003,4.992,46.726\C,0,46.077,5.865,46.51\C,0,45.657,7.249,46.552\C,0,44
 .294,7.169,46.699\C,0,43.899,5.793,46.779\C,0,46.537,8.416,46.377\C,0,
 43.082,7.966,46.811\O,0,42.95,9.194,46.884\C,0,41.945,6.984,47.\C,0,41
 .328,7.264,48.366\O,0,42.006,7.201,49.389\O,0,40.001,7.707,48.253\C,0,
 39.367,8.023,49.505\C,0,40.734,6.971,41.278\C,0,40.929,6.279,39.954\C,
 0,39.945,5.903,39.081\C,0,38.433,6.215,39.304\C,0,40.231,5.164,37.78\C
 ,0,40.224,3.607,38.037\C,0,41.579,2.833,38.222\C,0,42.051,2.044,36.889
 \C,0,42.658,0.718,37.242\C,0,42.953,2.919,35.904\C,0,42.39,2.823,34.42
 8\C,0,42.039,4.13,33.765\C,0,42.943,4.45,32.506\C,0,44.091,5.479,32.84
 3\C,0,42.191,4.949,31.209\C,0,42.21,3.914,30.017\C,0,43.423,4.168,29.0
 71\C,0,43.036,4.286,27.586\C,0,44.105,5.092,26.712\C,0,42.825,2.982,26
 .907\H,0,41.262,0.143,46.414\H,0,47.712,-0.302,46.263\H,0,48.133,6.13,
 46.137\H,0,39.873,4.807,46.83\H,0,39.594,2.126,46.113\H,0,39.125,1.738
 ,48.126\H,0,39.668,3.426,48.568\H,0,40.731,2.033,48.911\H,0,39.762,3.3
 5,44.423\H,0,41.21,4.308,44.312\H,0,38.982,5.962,45.255\H,0,38.337,5.1
 32,43.871\H,0,42.716,-2.971,45.076\H,0,41.68,-1.717,45.762\H,0,42.518,
 -2.855,46.793\H,0,47.887,-2.174,45.543\H,0,47.646,-3.779,46.258\H,0,47
 .544,-2.496,47.313\H,0,49.67,1.444,45.822\H,0,49.627,4.102,46.894\H,0,
 49.918,0.808,48.015\H,0,48.604,1.968,48.562\H,0,50.202,2.521,48.167\H,
 0,49.412,4.488,43.946\H,0,50.095,2.959,44.371\H,0,52.118,3.973,44.373\
 H,0,51.6,4.817,45.82\H,0,51.226,5.529,44.213\H,0,47.399,8.096,45.791\H
 ,0,46.889,8.667,47.378\H,0,45.995,9.266,45.965\H,0,41.251,7.276,46.213
 \H,0,39.046,7.156,50.083\H,0,38.484,8.645,49.361\H,0,39.982,8.613,50.1
 84\H,0,41.72,7.217,41.674\H,0,40.076,7.834,41.171\H,0,41.954,6.089,39.
 635\H,0,38.257,6.543,40.328\H,0,37.775,5.354,39.189\H,0,38.187,6.844,3
 8.448\H,0,41.162,5.507,37.33\H,0,39.514,5.279,36.967\H,0,39.716,3.107,
 37.212\H,0,39.546,3.342,38.849\H,0,41.625,2.262,39.15\H,0,42.353,3.598
 ,38.283\H,0,41.131,1.716,36.406\H,0,42.012,-0.12,36.979\H,0,42.765,0.5
 93,38.32\H,0,43.605,0.622,36.711\H,0,44.01,2.654,35.941\H,0,42.985,3.9
 44,36.272\H,0,41.403,2.362,34.48\H,0,43.085,2.245,33.819\H,0,41.986,4.
 989,34.433\H,0,41.048,4.17,33.313\H,0,43.496,3.585,32.14\H,0,44.209,6.
 321,32.162\H,0,45.058,4.977,32.853\H,0,44.014,5.897,33.847\H,0,42.608,
 5.793,30.661\H,0,41.161,5.217,31.442\H,0,41.256,3.929,29.49\H,0,42.306
 ,2.972,30.557\H,0,44.006,3.266,29.259\H,0,44.045,5.047,29.244\H,0,42.1
 48,4.914,27.507\H,0,43.632,6.071,26.646\H,0,44.187,4.595,25.746\H,0,45
 .085,5.06,27.188\H,0,42.139,3.354,26.145\H,0,42.235,2.317,27.538\H,0,4
 3.741,2.653,26.415\\Version=ES64L-G16RevA.03\State=1-A\HF=-3007.143284
 3\RMSD=7.312e-09\PG=C01 [X(C55H74Mg1N4O6)]\\@


 IT TAKES GREATER CHARACTER TO CARRY OFF GOOD FORTUNE THAN BAD.
                     FRENCH PROVERB.
 Job cpu time:       0 days 10 hours 10 minutes 54.2 seconds.
 Elapsed time:       0 days  0 hours 25 minutes 54.6 seconds.
 File lengths (MBytes):  RWF=   8929 Int=      0 D2E=      0 Chk=    390 Scr=      1
 Normal termination of Gaussian 16 at Wed May  4 15:54:47 2022.
