 Entering Gaussian System, Link 0=g16
 Initial command:
 /sw/apps/gaussian-16.0/g16/l1.exe "/tmp/Gau-154430.inp" -scrdir="/tmp/"
 Entering Link 1 = /sw/apps/gaussian-16.0/g16/l1.exe PID=    154431.
  
 Copyright (c) 1988,1990,1992,1993,1995,1998,2003,2009,2016,
            Gaussian, Inc.  All Rights Reserved.
  
 This is part of the Gaussian(R) 16 program.  It is based on
 the Gaussian(R) 09 system (copyright 2009, Gaussian, Inc.),
 the Gaussian(R) 03 system (copyright 2003, Gaussian, Inc.),
 the Gaussian(R) 98 system (copyright 1998, Gaussian, Inc.),
 the Gaussian(R) 94 system (copyright 1995, Gaussian, Inc.),
 the Gaussian 92(TM) system (copyright 1992, Gaussian, Inc.),
 the Gaussian 90(TM) system (copyright 1990, Gaussian, Inc.),
 the Gaussian 88(TM) system (copyright 1988, Gaussian, Inc.),
 the Gaussian 86(TM) system (copyright 1986, Carnegie Mellon
 University), and the Gaussian 82(TM) system (copyright 1983,
 Carnegie Mellon University). Gaussian is a federally registered
 trademark of Gaussian, Inc.
  
 This software contains proprietary and confidential information,
 including trade secrets, belonging to Gaussian, Inc.
  
 This software is provided under written license and may be
 used, copied, transmitted, or stored only in accord with that
 written license.
  
 The following legend is applicable only to US Government
 contracts under FAR:
  
                    RESTRICTED RIGHTS LEGEND
  
 Use, reproduction and disclosure by the US Government is
 subject to restrictions as set forth in subparagraphs (a)
 and (c) of the Commercial Computer Software - Restricted
 Rights clause in FAR 52.227-19.
  
 Gaussian, Inc.
 340 Quinnipiac St., Bldg. 40, Wallingford CT 06492
  
  
 ---------------------------------------------------------------
 Warning -- This program may not be used in any manner that
 competes with the business of Gaussian, Inc. or will provide
 assistance to any competitor of Gaussian, Inc.  The licensee
 of this program is prohibited from giving any competitor of
 Gaussian, Inc. access to this program.  By using this program,
 the user acknowledges that Gaussian, Inc. is engaged in the
 business of creating and licensing software in the field of
 computational chemistry and represents and warrants to the
 licensee that it is not a competitor of Gaussian, Inc. and that
 it will not use this program in any manner prohibited above.
 ---------------------------------------------------------------
  

 Cite this work as:
 Gaussian 16, Revision A.03,
 M. J. Frisch, G. W. Trucks, H. B. Schlegel, G. E. Scuseria, 
 M. A. Robb, J. R. Cheeseman, G. Scalmani, V. Barone, 
 G. A. Petersson, H. Nakatsuji, X. Li, M. Caricato, A. V. Marenich, 
 J. Bloino, B. G. Janesko, R. Gomperts, B. Mennucci, H. P. Hratchian, 
 J. V. Ortiz, A. F. Izmaylov, J. L. Sonnenberg, D. Williams-Young, 
 F. Ding, F. Lipparini, F. Egidi, J. Goings, B. Peng, A. Petrone, 
 T. Henderson, D. Ranasinghe, V. G. Zakrzewski, J. Gao, N. Rega, 
 G. Zheng, W. Liang, M. Hada, M. Ehara, K. Toyota, R. Fukuda, 
 J. Hasegawa, M. Ishida, T. Nakajima, Y. Honda, O. Kitao, H. Nakai, 
 T. Vreven, K. Throssell, J. A. Montgomery, Jr., J. E. Peralta, 
 F. Ogliaro, M. J. Bearpark, J. J. Heyd, E. N. Brothers, K. N. Kudin, 
 V. N. Staroverov, T. A. Keith, R. Kobayashi, J. Normand, 
 K. Raghavachari, A. P. Rendell, J. C. Burant, S. S. Iyengar, 
 J. Tomasi, M. Cossi, J. M. Millam, M. Klene, C. Adamo, R. Cammi, 
 J. W. Ochterski, R. L. Martin, K. Morokuma, O. Farkas, 
 J. B. Foresman, and D. J. Fox, Gaussian, Inc., Wallingford CT, 2016.
 
 ******************************************
 Gaussian 16:  ES64L-G16RevA.03 25-Dec-2016
                 5-May-2022 
 ******************************************
 %nproc=24
 Will use up to   24 processors via shared memory.
 %mem=75GB
 -----------------------------------
 #p cam-b3lyp/Def2SVP td=(nstates=5)
 -----------------------------------
 1/38=1,172=1/1;
 2/12=2,17=6,18=5,40=1/2;
 3/5=43,7=101,11=9,25=1,30=1,74=-40/1,2,3,8;
 4//1;
 5/5=2,38=5/2;
 8/6=1,10=1,108=5/1;
 9/41=5,42=1,70=2/14;
 6/7=2,8=2,9=2,10=2/1;
 99/5=1,9=1/99;
 Leave Link    1 at Thu May  5 06:34:10 2022, MaxMem= 10066329600 cpu:               0.6 elap:               0.0
 (Enter /sw/apps/gaussian-16.0/g16/l101.exe)
 -------------------------------------------------------
 step_751_chromophore_10 TDDFT with cam-b3lyp functional
 -------------------------------------------------------
 Symbolic Z-matrix:
 Charge =  0 Multiplicity = 1
 Mg                    41.426    8.005     28.735 
 C                     43.006    9.343     31.598 
 C                     39.129    6.664     30.651 
 C                     40.159    6.651     25.888 
 C                     44.045    9.37      26.856 
 N                     41.167    8.026     30.921 
 C                     41.822    8.652     31.883 
 C                     41.269    8.284     33.232 
 C                     40.1      7.195     32.905 
 C                     40.121    7.287     31.425 
 C                     40.208    5.708     33.507 
 C                     40.705    9.521     33.967 
 C                     40.998    9.735     35.503 
 C                     41.535    11.125    35.979 
 O                     42.076    11.949    35.233 
 O                     41.083    11.408    37.307 
 N                     39.813    6.915     28.358 
 C                     38.917    6.517     29.303 
 C                     37.819    5.808     28.704 
 C                     38.057    5.871     27.286 
 C                     39.402    6.425     27.089 
 C                     36.744    5.04      29.5 
 C                     37.079    5.451     26.215 
 O                     37.453    5.537     25.024 
 C                     35.706    4.858     26.533 
 N                     42.065    7.975     26.66 
 C                     41.42     7.315     25.686 
 C                     42.102    7.368     24.33 
 C                     43.245    8.389     24.61 
 C                     43.108    8.652     26.146 
 C                     42.671    6.036     23.85 
 C                     43.115    9.612     23.743 
 C                     42.094    10.686    24.165 
 N                     43.138    9.241     29.111 
 C                     44.036    9.749     28.221 
 C                     45.12     10.432    28.848 
 C                     44.724    10.396    30.243 
 C                     43.567    9.551     30.312 
 C                     46.342    11.072    28.162 
 C                     45.065    10.756    31.64 
 O                     46.025    11.361    32.14 
 C                     43.947    10.17     32.526 
 C                     44.571    9.136     33.445 
 O                     45.52     8.394     33.147 
 O                     43.984    9.148     34.701 
 C                     44.465    8.219     35.708 
 C                     41.45     12.751    37.685 
 C                     40.77     12.873    39.003 
 C                     41.373    12.714    40.236 
 C                     42.793    12.187    40.442 
 C                     40.589    12.81     41.533 
 C                     39.686    11.568    41.739 
 C                     40.13     10.642    42.908 
 C                     39.148    10.741    44.16 
 C                     39.845    10.244    45.419 
 C                     37.683    10.114    43.971 
 C                     36.525    10.75     44.819 
 C                     35.766    11.831    43.981 
 C                     34.354    11.452    43.499 
 C                     34.217    11.769    42. 
 C                     33.235    12.138    44.388 
 C                     33.182    11.671    45.837 
 C                     33.895    12.592    46.936 
 C                     34.794    11.896    47.893 
 C                     33.852    11.105    48.75 
 C                     35.676    12.88     48.676 
 H                     38.253    6.369     31.232 
 H                     39.779    6.255     24.944 
 H                     44.858    9.887     26.343 
 H                     42.079    7.748     33.728 
 H                     39.109    7.497     33.242 
 H                     39.285    5.573     34.071 
 H                     41.026    5.786     34.223 
 H                     40.366    4.878     32.819 
 H                     39.617    9.492     33.901 
 H                     40.982    10.404    33.391 
 H                     41.687    8.947     35.808 
 H                     40.048    9.468     35.965 
 H                     35.908    5.726     29.639 
 H                     37.014    4.794     30.527 
 H                     36.323    4.128     29.078 
 H                     35.301    5.568     27.255 
 H                     35.858    3.811     26.795 
 H                     35.171    4.99      25.593 
 H                     41.369    7.718     23.604 
 H                     44.243    7.978     24.458 
 H                     42.754    6.062     22.763 
 H                     42.049    5.193     24.151 
 H                     43.668    5.861     24.256 
 H                     42.903    9.262     22.733 
 H                     44.131    10.002    23.679 
 H                     42.705    11.575    24.32 
 H                     41.701    10.682    25.182 
 H                     41.283    10.823    23.45 
 H                     46.391    10.886    27.089 
 H                     47.239    10.708    28.663 
 H                     46.402    12.16     28.189 
 H                     43.339    10.833    33.141 
 H                     45.472    7.811     35.628 
 H                     43.694    7.45      35.764 
 H                     44.387    8.734     36.665 
 H                     40.97     13.484    37.037 
 H                     42.515    12.839    37.901 
 H                     39.764    13.283    38.91 
 H                     43.614    12.813    40.091 
 H                     42.753    11.332    39.768 
 H                     42.993    11.818    41.448 
 H                     39.858    13.616    41.607 
 H                     41.248    12.931    42.393 
 H                     39.493    11.008    40.824 
 H                     38.701    11.995    41.925 
 H                     41.157    10.777    43.249 
 H                     40.189    9.595     42.61 
 H                     38.784    11.76     44.287 
 H                     39.231    10.462    46.293 
 H                     40.757    10.818    45.581 
 H                     40.019    9.168     45.433 
 H                     37.566    9.094     44.337 
 H                     37.52     10.029    42.897 
 H                     37.001    11.173    45.704 
 H                     35.831    9.943     45.057 
 H                     36.367    12.038    43.095 
 H                     35.673    12.761    44.541 
 H                     34.274    10.366    43.545 
 H                     33.17     11.722    41.7 
 H                     34.69     10.955    41.452 
 H                     34.723    12.702    41.751 
 H                     32.241    12.137    43.941 
 H                     33.517    13.189    44.323 
 H                     33.556    10.651    45.921 
 H                     32.13     11.668    46.123 
 H                     33.209    13.239    47.481 
 H                     34.446    13.275    46.289 
 H                     35.436    11.23     47.316 
 H                     34.275    10.103    48.688 
 H                     32.804    10.968    48.484 
 H                     33.926    11.322    49.816 
 H                     36.677    12.459    48.58 
 H                     35.483    12.884    49.749 
 H                     35.734    13.945    48.451 
 
 ITRead=  0  0  0  0  0  0  0  0  0  0  0  0  0  0  0  0  0  0  0  0
 ITRead=  0  0  0  0  0  0  0  0  0  0  0  0  0  0  0  0  0  0  0  0
 ITRead=  0  0  0  0  0  0  0  0  0  0  0  0  0  0  0  0  0  0  0  0
 ITRead=  0  0  0  0  0  0  0  0  0  0  0  0  0  0  0  0  0  0  0  0
 ITRead=  0  0  0  0  0  0  0  0  0  0  0  0  0  0  0  0  0  0  0  0
 ITRead=  0  0  0  0  0  0  0  0  0  0  0  0  0  0  0  0  0  0  0  0
 ITRead=  0  0  0  0  0  0  0  0  0  0  0  0  0  0  0  0  0  0  0  0
 MicOpt= -1 -1 -1 -1 -1 -1 -1 -1 -1 -1 -1 -1 -1 -1 -1 -1 -1 -1 -1 -1
 MicOpt= -1 -1 -1 -1 -1 -1 -1 -1 -1 -1 -1 -1 -1 -1 -1 -1 -1 -1 -1 -1
 MicOpt= -1 -1 -1 -1 -1 -1 -1 -1 -1 -1 -1 -1 -1 -1 -1 -1 -1 -1 -1 -1
 MicOpt= -1 -1 -1 -1 -1 -1 -1 -1 -1 -1 -1 -1 -1 -1 -1 -1 -1 -1 -1 -1
 MicOpt= -1 -1 -1 -1 -1 -1 -1 -1 -1 -1 -1 -1 -1 -1 -1 -1 -1 -1 -1 -1
 MicOpt= -1 -1 -1 -1 -1 -1 -1 -1 -1 -1 -1 -1 -1 -1 -1 -1 -1 -1 -1 -1
 MicOpt= -1 -1 -1 -1 -1 -1 -1 -1 -1 -1 -1 -1 -1 -1 -1 -1 -1 -1 -1 -1
 NAtoms=    140 NQM=      140 NQMF=       0 NMMI=      0 NMMIF=      0
                NMic=       0 NMicF=      0.
                    Isotopes and Nuclear Properties:
 (Nuclear quadrupole moments (NQMom) in fm**2, nuclear magnetic moments (NMagM)
  in nuclear magnetons)

  Atom         1           2           3           4           5           6           7           8           9          10
 IAtWgt=          24          12          12          12          12          14          12          12          12          12
 AtmWgt=  23.9850450  12.0000000  12.0000000  12.0000000  12.0000000  14.0030740  12.0000000  12.0000000  12.0000000  12.0000000
 NucSpn=           0           0           0           0           0           2           0           0           0           0
 AtZEff=  -0.0000000  -0.0000000  -0.0000000  -0.0000000  -0.0000000  -0.0000000  -0.0000000  -0.0000000  -0.0000000  -0.0000000
 NQMom=    0.0000000   0.0000000   0.0000000   0.0000000   0.0000000   2.0440000   0.0000000   0.0000000   0.0000000   0.0000000
 NMagM=    0.0000000   0.0000000   0.0000000   0.0000000   0.0000000   0.4037610   0.0000000   0.0000000   0.0000000   0.0000000
 AtZNuc=  12.0000000   6.0000000   6.0000000   6.0000000   6.0000000   7.0000000   6.0000000   6.0000000   6.0000000   6.0000000

  Atom        11          12          13          14          15          16          17          18          19          20
 IAtWgt=          12          12          12          12          16          16          14          12          12          12
 AtmWgt=  12.0000000  12.0000000  12.0000000  12.0000000  15.9949146  15.9949146  14.0030740  12.0000000  12.0000000  12.0000000
 NucSpn=           0           0           0           0           0           0           2           0           0           0
 AtZEff=  -0.0000000  -0.0000000  -0.0000000  -0.0000000  -0.0000000  -0.0000000  -0.0000000  -0.0000000  -0.0000000  -0.0000000
 NQMom=    0.0000000   0.0000000   0.0000000   0.0000000   0.0000000   0.0000000   2.0440000   0.0000000   0.0000000   0.0000000
 NMagM=    0.0000000   0.0000000   0.0000000   0.0000000   0.0000000   0.0000000   0.4037610   0.0000000   0.0000000   0.0000000
 AtZNuc=   6.0000000   6.0000000   6.0000000   6.0000000   8.0000000   8.0000000   7.0000000   6.0000000   6.0000000   6.0000000

  Atom        21          22          23          24          25          26          27          28          29          30
 IAtWgt=          12          12          12          16          12          14          12          12          12          12
 AtmWgt=  12.0000000  12.0000000  12.0000000  15.9949146  12.0000000  14.0030740  12.0000000  12.0000000  12.0000000  12.0000000
 NucSpn=           0           0           0           0           0           2           0           0           0           0
 AtZEff=  -0.0000000  -0.0000000  -0.0000000  -0.0000000  -0.0000000  -0.0000000  -0.0000000  -0.0000000  -0.0000000  -0.0000000
 NQMom=    0.0000000   0.0000000   0.0000000   0.0000000   0.0000000   2.0440000   0.0000000   0.0000000   0.0000000   0.0000000
 NMagM=    0.0000000   0.0000000   0.0000000   0.0000000   0.0000000   0.4037610   0.0000000   0.0000000   0.0000000   0.0000000
 AtZNuc=   6.0000000   6.0000000   6.0000000   8.0000000   6.0000000   7.0000000   6.0000000   6.0000000   6.0000000   6.0000000

  Atom        31          32          33          34          35          36          37          38          39          40
 IAtWgt=          12          12          12          14          12          12          12          12          12          12
 AtmWgt=  12.0000000  12.0000000  12.0000000  14.0030740  12.0000000  12.0000000  12.0000000  12.0000000  12.0000000  12.0000000
 NucSpn=           0           0           0           2           0           0           0           0           0           0
 AtZEff=  -0.0000000  -0.0000000  -0.0000000  -0.0000000  -0.0000000  -0.0000000  -0.0000000  -0.0000000  -0.0000000  -0.0000000
 NQMom=    0.0000000   0.0000000   0.0000000   2.0440000   0.0000000   0.0000000   0.0000000   0.0000000   0.0000000   0.0000000
 NMagM=    0.0000000   0.0000000   0.0000000   0.4037610   0.0000000   0.0000000   0.0000000   0.0000000   0.0000000   0.0000000
 AtZNuc=   6.0000000   6.0000000   6.0000000   7.0000000   6.0000000   6.0000000   6.0000000   6.0000000   6.0000000   6.0000000

  Atom        41          42          43          44          45          46          47          48          49          50
 IAtWgt=          16          12          12          16          16          12          12          12          12          12
 AtmWgt=  15.9949146  12.0000000  12.0000000  15.9949146  15.9949146  12.0000000  12.0000000  12.0000000  12.0000000  12.0000000
 NucSpn=           0           0           0           0           0           0           0           0           0           0
 AtZEff=  -0.0000000  -0.0000000  -0.0000000  -0.0000000  -0.0000000  -0.0000000  -0.0000000  -0.0000000  -0.0000000  -0.0000000
 NQMom=    0.0000000   0.0000000   0.0000000   0.0000000   0.0000000   0.0000000   0.0000000   0.0000000   0.0000000   0.0000000
 NMagM=    0.0000000   0.0000000   0.0000000   0.0000000   0.0000000   0.0000000   0.0000000   0.0000000   0.0000000   0.0000000
 AtZNuc=   8.0000000   6.0000000   6.0000000   8.0000000   8.0000000   6.0000000   6.0000000   6.0000000   6.0000000   6.0000000

  Atom        51          52          53          54          55          56          57          58          59          60
 IAtWgt=          12          12          12          12          12          12          12          12          12          12
 AtmWgt=  12.0000000  12.0000000  12.0000000  12.0000000  12.0000000  12.0000000  12.0000000  12.0000000  12.0000000  12.0000000
 NucSpn=           0           0           0           0           0           0           0           0           0           0
 AtZEff=  -0.0000000  -0.0000000  -0.0000000  -0.0000000  -0.0000000  -0.0000000  -0.0000000  -0.0000000  -0.0000000  -0.0000000
 NQMom=    0.0000000   0.0000000   0.0000000   0.0000000   0.0000000   0.0000000   0.0000000   0.0000000   0.0000000   0.0000000
 NMagM=    0.0000000   0.0000000   0.0000000   0.0000000   0.0000000   0.0000000   0.0000000   0.0000000   0.0000000   0.0000000
 AtZNuc=   6.0000000   6.0000000   6.0000000   6.0000000   6.0000000   6.0000000   6.0000000   6.0000000   6.0000000   6.0000000

  Atom        61          62          63          64          65          66          67          68          69          70
 IAtWgt=          12          12          12          12          12          12           1           1           1           1
 AtmWgt=  12.0000000  12.0000000  12.0000000  12.0000000  12.0000000  12.0000000   1.0078250   1.0078250   1.0078250   1.0078250
 NucSpn=           0           0           0           0           0           0           1           1           1           1
 AtZEff=  -0.0000000  -0.0000000  -0.0000000  -0.0000000  -0.0000000  -0.0000000  -0.0000000  -0.0000000  -0.0000000  -0.0000000
 NQMom=    0.0000000   0.0000000   0.0000000   0.0000000   0.0000000   0.0000000   0.0000000   0.0000000   0.0000000   0.0000000
 NMagM=    0.0000000   0.0000000   0.0000000   0.0000000   0.0000000   0.0000000   2.7928460   2.7928460   2.7928460   2.7928460
 AtZNuc=   6.0000000   6.0000000   6.0000000   6.0000000   6.0000000   6.0000000   1.0000000   1.0000000   1.0000000   1.0000000

  Atom        71          72          73          74          75          76          77          78          79          80
 IAtWgt=           1           1           1           1           1           1           1           1           1           1
 AtmWgt=   1.0078250   1.0078250   1.0078250   1.0078250   1.0078250   1.0078250   1.0078250   1.0078250   1.0078250   1.0078250
 NucSpn=           1           1           1           1           1           1           1           1           1           1
 AtZEff=  -0.0000000  -0.0000000  -0.0000000  -0.0000000  -0.0000000  -0.0000000  -0.0000000  -0.0000000  -0.0000000  -0.0000000
 NQMom=    0.0000000   0.0000000   0.0000000   0.0000000   0.0000000   0.0000000   0.0000000   0.0000000   0.0000000   0.0000000
 NMagM=    2.7928460   2.7928460   2.7928460   2.7928460   2.7928460   2.7928460   2.7928460   2.7928460   2.7928460   2.7928460
 AtZNuc=   1.0000000   1.0000000   1.0000000   1.0000000   1.0000000   1.0000000   1.0000000   1.0000000   1.0000000   1.0000000

  Atom        81          82          83          84          85          86          87          88          89          90
 IAtWgt=           1           1           1           1           1           1           1           1           1           1
 AtmWgt=   1.0078250   1.0078250   1.0078250   1.0078250   1.0078250   1.0078250   1.0078250   1.0078250   1.0078250   1.0078250
 NucSpn=           1           1           1           1           1           1           1           1           1           1
 AtZEff=  -0.0000000  -0.0000000  -0.0000000  -0.0000000  -0.0000000  -0.0000000  -0.0000000  -0.0000000  -0.0000000  -0.0000000
 NQMom=    0.0000000   0.0000000   0.0000000   0.0000000   0.0000000   0.0000000   0.0000000   0.0000000   0.0000000   0.0000000
 NMagM=    2.7928460   2.7928460   2.7928460   2.7928460   2.7928460   2.7928460   2.7928460   2.7928460   2.7928460   2.7928460
 AtZNuc=   1.0000000   1.0000000   1.0000000   1.0000000   1.0000000   1.0000000   1.0000000   1.0000000   1.0000000   1.0000000

  Atom        91          92          93          94          95          96          97          98          99         100
 IAtWgt=           1           1           1           1           1           1           1           1           1           1
 AtmWgt=   1.0078250   1.0078250   1.0078250   1.0078250   1.0078250   1.0078250   1.0078250   1.0078250   1.0078250   1.0078250
 NucSpn=           1           1           1           1           1           1           1           1           1           1
 AtZEff=  -0.0000000  -0.0000000  -0.0000000  -0.0000000  -0.0000000  -0.0000000  -0.0000000  -0.0000000  -0.0000000  -0.0000000
 NQMom=    0.0000000   0.0000000   0.0000000   0.0000000   0.0000000   0.0000000   0.0000000   0.0000000   0.0000000   0.0000000
 NMagM=    2.7928460   2.7928460   2.7928460   2.7928460   2.7928460   2.7928460   2.7928460   2.7928460   2.7928460   2.7928460
 AtZNuc=   1.0000000   1.0000000   1.0000000   1.0000000   1.0000000   1.0000000   1.0000000   1.0000000   1.0000000   1.0000000

  Atom       101         102         103         104         105         106         107         108         109         110
 IAtWgt=           1           1           1           1           1           1           1           1           1           1
 AtmWgt=   1.0078250   1.0078250   1.0078250   1.0078250   1.0078250   1.0078250   1.0078250   1.0078250   1.0078250   1.0078250
 NucSpn=           1           1           1           1           1           1           1           1           1           1
 AtZEff=  -0.0000000  -0.0000000  -0.0000000  -0.0000000  -0.0000000  -0.0000000  -0.0000000  -0.0000000  -0.0000000  -0.0000000
 NQMom=    0.0000000   0.0000000   0.0000000   0.0000000   0.0000000   0.0000000   0.0000000   0.0000000   0.0000000   0.0000000
 NMagM=    2.7928460   2.7928460   2.7928460   2.7928460   2.7928460   2.7928460   2.7928460   2.7928460   2.7928460   2.7928460
 AtZNuc=   1.0000000   1.0000000   1.0000000   1.0000000   1.0000000   1.0000000   1.0000000   1.0000000   1.0000000   1.0000000

  Atom       111         112         113         114         115         116         117         118         119         120
 IAtWgt=           1           1           1           1           1           1           1           1           1           1
 AtmWgt=   1.0078250   1.0078250   1.0078250   1.0078250   1.0078250   1.0078250   1.0078250   1.0078250   1.0078250   1.0078250
 NucSpn=           1           1           1           1           1           1           1           1           1           1
 AtZEff=  -0.0000000  -0.0000000  -0.0000000  -0.0000000  -0.0000000  -0.0000000  -0.0000000  -0.0000000  -0.0000000  -0.0000000
 NQMom=    0.0000000   0.0000000   0.0000000   0.0000000   0.0000000   0.0000000   0.0000000   0.0000000   0.0000000   0.0000000
 NMagM=    2.7928460   2.7928460   2.7928460   2.7928460   2.7928460   2.7928460   2.7928460   2.7928460   2.7928460   2.7928460
 AtZNuc=   1.0000000   1.0000000   1.0000000   1.0000000   1.0000000   1.0000000   1.0000000   1.0000000   1.0000000   1.0000000

  Atom       121         122         123         124         125         126         127         128         129         130
 IAtWgt=           1           1           1           1           1           1           1           1           1           1
 AtmWgt=   1.0078250   1.0078250   1.0078250   1.0078250   1.0078250   1.0078250   1.0078250   1.0078250   1.0078250   1.0078250
 NucSpn=           1           1           1           1           1           1           1           1           1           1
 AtZEff=  -0.0000000  -0.0000000  -0.0000000  -0.0000000  -0.0000000  -0.0000000  -0.0000000  -0.0000000  -0.0000000  -0.0000000
 NQMom=    0.0000000   0.0000000   0.0000000   0.0000000   0.0000000   0.0000000   0.0000000   0.0000000   0.0000000   0.0000000
 NMagM=    2.7928460   2.7928460   2.7928460   2.7928460   2.7928460   2.7928460   2.7928460   2.7928460   2.7928460   2.7928460
 AtZNuc=   1.0000000   1.0000000   1.0000000   1.0000000   1.0000000   1.0000000   1.0000000   1.0000000   1.0000000   1.0000000

  Atom       131         132         133         134         135         136         137         138         139         140
 IAtWgt=           1           1           1           1           1           1           1           1           1           1
 AtmWgt=   1.0078250   1.0078250   1.0078250   1.0078250   1.0078250   1.0078250   1.0078250   1.0078250   1.0078250   1.0078250
 NucSpn=           1           1           1           1           1           1           1           1           1           1
 AtZEff=  -0.0000000  -0.0000000  -0.0000000  -0.0000000  -0.0000000  -0.0000000  -0.0000000  -0.0000000  -0.0000000  -0.0000000
 NQMom=    0.0000000   0.0000000   0.0000000   0.0000000   0.0000000   0.0000000   0.0000000   0.0000000   0.0000000   0.0000000
 NMagM=    2.7928460   2.7928460   2.7928460   2.7928460   2.7928460   2.7928460   2.7928460   2.7928460   2.7928460   2.7928460
 AtZNuc=   1.0000000   1.0000000   1.0000000   1.0000000   1.0000000   1.0000000   1.0000000   1.0000000   1.0000000   1.0000000
 Leave Link  101 at Thu May  5 06:34:11 2022, MaxMem= 10066329600 cpu:               3.7 elap:               0.2
 (Enter /sw/apps/gaussian-16.0/g16/l202.exe)
 Stoichiometry    C55H74MgN4O6
 Framework group  C1[X(C55H74MgN4O6)]
 Deg. of freedom   414
 Full point group                 C1      NOp   1
 Largest Abelian subgroup         C1      NOp   1
 Largest concise Abelian subgroup C1      NOp   1
                         Standard orientation:                         
 ---------------------------------------------------------------------
 Center     Atomic      Atomic             Coordinates (Angstroms)
 Number     Number       Type             X           Y           Z
 ---------------------------------------------------------------------
      1         12           0       -5.858590    0.550662    0.032707
      2          6           0       -3.319874   -1.898098    0.237404
      3          6           0       -3.704513    2.836909    0.970030
      4          6           0       -8.469950    2.723031   -0.042333
      5          6           0       -8.059912   -2.040054   -0.801199
      6          7           0       -3.726134    0.405350    0.559614
      7          6           0       -2.871071   -0.601263    0.515536
      8          6           0       -1.525698   -0.181935    1.040103
      9          6           0       -1.737341    1.368606    1.498840
     10          6           0       -3.118038    1.561454    0.993083
     11          6           0       -1.499083    1.782921    3.034032
     12          6           0       -0.432304   -0.310368   -0.044556
     13          6           0        0.977983   -0.919888    0.316715
     14          6           0        1.561125   -2.053599   -0.589756
     15          8           0        0.878593   -2.751694   -1.348034
     16          8           0        2.990550   -1.989337   -0.614103
     17          7           0       -5.997667    2.507640    0.320620
     18          6           0       -4.946153    3.314597    0.632687
     19          6           0       -5.356555    4.690890    0.699560
     20          6           0       -6.743287    4.690910    0.314447
     21          6           0       -7.180274    3.291499    0.240699
     22          6           0       -4.471526    5.835674    1.233657
     23          6           0       -7.572316    5.920286    0.029367
     24          8           0       -8.777385    5.750771   -0.261881
     25          6           0       -7.021691    7.340434    0.163138
     26          7           0       -7.990914    0.340684   -0.319359
     27          6           0       -8.866821    1.354371   -0.245024
     28          6           0      -10.317035    0.950462   -0.446039
     29          6           0      -10.156322   -0.540861   -0.867248
     30          6           0       -8.620100   -0.785509   -0.701705
     31          6           0      -11.190803    1.070554    0.799149
     32          6           0      -10.691323   -0.782044   -2.252861
     33          6           0       -9.802113   -0.381322   -3.445643
     34          7           0       -5.717779   -1.554940   -0.350210
     35          6           0       -6.695895   -2.418273   -0.743292
     36          6           0       -6.260585   -3.776041   -0.783851
     37          6           0       -4.847425   -3.641819   -0.485356
     38          6           0       -4.640304   -2.269305   -0.123776
     39          6           0       -7.107492   -5.018282   -1.120105
     40          6           0       -3.551576   -4.331027   -0.277366
     41          8           0       -3.218084   -5.524211   -0.329514
     42          6           0       -2.533549   -3.237883    0.106007
     43          6           0       -2.044871   -3.525689    1.513649
     44          8           0       -2.731036   -4.019605    2.422051
     45          8           0       -0.701371   -3.216765    1.661370
     46          6           0       -0.070090   -3.434608    2.950742
     47          6           0        3.517840   -2.934931   -1.567538
     48          6           0        4.966972   -2.598493   -1.532413
     49          6           0        5.933172   -3.280874   -0.818275
     50          6           0        5.637727   -4.370107    0.212671
     51          6           0        7.385367   -2.837055   -0.802972
     52          6           0        7.572984   -1.551559    0.041248
     53          6           0        8.367394   -1.764820    1.362083
     54          6           0        9.831267   -1.137344    1.291527
     55          6           0       10.728514   -1.769054    2.346890
     56          6           0        9.922492    0.464681    1.275159
     57          6           0       11.161601    1.096678    0.547320
     58          6           0       10.795096    1.472356   -0.926256
     59          6           0       10.646067    2.974167   -1.229673
     60          6           0        9.335435    3.219021   -1.996842
     61          6           0       11.923323    3.543731   -1.976193
     62          6           0       13.207957    3.539238   -1.157539
     63          6           0       14.235765    2.336068   -1.403318
     64          6           0       14.754055    1.656367   -0.187650
     65          6           0       15.655989    2.681240    0.431739
     66          6           0       15.451388    0.329192   -0.521721
     67          1           0       -2.980396    3.644903    1.091532
     68          1           0       -9.335980    3.385609   -0.100081
     69          1           0       -8.658292   -2.894546   -1.122464
     70          1           0       -1.385240   -0.770116    1.947697
     71          1           0       -1.091717    2.074803    0.977966
     72          1           0       -0.746069    2.569962    2.991754
     73          1           0       -1.029997    0.897560    3.462933
     74          1           0       -2.356677    2.099341    3.627006
     75          1           0       -0.206610    0.686990   -0.423080
     76          1           0       -0.871626   -0.825024   -0.899143
     77          1           0        0.920515   -1.263705    1.349758
     78          1           0        1.615663   -0.037097    0.352454
     79          1           0       -3.976852    6.278278    0.368665
     80          1           0       -3.626928    5.522060    1.847209
     81          1           0       -4.938883    6.659503    1.772130
     82          1           0       -6.089575    7.288897   -0.400699
     83          1           0       -7.026851    7.591430    1.223766
     84          1           0       -7.735796    7.923640   -0.417528
     85          1           0      -10.732297    1.585090   -1.228132
     86          1           0      -10.651590   -1.239620   -0.193101
     87          1           0      -12.231480    1.168803    0.488550
     88          1           0      -10.909240    1.924043    1.415924
     89          1           0      -11.112871    0.181388    1.425872
     90          1           0      -11.655583   -0.277727   -2.311270
     91          1           0      -10.947297   -1.841712   -2.258531
     92          1           0       -9.642079   -1.320798   -3.974264
     93          1           0       -8.739241   -0.199231   -3.284713
     94          1           0      -10.228854    0.409039   -4.062843
     95          1           0       -8.168499   -4.804619   -1.250254
     96          1           0       -6.951175   -5.756064   -0.333118
     97          1           0       -6.879181   -5.524738   -2.057895
     98          1           0       -1.656852   -3.070235   -0.519096
     99          1           0       -0.499388   -4.154803    3.646397
    100          1           0        0.035903   -2.436864    3.377603
    101          1           0        0.955769   -3.738267    2.744433
    102          1           0        3.184853   -2.697779   -2.577722
    103          1           0        3.451473   -3.961289   -1.205861
    104          1           0        5.233508   -1.850848   -2.279922
    105          1           0        5.211673   -5.303979   -0.155406
    106          1           0        4.841726   -3.868445    0.761869
    107          1           0        6.456679   -4.566829    0.904635
    108          1           0        7.814659   -2.526948   -1.756395
    109          1           0        8.041619   -3.622029   -0.426580
    110          1           0        6.650760   -0.993770    0.203881
    111          1           0        8.099978   -0.876765   -0.632606
    112          1           0        8.438447   -2.797587    1.704982
    113          1           0        7.860046   -1.336120    2.226554
    114          1           0       10.254291   -1.252556    0.294149
    115          1           0       11.761095   -1.456398    2.190630
    116          1           0       10.750462   -2.849493    2.206774
    117          1           0       10.478062   -1.483996    3.368782
    118          1           0       10.093304    0.927903    2.246907
    119          1           0        8.938105    0.826750    0.979932
    120          1           0       11.951602    0.346960    0.597849
    121          1           0       11.410528    2.010435    1.088256
    122          1           0        9.840304    0.998296   -1.155789
    123          1           0       11.534758    1.078120   -1.622408
    124          1           0       10.492293    3.485401   -0.279460
    125          1           0        9.326105    4.226535   -2.413072
    126          1           0        8.527858    3.223167   -1.265794
    127          1           0        9.152269    2.423566   -2.719496
    128          1           0       11.770537    4.509622   -2.457397
    129          1           0       11.997634    2.869231   -2.829351
    130          1           0       12.980708    3.610328   -0.094226
    131          1           0       13.760610    4.434296   -1.443818
    132          1           0       15.064383    2.591957   -2.062213
    133          1           0       13.615358    1.670407   -2.003892
    134          1           0       13.903357    1.453101    0.463230
    135          1           0       15.281665    2.725655    1.453838
    136          1           0       15.660821    3.720990    0.105049
    137          1           0       16.683446    2.345843    0.575829
    138          1           0       15.006026   -0.377577    0.178699
    139          1           0       16.514616    0.319449   -0.280794
    140          1           0       15.438327   -0.123508   -1.513238
 ---------------------------------------------------------------------
 Rotational constants (GHZ):           0.0522935           0.0090301           0.0080514
 Leave Link  202 at Thu May  5 06:34:11 2022, MaxMem= 10066329600 cpu:               0.2 elap:               0.0
 (Enter /sw/apps/gaussian-16.0/g16/l301.exe)
 Standard basis: def2SVP (5D, 7F)
 Ernie: Thresh=  0.10000D-02 Tol=  0.10000D-05 Strict=F.
 There are  1364 symmetry adapted cartesian basis functions of A   symmetry.
 There are  1298 symmetry adapted basis functions of A   symmetry.
  1298 basis functions,  2180 primitive gaussians,  1364 cartesian basis functions
   246 alpha electrons      246 beta electrons
       nuclear repulsion energy      9517.8821714643 Hartrees.
 IExCor=20419 DFT=T Ex+Corr=CAM-B3LYP ExCW=0 ScaHFX=  1.000000
 ScaDFX=  1.000000  1.000000  1.000000  0.810000 ScalE2=  1.000000  1.000000
 IRadAn=      5 IRanWt=     -1 IRanGd=            0 ICorTp=0 IEmpDi=  4
 HFx  wShort=  0.000000 wLong=  0.330000 cFull=  0.190000 cShort=  0.000000 cLong=  0.460000
 DFx  wShort=  0.000000 wLong=  0.330000 cFull=  0.190000 cShort=  0.000000 cLong=  0.460000
 NAtoms=  140 NActive=  140 NUniq=  140 SFac= 1.00D+00 NAtFMM=   60 NAOKFM=T Big=T
 Integral buffers will be    131072 words long.
 Raffenetti 1 integral format.
 Two-electron integral symmetry is turned on.
 Leave Link  301 at Thu May  5 06:34:11 2022, MaxMem= 10066329600 cpu:               1.4 elap:               0.1
 (Enter /sw/apps/gaussian-16.0/g16/l302.exe)
 NPDir=0 NMtPBC=     1 NCelOv=     1 NCel=       1 NClECP=     1 NCelD=      1
         NCelK=      1 NCelE2=     1 NClLst=     1 CellRange=     0.0.
 One-electron integrals computed using PRISM.
 One-electron integral symmetry used in STVInt
   1 Symmetry operations used in ECPInt.
 ECPInt:  NShTT=  192510 NPrTT=  683786 LenC2=   92853 LenP2D=  205475.
 LDataN:  DoStor=T MaxTD1= 4 Len=   56
 NBasis=  1298 RedAO= T EigKep=  2.82D-04  NBF=  1298
 NBsUse=  1298 1.00D-06 EigRej= -1.00D+00 NBFU=  1298
 Precomputing XC quadrature grid using
 IXCGrd= 4 IRadAn=           5 IRanWt=          -1 IRanGd=           0 AccXCQ= 0.00D+00.
 Generated NRdTot=       0 NPtTot=           0 NUsed=           0 NTot=          32
 NSgBfM=  1087  1080  1084  1084  1087 MxSgAt=   140 MxSgA2=   140.
 Leave Link  302 at Thu May  5 06:34:14 2022, MaxMem= 10066329600 cpu:              80.9 elap:               3.4
 (Enter /sw/apps/gaussian-16.0/g16/l303.exe)
 DipDrv:  MaxL=1.
 Leave Link  303 at Thu May  5 06:34:14 2022, MaxMem= 10066329600 cpu:               6.1 elap:               0.3
 (Enter /sw/apps/gaussian-16.0/g16/l308.exe)
 Leave Link  308 at Thu May  5 06:34:15 2022, MaxMem= 10066329600 cpu:              10.9 elap:               0.5
 (Enter /sw/apps/gaussian-16.0/g16/l401.exe)
 ExpMin= 3.36D-02 ExpMax= 4.95D+03 ExpMxC= 7.45D+02 IAcc=3 IRadAn=         5 AccDes= 0.00D+00
 Harris functional with IExCor=20419 and IRadAn=       5 diagonalized for initial guess.
 HarFok:  IExCor=20419 AccDes= 0.00D+00 IRadAn=         5 IDoV= 1 UseB2=F ITyADJ=14
 ICtDFT=  3500011 ScaDFX=  1.000000  1.000000  1.000000  1.000000
 FoFCou: FMM=F IPFlag=           0 FMFlag=      100000 FMFlg1=        2001
         NFxFlg=           0 DoJE=T BraDBF=F KetDBF=T FulRan=T
         wScrn=  0.000000 ICntrl=       500 IOpCl=  0 I1Cent=   200000004 NGrid=           0
         NMat0=    1 NMatS0=      1 NMatT0=    0 NMatD0=    1 NMtDS0=    0 NMtDT0=    0
 Petite list used in FoFCou.
 Harris En= -2890.87809183634    
 JPrj=0 DoOrth=F DoCkMO=F.
 Leave Link  401 at Thu May  5 06:34:20 2022, MaxMem= 10066329600 cpu:             131.6 elap:               5.5
 (Enter /sw/apps/gaussian-16.0/g16/l502.exe)
 Integral symmetry usage will be decided dynamically.
 Closed shell SCF:
 Using DIIS extrapolation, IDIIS=  1040.
 NGot= 10066329600 LenX= 10062561258 LenY= 10060699398
 Requested convergence on RMS density matrix=1.00D-08 within 128 cycles.
 Requested convergence on MAX density matrix=1.00D-06.
 Requested convergence on             energy=1.00D-06.
 No special actions if energy rises.
 Fock matrices will be formed incrementally for  20 cycles.

 Cycle   1  Pass 1  IDiag  1:
 FoFJK:  IHMeth= 1 ICntrl=       0 DoSepK=T KAlg= 0 I1Cent=           0 FoldK=F
 IRaf=         1 NMat=       1 IRICut=       1 DoRegI=T DoRafI=F ISym2E= 0 IDoP0=0 IntGTp=1.
 FoFCou: FMM=T IPFlag=           0 FMFlag=      100000 FMFlg1=        2001
         NFxFlg=           0 DoJE=T BraDBF=F KetDBF=F FulRan=T
         wScrn=  0.000000 ICntrl=       500 IOpCl=  0 I1Cent=           0 NGrid=           0
         NMat0=    1 NMatS0=      1 NMatT0=    0 NMatD0=    1 NMtDS0=    0 NMtDT0=    0
 Symmetry not used in FoFCou.
 FMM levels:  10  Number of levels for PrismC:   9
 E= -3006.50749539274    
 DIIS: error= 3.48D-02 at cycle   1 NSaved=   1.
 NSaved= 1 IEnMin= 1 EnMin= -3006.50749539274     IErMin= 1 ErrMin= 3.48D-02
 ErrMax= 3.48D-02  0.00D+00 EMaxC= 1.00D-01 BMatC= 1.25D+00 BMatP= 1.25D+00
 IDIUse=3 WtCom= 6.52D-01 WtEn= 3.48D-01
 Coeff-Com:  0.100D+01
 Coeff-En:   0.100D+01
 Coeff:      0.100D+01
 Gap=     0.126 Goal=   None    Shift=    0.000
 GapD=    0.126 DampG=1.000 DampE=0.500 DampFc=0.5000 IDamp=-1.
 Damping current iteration by 5.00D-01
 RMSDP=1.52D-03 MaxDP=1.52D-01              OVMax= 1.80D-01

 Cycle   2  Pass 1  IDiag  1:
 RMSU=  7.49D-04    CP:  9.85D-01
 E= -3006.81466757506     Delta-E=       -0.307172182323 Rises=F Damp=T
 DIIS: error= 1.39D-02 at cycle   2 NSaved=   2.
 NSaved= 2 IEnMin= 2 EnMin= -3006.81466757506     IErMin= 2 ErrMin= 1.39D-02
 ErrMax= 1.39D-02  0.00D+00 EMaxC= 1.00D-01 BMatC= 2.29D-01 BMatP= 1.25D+00
 IDIUse=3 WtCom= 8.61D-01 WtEn= 1.39D-01
 Coeff-Com: -0.247D+00 0.125D+01
 Coeff-En:   0.000D+00 0.100D+01
 Coeff:     -0.212D+00 0.121D+01
 Gap=     0.138 Goal=   None    Shift=    0.000
 RMSDP=6.88D-04 MaxDP=1.26D-01 DE=-3.07D-01 OVMax= 1.62D-01

 Cycle   3  Pass 1  IDiag  1:
 RMSU=  6.57D-04    CP:  9.75D-01  1.24D+00
 E= -3007.04872499328     Delta-E=       -0.234057418224 Rises=F Damp=F
 DIIS: error= 1.34D-02 at cycle   3 NSaved=   3.
 NSaved= 3 IEnMin= 3 EnMin= -3007.04872499328     IErMin= 3 ErrMin= 1.34D-02
 ErrMax= 1.34D-02  0.00D+00 EMaxC= 1.00D-01 BMatC= 1.32D-01 BMatP= 2.29D-01
 IDIUse=3 WtCom= 8.66D-01 WtEn= 1.34D-01
 Coeff-Com: -0.266D+00 0.645D+00 0.620D+00
 Coeff-En:   0.000D+00 0.000D+00 0.100D+01
 Coeff:     -0.230D+00 0.559D+00 0.671D+00
 Gap=     0.130 Goal=   None    Shift=    0.000
 RMSDP=4.47D-04 MaxDP=4.97D-02 DE=-2.34D-01 OVMax= 1.21D-01

 Cycle   4  Pass 1  IDiag  1:
 RMSU=  2.59D-04    CP:  9.72D-01  1.51D+00  5.45D-01
 E= -3007.13345879983     Delta-E=       -0.084733806545 Rises=F Damp=F
 DIIS: error= 6.52D-03 at cycle   4 NSaved=   4.
 NSaved= 4 IEnMin= 4 EnMin= -3007.13345879983     IErMin= 4 ErrMin= 6.52D-03
 ErrMax= 6.52D-03  0.00D+00 EMaxC= 1.00D-01 BMatC= 3.45D-02 BMatP= 1.32D-01
 IDIUse=3 WtCom= 9.35D-01 WtEn= 6.52D-02
 Coeff-Com: -0.112D+00 0.230D+00 0.409D+00 0.473D+00
 Coeff-En:   0.000D+00 0.000D+00 0.221D+00 0.779D+00
 Coeff:     -0.105D+00 0.215D+00 0.397D+00 0.493D+00
 Gap=     0.127 Goal=   None    Shift=    0.000
 RMSDP=1.75D-04 MaxDP=2.26D-02 DE=-8.47D-02 OVMax= 4.95D-02

 Cycle   5  Pass 1  IDiag  1:
 RMSU=  6.81D-05    CP:  9.72D-01  1.48D+00  7.07D-01  5.46D-01
 E= -3007.16280578125     Delta-E=       -0.029346981422 Rises=F Damp=F
 DIIS: error= 6.27D-04 at cycle   5 NSaved=   5.
 NSaved= 5 IEnMin= 5 EnMin= -3007.16280578125     IErMin= 5 ErrMin= 6.27D-04
 ErrMax= 6.27D-04  0.00D+00 EMaxC= 1.00D-01 BMatC= 6.78D-04 BMatP= 3.45D-02
 IDIUse=3 WtCom= 9.94D-01 WtEn= 6.27D-03
 Coeff-Com: -0.383D-01 0.752D-01 0.164D+00 0.239D+00 0.560D+00
 Coeff-En:   0.000D+00 0.000D+00 0.000D+00 0.000D+00 0.100D+01
 Coeff:     -0.381D-01 0.747D-01 0.163D+00 0.238D+00 0.563D+00
 Gap=     0.127 Goal=   None    Shift=    0.000
 RMSDP=3.14D-05 MaxDP=3.86D-03 DE=-2.93D-02 OVMax= 9.51D-03

 Cycle   6  Pass 1  IDiag  1:
 RMSU=  2.46D-05    CP:  9.72D-01  1.48D+00  7.03D-01  5.97D-01  7.93D-01
 E= -3007.16335013799     Delta-E=       -0.000544356744 Rises=F Damp=F
 DIIS: error= 2.09D-04 at cycle   6 NSaved=   6.
 NSaved= 6 IEnMin= 6 EnMin= -3007.16335013799     IErMin= 6 ErrMin= 2.09D-04
 ErrMax= 2.09D-04  0.00D+00 EMaxC= 1.00D-01 BMatC= 9.03D-05 BMatP= 6.78D-04
 IDIUse=3 WtCom= 9.98D-01 WtEn= 2.09D-03
 Coeff-Com:  0.235D-02-0.652D-02 0.638D-02 0.292D-01 0.291D+00 0.678D+00
 Coeff-En:   0.000D+00 0.000D+00 0.000D+00 0.000D+00 0.666D-01 0.933D+00
 Coeff:      0.234D-02-0.651D-02 0.637D-02 0.292D-01 0.290D+00 0.678D+00
 Gap=     0.127 Goal=   None    Shift=    0.000
 RMSDP=1.31D-05 MaxDP=1.24D-03 DE=-5.44D-04 OVMax= 6.08D-03

 Cycle   7  Pass 1  IDiag  1:
 RMSU=  9.07D-06    CP:  9.71D-01  1.48D+00  7.09D-01  6.03D-01  8.83D-01
                    CP:  7.68D-01
 E= -3007.16344311702     Delta-E=       -0.000092979024 Rises=F Damp=F
 DIIS: error= 7.02D-05 at cycle   7 NSaved=   7.
 NSaved= 7 IEnMin= 7 EnMin= -3007.16344311702     IErMin= 7 ErrMin= 7.02D-05
 ErrMax= 7.02D-05  0.00D+00 EMaxC= 1.00D-01 BMatC= 9.61D-06 BMatP= 9.03D-05
 IDIUse=1 WtCom= 1.00D+00 WtEn= 0.00D+00
 Coeff-Com:  0.431D-02-0.924D-02-0.102D-01-0.769D-02 0.842D-01 0.318D+00
 Coeff-Com:  0.621D+00
 Coeff:      0.431D-02-0.924D-02-0.102D-01-0.769D-02 0.842D-01 0.318D+00
 Coeff:      0.621D+00
 Gap=     0.127 Goal=   None    Shift=    0.000
 RMSDP=5.33D-06 MaxDP=7.82D-04 DE=-9.30D-05 OVMax= 2.49D-03

 Cycle   8  Pass 1  IDiag  1:
 RMSU=  3.86D-06    CP:  9.71D-01  1.48D+00  7.10D-01  6.05D-01  8.92D-01
                    CP:  8.98D-01  8.54D-01
 E= -3007.16345467901     Delta-E=       -0.000011561988 Rises=F Damp=F
 DIIS: error= 5.38D-05 at cycle   8 NSaved=   8.
 NSaved= 8 IEnMin= 8 EnMin= -3007.16345467901     IErMin= 8 ErrMin= 5.38D-05
 ErrMax= 5.38D-05  0.00D+00 EMaxC= 1.00D-01 BMatC= 2.39D-06 BMatP= 9.61D-06
 IDIUse=1 WtCom= 1.00D+00 WtEn= 0.00D+00
 Coeff-Com:  0.214D-02-0.420D-02-0.767D-02-0.121D-01-0.173D-01 0.325D-01
 Coeff-Com:  0.359D+00 0.648D+00
 Coeff:      0.214D-02-0.420D-02-0.767D-02-0.121D-01-0.173D-01 0.325D-01
 Coeff:      0.359D+00 0.648D+00
 Gap=     0.127 Goal=   None    Shift=    0.000
 RMSDP=2.82D-06 MaxDP=2.21D-04 DE=-1.16D-05 OVMax= 1.73D-03

 Cycle   9  Pass 1  IDiag  1:
 RMSU=  1.75D-06    CP:  9.71D-01  1.48D+00  7.10D-01  6.06D-01  9.09D-01
                    CP:  9.12D-01  1.05D+00  8.90D-01
 E= -3007.16345864764     Delta-E=       -0.000003968638 Rises=F Damp=F
 DIIS: error= 1.57D-05 at cycle   9 NSaved=   9.
 NSaved= 9 IEnMin= 9 EnMin= -3007.16345864764     IErMin= 9 ErrMin= 1.57D-05
 ErrMax= 1.57D-05  0.00D+00 EMaxC= 1.00D-01 BMatC= 3.13D-07 BMatP= 2.39D-06
 IDIUse=1 WtCom= 1.00D+00 WtEn= 0.00D+00
 Coeff-Com:  0.471D-03-0.825D-03-0.232D-02-0.496D-02-0.195D-01-0.280D-01
 Coeff-Com:  0.941D-01 0.316D+00 0.645D+00
 Coeff:      0.471D-03-0.825D-03-0.232D-02-0.496D-02-0.195D-01-0.280D-01
 Coeff:      0.941D-01 0.316D+00 0.645D+00
 Gap=     0.127 Goal=   None    Shift=    0.000
 RMSDP=1.12D-06 MaxDP=1.15D-04 DE=-3.97D-06 OVMax= 6.39D-04

 Cycle  10  Pass 1  IDiag  1:
 RMSU=  7.68D-07    CP:  9.71D-01  1.48D+00  7.10D-01  6.06D-01  9.11D-01
                    CP:  9.25D-01  1.09D+00  1.04D+00  1.10D+00
 E= -3007.16345941630     Delta-E=       -0.000000768659 Rises=F Damp=F
 DIIS: error= 1.12D-05 at cycle  10 NSaved=  10.
 NSaved=10 IEnMin=10 EnMin= -3007.16345941630     IErMin=10 ErrMin= 1.12D-05
 ErrMax= 1.12D-05  0.00D+00 EMaxC= 1.00D-01 BMatC= 6.73D-08 BMatP= 3.13D-07
 IDIUse=1 WtCom= 1.00D+00 WtEn= 0.00D+00
 Coeff-Com: -0.457D-03 0.940D-03 0.135D-02 0.141D-02-0.420D-02-0.263D-01
 Coeff-Com: -0.683D-01-0.471D-01 0.269D+00 0.874D+00
 Coeff:     -0.457D-03 0.940D-03 0.135D-02 0.141D-02-0.420D-02-0.263D-01
 Coeff:     -0.683D-01-0.471D-01 0.269D+00 0.874D+00
 Gap=     0.127 Goal=   None    Shift=    0.000
 RMSDP=1.04D-06 MaxDP=6.79D-05 DE=-7.69D-07 OVMax= 6.34D-04

 Cycle  11  Pass 1  IDiag  1:
 RMSU=  4.56D-07    CP:  9.71D-01  1.48D+00  7.11D-01  6.06D-01  9.13D-01
                    CP:  9.33D-01  1.14D+00  1.14D+00  1.45D+00  1.33D+00
 E= -3007.16345980686     Delta-E=       -0.000000390557 Rises=F Damp=F
 DIIS: error= 3.89D-06 at cycle  11 NSaved=  11.
 NSaved=11 IEnMin=11 EnMin= -3007.16345980686     IErMin=11 ErrMin= 3.89D-06
 ErrMax= 3.89D-06  0.00D+00 EMaxC= 1.00D-01 BMatC= 2.84D-08 BMatP= 6.73D-08
 IDIUse=1 WtCom= 1.00D+00 WtEn= 0.00D+00
 Coeff-Com: -0.326D-03 0.640D-03 0.119D-02 0.190D-02 0.275D-02-0.590D-02
 Coeff-Com: -0.552D-01-0.969D-01-0.555D-01 0.463D+00 0.744D+00
 Coeff:     -0.326D-03 0.640D-03 0.119D-02 0.190D-02 0.275D-02-0.590D-02
 Coeff:     -0.552D-01-0.969D-01-0.555D-01 0.463D+00 0.744D+00
 Gap=     0.127 Goal=   None    Shift=    0.000
 RMSDP=5.82D-07 MaxDP=4.35D-05 DE=-3.91D-07 OVMax= 3.32D-04

 Cycle  12  Pass 1  IDiag  1:
 RMSU=  2.11D-07    CP:  9.71D-01  1.48D+00  7.11D-01  6.06D-01  9.14D-01
                    CP:  9.35D-01  1.16D+00  1.20D+00  1.61D+00  1.75D+00
                    CP:  1.21D+00
 E= -3007.16345993614     Delta-E=       -0.000000129274 Rises=F Damp=F
 DIIS: error= 2.97D-06 at cycle  12 NSaved=  12.
 NSaved=12 IEnMin=12 EnMin= -3007.16345993614     IErMin=12 ErrMin= 2.97D-06
 ErrMax= 2.97D-06  0.00D+00 EMaxC= 1.00D-01 BMatC= 5.94D-09 BMatP= 2.84D-08
 IDIUse=1 WtCom= 1.00D+00 WtEn= 0.00D+00
 Coeff-Com: -0.436D-05-0.410D-05 0.118D-03 0.450D-03 0.236D-02 0.576D-02
 Coeff-Com: -0.242D-02-0.229D-01-0.117D+00-0.391D-01 0.274D+00 0.899D+00
 Coeff:     -0.436D-05-0.410D-05 0.118D-03 0.450D-03 0.236D-02 0.576D-02
 Coeff:     -0.242D-02-0.229D-01-0.117D+00-0.391D-01 0.274D+00 0.899D+00
 Gap=     0.127 Goal=   None    Shift=    0.000
 RMSDP=3.84D-07 MaxDP=4.47D-05 DE=-1.29D-07 OVMax= 2.42D-04

 Cycle  13  Pass 1  IDiag  1:
 RMSU=  1.43D-07    CP:  9.71D-01  1.48D+00  7.11D-01  6.06D-01  9.14D-01
                    CP:  9.35D-01  1.17D+00  1.23D+00  1.72D+00  1.99D+00
                    CP:  1.62D+00  1.25D+00
 E= -3007.16345997912     Delta-E=       -0.000000042986 Rises=F Damp=F
 DIIS: error= 1.17D-06 at cycle  13 NSaved=  13.
 NSaved=13 IEnMin=13 EnMin= -3007.16345997912     IErMin=13 ErrMin= 1.17D-06
 ErrMax= 1.17D-06  0.00D+00 EMaxC= 1.00D-01 BMatC= 3.50D-09 BMatP= 5.94D-09
 IDIUse=1 WtCom= 1.00D+00 WtEn= 0.00D+00
 Coeff-Com:  0.103D-03-0.212D-03-0.326D-03-0.329D-03 0.389D-03 0.549D-02
 Coeff-Com:  0.162D-01 0.196D-01-0.605D-01-0.180D+00-0.116D+00 0.578D+00
 Coeff-Com:  0.738D+00
 Coeff:      0.103D-03-0.212D-03-0.326D-03-0.329D-03 0.389D-03 0.549D-02
 Coeff:      0.162D-01 0.196D-01-0.605D-01-0.180D+00-0.116D+00 0.578D+00
 Coeff:      0.738D+00
 Gap=     0.127 Goal=   None    Shift=    0.000
 RMSDP=2.47D-07 MaxDP=1.62D-05 DE=-4.30D-08 OVMax= 1.50D-04

 Cycle  14  Pass 1  IDiag  1:
 RMSU=  6.34D-08    CP:  9.71D-01  1.48D+00  7.11D-01  6.06D-01  9.14D-01
                    CP:  9.35D-01  1.18D+00  1.24D+00  1.79D+00  2.16D+00
                    CP:  1.84D+00  1.69D+00  1.03D+00
 E= -3007.16345999272     Delta-E=       -0.000000013602 Rises=F Damp=F
 DIIS: error= 7.44D-07 at cycle  14 NSaved=  14.
 NSaved=14 IEnMin=14 EnMin= -3007.16345999272     IErMin=14 ErrMin= 7.44D-07
 ErrMax= 7.44D-07  0.00D+00 EMaxC= 1.00D-01 BMatC= 6.74D-10 BMatP= 3.50D-09
 IDIUse=1 WtCom= 1.00D+00 WtEn= 0.00D+00
 Coeff-Com:  0.629D-04-0.125D-03-0.230D-03-0.316D-03-0.489D-03 0.160D-02
 Coeff-Com:  0.969D-02 0.192D-01-0.291D-02-0.793D-01-0.144D+00 0.103D+00
 Coeff-Com:  0.407D+00 0.687D+00
 Coeff:      0.629D-04-0.125D-03-0.230D-03-0.316D-03-0.489D-03 0.160D-02
 Coeff:      0.969D-02 0.192D-01-0.291D-02-0.793D-01-0.144D+00 0.103D+00
 Coeff:      0.407D+00 0.687D+00
 Gap=     0.127 Goal=   None    Shift=    0.000
 RMSDP=8.12D-08 MaxDP=1.35D-05 DE=-1.36D-08 OVMax= 4.64D-05

 Cycle  15  Pass 1  IDiag  1:
 RMSU=  3.07D-08    CP:  9.71D-01  1.48D+00  7.11D-01  6.06D-01  9.14D-01
                    CP:  9.35D-01  1.18D+00  1.24D+00  1.80D+00  2.21D+00
                    CP:  1.93D+00  1.82D+00  1.28D+00  9.82D-01
 E= -3007.16345999445     Delta-E=       -0.000000001726 Rises=F Damp=F
 DIIS: error= 2.19D-07 at cycle  15 NSaved=  15.
 NSaved=15 IEnMin=15 EnMin= -3007.16345999445     IErMin=15 ErrMin= 2.19D-07
 ErrMax= 2.19D-07  0.00D+00 EMaxC= 1.00D-01 BMatC= 9.55D-11 BMatP= 6.74D-10
 IDIUse=1 WtCom= 1.00D+00 WtEn= 0.00D+00
 Coeff-Com:  0.671D-05-0.120D-04-0.355D-04-0.633D-04-0.279D-03-0.216D-03
 Coeff-Com:  0.595D-03 0.479D-02 0.591D-02-0.230D-02-0.426D-01-0.461D-01
 Coeff-Com:  0.341D-01 0.254D+00 0.792D+00
 Coeff:      0.671D-05-0.120D-04-0.355D-04-0.633D-04-0.279D-03-0.216D-03
 Coeff:      0.595D-03 0.479D-02 0.591D-02-0.230D-02-0.426D-01-0.461D-01
 Coeff:      0.341D-01 0.254D+00 0.792D+00
 Gap=     0.127 Goal=   None    Shift=    0.000
 RMSDP=3.68D-08 MaxDP=2.73D-06 DE=-1.73D-09 OVMax= 2.17D-05

 Cycle  16  Pass 1  IDiag  1:
 RMSU=  1.49D-08    CP:  9.71D-01  1.48D+00  7.11D-01  6.06D-01  9.14D-01
                    CP:  9.35D-01  1.18D+00  1.24D+00  1.80D+00  2.23D+00
                    CP:  1.96D+00  1.88D+00  1.36D+00  1.19D+00  1.18D+00
 E= -3007.16345999511     Delta-E=       -0.000000000662 Rises=F Damp=F
 DIIS: error= 2.07D-07 at cycle  16 NSaved=  16.
 NSaved=16 IEnMin=16 EnMin= -3007.16345999511     IErMin=16 ErrMin= 2.07D-07
 ErrMax= 2.07D-07  0.00D+00 EMaxC= 1.00D-01 BMatC= 3.55D-11 BMatP= 9.55D-11
 IDIUse=1 WtCom= 1.00D+00 WtEn= 0.00D+00
 Coeff-Com: -0.120D-04 0.243D-04 0.375D-04 0.453D-04-0.402D-04-0.447D-03
 Coeff-Com: -0.230D-02-0.171D-02 0.311D-02 0.199D-01 0.128D-01-0.420D-01
 Coeff-Com: -0.813D-01-0.570D-01 0.405D+00 0.744D+00
 Coeff:     -0.120D-04 0.243D-04 0.375D-04 0.453D-04-0.402D-04-0.447D-03
 Coeff:     -0.230D-02-0.171D-02 0.311D-02 0.199D-01 0.128D-01-0.420D-01
 Coeff:     -0.813D-01-0.570D-01 0.405D+00 0.744D+00
 Gap=     0.127 Goal=   None    Shift=    0.000
 RMSDP=1.71D-08 MaxDP=1.68D-06 DE=-6.62D-10 OVMax= 1.15D-05

 Cycle  17  Pass 1  IDiag  1:
 RMSU=  8.21D-09    CP:  9.71D-01  1.48D+00  7.11D-01  6.06D-01  9.14D-01
                    CP:  9.35D-01  1.18D+00  1.24D+00  1.80D+00  2.23D+00
                    CP:  1.97D+00  1.90D+00  1.40D+00  1.28D+00  1.49D+00
                    CP:  1.26D+00
 E= -3007.16345999502     Delta-E=        0.000000000096 Rises=F Damp=F
 DIIS: error= 6.64D-08 at cycle  17 NSaved=  17.
 NSaved=17 IEnMin=16 EnMin= -3007.16345999511     IErMin=17 ErrMin= 6.64D-08
 ErrMax= 6.64D-08  0.00D+00 EMaxC= 1.00D-01 BMatC= 9.86D-12 BMatP= 3.55D-11
 IDIUse=1 WtCom= 1.00D+00 WtEn= 0.00D+00
 Coeff-Com: -0.679D-05 0.133D-04 0.244D-04 0.352D-04 0.465D-04-0.880D-04
 Coeff-Com: -0.129D-02-0.157D-02-0.729D-03 0.927D-02 0.146D-01-0.361D-02
 Coeff-Com: -0.440D-01-0.101D+00-0.243D-01 0.275D+00 0.878D+00
 Coeff:     -0.679D-05 0.133D-04 0.244D-04 0.352D-04 0.465D-04-0.880D-04
 Coeff:     -0.129D-02-0.157D-02-0.729D-03 0.927D-02 0.146D-01-0.361D-02
 Coeff:     -0.440D-01-0.101D+00-0.243D-01 0.275D+00 0.878D+00
 Gap=     0.127 Goal=   None    Shift=    0.000
 RMSDP=1.26D-08 MaxDP=1.18D-06 DE= 9.64D-11 OVMax= 7.22D-06

 Cycle  18  Pass 1  IDiag  1:
 RMSU=  3.53D-09    CP:  9.71D-01  1.48D+00  7.11D-01  6.06D-01  9.14D-01
                    CP:  9.35D-01  1.18D+00  1.24D+00  1.80D+00  2.23D+00
                    CP:  1.97D+00  1.91D+00  1.43D+00  1.36D+00  1.69D+00
                    CP:  1.70D+00  1.41D+00
 E= -3007.16345999515     Delta-E=       -0.000000000133 Rises=F Damp=F
 DIIS: error= 7.22D-08 at cycle  18 NSaved=  18.
 NSaved=18 IEnMin=18 EnMin= -3007.16345999515     IErMin=17 ErrMin= 6.64D-08
 ErrMax= 7.22D-08  0.00D+00 EMaxC= 1.00D-01 BMatC= 2.91D-12 BMatP= 9.86D-12
 IDIUse=1 WtCom= 1.00D+00 WtEn= 0.00D+00
 Coeff-Com:  0.215D-05-0.454D-05-0.593D-05-0.430D-05 0.328D-04 0.184D-03
 Coeff-Com:  0.333D-03 0.401D-03-0.204D-02-0.432D-02-0.677D-03 0.191D-01
 Coeff-Com:  0.188D-01-0.195D-01-0.163D+00-0.214D+00 0.336D+00 0.103D+01
 Coeff:      0.215D-05-0.454D-05-0.593D-05-0.430D-05 0.328D-04 0.184D-03
 Coeff:      0.333D-03 0.401D-03-0.204D-02-0.432D-02-0.677D-03 0.191D-01
 Coeff:      0.188D-01-0.195D-01-0.163D+00-0.214D+00 0.336D+00 0.103D+01
 Gap=     0.127 Goal=   None    Shift=    0.000
 RMSDP=9.80D-09 MaxDP=7.03D-07 DE=-1.33D-10 OVMax= 6.64D-06

 SCF Done:  E(RCAM-B3LYP) =  -3007.16346000     A.U. after   18 cycles
            NFock= 18  Conv=0.98D-08     -V/T= 2.0108
 KE= 2.975004729224D+03 PE=-2.602755751545D+04 EE= 1.052750715477D+04
 Leave Link  502 at Thu May  5 06:40:52 2022, MaxMem= 10066329600 cpu:            8973.5 elap:             391.3
 (Enter /sw/apps/gaussian-16.0/g16/l801.exe)
 DoSCS=F DFT=T ScalE2(SS,OS)=  1.000000  1.000000
 ExpMin= 3.36D-02 ExpMax= 4.95D+03 ExpMxC= 7.45D+02 IAcc=3 IRadAn=         5 AccDes= 0.00D+00
 HarFok:  IExCor=  205 AccDes= 0.00D+00 IRadAn=         5 IDoV=-2 UseB2=F ITyADJ=14
 ICtDFT= 12500011 ScaDFX=  1.000000  1.000000  1.000000  1.000000
 GSVD:  LWork=       -5460 too small for GESVD, short by       25550 words or       25550 for optimal perf.
 Largest valence mixing into a core orbital is  1.95D-04
 Largest core mixing into a valence orbital is  4.99D-05
 Range of M.O.s used for correlation:    71  1298
 NBasis=  1298 NAE=   246 NBE=   246 NFC=    70 NFV=     0
 NROrb=   1228 NOA=   176 NOB=   176 NVA=  1052 NVB=  1052

 **** Warning!!: The largest alpha MO coefficient is  0.10277240D+02

 Leave Link  801 at Thu May  5 06:40:52 2022, MaxMem= 10066329600 cpu:               6.8 elap:               0.3
 (Enter /sw/apps/gaussian-16.0/g16/l914.exe)
 RHF ground state
 Two-electron integrals replicated using symmetry.
 MDV= 10066329600 DFT=T DoStab=F Mixed=T DoRPA=T DoScal=F NonHer=T
 Making orbital integer symmetry assigments:
 Orbital symmetries:
       Occupied  (A) (A) (A) (A) (A) (A) (A) (A) (A) (A) (A) (A)
                 (A) (A) (A) (A) (A) (A) (A) (A) (A) (A) (A) (A)
                 (A) (A) (A) (A) (A) (A) (A) (A) (A) (A) (A) (A)
                 (A) (A) (A) (A) (A) (A) (A) (A) (A) (A) (A) (A)
                 (A) (A) (A) (A) (A) (A) (A) (A) (A) (A) (A) (A)
                 (A) (A) (A) (A) (A) (A) (A) (A) (A) (A) (A) (A)
                 (A) (A) (A) (A) (A) (A) (A) (A) (A) (A) (A) (A)
                 (A) (A) (A) (A) (A) (A) (A) (A) (A) (A) (A) (A)
                 (A) (A) (A) (A) (A) (A) (A) (A) (A) (A) (A) (A)
                 (A) (A) (A) (A) (A) (A) (A) (A) (A) (A) (A) (A)
                 (A) (A) (A) (A) (A) (A) (A) (A) (A) (A) (A) (A)
                 (A) (A) (A) (A) (A) (A) (A) (A) (A) (A) (A) (A)
                 (A) (A) (A) (A) (A) (A) (A) (A) (A) (A) (A) (A)
                 (A) (A) (A) (A) (A) (A) (A) (A) (A) (A) (A) (A)
                 (A) (A) (A) (A) (A) (A) (A) (A) (A) (A) (A) (A)
                 (A) (A) (A) (A) (A) (A) (A) (A) (A) (A) (A) (A)
                 (A) (A) (A) (A) (A) (A) (A) (A) (A) (A) (A) (A)
                 (A) (A) (A) (A) (A) (A) (A) (A) (A) (A) (A) (A)
                 (A) (A) (A) (A) (A) (A) (A) (A) (A) (A) (A) (A)
                 (A) (A) (A) (A) (A) (A) (A) (A) (A) (A) (A) (A)
                 (A) (A) (A) (A) (A) (A)
       Virtual   (A) (A) (A) (A) (A) (A) (A) (A) (A) (A) (A) (A)
                 (A) (A) (A) (A) (A) (A) (A) (A) (A) (A) (A) (A)
                 (A) (A) (A) (A) (A) (A) (A) (A) (A) (A) (A) (A)
                 (A) (A) (A) (A) (A) (A) (A) (A) (A) (A) (A) (A)
                 (A) (A) (A) (A) (A) (A) (A) (A) (A) (A) (A) (A)
                 (A) (A) (A) (A) (A) (A) (A) (A) (A) (A) (A) (A)
                 (A) (A) (A) (A) (A) (A) (A) (A) (A) (A) (A) (A)
                 (A) (A) (A) (A) (A) (A) (A) (A) (A) (A) (A) (A)
                 (A) (A) (A) (A) (A) (A) (A) (A) (A) (A) (A) (A)
                 (A) (A) (A) (A) (A) (A) (A) (A) (A) (A) (A) (A)
                 (A) (A) (A) (A) (A) (A) (A) (A) (A) (A) (A) (A)
                 (A) (A) (A) (A) (A) (A) (A) (A) (A) (A) (A) (A)
                 (A) (A) (A) (A) (A) (A) (A) (A) (A) (A) (A) (A)
                 (A) (A) (A) (A) (A) (A) (A) (A) (A) (A) (A) (A)
                 (A) (A) (A) (A) (A) (A) (A) (A) (A) (A) (A) (A)
                 (A) (A) (A) (A) (A) (A) (A) (A) (A) (A) (A) (A)
                 (A) (A) (A) (A) (A) (A) (A) (A) (A) (A) (A) (A)
                 (A) (A) (A) (A) (A) (A) (A) (A) (A) (A) (A) (A)
                 (A) (A) (A) (A) (A) (A) (A) (A) (A) (A) (A) (A)
                 (A) (A) (A) (A) (A) (A) (A) (A) (A) (A) (A) (A)
                 (A) (A) (A) (A) (A) (A) (A) (A) (A) (A) (A) (A)
                 (A) (A) (A) (A) (A) (A) (A) (A) (A) (A) (A) (A)
                 (A) (A) (A) (A) (A) (A) (A) (A) (A) (A) (A) (A)
                 (A) (A) (A) (A) (A) (A) (A) (A) (A) (A) (A) (A)
                 (A) (A) (A) (A) (A) (A) (A) (A) (A) (A) (A) (A)
                 (A) (A) (A) (A) (A) (A) (A) (A) (A) (A) (A) (A)
                 (A) (A) (A) (A) (A) (A) (A) (A) (A) (A) (A) (A)
                 (A) (A) (A) (A) (A) (A) (A) (A) (A) (A) (A) (A)
                 (A) (A) (A) (A) (A) (A) (A) (A) (A) (A) (A) (A)
                 (A) (A) (A) (A) (A) (A) (A) (A) (A) (A) (A) (A)
                 (A) (A) (A) (A) (A) (A) (A) (A) (A) (A) (A) (A)
                 (A) (A) (A) (A) (A) (A) (A) (A) (A) (A) (A) (A)
                 (A) (A) (A) (A) (A) (A) (A) (A) (A) (A) (A) (A)
                 (A) (A) (A) (A) (A) (A) (A) (A) (A) (A) (A) (A)
                 (A) (A) (A) (A) (A) (A) (A) (A) (A) (A) (A) (A)
                 (A) (A) (A) (A) (A) (A) (A) (A) (A) (A) (A) (A)
                 (A) (A) (A) (A) (A) (A) (A) (A) (A) (A) (A) (A)
                 (A) (A) (A) (A) (A) (A) (A) (A) (A) (A) (A) (A)
                 (A) (A) (A) (A) (A) (A) (A) (A) (A) (A) (A) (A)
                 (A) (A) (A) (A) (A) (A) (A) (A) (A) (A) (A) (A)
                 (A) (A) (A) (A) (A) (A) (A) (A) (A) (A) (A) (A)
                 (A) (A) (A) (A) (A) (A) (A) (A) (A) (A) (A) (A)
                 (A) (A) (A) (A) (A) (A) (A) (A) (A) (A) (A) (A)
                 (A) (A) (A) (A) (A) (A) (A) (A) (A) (A) (A) (A)
                 (A) (A) (A) (A) (A) (A) (A) (A) (A) (A) (A) (A)
                 (A) (A) (A) (A) (A) (A) (A) (A) (A) (A) (A) (A)
                 (A) (A) (A) (A) (A) (A) (A) (A) (A) (A) (A) (A)
                 (A) (A) (A) (A) (A) (A) (A) (A) (A) (A) (A) (A)
                 (A) (A) (A) (A) (A) (A) (A) (A) (A) (A) (A) (A)
                 (A) (A) (A) (A) (A) (A) (A) (A) (A) (A) (A) (A)
                 (A) (A) (A) (A) (A) (A) (A) (A) (A) (A) (A) (A)
                 (A) (A) (A) (A) (A) (A) (A) (A) (A) (A) (A) (A)
                 (A) (A) (A) (A) (A) (A) (A) (A) (A) (A) (A) (A)
                 (A) (A) (A) (A) (A) (A) (A) (A) (A) (A) (A) (A)
                 (A) (A) (A) (A) (A) (A) (A) (A) (A) (A) (A) (A)
                 (A) (A) (A) (A) (A) (A) (A) (A) (A) (A) (A) (A)
                 (A) (A) (A) (A) (A) (A) (A) (A) (A) (A) (A) (A)
                 (A) (A) (A) (A) (A) (A) (A) (A) (A) (A) (A) (A)
                 (A) (A) (A) (A) (A) (A) (A) (A) (A) (A) (A) (A)
                 (A) (A) (A) (A) (A) (A) (A) (A) (A) (A) (A) (A)
                 (A) (A) (A) (A) (A) (A) (A) (A) (A) (A) (A) (A)
                 (A) (A) (A) (A) (A) (A) (A) (A) (A) (A) (A) (A)
                 (A) (A) (A) (A) (A) (A) (A) (A) (A) (A) (A) (A)
                 (A) (A) (A) (A) (A) (A) (A) (A) (A) (A) (A) (A)
                 (A) (A) (A) (A) (A) (A) (A) (A) (A) (A) (A) (A)
                 (A) (A) (A) (A) (A) (A) (A) (A) (A) (A) (A) (A)
                 (A) (A) (A) (A) (A) (A) (A) (A) (A) (A) (A) (A)
                 (A) (A) (A) (A) (A) (A) (A) (A) (A) (A) (A) (A)
                 (A) (A) (A) (A) (A) (A) (A) (A) (A) (A) (A) (A)
                 (A) (A) (A) (A) (A) (A) (A) (A) (A) (A) (A) (A)
                 (A) (A) (A) (A) (A) (A) (A) (A) (A) (A) (A) (A)
                 (A) (A) (A) (A) (A) (A) (A) (A) (A) (A) (A) (A)
                 (A) (A) (A) (A) (A) (A) (A) (A) (A) (A) (A) (A)
                 (A) (A) (A) (A) (A) (A) (A) (A) (A) (A) (A) (A)
                 (A) (A) (A) (A) (A) (A) (A) (A) (A) (A) (A) (A)
                 (A) (A) (A) (A) (A) (A) (A) (A) (A) (A) (A) (A)
                 (A) (A) (A) (A) (A) (A) (A) (A) (A) (A) (A) (A)
                 (A) (A) (A) (A) (A) (A) (A) (A) (A) (A) (A) (A)
                 (A) (A) (A) (A) (A) (A) (A) (A) (A) (A) (A) (A)
                 (A) (A) (A) (A) (A) (A) (A) (A) (A) (A) (A) (A)
                 (A) (A) (A) (A) (A) (A) (A) (A) (A) (A) (A) (A)
                 (A) (A) (A) (A) (A) (A) (A) (A) (A) (A) (A) (A)
                 (A) (A) (A) (A) (A) (A) (A) (A) (A) (A) (A) (A)
                 (A) (A) (A) (A) (A) (A) (A) (A) (A) (A) (A) (A)
                 (A) (A) (A) (A) (A) (A) (A) (A) (A) (A) (A) (A)
                 (A) (A) (A) (A) (A) (A) (A) (A) (A) (A) (A) (A)
                 (A) (A) (A) (A) (A) (A) (A) (A) (A) (A) (A) (A)
                 (A) (A) (A) (A) (A) (A) (A) (A)
    20 initial guesses have been made.
 Convergence on wavefunction:    0.001000000000000
 Davidson Disk Diagonalization:  ConvIn= 1.00D-03 SkipCon=T Conv= 1.00D-03.
 Max sub-space:  2000 roots to seek:    20 dimension of matrix:       370304
 Iteration     1 Dimension    20 NMult     0 NNew     20
 CISAX will form    20 AO SS matrices at one time.
 NMat=    20 NSing=    20 JSym2X= 0.
 FoFJK:  IHMeth= 1 ICntrl=       0 DoSepK=T KAlg= 0 I1Cent=           0 FoldK=F
 IRaf=         1 NMat=      40 IRICut=       1 DoRegI=T DoRafI=F ISym2E= 0 IDoP0=3 IntGTp=3.
 FoFCou: FMM=T IPFlag=           0 FMFlag=      100000 FMFlg1=        2001
         NFxFlg=           0 DoJE=F BraDBF=F KetDBF=F FulRan=T
         wScrn=  0.000000 ICntrl=       500 IOpCl=  0 I1Cent=           0 NGrid=           0
         NMat0=   20 NMatS0=     20 NMatT0=    0 NMatD0=   20 NMtDS0=    0 NMtDT0=    0
 Symmetry not used in FoFCou.
 FMM levels:  10  Number of levels for PrismC:   9
 New state      3 was old state      4
 New state      4 was old state      6
 New state      5 was old state      8
 Excitation Energies [eV] at current iteration:
 Root      1 :     2.243491143354893
 Root      2 :     2.607142978919177
 Root      3 :     3.697202480078185
 Root      4 :     3.893162840366326
 Root      5 :     3.960824447403593
 Root      6 :     4.134050460111267
 Root      7 :     4.261535512103483
 Root      8 :     4.402296913332794
 Root      9 :     4.489000893228879
 Root     10 :     4.594002186574370
 Root     11 :     4.682285985505598
 Root     12 :     4.711621461490767
 Root     13 :     4.768263266014181
 Root     14 :     4.876442577197277
 Root     15 :     5.081193274418403
 Root     16 :     5.173596312248621
 Root     17 :     5.360447974473296
 Root     18 :     5.425267826989014
 Root     19 :     6.069181544571998
 Root     20 :     6.547445872127918
 Iteration     2 Dimension    30 NMult    20 NNew     10
 CISAX will form    10 AO SS matrices at one time.
 NMat=    10 NSing=    10 JSym2X= 0.
 Root      1 not converged, maximum delta is    0.067810601798415
 Root      2 not converged, maximum delta is    0.064286703362028
 Root      3 not converged, maximum delta is    0.046813603266982
 Root      4 not converged, maximum delta is    0.102829067194854
 Root      5 not converged, maximum delta is    0.134916128332271
 Excitation Energies [eV] at current iteration:
 Root      1 :     1.794342460766431   Change is   -0.449148682588463
 Root      2 :     2.210846434451511   Change is   -0.396296544467666
 Root      3 :     3.374589392821879   Change is   -0.322613087256306
 Root      4 :     3.502984650073756   Change is   -0.390178190292570
 Root      5 :     3.542359167072931   Change is   -0.418465280330662
 Iteration     3 Dimension    40 NMult    30 NNew     10
 CISAX will form    10 AO SS matrices at one time.
 NMat=    10 NSing=    10 JSym2X= 0.
 Root      1 not converged, maximum delta is    0.018116294867885
 Root      2 not converged, maximum delta is    0.012620134439670
 Root      3 not converged, maximum delta is    0.124353749277456
 New state      4 was old state      5
 Root      4 not converged, maximum delta is    0.337499228647753
 New state      5 was old state      4
 Root      5 not converged, maximum delta is    0.285185626134697
 Excitation Energies [eV] at current iteration:
 Root      1 :     1.757823311491607   Change is   -0.036519149274824
 Root      2 :     2.188906550463368   Change is   -0.021939883988143
 Root      3 :     3.354718020920887   Change is   -0.019871371900992
 Root      4 :     3.416594055553680   Change is   -0.125765111519251
 Root      5 :     3.483956520026271   Change is   -0.019028130047485
 Iteration     4 Dimension    50 NMult    40 NNew     10
 CISAX will form    10 AO SS matrices at one time.
 NMat=    10 NSing=    10 JSym2X= 0.
 Root      1 not converged, maximum delta is    0.002960859482307
 Root      2 not converged, maximum delta is    0.003743944867455
 Root      3 not converged, maximum delta is    0.025992768578127
 Root      4 not converged, maximum delta is    0.033360221898607
 Root      5 not converged, maximum delta is    0.047256314288855
 Excitation Energies [eV] at current iteration:
 Root      1 :     1.753603442074436   Change is   -0.004219869417170
 Root      2 :     2.185870980580144   Change is   -0.003035569883224
 Root      3 :     3.349173570478885   Change is   -0.005544450442002
 Root      4 :     3.405497572832166   Change is   -0.011096482721514
 Root      5 :     3.469506147831316   Change is   -0.014450372194955
 Iteration     5 Dimension    60 NMult    50 NNew     10
 CISAX will form    10 AO SS matrices at one time.
 NMat=    10 NSing=    10 JSym2X= 0.
 Root      1 not converged, maximum delta is    0.001163023594996
 Root      2 not converged, maximum delta is    0.001185642855392
 Root      3 not converged, maximum delta is    0.007038667915544
 Root      4 not converged, maximum delta is    0.026238382509547
 Root      5 not converged, maximum delta is    0.090483732762315
 Excitation Energies [eV] at current iteration:
 Root      1 :     1.753256003848052   Change is   -0.000347438226385
 Root      2 :     2.185582509494817   Change is   -0.000288471085327
 Root      3 :     3.348380869088131   Change is   -0.000792701390753
 Root      4 :     3.403135718176376   Change is   -0.002361854655790
 Root      5 :     3.457650517374942   Change is   -0.011855630456374
 Iteration     6 Dimension    70 NMult    60 NNew     10
 CISAX will form    10 AO SS matrices at one time.
 NMat=    10 NSing=    10 JSym2X= 0.
 Root      1 has converged.
 Root      2 has converged.
 Root      3 not converged, maximum delta is    0.005286942428013
 Root      4 not converged, maximum delta is    0.024855820563598
 Root      5 not converged, maximum delta is    0.083845860197148
 Excitation Energies [eV] at current iteration:
 Root      1 :     1.753224056191421   Change is   -0.000031947656630
 Root      2 :     2.185546221544850   Change is   -0.000036287949967
 Root      3 :     3.348212335309023   Change is   -0.000168533779109
 Root      4 :     3.402145810539037   Change is   -0.000989907637339
 Root      5 :     3.446830253612585   Change is   -0.010820263762357
 Iteration     7 Dimension    76 NMult    70 NNew      6
 CISAX will form     6 AO SS matrices at one time.
 NMat=     6 NSing=     6 JSym2X= 0.
 Root      1 has converged.
 Root      2 has converged.
 Root      3 not converged, maximum delta is    0.001287092833620
 Root      4 not converged, maximum delta is    0.007381902567835
 Root      5 not converged, maximum delta is    0.041752520856822
 Excitation Energies [eV] at current iteration:
 Root      1 :     1.753223524963694   Change is   -0.000000531227728
 Root      2 :     2.185545924363328   Change is   -0.000000297181522
 Root      3 :     3.348183949605494   Change is   -0.000028385703528
 Root      4 :     3.401939116059854   Change is   -0.000206694479183
 Root      5 :     3.443549665025543   Change is   -0.003280588587042
 Iteration     8 Dimension    82 NMult    76 NNew      6
 CISAX will form     6 AO SS matrices at one time.
 NMat=     6 NSing=     6 JSym2X= 0.
 Root      1 has converged.
 Root      2 has converged.
 Root      3 has converged.
 Root      4 not converged, maximum delta is    0.001451759932456
 Root      5 not converged, maximum delta is    0.012161059889324
 Excitation Energies [eV] at current iteration:
 Root      1 :     1.753223424657472   Change is   -0.000000100306222
 Root      2 :     2.185545847366500   Change is   -0.000000076996828
 Root      3 :     3.348180011328486   Change is   -0.000003938277008
 Root      4 :     3.401900906295295   Change is   -0.000038209764559
 Root      5 :     3.442927945163007   Change is   -0.000621719862536
 Iteration     9 Dimension    86 NMult    82 NNew      4
 CISAX will form     4 AO SS matrices at one time.
 NMat=     4 NSing=     4 JSym2X= 0.
 Root      1 has converged.
 Root      2 has converged.
 Root      3 has converged.
 Root      4 has converged.
 Root      5 not converged, maximum delta is    0.001654878255604
 Excitation Energies [eV] at current iteration:
 Root      1 :     1.753223304826376   Change is   -0.000000119831097
 Root      2 :     2.185545820656482   Change is   -0.000000026710018
 Root      3 :     3.348179797263171   Change is   -0.000000214065315
 Root      4 :     3.401897128089431   Change is   -0.000003778205864
 Root      5 :     3.442871095313018   Change is   -0.000056849849989
 Iteration    10 Dimension    88 NMult    86 NNew      2
 CISAX will form     2 AO SS matrices at one time.
 NMat=     2 NSing=     2 JSym2X= 0.
 Root      1 has converged.
 Root      2 has converged.
 Root      3 has converged.
 Root      4 has converged.
 Root      5 has converged.
 Excitation Energies [eV] at current iteration:
 Root      1 :     1.753223281289184   Change is   -0.000000023537192
 Root      2 :     2.185545597279392   Change is   -0.000000223377090
 Root      3 :     3.348179779793097   Change is   -0.000000017470074
 Root      4 :     3.401896820291232   Change is   -0.000000307798199
 Root      5 :     3.442864135701765   Change is   -0.000006959611253
 Convergence achieved on expansion vectors.
 ***********************************************************************
 Excited states from <AA,BB:AA,BB> singles matrix:
 ***********************************************************************
 
 1PDM for each excited state written to RWF  633
 Ground to excited state transition densities written to RWF  633
 Ground to excited state transition electric dipole moments (Au):
       state          X           Y           Z        Dip. S.      Osc.
         1         0.2037     -2.9067     -0.4766      8.7177      0.3745
         2         1.5380     -0.3869      0.3105      2.6114      0.1398
         3        -0.2017      0.0097     -0.0069      0.0408      0.0033
         4        -0.1891      0.1405     -0.0328      0.0566      0.0047
         5        -0.2930     -0.1522     -0.0437      0.1109      0.0094
 Ground to excited state transition velocity dipole moments (Au):
       state          X           Y           Z        Dip. S.      Osc.
         1        -0.0130      0.1813      0.0308      0.0340      0.3518
         2        -0.1173      0.0294     -0.0240      0.0152      0.1261
         3         0.0242      0.0008      0.0025      0.0006      0.0032
         4         0.0224     -0.0161      0.0047      0.0008      0.0042
         5         0.0342      0.0161      0.0087      0.0015      0.0079
 Ground to excited state transition magnetic dipole moments (Au):
       state          X           Y           Z
         1        -0.0230      0.3797     -2.1447
         2        -0.1098     -0.3002      0.1609
         3        -0.3776      0.2129      0.8120
         4         0.1157      0.6911     -0.3778
         5        -0.5660      0.2900     -0.4199
 Ground to excited state transition velocity quadrupole moments (Au):
       state          XX          YY          ZZ          XY          XZ          YZ
         1         0.1355      0.3633     -0.0152     -1.9995     -0.3690      0.0166
         2         2.3335      0.0134     -0.0274     -0.2714      0.2370      0.0124
         3        -0.4381      0.1595     -0.0314     -0.3799     -0.0482     -0.0699
         4        -0.4288     -0.1686     -0.0193      0.3646     -0.0878      0.0273
         5        -0.7003      0.0910      0.0047     -0.2242     -0.0688     -0.0380
 <0|del|b> * <b|rxdel|0> + <0|del|b> * <b|delr+rdel|0>
 Rotatory Strengths (R) in cgs (10**-40 erg-esu-cm/Gauss)
       state          XX          YY          ZZ    R(velocity)    E-M Angle
         1        44.1365    -24.1007     13.5047     11.1802       89.56
         2       -57.9066      4.5974     54.9195      0.5368       89.76
         3         3.7122    -22.5276    -21.0214    -13.2789      108.02
         4       -35.6801     -0.8155    -21.8971    -19.4642      117.58
         5         0.5016    -62.5098    -40.5897    -34.1993      128.39
 1/2[<0|r|b>*<b|rxdel|0> + (<0|rxdel|b>*<b|r|0>)*]
 Rotatory Strengths (R) in cgs (10**-40 erg-esu-cm/Gauss)
       state          XX          YY          ZZ     R(length)
         1         3.3151    780.4775   -722.8578     20.3116
         2       119.3800    -82.1303    -35.3439      0.6353
         3       -53.8605     -1.4680      3.9705    -17.1193
         4        15.4769    -68.6710     -8.7551    -20.6497
         5      -117.2658     31.2044    -12.9840    -33.0151
  1/2[<0|del|b>*<b|r|0> + (<0|r|b>*<b|del|0>)*] (Au)
       state          X           Y           Z        Dip. S.   Osc.(frdel)
         1        -0.0027     -0.5271     -0.0147      0.5444      0.3630
         2        -0.1804     -0.0114     -0.0074      0.1992      0.1328
         3        -0.0049      0.0000     -0.0000      0.0049      0.0033
         4        -0.0042     -0.0023     -0.0002      0.0067      0.0044
         5        -0.0100     -0.0024     -0.0004      0.0129      0.0086

 Excitation energies and oscillator strengths:
 
 Excited State   1:      Singlet-A      1.7532 eV  707.18 nm  f=0.3745  <S**2>=0.000
     245 -> 248        0.19650
     246 -> 247        0.67967
     245 <- 248        0.10884
 This state for optimization and/or second-order correction.
 Total Energy, E(TD-HF/TD-DFT) =  -3007.09903023    
 Copying the excited state density for this state as the 1-particle RhoCI density.
 
[...]
 Alpha virt. eigenvalues --    1.19542   1.19912   1.20296   1.20746   1.21463
 Alpha virt. eigenvalues --    1.21553   1.22253   1.22830   1.23066   1.23440
 Alpha virt. eigenvalues --    1.23988   1.24124   1.25907   1.26140   1.26675
 Alpha virt. eigenvalues --    1.26907   1.27356   1.27496   1.27691   1.28398
 Alpha virt. eigenvalues --    1.28702   1.29541   1.30327   1.30886   1.31376
 Alpha virt. eigenvalues --    1.32216   1.32505   1.32638   1.33051   1.33770
 Alpha virt. eigenvalues --    1.33909   1.34088   1.34906   1.35119   1.36017
 Alpha virt. eigenvalues --    1.36248   1.36389   1.36752   1.37404   1.38075
 Alpha virt. eigenvalues --    1.38742   1.39025   1.39304   1.39976   1.40332
 Alpha virt. eigenvalues --    1.40519   1.41658   1.41723   1.42137   1.42608
 Alpha virt. eigenvalues --    1.43020   1.43473   1.43884   1.44562   1.44916
 Alpha virt. eigenvalues --    1.45025   1.45694   1.45887   1.46195   1.46350
 Alpha virt. eigenvalues --    1.46873   1.47937   1.48350   1.48691   1.48825
 Alpha virt. eigenvalues --    1.48962   1.49793   1.49943   1.50144   1.51229
 Alpha virt. eigenvalues --    1.51343   1.51728   1.52195   1.52488   1.52989
 Alpha virt. eigenvalues --    1.53628   1.53889   1.54257   1.54322   1.54399
 Alpha virt. eigenvalues --    1.55328   1.55481   1.55868   1.56328   1.56811
 Alpha virt. eigenvalues --    1.56924   1.57330   1.57569   1.57849   1.57963
 Alpha virt. eigenvalues --    1.58498   1.58893   1.59124   1.59236   1.59730
 Alpha virt. eigenvalues --    1.60200   1.60457   1.60603   1.61324   1.61542
 Alpha virt. eigenvalues --    1.61787   1.62035   1.62206   1.62477   1.62592
 Alpha virt. eigenvalues --    1.62971   1.63000   1.63881   1.64033   1.64192
 Alpha virt. eigenvalues --    1.64663   1.64765   1.64850   1.65089   1.65484
 Alpha virt. eigenvalues --    1.65847   1.65981   1.66434   1.66622   1.67056
 Alpha virt. eigenvalues --    1.67425   1.67986   1.68609   1.68893   1.69067
 Alpha virt. eigenvalues --    1.69684   1.69916   1.70483   1.70908   1.71573
 Alpha virt. eigenvalues --    1.71821   1.72121   1.72182   1.72824   1.73497
 Alpha virt. eigenvalues --    1.73631   1.73866   1.74528   1.74908   1.75679
 Alpha virt. eigenvalues --    1.75811   1.76315   1.76836   1.77428   1.77855
 Alpha virt. eigenvalues --    1.78159   1.78418   1.78480   1.78738   1.78885
 Alpha virt. eigenvalues --    1.79040   1.79349   1.79671   1.80273   1.80387
 Alpha virt. eigenvalues --    1.80818   1.81140   1.81353   1.81382   1.81646
 Alpha virt. eigenvalues --    1.81953   1.82230   1.82586   1.82771   1.82945
 Alpha virt. eigenvalues --    1.83251   1.83542   1.83611   1.83838   1.83869
 Alpha virt. eigenvalues --    1.84055   1.84315   1.84480   1.84606   1.84753
 Alpha virt. eigenvalues --    1.84974   1.85107   1.85283   1.85501   1.85686
 Alpha virt. eigenvalues --    1.85980   1.86045   1.86405   1.86451   1.86602
 Alpha virt. eigenvalues --    1.86884   1.86909   1.87198   1.87530   1.87744
 Alpha virt. eigenvalues --    1.87903   1.88024   1.88321   1.88699   1.88868
 Alpha virt. eigenvalues --    1.89194   1.89204   1.89371   1.89402   1.89649
 Alpha virt. eigenvalues --    1.89851   1.89957   1.90045   1.90288   1.90689
 Alpha virt. eigenvalues --    1.90758   1.90963   1.91142   1.91243   1.91794
 Alpha virt. eigenvalues --    1.92071   1.92353   1.92496   1.92585   1.92805
 Alpha virt. eigenvalues --    1.92890   1.93405   1.93843   1.93915   1.94067
 Alpha virt. eigenvalues --    1.94157   1.94274   1.94648   1.94796   1.95122
 Alpha virt. eigenvalues --    1.95188   1.95368   1.95439   1.95797   1.96135
 Alpha virt. eigenvalues --    1.96264   1.96328   1.96663   1.96738   1.97230
 Alpha virt. eigenvalues --    1.97351   1.97707   1.98052   1.98292   1.98574
 Alpha virt. eigenvalues --    1.98745   1.99221   1.99340   1.99646   1.99942
 Alpha virt. eigenvalues --    2.00074   2.00390   2.00587   2.00894   2.01077
 Alpha virt. eigenvalues --    2.01449   2.01692   2.02042   2.02492   2.02916
 Alpha virt. eigenvalues --    2.03031   2.03184   2.03651   2.03842   2.04168
 Alpha virt. eigenvalues --    2.04382   2.04751   2.04911   2.05119   2.05467
 Alpha virt. eigenvalues --    2.05883   2.05990   2.06149   2.06310   2.06394
 Alpha virt. eigenvalues --    2.06752   2.07576   2.07872   2.08327   2.09039
 Alpha virt. eigenvalues --    2.09298   2.09448   2.09656   2.09798   2.10095
 Alpha virt. eigenvalues --    2.10699   2.10974   2.11107   2.11221   2.11418
 Alpha virt. eigenvalues --    2.11745   2.11845   2.12082   2.12565   2.12854
 Alpha virt. eigenvalues --    2.13108   2.13282   2.13996   2.14102   2.14416
 Alpha virt. eigenvalues --    2.14590   2.14775   2.15131   2.15310   2.16196
 Alpha virt. eigenvalues --    2.16230   2.16480   2.16725   2.16934   2.17461
 Alpha virt. eigenvalues --    2.17981   2.18264   2.18304   2.18732   2.19024
 Alpha virt. eigenvalues --    2.19143   2.19260   2.19557   2.20052   2.20666
 Alpha virt. eigenvalues --    2.21377   2.22007   2.22263   2.23039   2.23263
 Alpha virt. eigenvalues --    2.23896   2.24380   2.24499   2.24676   2.25005
 Alpha virt. eigenvalues --    2.25164   2.25565   2.25844   2.26282   2.26605
 Alpha virt. eigenvalues --    2.27522   2.27887   2.28051   2.28440   2.28656
 Alpha virt. eigenvalues --    2.29602   2.30063   2.30337   2.31720   2.31793
 Alpha virt. eigenvalues --    2.31911   2.32157   2.32354   2.32950   2.33265
 Alpha virt. eigenvalues --    2.33705   2.33900   2.34131   2.35100   2.35254
 Alpha virt. eigenvalues --    2.35906   2.36029   2.36113   2.36201   2.36357
 Alpha virt. eigenvalues --    2.37420   2.37649   2.37885   2.38047   2.38614
 Alpha virt. eigenvalues --    2.39035   2.39368   2.39511   2.39809   2.40112
 Alpha virt. eigenvalues --    2.40261   2.40812   2.41371   2.41763   2.42468
 Alpha virt. eigenvalues --    2.42648   2.42805   2.43075   2.43701   2.43798
 Alpha virt. eigenvalues --    2.43929   2.44216   2.44358   2.44587   2.45844
 Alpha virt. eigenvalues --    2.46125   2.46764   2.47052   2.47189   2.47422
 Alpha virt. eigenvalues --    2.47948   2.48136   2.48240   2.48945   2.49217
 Alpha virt. eigenvalues --    2.49815   2.50076   2.50229   2.50306   2.51061
 Alpha virt. eigenvalues --    2.51960   2.52181   2.52531   2.52944   2.53451
 Alpha virt. eigenvalues --    2.53725   2.53990   2.54863   2.55044   2.55223
 Alpha virt. eigenvalues --    2.56308   2.56554   2.57488   2.57756   2.58250
 Alpha virt. eigenvalues --    2.58646   2.58966   2.59588   2.60046   2.60455
 Alpha virt. eigenvalues --    2.60561   2.61087   2.61452   2.61844   2.61929
 Alpha virt. eigenvalues --    2.62151   2.62418   2.62990   2.63380   2.63433
 Alpha virt. eigenvalues --    2.64154   2.64533   2.64632   2.65002   2.65360
 Alpha virt. eigenvalues --    2.65746   2.66086   2.66382   2.66702   2.66759
 Alpha virt. eigenvalues --    2.66968   2.67196   2.67455   2.68555   2.68797
 Alpha virt. eigenvalues --    2.69680   2.70365   2.70565   2.71259   2.71554
 Alpha virt. eigenvalues --    2.72010   2.72206   2.73005   2.73203   2.74038
 Alpha virt. eigenvalues --    2.74274   2.74377   2.74900   2.75298   2.75602
 Alpha virt. eigenvalues --    2.75787   2.76050   2.76375   2.77000   2.77469
 Alpha virt. eigenvalues --    2.78152   2.78168   2.78824   2.79402   2.80094
 Alpha virt. eigenvalues --    2.80106   2.80810   2.81465   2.81733   2.81890
 Alpha virt. eigenvalues --    2.82512   2.83396   2.83955   2.84327   2.84678
 Alpha virt. eigenvalues --    2.84698   2.85333   2.86415   2.86809   2.87179
 Alpha virt. eigenvalues --    2.87465   2.87611   2.88147   2.89240   2.89478
 Alpha virt. eigenvalues --    2.89673   2.90233   2.90702   2.91094   2.91286
 Alpha virt. eigenvalues --    2.91391   2.92042   2.92420   2.93359   2.93711
 Alpha virt. eigenvalues --    2.94450   2.94947   2.95103   2.95638   2.96017
 Alpha virt. eigenvalues --    2.97005   2.97358   2.97555   2.97683   2.97823
 Alpha virt. eigenvalues --    2.98482   2.98808   2.98844   2.99318   2.99660
 Alpha virt. eigenvalues --    2.99924   3.00307   3.00346   3.00967   3.01100
 Alpha virt. eigenvalues --    3.01625   3.01733   3.01930   3.02073   3.02650
 Alpha virt. eigenvalues --    3.03161   3.03224   3.03466   3.03818   3.04197
 Alpha virt. eigenvalues --    3.04631   3.05009   3.05460   3.05598   3.05617
 Alpha virt. eigenvalues --    3.05667   3.06003   3.06378   3.06595   3.06732
 Alpha virt. eigenvalues --    3.07204   3.07655   3.08474   3.08495   3.08561
 Alpha virt. eigenvalues --    3.08815   3.10239   3.10671   3.10873   3.10990
 Alpha virt. eigenvalues --    3.11271   3.11712   3.12173   3.12213   3.12720
 Alpha virt. eigenvalues --    3.13367   3.14072   3.14264   3.14514   3.14746
 Alpha virt. eigenvalues --    3.14918   3.15912   3.17054   3.17255   3.17573
 Alpha virt. eigenvalues --    3.18107   3.18448   3.19107   3.19219   3.20580
 Alpha virt. eigenvalues --    3.21265   3.21467   3.22284   3.23681   3.24048
 Alpha virt. eigenvalues --    3.24311   3.25175   3.26926   3.27543   3.30532
 Alpha virt. eigenvalues --    3.31621   3.33576   3.40640   3.43217   3.44980
 Alpha virt. eigenvalues --    3.46436   3.50702   3.53115   3.54810   3.58744
 Alpha virt. eigenvalues --    3.60739   3.63000   3.65362   3.66873   3.67836
 Alpha virt. eigenvalues --    3.70040   3.73312
          Condensed to atoms (all electrons):
 Mulliken charges:
               1
     1  Mg   0.832975
     2  C   -0.061084
     3  C   -0.092638
     4  C   -0.052025
     5  C   -0.064310
     6  N   -0.261626
     7  C   -0.046858
     8  C   -0.022865
     9  C   -0.064476
    10  C    0.038797
    11  C    0.072536
    12  C    0.067414
    13  C    0.064092
    14  C    0.216905
    15  O   -0.226856
    16  O   -0.357512
    17  N   -0.452999
    18  C    0.181547
    19  C   -0.139830
    20  C   -0.012432
    21  C    0.151887
    22  C    0.099637
    23  C   -0.043672
    24  O   -0.234297
    25  C    0.078829
    26  N   -0.249195
    27  C   -0.001100
    28  C   -0.021713
    29  C   -0.010382
    30  C    0.045499
    31  C    0.074817
    32  C    0.026479
    33  C    0.009591
    34  N   -0.283302
    35  C    0.077112
    36  C   -0.153980
    37  C   -0.022227
    38  C    0.067926
    39  C    0.113324
    40  C    0.110128
    41  O   -0.185341
    42  C    0.008480
    43  C    0.196562
    44  O   -0.230136
    45  O   -0.348252
    46  C    0.178202
    47  C    0.295896
    48  C   -0.132389
    49  C   -0.147756
    50  C    0.046625
    51  C    0.082664
    52  C    0.022807
    53  C    0.053577
    54  C   -0.110973
    55  C    0.057092
    56  C    0.020678
    57  C   -0.016204
    58  C    0.057514
    59  C   -0.136455
    60  C    0.050561
    61  C    0.048830
    62  C    0.033040
    63  C    0.016842
    64  C   -0.124001
    65  C    0.053462
    66  C    0.050593
    67  H   -0.034240
    68  H   -0.004038
    69  H   -0.038135
    70  H    0.021490
    71  H    0.009912
    72  H    0.011854
    73  H    0.009294
    74  H    0.038455
    75  H    0.000937
    76  H    0.028152
    77  H    0.017903
    78  H    0.026558
    79  H    0.023367
    80  H    0.020418
    81  H    0.029415
    82  H    0.028743
    83  H    0.061015
    84  H    0.030776
    85  H    0.016189
    86  H    0.004359
    87  H    0.017003
    88  H    0.018382
    89  H    0.012169
    90  H    0.001010
    91  H   -0.001559
    92  H    0.006182
    93  H    0.024566
    94  H    0.027930
    95  H   -0.000892
    96  H    0.043247
    97  H    0.032142
    98  H    0.053499
    99  H    0.064570
   100  H    0.020270
   101  H    0.028604
   102  H    0.027380
   103  H    0.020395
   104  H   -0.007755
   105  H    0.041775
   106  H    0.030742
   107  H    0.018782
   108  H   -0.001144
   109  H   -0.002103
   110  H    0.007117
   111  H   -0.007360
   112  H   -0.012136
   113  H   -0.011507
   114  H   -0.011262
   115  H   -0.005090
   116  H    0.008267
   117  H    0.012637
   118  H   -0.020724
   119  H   -0.008611
   120  H    0.023232
   121  H    0.013521
   122  H   -0.009232
   123  H   -0.010429
   124  H   -0.015983
   125  H    0.002673
   126  H    0.001655
   127  H    0.014859
   128  H   -0.010584
   129  H   -0.014147
   130  H   -0.003989
   131  H   -0.003248
   132  H   -0.005058
   133  H   -0.026891
   134  H   -0.003167
   135  H   -0.011782
   136  H    0.021553
   137  H    0.001524
   138  H    0.001297
   139  H   -0.003813
   140  H    0.013023
 Sum of Mulliken charges =  -0.00000
 Mulliken charges with hydrogens summed into heavy atoms:
               1
     1  Mg   0.832975
     2  C   -0.061084
     3  C   -0.126877
     4  C   -0.056063
     5  C   -0.102445
     6  N   -0.261626
     7  C   -0.046858
     8  C   -0.001375
     9  C   -0.054563
    10  C    0.038797
    11  C    0.132139
    12  C    0.096503
    13  C    0.108553
    14  C    0.216905
    15  O   -0.226856
    16  O   -0.357512
    17  N   -0.452999
    18  C    0.181547
    19  C   -0.139830
    20  C   -0.012432
    21  C    0.151887
    22  C    0.172837
    23  C   -0.043672
    24  O   -0.234297
    25  C    0.199363
    26  N   -0.249195
    27  C   -0.001100
    28  C   -0.005524
    29  C   -0.006023
    30  C    0.045499
    31  C    0.122371
    32  C    0.025930
    33  C    0.068269
    34  N   -0.283302
    35  C    0.077112
    36  C   -0.153980
    37  C   -0.022227
    38  C    0.067926
    39  C    0.187821
    40  C    0.110128
    41  O   -0.185341
    42  C    0.061979
    43  C    0.196562
    44  O   -0.230136
    45  O   -0.348252
    46  C    0.291646
    47  C    0.343671
    48  C   -0.140145
    49  C   -0.147756
    50  C    0.137923
    51  C    0.079417
    52  C    0.022564
    53  C    0.029935
    54  C   -0.122235
    55  C    0.072907
    56  C   -0.008657
    57  C    0.020550
    58  C    0.037853
    59  C   -0.152437
    60  C    0.069748
    61  C    0.024098
    62  C    0.025803
    63  C   -0.015107
    64  C   -0.127168
    65  C    0.064757
    66  C    0.061099
 Electronic spatial extent (au):  <R**2>=         128897.1161
 Charge=             -0.0000 electrons
 Dipole moment (field-independent basis, Debye):
    X=              3.3962    Y=              5.7269    Z=              1.6600  Tot=              6.8620
 Quadrupole moment (field-independent basis, Debye-Ang):
   XX=           -385.8329   YY=           -425.3132   ZZ=           -402.1975
   XY=             -4.8105   XZ=              9.6353   YZ=              6.0384
 Traceless Quadrupole moment (field-independent basis, Debye-Ang):
   XX=             18.6150   YY=            -20.8653   ZZ=              2.2504
   XY=             -4.8105   XZ=              9.6353   YZ=              6.0384
 Octapole moment (field-independent basis, Debye-Ang**2):
  XXX=           -194.0865  YYY=            220.2690  ZZZ=             19.3867  XYY=            142.9217
  XXY=           -321.0646  XXZ=            -51.6468  XZZ=             -8.9038  YZZ=             -2.7210
  YYZ=             39.5266  XYZ=            -87.8786
 Hexadecapole moment (field-independent basis, Debye-Ang**3):
 XXXX=        -149334.3561 YYYY=         -22446.0171 ZZZZ=          -4492.8420 XXXY=           2707.8930
 XXXZ=            491.5431 YYYX=           -703.5932 YYYZ=            205.3281 ZZZX=             14.6272
 ZZZY=            -55.4381 XXYY=         -30062.4111 XXZZ=         -26352.6996 YYZZ=          -4438.5451
 XXYZ=            422.6197 YYXZ=            -11.9357 ZZXY=           -174.9746
 N-N= 9.517882171464D+03 E-N=-2.602755751273D+04  KE= 2.975004729224D+03
 Leave Link  601 at Thu May  5 07:01:24 2022, MaxMem= 10066329600 cpu:              13.1 elap:               0.6
 (Enter /sw/apps/gaussian-16.0/g16/l9999.exe)
 1\1\GINC-BP1-COMPUTE063\SP\RCAM-B3LYP TD-FC\def2SVP\C55H74Mg1N4O6\OF15
 641\05-May-2022\0\\#p cam-b3lyp/Def2SVP td=(nstates=5)\\step_751_chrom
 ophore_10 TDDFT with cam-b3lyp functional\\0,1\Mg,0,41.426,8.005,28.73
 5\C,0,43.006,9.343,31.598\C,0,39.129,6.664,30.651\C,0,40.159,6.651,25.
 888\C,0,44.045,9.37,26.856\N,0,41.167,8.026,30.921\C,0,41.822,8.652,31
 .883\C,0,41.269,8.284,33.232\C,0,40.1,7.195,32.905\C,0,40.121,7.287,31
 .425\C,0,40.208,5.708,33.507\C,0,40.705,9.521,33.967\C,0,40.998,9.735,
 35.503\C,0,41.535,11.125,35.979\O,0,42.076,11.949,35.233\O,0,41.083,11
 .408,37.307\N,0,39.813,6.915,28.358\C,0,38.917,6.517,29.303\C,0,37.819
 ,5.808,28.704\C,0,38.057,5.871,27.286\C,0,39.402,6.425,27.089\C,0,36.7
 44,5.04,29.5\C,0,37.079,5.451,26.215\O,0,37.453,5.537,25.024\C,0,35.70
 6,4.858,26.533\N,0,42.065,7.975,26.66\C,0,41.42,7.315,25.686\C,0,42.10
 2,7.368,24.33\C,0,43.245,8.389,24.61\C,0,43.108,8.652,26.146\C,0,42.67
 1,6.036,23.85\C,0,43.115,9.612,23.743\C,0,42.094,10.686,24.165\N,0,43.
 138,9.241,29.111\C,0,44.036,9.749,28.221\C,0,45.12,10.432,28.848\C,0,4
 4.724,10.396,30.243\C,0,43.567,9.551,30.312\C,0,46.342,11.072,28.162\C
 ,0,45.065,10.756,31.64\O,0,46.025,11.361,32.14\C,0,43.947,10.17,32.526
 \C,0,44.571,9.136,33.445\O,0,45.52,8.394,33.147\O,0,43.984,9.148,34.70
 1\C,0,44.465,8.219,35.708\C,0,41.45,12.751,37.685\C,0,40.77,12.873,39.
 003\C,0,41.373,12.714,40.236\C,0,42.793,12.187,40.442\C,0,40.589,12.81
 ,41.533\C,0,39.686,11.568,41.739\C,0,40.13,10.642,42.908\C,0,39.148,10
 .741,44.16\C,0,39.845,10.244,45.419\C,0,37.683,10.114,43.971\C,0,36.52
 5,10.75,44.819\C,0,35.766,11.831,43.981\C,0,34.354,11.452,43.499\C,0,3
 4.217,11.769,42.\C,0,33.235,12.138,44.388\C,0,33.182,11.671,45.837\C,0
 ,33.895,12.592,46.936\C,0,34.794,11.896,47.893\C,0,33.852,11.105,48.75
 \C,0,35.676,12.88,48.676\H,0,38.253,6.369,31.232\H,0,39.779,6.255,24.9
 44\H,0,44.858,9.887,26.343\H,0,42.079,7.748,33.728\H,0,39.109,7.497,33
 .242\H,0,39.285,5.573,34.071\H,0,41.026,5.786,34.223\H,0,40.366,4.878,
 32.819\H,0,39.617,9.492,33.901\H,0,40.982,10.404,33.391\H,0,41.687,8.9
 47,35.808\H,0,40.048,9.468,35.965\H,0,35.908,5.726,29.639\H,0,37.014,4
 .794,30.527\H,0,36.323,4.128,29.078\H,0,35.301,5.568,27.255\H,0,35.858
 ,3.811,26.795\H,0,35.171,4.99,25.593\H,0,41.369,7.718,23.604\H,0,44.24
 3,7.978,24.458\H,0,42.754,6.062,22.763\H,0,42.049,5.193,24.151\H,0,43.
 668,5.861,24.256\H,0,42.903,9.262,22.733\H,0,44.131,10.002,23.679\H,0,
 42.705,11.575,24.32\H,0,41.701,10.682,25.182\H,0,41.283,10.823,23.45\H
 ,0,46.391,10.886,27.089\H,0,47.239,10.708,28.663\H,0,46.402,12.16,28.1
 89\H,0,43.339,10.833,33.141\H,0,45.472,7.811,35.628\H,0,43.694,7.45,35
 .764\H,0,44.387,8.734,36.665\H,0,40.97,13.484,37.037\H,0,42.515,12.839
 ,37.901\H,0,39.764,13.283,38.91\H,0,43.614,12.813,40.091\H,0,42.753,11
 .332,39.768\H,0,42.993,11.818,41.448\H,0,39.858,13.616,41.607\H,0,41.2
 48,12.931,42.393\H,0,39.493,11.008,40.824\H,0,38.701,11.995,41.925\H,0
 ,41.157,10.777,43.249\H,0,40.189,9.595,42.61\H,0,38.784,11.76,44.287\H
 ,0,39.231,10.462,46.293\H,0,40.757,10.818,45.581\H,0,40.019,9.168,45.4
 33\H,0,37.566,9.094,44.337\H,0,37.52,10.029,42.897\H,0,37.001,11.173,4
 5.704\H,0,35.831,9.943,45.057\H,0,36.367,12.038,43.095\H,0,35.673,12.7
 61,44.541\H,0,34.274,10.366,43.545\H,0,33.17,11.722,41.7\H,0,34.69,10.
 955,41.452\H,0,34.723,12.702,41.751\H,0,32.241,12.137,43.941\H,0,33.51
 7,13.189,44.323\H,0,33.556,10.651,45.921\H,0,32.13,11.668,46.123\H,0,3
 3.209,13.239,47.481\H,0,34.446,13.275,46.289\H,0,35.436,11.23,47.316\H
 ,0,34.275,10.103,48.688\H,0,32.804,10.968,48.484\H,0,33.926,11.322,49.
 816\H,0,36.677,12.459,48.58\H,0,35.483,12.884,49.749\H,0,35.734,13.945
 ,48.451\\Version=ES64L-G16RevA.03\State=1-A\HF=-3007.16346\RMSD=9.803e
 -09\PG=C01 [X(C55H74Mg1N4O6)]\\@


 Happiness is a conscious choice, not an automatic response.
 -- Mildred Barthel
 Job cpu time:       0 days 10 hours 42 minutes  0.2 seconds.
 Elapsed time:       0 days  0 hours 27 minutes 13.8 seconds.
 File lengths (MBytes):  RWF=   8929 Int=      0 D2E=      0 Chk=    390 Scr=      1
 Normal termination of Gaussian 16 at Thu May  5 07:01:25 2022.
