 Entering Gaussian System, Link 0=g16
 Initial command:
 /sw/apps/gaussian-16.0/g16/l1.exe "/tmp/Gau-162583.inp" -scrdir="/tmp/"
 Entering Link 1 = /sw/apps/gaussian-16.0/g16/l1.exe PID=    162584.
  
 Copyright (c) 1988,1990,1992,1993,1995,1998,2003,2009,2016,
            Gaussian, Inc.  All Rights Reserved.
  
 This is part of the Gaussian(R) 16 program.  It is based on
 the Gaussian(R) 09 system (copyright 2009, Gaussian, Inc.),
 the Gaussian(R) 03 system (copyright 2003, Gaussian, Inc.),
 the Gaussian(R) 98 system (copyright 1998, Gaussian, Inc.),
 the Gaussian(R) 94 system (copyright 1995, Gaussian, Inc.),
 the Gaussian 92(TM) system (copyright 1992, Gaussian, Inc.),
 the Gaussian 90(TM) system (copyright 1990, Gaussian, Inc.),
 the Gaussian 88(TM) system (copyright 1988, Gaussian, Inc.),
 the Gaussian 86(TM) system (copyright 1986, Carnegie Mellon
 University), and the Gaussian 82(TM) system (copyright 1983,
 Carnegie Mellon University). Gaussian is a federally registered
 trademark of Gaussian, Inc.
  
 This software contains proprietary and confidential information,
 including trade secrets, belonging to Gaussian, Inc.
  
 This software is provided under written license and may be
 used, copied, transmitted, or stored only in accord with that
 written license.
  
 The following legend is applicable only to US Government
 contracts under FAR:
  
                    RESTRICTED RIGHTS LEGEND
  
 Use, reproduction and disclosure by the US Government is
 subject to restrictions as set forth in subparagraphs (a)
 and (c) of the Commercial Computer Software - Restricted
 Rights clause in FAR 52.227-19.
  
 Gaussian, Inc.
 340 Quinnipiac St., Bldg. 40, Wallingford CT 06492
  
  
 ---------------------------------------------------------------
 Warning -- This program may not be used in any manner that
 competes with the business of Gaussian, Inc. or will provide
 assistance to any competitor of Gaussian, Inc.  The licensee
 of this program is prohibited from giving any competitor of
 Gaussian, Inc. access to this program.  By using this program,
 the user acknowledges that Gaussian, Inc. is engaged in the
 business of creating and licensing software in the field of
 computational chemistry and represents and warrants to the
 licensee that it is not a competitor of Gaussian, Inc. and that
 it will not use this program in any manner prohibited above.
 ---------------------------------------------------------------
  

 Cite this work as:
 Gaussian 16, Revision A.03,
 M. J. Frisch, G. W. Trucks, H. B. Schlegel, G. E. Scuseria, 
 M. A. Robb, J. R. Cheeseman, G. Scalmani, V. Barone, 
 G. A. Petersson, H. Nakatsuji, X. Li, M. Caricato, A. V. Marenich, 
 J. Bloino, B. G. Janesko, R. Gomperts, B. Mennucci, H. P. Hratchian, 
 J. V. Ortiz, A. F. Izmaylov, J. L. Sonnenberg, D. Williams-Young, 
 F. Ding, F. Lipparini, F. Egidi, J. Goings, B. Peng, A. Petrone, 
 T. Henderson, D. Ranasinghe, V. G. Zakrzewski, J. Gao, N. Rega, 
 G. Zheng, W. Liang, M. Hada, M. Ehara, K. Toyota, R. Fukuda, 
 J. Hasegawa, M. Ishida, T. Nakajima, Y. Honda, O. Kitao, H. Nakai, 
 T. Vreven, K. Throssell, J. A. Montgomery, Jr., J. E. Peralta, 
 F. Ogliaro, M. J. Bearpark, J. J. Heyd, E. N. Brothers, K. N. Kudin, 
 V. N. Staroverov, T. A. Keith, R. Kobayashi, J. Normand, 
 K. Raghavachari, A. P. Rendell, J. C. Burant, S. S. Iyengar, 
 J. Tomasi, M. Cossi, J. M. Millam, M. Klene, C. Adamo, R. Cammi, 
 J. W. Ochterski, R. L. Martin, K. Morokuma, O. Farkas, 
 J. B. Foresman, and D. J. Fox, Gaussian, Inc., Wallingford CT, 2016.
 
 ******************************************
 Gaussian 16:  ES64L-G16RevA.03 25-Dec-2016
                 5-May-2022 
 ******************************************
 %nproc=24
 Will use up to   24 processors via shared memory.
 %mem=50gb
 --------------------
 #p ZINDO=(nstates=5)
 --------------------
 1/38=1,172=1/1;
 2/12=2,17=6,18=5,40=1/2;
 3/5=2,25=1,41=400000/1,2,3,8;
 4/5=3,35=1/1;
 5/5=2,35=1,38=5/2;
 8/6=1,108=5/1;
 9/41=5,42=1,49=10/14;
 6/7=2,8=2,9=2,10=2/1;
 99/5=1,9=1/99;
 Leave Link    1 at Thu May  5 07:58:41 2022, MaxMem=  6710886400 cpu:               0.7 elap:               0.0
 (Enter /sw/apps/gaussian-16.0/g16/l101.exe)
 -----------------------------
 step_751_chromophore_10 ZINDO
 -----------------------------
 Symbolic Z-matrix:
 Charge =  0 Multiplicity = 1
 Mg                    41.426    8.005     28.735 
 C                     43.006    9.343     31.598 
 C                     39.129    6.664     30.651 
 C                     40.159    6.651     25.888 
 C                     44.045    9.37      26.856 
 N                     41.167    8.026     30.921 
 C                     41.822    8.652     31.883 
 C                     41.269    8.284     33.232 
 C                     40.1      7.195     32.905 
 C                     40.121    7.287     31.425 
 C                     40.208    5.708     33.507 
 C                     40.705    9.521     33.967 
 C                     40.998    9.735     35.503 
 C                     41.535    11.125    35.979 
 O                     42.076    11.949    35.233 
 O                     41.083    11.408    37.307 
 N                     39.813    6.915     28.358 
 C                     38.917    6.517     29.303 
 C                     37.819    5.808     28.704 
 C                     38.057    5.871     27.286 
 C                     39.402    6.425     27.089 
 C                     36.744    5.04      29.5 
 C                     37.079    5.451     26.215 
 O                     37.453    5.537     25.024 
 C                     35.706    4.858     26.533 
 N                     42.065    7.975     26.66 
 C                     41.42     7.315     25.686 
 C                     42.102    7.368     24.33 
 C                     43.245    8.389     24.61 
 C                     43.108    8.652     26.146 
 C                     42.671    6.036     23.85 
 C                     43.115    9.612     23.743 
 C                     42.094    10.686    24.165 
 N                     43.138    9.241     29.111 
 C                     44.036    9.749     28.221 
 C                     45.12     10.432    28.848 
 C                     44.724    10.396    30.243 
 C                     43.567    9.551     30.312 
 C                     46.342    11.072    28.162 
 C                     45.065    10.756    31.64 
 O                     46.025    11.361    32.14 
 C                     43.947    10.17     32.526 
 C                     44.571    9.136     33.445 
 O                     45.52     8.394     33.147 
 O                     43.984    9.148     34.701 
 C                     44.465    8.219     35.708 
 C                     41.45     12.751    37.685 
 C                     40.77     12.873    39.003 
 C                     41.373    12.714    40.236 
 C                     42.793    12.187    40.442 
 C                     40.589    12.81     41.533 
 C                     39.686    11.568    41.739 
 C                     40.13     10.642    42.908 
 C                     39.148    10.741    44.16 
 C                     39.845    10.244    45.419 
 C                     37.683    10.114    43.971 
 C                     36.525    10.75     44.819 
 C                     35.766    11.831    43.981 
 C                     34.354    11.452    43.499 
 C                     34.217    11.769    42. 
 C                     33.235    12.138    44.388 
 C                     33.182    11.671    45.837 
 C                     33.895    12.592    46.936 
 C                     34.794    11.896    47.893 
 C                     33.852    11.105    48.75 
 C                     35.676    12.88     48.676 
 H                     38.253    6.369     31.232 
 H                     39.779    6.255     24.944 
 H                     44.858    9.887     26.343 
 H                     42.079    7.748     33.728 
 H                     39.109    7.497     33.242 
 H                     39.285    5.573     34.071 
 H                     41.026    5.786     34.223 
 H                     40.366    4.878     32.819 
 H                     39.617    9.492     33.901 
 H                     40.982    10.404    33.391 
 H                     41.687    8.947     35.808 
 H                     40.048    9.468     35.965 
 H                     35.908    5.726     29.639 
 H                     37.014    4.794     30.527 
 H                     36.323    4.128     29.078 
 H                     35.301    5.568     27.255 
 H                     35.858    3.811     26.795 
 H                     35.171    4.99      25.593 
 H                     41.369    7.718     23.604 
 H                     44.243    7.978     24.458 
 H                     42.754    6.062     22.763 
 H                     42.049    5.193     24.151 
 H                     43.668    5.861     24.256 
 H                     42.903    9.262     22.733 
 H                     44.131    10.002    23.679 
 H                     42.705    11.575    24.32 
 H                     41.701    10.682    25.182 
 H                     41.283    10.823    23.45 
 H                     46.391    10.886    27.089 
 H                     47.239    10.708    28.663 
 H                     46.402    12.16     28.189 
 H                     43.339    10.833    33.141 
 H                     45.472    7.811     35.628 
 H                     43.694    7.45      35.764 
 H                     44.387    8.734     36.665 
 H                     40.97     13.484    37.037 
 H                     42.515    12.839    37.901 
 H                     39.764    13.283    38.91 
 H                     43.614    12.813    40.091 
 H                     42.753    11.332    39.768 
 H                     42.993    11.818    41.448 
 H                     39.858    13.616    41.607 
 H                     41.248    12.931    42.393 
 H                     39.493    11.008    40.824 
 H                     38.701    11.995    41.925 
 H                     41.157    10.777    43.249 
 H                     40.189    9.595     42.61 
 H                     38.784    11.76     44.287 
 H                     39.231    10.462    46.293 
 H                     40.757    10.818    45.581 
 H                     40.019    9.168     45.433 
 H                     37.566    9.094     44.337 
 H                     37.52     10.029    42.897 
 H                     37.001    11.173    45.704 
 H                     35.831    9.943     45.057 
 H                     36.367    12.038    43.095 
 H                     35.673    12.761    44.541 
 H                     34.274    10.366    43.545 
 H                     33.17     11.722    41.7 
 H                     34.69     10.955    41.452 
 H                     34.723    12.702    41.751 
 H                     32.241    12.137    43.941 
 H                     33.517    13.189    44.323 
 H                     33.556    10.651    45.921 
 H                     32.13     11.668    46.123 
 H                     33.209    13.239    47.481 
 H                     34.446    13.275    46.289 
 H                     35.436    11.23     47.316 
 H                     34.275    10.103    48.688 
 H                     32.804    10.968    48.484 
 H                     33.926    11.322    49.816 
 H                     36.677    12.459    48.58 
 H                     35.483    12.884    49.749 
 H                     35.734    13.945    48.451 
 
 ITRead=  0  0  0  0  0  0  0  0  0  0  0  0  0  0  0  0  0  0  0  0
 ITRead=  0  0  0  0  0  0  0  0  0  0  0  0  0  0  0  0  0  0  0  0
 ITRead=  0  0  0  0  0  0  0  0  0  0  0  0  0  0  0  0  0  0  0  0
 ITRead=  0  0  0  0  0  0  0  0  0  0  0  0  0  0  0  0  0  0  0  0
 ITRead=  0  0  0  0  0  0  0  0  0  0  0  0  0  0  0  0  0  0  0  0
 ITRead=  0  0  0  0  0  0  0  0  0  0  0  0  0  0  0  0  0  0  0  0
 ITRead=  0  0  0  0  0  0  0  0  0  0  0  0  0  0  0  0  0  0  0  0
 MicOpt= -1 -1 -1 -1 -1 -1 -1 -1 -1 -1 -1 -1 -1 -1 -1 -1 -1 -1 -1 -1
 MicOpt= -1 -1 -1 -1 -1 -1 -1 -1 -1 -1 -1 -1 -1 -1 -1 -1 -1 -1 -1 -1
 MicOpt= -1 -1 -1 -1 -1 -1 -1 -1 -1 -1 -1 -1 -1 -1 -1 -1 -1 -1 -1 -1
 MicOpt= -1 -1 -1 -1 -1 -1 -1 -1 -1 -1 -1 -1 -1 -1 -1 -1 -1 -1 -1 -1
 MicOpt= -1 -1 -1 -1 -1 -1 -1 -1 -1 -1 -1 -1 -1 -1 -1 -1 -1 -1 -1 -1
 MicOpt= -1 -1 -1 -1 -1 -1 -1 -1 -1 -1 -1 -1 -1 -1 -1 -1 -1 -1 -1 -1
 MicOpt= -1 -1 -1 -1 -1 -1 -1 -1 -1 -1 -1 -1 -1 -1 -1 -1 -1 -1 -1 -1
 NAtoms=    140 NQM=      140 NQMF=       0 NMMI=      0 NMMIF=      0
                NMic=       0 NMicF=      0.
                    Isotopes and Nuclear Properties:
 (Nuclear quadrupole moments (NQMom) in fm**2, nuclear magnetic moments (NMagM)
  in nuclear magnetons)

  Atom         1           2           3           4           5           6           7           8           9          10
 IAtWgt=          24          12          12          12          12          14          12          12          12          12
 AtmWgt=  23.9850450  12.0000000  12.0000000  12.0000000  12.0000000  14.0030740  12.0000000  12.0000000  12.0000000  12.0000000
 NucSpn=           0           0           0           0           0           2           0           0           0           0
 AtZEff=  -0.0000000  -0.0000000  -0.0000000  -0.0000000  -0.0000000  -0.0000000  -0.0000000  -0.0000000  -0.0000000  -0.0000000
 NQMom=    0.0000000   0.0000000   0.0000000   0.0000000   0.0000000   2.0440000   0.0000000   0.0000000   0.0000000   0.0000000
 NMagM=    0.0000000   0.0000000   0.0000000   0.0000000   0.0000000   0.4037610   0.0000000   0.0000000   0.0000000   0.0000000
 AtZNuc=  12.0000000   6.0000000   6.0000000   6.0000000   6.0000000   7.0000000   6.0000000   6.0000000   6.0000000   6.0000000

  Atom        11          12          13          14          15          16          17          18          19          20
 IAtWgt=          12          12          12          12          16          16          14          12          12          12
 AtmWgt=  12.0000000  12.0000000  12.0000000  12.0000000  15.9949146  15.9949146  14.0030740  12.0000000  12.0000000  12.0000000
 NucSpn=           0           0           0           0           0           0           2           0           0           0
 AtZEff=  -0.0000000  -0.0000000  -0.0000000  -0.0000000  -0.0000000  -0.0000000  -0.0000000  -0.0000000  -0.0000000  -0.0000000
 NQMom=    0.0000000   0.0000000   0.0000000   0.0000000   0.0000000   0.0000000   2.0440000   0.0000000   0.0000000   0.0000000
 NMagM=    0.0000000   0.0000000   0.0000000   0.0000000   0.0000000   0.0000000   0.4037610   0.0000000   0.0000000   0.0000000
 AtZNuc=   6.0000000   6.0000000   6.0000000   6.0000000   8.0000000   8.0000000   7.0000000   6.0000000   6.0000000   6.0000000

  Atom        21          22          23          24          25          26          27          28          29          30
 IAtWgt=          12          12          12          16          12          14          12          12          12          12
 AtmWgt=  12.0000000  12.0000000  12.0000000  15.9949146  12.0000000  14.0030740  12.0000000  12.0000000  12.0000000  12.0000000
 NucSpn=           0           0           0           0           0           2           0           0           0           0
 AtZEff=  -0.0000000  -0.0000000  -0.0000000  -0.0000000  -0.0000000  -0.0000000  -0.0000000  -0.0000000  -0.0000000  -0.0000000
 NQMom=    0.0000000   0.0000000   0.0000000   0.0000000   0.0000000   2.0440000   0.0000000   0.0000000   0.0000000   0.0000000
 NMagM=    0.0000000   0.0000000   0.0000000   0.0000000   0.0000000   0.4037610   0.0000000   0.0000000   0.0000000   0.0000000
 AtZNuc=   6.0000000   6.0000000   6.0000000   8.0000000   6.0000000   7.0000000   6.0000000   6.0000000   6.0000000   6.0000000

  Atom        31          32          33          34          35          36          37          38          39          40
 IAtWgt=          12          12          12          14          12          12          12          12          12          12
 AtmWgt=  12.0000000  12.0000000  12.0000000  14.0030740  12.0000000  12.0000000  12.0000000  12.0000000  12.0000000  12.0000000
 NucSpn=           0           0           0           2           0           0           0           0           0           0
 AtZEff=  -0.0000000  -0.0000000  -0.0000000  -0.0000000  -0.0000000  -0.0000000  -0.0000000  -0.0000000  -0.0000000  -0.0000000
 NQMom=    0.0000000   0.0000000   0.0000000   2.0440000   0.0000000   0.0000000   0.0000000   0.0000000   0.0000000   0.0000000
 NMagM=    0.0000000   0.0000000   0.0000000   0.4037610   0.0000000   0.0000000   0.0000000   0.0000000   0.0000000   0.0000000
 AtZNuc=   6.0000000   6.0000000   6.0000000   7.0000000   6.0000000   6.0000000   6.0000000   6.0000000   6.0000000   6.0000000

  Atom        41          42          43          44          45          46          47          48          49          50
 IAtWgt=          16          12          12          16          16          12          12          12          12          12
 AtmWgt=  15.9949146  12.0000000  12.0000000  15.9949146  15.9949146  12.0000000  12.0000000  12.0000000  12.0000000  12.0000000
 NucSpn=           0           0           0           0           0           0           0           0           0           0
 AtZEff=  -0.0000000  -0.0000000  -0.0000000  -0.0000000  -0.0000000  -0.0000000  -0.0000000  -0.0000000  -0.0000000  -0.0000000
 NQMom=    0.0000000   0.0000000   0.0000000   0.0000000   0.0000000   0.0000000   0.0000000   0.0000000   0.0000000   0.0000000
 NMagM=    0.0000000   0.0000000   0.0000000   0.0000000   0.0000000   0.0000000   0.0000000   0.0000000   0.0000000   0.0000000
 AtZNuc=   8.0000000   6.0000000   6.0000000   8.0000000   8.0000000   6.0000000   6.0000000   6.0000000   6.0000000   6.0000000

  Atom        51          52          53          54          55          56          57          58          59          60
 IAtWgt=          12          12          12          12          12          12          12          12          12          12
 AtmWgt=  12.0000000  12.0000000  12.0000000  12.0000000  12.0000000  12.0000000  12.0000000  12.0000000  12.0000000  12.0000000
 NucSpn=           0           0           0           0           0           0           0           0           0           0
 AtZEff=  -0.0000000  -0.0000000  -0.0000000  -0.0000000  -0.0000000  -0.0000000  -0.0000000  -0.0000000  -0.0000000  -0.0000000
 NQMom=    0.0000000   0.0000000   0.0000000   0.0000000   0.0000000   0.0000000   0.0000000   0.0000000   0.0000000   0.0000000
 NMagM=    0.0000000   0.0000000   0.0000000   0.0000000   0.0000000   0.0000000   0.0000000   0.0000000   0.0000000   0.0000000
 AtZNuc=   6.0000000   6.0000000   6.0000000   6.0000000   6.0000000   6.0000000   6.0000000   6.0000000   6.0000000   6.0000000

  Atom        61          62          63          64          65          66          67          68          69          70
 IAtWgt=          12          12          12          12          12          12           1           1           1           1
 AtmWgt=  12.0000000  12.0000000  12.0000000  12.0000000  12.0000000  12.0000000   1.0078250   1.0078250   1.0078250   1.0078250
 NucSpn=           0           0           0           0           0           0           1           1           1           1
 AtZEff=  -0.0000000  -0.0000000  -0.0000000  -0.0000000  -0.0000000  -0.0000000  -0.0000000  -0.0000000  -0.0000000  -0.0000000
 NQMom=    0.0000000   0.0000000   0.0000000   0.0000000   0.0000000   0.0000000   0.0000000   0.0000000   0.0000000   0.0000000
 NMagM=    0.0000000   0.0000000   0.0000000   0.0000000   0.0000000   0.0000000   2.7928460   2.7928460   2.7928460   2.7928460
 AtZNuc=   6.0000000   6.0000000   6.0000000   6.0000000   6.0000000   6.0000000   1.0000000   1.0000000   1.0000000   1.0000000

  Atom        71          72          73          74          75          76          77          78          79          80
 IAtWgt=           1           1           1           1           1           1           1           1           1           1
 AtmWgt=   1.0078250   1.0078250   1.0078250   1.0078250   1.0078250   1.0078250   1.0078250   1.0078250   1.0078250   1.0078250
 NucSpn=           1           1           1           1           1           1           1           1           1           1
 AtZEff=  -0.0000000  -0.0000000  -0.0000000  -0.0000000  -0.0000000  -0.0000000  -0.0000000  -0.0000000  -0.0000000  -0.0000000
 NQMom=    0.0000000   0.0000000   0.0000000   0.0000000   0.0000000   0.0000000   0.0000000   0.0000000   0.0000000   0.0000000
 NMagM=    2.7928460   2.7928460   2.7928460   2.7928460   2.7928460   2.7928460   2.7928460   2.7928460   2.7928460   2.7928460
 AtZNuc=   1.0000000   1.0000000   1.0000000   1.0000000   1.0000000   1.0000000   1.0000000   1.0000000   1.0000000   1.0000000

  Atom        81          82          83          84          85          86          87          88          89          90
 IAtWgt=           1           1           1           1           1           1           1           1           1           1
 AtmWgt=   1.0078250   1.0078250   1.0078250   1.0078250   1.0078250   1.0078250   1.0078250   1.0078250   1.0078250   1.0078250
 NucSpn=           1           1           1           1           1           1           1           1           1           1
 AtZEff=  -0.0000000  -0.0000000  -0.0000000  -0.0000000  -0.0000000  -0.0000000  -0.0000000  -0.0000000  -0.0000000  -0.0000000
 NQMom=    0.0000000   0.0000000   0.0000000   0.0000000   0.0000000   0.0000000   0.0000000   0.0000000   0.0000000   0.0000000
 NMagM=    2.7928460   2.7928460   2.7928460   2.7928460   2.7928460   2.7928460   2.7928460   2.7928460   2.7928460   2.7928460
 AtZNuc=   1.0000000   1.0000000   1.0000000   1.0000000   1.0000000   1.0000000   1.0000000   1.0000000   1.0000000   1.0000000

  Atom        91          92          93          94          95          96          97          98          99         100
 IAtWgt=           1           1           1           1           1           1           1           1           1           1
 AtmWgt=   1.0078250   1.0078250   1.0078250   1.0078250   1.0078250   1.0078250   1.0078250   1.0078250   1.0078250   1.0078250
 NucSpn=           1           1           1           1           1           1           1           1           1           1
 AtZEff=  -0.0000000  -0.0000000  -0.0000000  -0.0000000  -0.0000000  -0.0000000  -0.0000000  -0.0000000  -0.0000000  -0.0000000
 NQMom=    0.0000000   0.0000000   0.0000000   0.0000000   0.0000000   0.0000000   0.0000000   0.0000000   0.0000000   0.0000000
 NMagM=    2.7928460   2.7928460   2.7928460   2.7928460   2.7928460   2.7928460   2.7928460   2.7928460   2.7928460   2.7928460
 AtZNuc=   1.0000000   1.0000000   1.0000000   1.0000000   1.0000000   1.0000000   1.0000000   1.0000000   1.0000000   1.0000000

  Atom       101         102         103         104         105         106         107         108         109         110
 IAtWgt=           1           1           1           1           1           1           1           1           1           1
 AtmWgt=   1.0078250   1.0078250   1.0078250   1.0078250   1.0078250   1.0078250   1.0078250   1.0078250   1.0078250   1.0078250
 NucSpn=           1           1           1           1           1           1           1           1           1           1
 AtZEff=  -0.0000000  -0.0000000  -0.0000000  -0.0000000  -0.0000000  -0.0000000  -0.0000000  -0.0000000  -0.0000000  -0.0000000
 NQMom=    0.0000000   0.0000000   0.0000000   0.0000000   0.0000000   0.0000000   0.0000000   0.0000000   0.0000000   0.0000000
 NMagM=    2.7928460   2.7928460   2.7928460   2.7928460   2.7928460   2.7928460   2.7928460   2.7928460   2.7928460   2.7928460
 AtZNuc=   1.0000000   1.0000000   1.0000000   1.0000000   1.0000000   1.0000000   1.0000000   1.0000000   1.0000000   1.0000000

  Atom       111         112         113         114         115         116         117         118         119         120
 IAtWgt=           1           1           1           1           1           1           1           1           1           1
 AtmWgt=   1.0078250   1.0078250   1.0078250   1.0078250   1.0078250   1.0078250   1.0078250   1.0078250   1.0078250   1.0078250
 NucSpn=           1           1           1           1           1           1           1           1           1           1
 AtZEff=  -0.0000000  -0.0000000  -0.0000000  -0.0000000  -0.0000000  -0.0000000  -0.0000000  -0.0000000  -0.0000000  -0.0000000
 NQMom=    0.0000000   0.0000000   0.0000000   0.0000000   0.0000000   0.0000000   0.0000000   0.0000000   0.0000000   0.0000000
 NMagM=    2.7928460   2.7928460   2.7928460   2.7928460   2.7928460   2.7928460   2.7928460   2.7928460   2.7928460   2.7928460
 AtZNuc=   1.0000000   1.0000000   1.0000000   1.0000000   1.0000000   1.0000000   1.0000000   1.0000000   1.0000000   1.0000000

  Atom       121         122         123         124         125         126         127         128         129         130
 IAtWgt=           1           1           1           1           1           1           1           1           1           1
 AtmWgt=   1.0078250   1.0078250   1.0078250   1.0078250   1.0078250   1.0078250   1.0078250   1.0078250   1.0078250   1.0078250
 NucSpn=           1           1           1           1           1           1           1           1           1           1
 AtZEff=  -0.0000000  -0.0000000  -0.0000000  -0.0000000  -0.0000000  -0.0000000  -0.0000000  -0.0000000  -0.0000000  -0.0000000
 NQMom=    0.0000000   0.0000000   0.0000000   0.0000000   0.0000000   0.0000000   0.0000000   0.0000000   0.0000000   0.0000000
 NMagM=    2.7928460   2.7928460   2.7928460   2.7928460   2.7928460   2.7928460   2.7928460   2.7928460   2.7928460   2.7928460
 AtZNuc=   1.0000000   1.0000000   1.0000000   1.0000000   1.0000000   1.0000000   1.0000000   1.0000000   1.0000000   1.0000000

  Atom       131         132         133         134         135         136         137         138         139         140
 IAtWgt=           1           1           1           1           1           1           1           1           1           1
 AtmWgt=   1.0078250   1.0078250   1.0078250   1.0078250   1.0078250   1.0078250   1.0078250   1.0078250   1.0078250   1.0078250
 NucSpn=           1           1           1           1           1           1           1           1           1           1
 AtZEff=  -0.0000000  -0.0000000  -0.0000000  -0.0000000  -0.0000000  -0.0000000  -0.0000000  -0.0000000  -0.0000000  -0.0000000
 NQMom=    0.0000000   0.0000000   0.0000000   0.0000000   0.0000000   0.0000000   0.0000000   0.0000000   0.0000000   0.0000000
 NMagM=    2.7928460   2.7928460   2.7928460   2.7928460   2.7928460   2.7928460   2.7928460   2.7928460   2.7928460   2.7928460
 AtZNuc=   1.0000000   1.0000000   1.0000000   1.0000000   1.0000000   1.0000000   1.0000000   1.0000000   1.0000000   1.0000000
 Leave Link  101 at Thu May  5 07:58:41 2022, MaxMem=  6710886400 cpu:               3.5 elap:               0.2
 (Enter /sw/apps/gaussian-16.0/g16/l202.exe)
 Stoichiometry    C55H74MgN4O6
 Framework group  C1[X(C55H74MgN4O6)]
 Deg. of freedom   414
 Full point group                 C1      NOp   1
 Largest Abelian subgroup         C1      NOp   1
 Largest concise Abelian subgroup C1      NOp   1
                         Standard orientation:                         
 ---------------------------------------------------------------------
 Center     Atomic      Atomic             Coordinates (Angstroms)
 Number     Number       Type             X           Y           Z
 ---------------------------------------------------------------------
      1         12           0       -5.858590    0.550662    0.032707
      2          6           0       -3.319874   -1.898098    0.237404
      3          6           0       -3.704513    2.836909    0.970030
      4          6           0       -8.469950    2.723031   -0.042333
      5          6           0       -8.059912   -2.040054   -0.801199
      6          7           0       -3.726134    0.405350    0.559614
      7          6           0       -2.871071   -0.601263    0.515536
      8          6           0       -1.525698   -0.181935    1.040103
      9          6           0       -1.737341    1.368606    1.498840
     10          6           0       -3.118038    1.561454    0.993083
     11          6           0       -1.499083    1.782921    3.034032
     12          6           0       -0.432304   -0.310368   -0.044556
     13          6           0        0.977983   -0.919888    0.316715
     14          6           0        1.561125   -2.053599   -0.589756
     15          8           0        0.878593   -2.751694   -1.348034
     16          8           0        2.990550   -1.989337   -0.614103
     17          7           0       -5.997667    2.507640    0.320620
     18          6           0       -4.946153    3.314597    0.632687
     19          6           0       -5.356555    4.690890    0.699560
     20          6           0       -6.743287    4.690910    0.314447
     21          6           0       -7.180274    3.291499    0.240699
     22          6           0       -4.471526    5.835674    1.233657
     23          6           0       -7.572316    5.920286    0.029367
     24          8           0       -8.777385    5.750771   -0.261881
     25          6           0       -7.021691    7.340434    0.163138
     26          7           0       -7.990914    0.340684   -0.319359
     27          6           0       -8.866821    1.354371   -0.245024
     28          6           0      -10.317035    0.950462   -0.446039
     29          6           0      -10.156322   -0.540861   -0.867248
     30          6           0       -8.620100   -0.785509   -0.701705
     31          6           0      -11.190803    1.070554    0.799149
     32          6           0      -10.691323   -0.782044   -2.252861
     33          6           0       -9.802113   -0.381322   -3.445643
     34          7           0       -5.717779   -1.554940   -0.350210
     35          6           0       -6.695895   -2.418273   -0.743292
     36          6           0       -6.260585   -3.776041   -0.783851
     37          6           0       -4.847425   -3.641819   -0.485356
     38          6           0       -4.640304   -2.269305   -0.123776
     39          6           0       -7.107492   -5.018282   -1.120105
     40          6           0       -3.551576   -4.331027   -0.277366
     41          8           0       -3.218084   -5.524211   -0.329514
     42          6           0       -2.533549   -3.237883    0.106007
     43          6           0       -2.044871   -3.525689    1.513649
     44          8           0       -2.731036   -4.019605    2.422051
     45          8           0       -0.701371   -3.216765    1.661370
     46          6           0       -0.070090   -3.434608    2.950742
     47          6           0        3.517840   -2.934931   -1.567538
     48          6           0        4.966972   -2.598493   -1.532413
     49          6           0        5.933172   -3.280874   -0.818275
     50          6           0        5.637727   -4.370107    0.212671
     51          6           0        7.385367   -2.837055   -0.802972
     52          6           0        7.572984   -1.551559    0.041248
     53          6           0        8.367394   -1.764820    1.362083
     54          6           0        9.831267   -1.137344    1.291527
     55          6           0       10.728514   -1.769054    2.346890
     56          6           0        9.922492    0.464681    1.275159
     57          6           0       11.161601    1.096678    0.547320
     58          6           0       10.795096    1.472356   -0.926256
     59          6           0       10.646067    2.974167   -1.229673
     60          6           0        9.335435    3.219021   -1.996842
     61          6           0       11.923323    3.543731   -1.976193
     62          6           0       13.207957    3.539238   -1.157539
     63          6           0       14.235765    2.336068   -1.403318
     64          6           0       14.754055    1.656367   -0.187650
     65          6           0       15.655989    2.681240    0.431739
     66          6           0       15.451388    0.329192   -0.521721
     67          1           0       -2.980396    3.644903    1.091532
     68          1           0       -9.335980    3.385609   -0.100081
     69          1           0       -8.658292   -2.894546   -1.122464
     70          1           0       -1.385240   -0.770116    1.947697
     71          1           0       -1.091717    2.074803    0.977966
     72          1           0       -0.746069    2.569962    2.991754
     73          1           0       -1.029997    0.897560    3.462933
     74          1           0       -2.356677    2.099341    3.627006
     75          1           0       -0.206610    0.686990   -0.423080
     76          1           0       -0.871626   -0.825024   -0.899143
     77          1           0        0.920515   -1.263705    1.349758
     78          1           0        1.615663   -0.037097    0.352454
     79          1           0       -3.976852    6.278278    0.368665
     80          1           0       -3.626928    5.522060    1.847209
     81          1           0       -4.938883    6.659503    1.772130
     82          1           0       -6.089575    7.288897   -0.400699
     83          1           0       -7.026851    7.591430    1.223766
     84          1           0       -7.735796    7.923640   -0.417528
     85          1           0      -10.732297    1.585090   -1.228132
     86          1           0      -10.651590   -1.239620   -0.193101
     87          1           0      -12.231480    1.168803    0.488550
     88          1           0      -10.909240    1.924043    1.415924
     89          1           0      -11.112871    0.181388    1.425872
     90          1           0      -11.655583   -0.277727   -2.311270
     91          1           0      -10.947297   -1.841712   -2.258531
     92          1           0       -9.642079   -1.320798   -3.974264
     93          1           0       -8.739241   -0.199231   -3.284713
     94          1           0      -10.228854    0.409039   -4.062843
     95          1           0       -8.168499   -4.804619   -1.250254
     96          1           0       -6.951175   -5.756064   -0.333118
     97          1           0       -6.879181   -5.524738   -2.057895
     98          1           0       -1.656852   -3.070235   -0.519096
     99          1           0       -0.499388   -4.154803    3.646397
    100          1           0        0.035903   -2.436864    3.377603
    101          1           0        0.955769   -3.738267    2.744433
    102          1           0        3.184853   -2.697779   -2.577722
    103          1           0        3.451473   -3.961289   -1.205861
    104          1           0        5.233508   -1.850848   -2.279922
    105          1           0        5.211673   -5.303979   -0.155406
    106          1           0        4.841726   -3.868445    0.761869
    107          1           0        6.456679   -4.566829    0.904635
    108          1           0        7.814659   -2.526948   -1.756395
    109          1           0        8.041619   -3.622029   -0.426580
    110          1           0        6.650760   -0.993770    0.203881
    111          1           0        8.099978   -0.876765   -0.632606
    112          1           0        8.438447   -2.797587    1.704982
    113          1           0        7.860046   -1.336120    2.226554
    114          1           0       10.254291   -1.252556    0.294149
    115          1           0       11.761095   -1.456398    2.190630
    116          1           0       10.750462   -2.849493    2.206774
    117          1           0       10.478062   -1.483996    3.368782
    118          1           0       10.093304    0.927903    2.246907
    119          1           0        8.938105    0.826750    0.979932
    120          1           0       11.951602    0.346960    0.597849
    121          1           0       11.410528    2.010435    1.088256
    122          1           0        9.840304    0.998296   -1.155789
    123          1           0       11.534758    1.078120   -1.622408
    124          1           0       10.492293    3.485401   -0.279460
    125          1           0        9.326105    4.226535   -2.413072
    126          1           0        8.527858    3.223167   -1.265794
    127          1           0        9.152269    2.423566   -2.719496
    128          1           0       11.770537    4.509622   -2.457397
    129          1           0       11.997634    2.869231   -2.829351
    130          1           0       12.980708    3.610328   -0.094226
    131          1           0       13.760610    4.434296   -1.443818
    132          1           0       15.064383    2.591957   -2.062213
    133          1           0       13.615358    1.670407   -2.003892
    134          1           0       13.903357    1.453101    0.463230
    135          1           0       15.281665    2.725655    1.453838
    136          1           0       15.660821    3.720990    0.105049
    137          1           0       16.683446    2.345843    0.575829
    138          1           0       15.006026   -0.377577    0.178699
    139          1           0       16.514616    0.319449   -0.280794
    140          1           0       15.438327   -0.123508   -1.513238
 ---------------------------------------------------------------------
 Rotational constants (GHZ):           0.0522935           0.0090301           0.0080514
 Leave Link  202 at Thu May  5 07:58:41 2022, MaxMem=  6710886400 cpu:               0.2 elap:               0.0
 (Enter /sw/apps/gaussian-16.0/g16/l301.exe)
 Standard basis: VSTO-6G (5D, 7F)
 Ernie: Thresh=  0.10000D-02 Tol=  0.10000D-05 Strict=F.
 There are   338 symmetry adapted cartesian basis functions of A   symmetry.
 There are   338 symmetry adapted basis functions of A   symmetry.
   338 basis functions,  2028 primitive gaussians,   338 cartesian basis functions
   176 alpha electrons      176 beta electrons
       nuclear repulsion energy      4784.7009400213 Hartrees.
 IExCor=    0 DFT=F Ex=HF Corr=None ExCW=0 ScaHFX=  1.000000
 ScaDFX=  1.000000  1.000000  1.000000  1.000000 ScalE2=  1.000000  1.000000
 IRadAn=      5 IRanWt=     -1 IRanGd=            0 ICorTp=0 IEmpDi=  4
 Integral buffers will be    131072 words long.
 Regular integral format.
 Two-electron integral symmetry is turned off.
 Leave Link  301 at Thu May  5 07:58:41 2022, MaxMem=  6710886400 cpu:               1.2 elap:               0.1
 (Enter /sw/apps/gaussian-16.0/g16/l302.exe)
 Do NDO integrals.
 NPDir=0 NMtPBC=     1 NCelOv=     1 NCel=       1 NClECP=     1 NCelD=      1
         NCelK=      1 NCelE2=     1 NClLst=     1 CellRange=     0.0.
 One-electron integrals computed using PRISM.
 Generate ZINDO/S integrals.
 NDO Nuclear repulsion=  4296.390379447454 Hartrees.
 NBasis=   338 RedAO= F EigKep=  0.00D+00  NBF=   338
 NBsUse=   338 1.00D-04 EigRej=  0.00D+00 NBFU=   338
 Leave Link  302 at Thu May  5 07:58:41 2022, MaxMem=  6710886400 cpu:               9.5 elap:               0.4
 (Enter /sw/apps/gaussian-16.0/g16/l303.exe)
 DipDrv:  MaxL=1.
 DipDrv:  will hold  3 matrices at once.
 Leave Link  303 at Thu May  5 07:58:41 2022, MaxMem=  6710886400 cpu:               0.5 elap:               0.0
 (Enter /sw/apps/gaussian-16.0/g16/l308.exe)
 Leave Link  308 at Thu May  5 07:58:42 2022, MaxMem=  6710886400 cpu:               4.5 elap:               0.2
 (Enter /sw/apps/gaussian-16.0/g16/l401.exe)
 Simple Huckel Guess.
 JPrj=0 DoOrth=F DoCkMO=F.
 Leave Link  401 at Thu May  5 07:58:42 2022, MaxMem=  6710886400 cpu:               2.9 elap:               0.1
 (Enter /sw/apps/gaussian-16.0/g16/l502.exe)
 Two-electron integral symmetry not used.
 Closed shell SCF:
 Using DIIS extrapolation, IDIIS=  1040.
 Overlap will be assumed to be unity.
 NGot=  6710886400 LenX=  6710643598 LenY=  6710528913
 Requested convergence on RMS density matrix=1.00D-08 within 128 cycles.
 Requested convergence on MAX density matrix=1.00D-06.
 Requested convergence on             energy=1.00D-06.
 No special actions if energy rises.
 Fock matrices will be formed incrementally for  20 cycles.

 Cycle   1  Pass 1  IDiag  1:
 E= -472.181932910846    
 DIIS: error= 5.78D-02 at cycle   1 NSaved=   1.
 NSaved= 1 IEnMin= 1 EnMin= -472.181932910846     IErMin= 1 ErrMin= 5.78D-02
 ErrMax= 5.78D-02  0.00D+00 EMaxC= 1.00D-01 BMatC= 8.39D-01 BMatP= 8.39D-01
 IDIUse=3 WtCom= 4.22D-01 WtEn= 5.78D-01
 Coeff-Com:  0.100D+01
 Coeff-En:   0.100D+01
 Coeff:      0.100D+01
 GapD=    2.000 DampG=2.000 DampE=0.500 DampFc=1.0000 IDamp=-1.
 RMSDP=4.12D-03 MaxDP=1.76D-01              OVMax= 0.00D+00

 Cycle   2  Pass 1  IDiag  1:
 RMSU=  4.11D-03    CP:  9.95D-01
 E= -474.036081592511     Delta-E=       -1.854148681665 Rises=F Damp=F
 DIIS: error= 2.24D-02 at cycle   2 NSaved=   2.
 NSaved= 2 IEnMin= 2 EnMin= -474.036081592511     IErMin= 2 ErrMin= 2.24D-02
 ErrMax= 2.24D-02  0.00D+00 EMaxC= 1.00D-01 BMatC= 5.67D-02 BMatP= 8.39D-01
 IDIUse=3 WtCom= 7.76D-01 WtEn= 2.24D-01
 Coeff-Com: -0.564D-01 0.106D+01
 Coeff-En:   0.000D+00 0.100D+01
 Coeff:     -0.438D-01 0.104D+01
 RMSDP=1.20D-03 MaxDP=6.38D-02 DE=-1.85D+00 OVMax= 0.00D+00

 Cycle   3  Pass 1  IDiag  1:
 RMSU=  1.17D-03    CP:  9.93D-01  1.07D+00
 E= -474.142325302324     Delta-E=       -0.106243709813 Rises=F Damp=F
 DIIS: error= 1.08D-02 at cycle   3 NSaved=   3.
 NSaved= 3 IEnMin= 3 EnMin= -474.142325302324     IErMin= 3 ErrMin= 1.08D-02
 ErrMax= 1.08D-02  0.00D+00 EMaxC= 1.00D-01 BMatC= 8.97D-03 BMatP= 5.67D-02
 IDIUse=3 WtCom= 8.92D-01 WtEn= 1.08D-01
 Coeff-Com: -0.710D-01 0.256D+00 0.815D+00
 Coeff-En:   0.000D+00 0.000D+00 0.100D+01
 Coeff:     -0.633D-01 0.229D+00 0.835D+00
 RMSDP=4.55D-04 MaxDP=1.97D-02 DE=-1.06D-01 OVMax= 0.00D+00

 Cycle   4  Pass 1  IDiag  1:
 RMSU=  2.90D-04    CP:  9.92D-01  1.14D+00  8.73D-01
 E= -474.158206652242     Delta-E=       -0.015881349918 Rises=F Damp=F
 DIIS: error= 1.66D-03 at cycle   4 NSaved=   4.
 NSaved= 4 IEnMin= 4 EnMin= -474.158206652242     IErMin= 4 ErrMin= 1.66D-03
 ErrMax= 1.66D-03  0.00D+00 EMaxC= 1.00D-01 BMatC= 4.27D-04 BMatP= 8.97D-03
 IDIUse=3 WtCom= 9.83D-01 WtEn= 1.66D-02
 Coeff-Com: -0.523D-02-0.184D-01 0.892D-01 0.934D+00
 Coeff-En:   0.000D+00 0.000D+00 0.000D+00 0.100D+01
 Coeff:     -0.514D-02-0.181D-01 0.878D-01 0.935D+00
 RMSDP=1.55D-04 MaxDP=7.54D-03 DE=-1.59D-02 OVMax= 0.00D+00

 Cycle   5  Pass 1  IDiag  1:
 RMSU=  1.01D-04    CP:  9.92D-01  1.15D+00  9.72D-01  9.53D-01
 E= -474.159442077570     Delta-E=       -0.001235425328 Rises=F Damp=F
 DIIS: error= 6.33D-04 at cycle   5 NSaved=   5.
 NSaved= 5 IEnMin= 5 EnMin= -474.159442077570     IErMin= 5 ErrMin= 6.33D-04
 ErrMax= 6.33D-04  0.00D+00 EMaxC= 1.00D-01 BMatC= 7.74D-05 BMatP= 4.27D-04
 IDIUse=3 WtCom= 9.94D-01 WtEn= 6.33D-03
 Coeff-Com:  0.683D-02-0.293D-01-0.971D-01 0.185D+00 0.935D+00
 Coeff-En:   0.000D+00 0.000D+00 0.000D+00 0.000D+00 0.100D+01
 Coeff:      0.679D-02-0.291D-01-0.965D-01 0.183D+00 0.935D+00
 RMSDP=6.64D-05 MaxDP=3.17D-03 DE=-1.24D-03 OVMax= 0.00D+00

 Cycle   6  Pass 1  IDiag  1:
 RMSU=  3.36D-05    CP:  9.92D-01  1.15D+00  9.84D-01  1.14D+00  1.06D+00
 E= -474.159697410018     Delta-E=       -0.000255332448 Rises=F Damp=F
 DIIS: error= 2.56D-04 at cycle   6 NSaved=   6.
 NSaved= 6 IEnMin= 6 EnMin= -474.159697410018     IErMin= 6 ErrMin= 2.56D-04
 ErrMax= 2.56D-04  0.00D+00 EMaxC= 1.00D-01 BMatC= 7.27D-06 BMatP= 7.74D-05
 IDIUse=3 WtCom= 9.97D-01 WtEn= 2.56D-03
 Coeff-Com:  0.311D-03 0.383D-02-0.192D-01-0.848D-01 0.417D-01 0.106D+01
 Coeff-En:   0.000D+00 0.000D+00 0.000D+00 0.000D+00 0.000D+00 0.100D+01
 Coeff:      0.310D-03 0.382D-02-0.191D-01-0.846D-01 0.416D-01 0.106D+01
 RMSDP=3.33D-05 MaxDP=1.71D-03 DE=-2.55D-04 OVMax= 0.00D+00

 Cycle   7  Pass 1  IDiag  1:
 RMSU=  1.75D-05    CP:  9.92D-01  1.15D+00  9.93D-01  1.16D+00  1.29D+00
                    CP:  1.30D+00
 E= -474.159737754340     Delta-E=       -0.000040344323 Rises=F Damp=F
 DIIS: error= 9.71D-05 at cycle   7 NSaved=   7.
 NSaved= 7 IEnMin= 7 EnMin= -474.159737754340     IErMin= 7 ErrMin= 9.71D-05
 ErrMax= 9.71D-05  0.00D+00 EMaxC= 1.00D-01 BMatC= 1.68D-06 BMatP= 7.27D-06
 IDIUse=1 WtCom= 1.00D+00 WtEn= 0.00D+00
 Coeff-Com: -0.769D-03 0.425D-02 0.660D-02-0.279D-01-0.120D+00 0.182D+00
 Coeff-Com:  0.956D+00
 Coeff:     -0.769D-03 0.425D-02 0.660D-02-0.279D-01-0.120D+00 0.182D+00
 Coeff:      0.956D+00
 RMSDP=1.80D-05 MaxDP=1.01D-03 DE=-4.03D-05 OVMax= 0.00D+00

 Cycle   8  Pass 1  IDiag  1:
 RMSU=  6.77D-06    CP:  9.92D-01  1.15D+00  9.96D-01  1.17D+00  1.37D+00
                    CP:  1.60D+00  1.58D+00
 E= -474.159751421880     Delta-E=       -0.000013667540 Rises=F Damp=F
 DIIS: error= 5.06D-05 at cycle   8 NSaved=   8.
 NSaved= 8 IEnMin= 8 EnMin= -474.159751421880     IErMin= 8 ErrMin= 5.06D-05
 ErrMax= 5.06D-05  0.00D+00 EMaxC= 1.00D-01 BMatC= 6.08D-07 BMatP= 1.68D-06
 IDIUse=1 WtCom= 1.00D+00 WtEn= 0.00D+00
 Coeff-Com:  0.132D-05-0.945D-03 0.251D-02 0.234D-01-0.222D-01-0.123D+00
 Coeff-Com: -0.244D+00 0.136D+01
 Coeff:      0.132D-05-0.945D-03 0.251D-02 0.234D-01-0.222D-01-0.123D+00
 Coeff:     -0.244D+00 0.136D+01
 RMSDP=2.06D-05 MaxDP=9.49D-04 DE=-1.37D-05 OVMax= 0.00D+00

 Cycle   9  Pass 1  IDiag  1:
 RMSU=  3.90D-06    CP:  9.92D-01  1.15D+00  9.99D-01  1.16D+00  1.45D+00
                    CP:  1.83D+00  2.44D+00  1.96D+00
 E= -474.159761952352     Delta-E=       -0.000010530472 Rises=F Damp=F
 DIIS: error= 4.02D-05 at cycle   9 NSaved=   9.
 NSaved= 9 IEnMin= 9 EnMin= -474.159761952352     IErMin= 9 ErrMin= 4.02D-05
 ErrMax= 4.02D-05  0.00D+00 EMaxC= 1.00D-01 BMatC= 4.13D-07 BMatP= 6.08D-07
 IDIUse=1 WtCom= 1.00D+00 WtEn= 0.00D+00
 Coeff-Com:  0.364D-03-0.157D-02-0.467D-02 0.812D-02 0.403D-01 0.685D-01
 Coeff-Com: -0.721D+00-0.183D+00 0.179D+01
 Coeff:      0.364D-03-0.157D-02-0.467D-02 0.812D-02 0.403D-01 0.685D-01
 Coeff:     -0.721D+00-0.183D+00 0.179D+01
 RMSDP=2.96D-05 MaxDP=1.36D-03 DE=-1.05D-05 OVMax= 0.00D+00

 Cycle  10  Pass 1  IDiag  1:
 RMSU=  1.27D-05    CP:  9.92D-01  1.15D+00  1.00D+00  1.16D+00  1.55D+00
                    CP:  2.14D+00  3.00D+00  3.00D+00  2.58D+00
 E= -474.159772483209     Delta-E=       -0.000010530857 Rises=F Damp=F
 DIIS: error= 2.51D-05 at cycle  10 NSaved=  10.
 NSaved=10 IEnMin=10 EnMin= -474.159772483209     IErMin=10 ErrMin= 2.51D-05
 ErrMax= 2.51D-05  0.00D+00 EMaxC= 1.00D-01 BMatC= 1.31D-07 BMatP= 4.13D-07
 IDIUse=1 WtCom= 1.00D+00 WtEn= 0.00D+00
 Coeff-Com: -0.849D-04 0.869D-03-0.617D-03-0.111D-01-0.935D-02 0.110D+00
 Coeff-Com:  0.102D+00-0.287D+00-0.643D+00 0.174D+01
 Coeff:     -0.849D-04 0.869D-03-0.617D-03-0.111D-01-0.935D-02 0.110D+00
 Coeff:      0.102D+00-0.287D+00-0.643D+00 0.174D+01
 RMSDP=2.26D-05 MaxDP=1.07D-03 DE=-1.05D-05 OVMax= 0.00D+00

 Cycle  11  Pass 1  IDiag  1:
 RMSU=  5.77D-06    CP:  9.92D-01  1.15D+00  1.01D+00  1.16D+00  1.63D+00
                    CP:  2.34D+00  3.00D+00  3.00D+00  3.00D+00  2.47D+00
 E= -474.159776859639     Delta-E=       -0.000004376430 Rises=F Damp=F
 DIIS: error= 1.38D-05 at cycle  11 NSaved=  11.
 NSaved=11 IEnMin=11 EnMin= -474.159776859639     IErMin=11 ErrMin= 1.38D-05
 ErrMax= 1.38D-05  0.00D+00 EMaxC= 1.00D-01 BMatC= 4.22D-08 BMatP= 1.31D-07
 IDIUse=1 WtCom= 1.00D+00 WtEn= 0.00D+00
 Coeff-Com: -0.106D-03 0.494D-03 0.129D-02-0.254D-02-0.161D-01 0.408D-02
 Coeff-Com:  0.160D+00 0.120D+00-0.737D+00 0.163D+00 0.131D+01
 Coeff:     -0.106D-03 0.494D-03 0.129D-02-0.254D-02-0.161D-01 0.408D-02
 Coeff:      0.160D+00 0.120D+00-0.737D+00 0.163D+00 0.131D+01
 RMSDP=1.46D-05 MaxDP=6.94D-04 DE=-4.38D-06 OVMax= 0.00D+00

 Cycle  12  Pass 1  IDiag  1:
 RMSU=  5.34D-06    CP:  9.92D-01  1.15D+00  1.01D+00  1.15D+00  1.68D+00
                    CP:  2.46D+00  3.00D+00  3.00D+00  3.00D+00  3.00D+00
                    CP:  1.87D+00
 E= -474.159778114987     Delta-E=       -0.000001255347 Rises=F Damp=F
 DIIS: error= 6.95D-06 at cycle  12 NSaved=  12.
 NSaved=12 IEnMin=12 EnMin= -474.159778114987     IErMin=12 ErrMin= 6.95D-06
 ErrMax= 6.95D-06  0.00D+00 EMaxC= 1.00D-01 BMatC= 8.89D-09 BMatP= 4.22D-08
 IDIUse=1 WtCom= 1.00D+00 WtEn= 0.00D+00
 Coeff-Com:  0.380D-04-0.309D-03 0.485D-04 0.402D-02 0.177D-02-0.223D-01
 Coeff-Com: -0.804D-01 0.137D+00 0.274D+00-0.553D+00-0.187D+00 0.143D+01
 Coeff:      0.380D-04-0.309D-03 0.485D-04 0.402D-02 0.177D-02-0.223D-01
 Coeff:     -0.804D-01 0.137D+00 0.274D+00-0.553D+00-0.187D+00 0.143D+01
 RMSDP=4.30D-06 MaxDP=1.85D-04 DE=-1.26D-06 OVMax= 0.00D+00

 Cycle  13  Pass 1  IDiag  1:
 RMSU=  1.19D-06    CP:  9.92D-01  1.15D+00  1.01D+00  1.15D+00  1.69D+00
                    CP:  2.48D+00  3.00D+00  3.00D+00  3.00D+00  3.00D+00
                    CP:  2.21D+00  1.61D+00
 E= -474.159778300600     Delta-E=       -0.000000185613 Rises=F Damp=F
 DIIS: error= 3.72D-06 at cycle  13 NSaved=  13.
 NSaved=13 IEnMin=13 EnMin= -474.159778300600     IErMin=13 ErrMin= 3.72D-06
 ErrMax= 3.72D-06  0.00D+00 EMaxC= 1.00D-01 BMatC= 2.75D-09 BMatP= 8.89D-09
 IDIUse=1 WtCom= 1.00D+00 WtEn= 0.00D+00
 Coeff-Com:  0.211D-04-0.100D-03-0.313D-03 0.988D-03 0.206D-02 0.262D-02
 Coeff-Com: -0.441D-01-0.150D-01 0.139D+00-0.272D-01-0.269D+00 0.357D-01
 Coeff-Com:  0.118D+01
 Coeff:      0.211D-04-0.100D-03-0.313D-03 0.988D-03 0.206D-02 0.262D-02
 Coeff:     -0.441D-01-0.150D-01 0.139D+00-0.272D-01-0.269D+00 0.357D-01
 Coeff:      0.118D+01
 RMSDP=1.96D-06 MaxDP=8.09D-05 DE=-1.86D-07 OVMax= 0.00D+00

 Cycle  14  Pass 1  IDiag  1:
 RMSU=  3.74D-07    CP:  9.92D-01  1.15D+00  1.01D+00  1.15D+00  1.69D+00
                    CP:  2.49D+00  3.00D+00  3.00D+00  3.00D+00  3.00D+00
                    CP:  2.35D+00  1.87D+00  1.66D+00
 E= -474.159778350838     Delta-E=       -0.000000050238 Rises=F Damp=F
 DIIS: error= 2.64D-06 at cycle  14 NSaved=  14.
 NSaved=14 IEnMin=14 EnMin= -474.159778350838     IErMin=14 ErrMin= 2.64D-06
 ErrMax= 2.64D-06  0.00D+00 EMaxC= 1.00D-01 BMatC= 1.23D-09 BMatP= 2.75D-09
 IDIUse=1 WtCom= 1.00D+00 WtEn= 0.00D+00
 Coeff-Com: -0.253D-04 0.178D-03 0.308D-04-0.164D-02-0.327D-02 0.124D-01
 Coeff-Com:  0.437D-01-0.524D-01-0.150D+00 0.244D+00 0.125D+00-0.582D+00
 Coeff-Com: -0.432D+00 0.180D+01
 Coeff:     -0.253D-04 0.178D-03 0.308D-04-0.164D-02-0.327D-02 0.124D-01
 Coeff:      0.437D-01-0.524D-01-0.150D+00 0.244D+00 0.125D+00-0.582D+00
 Coeff:     -0.432D+00 0.180D+01
 RMSDP=1.70D-06 MaxDP=7.93D-05 DE=-5.02D-08 OVMax= 0.00D+00

 Cycle  15  Pass 1  IDiag  1:
 RMSU=  2.05D-07    CP:  9.92D-01  1.15D+00  1.01D+00  1.15D+00  1.70D+00
                    CP:  2.49D+00  3.00D+00  3.00D+00  3.00D+00  3.00D+00
                    CP:  2.44D+00  2.04D+00  2.56D+00  2.49D+00
 E= -474.159778379830     Delta-E=       -0.000000028992 Rises=F Damp=F
 DIIS: error= 1.30D-06 at cycle  15 NSaved=  15.
 NSaved=15 IEnMin=15 EnMin= -474.159778379830     IErMin=15 ErrMin= 1.30D-06
 ErrMax= 1.30D-06  0.00D+00 EMaxC= 1.00D-01 BMatC= 3.21D-10 BMatP= 1.23D-09
 IDIUse=1 WtCom= 1.00D+00 WtEn= 0.00D+00
 Coeff-Com: -0.467D-05 0.147D-04 0.116D-03 0.624D-04-0.140D-02-0.832D-03
 Coeff-Com:  0.120D-01 0.552D-02-0.258D-01-0.222D-01 0.807D-01 0.948D-01
 Coeff-Com: -0.453D+00-0.144D+00 0.145D+01
 Coeff:     -0.467D-05 0.147D-04 0.116D-03 0.624D-04-0.140D-02-0.832D-03
 Coeff:      0.120D-01 0.552D-02-0.258D-01-0.222D-01 0.807D-01 0.948D-01
 Coeff:     -0.453D+00-0.144D+00 0.145D+01
 RMSDP=8.78D-07 MaxDP=4.55D-05 DE=-2.90D-08 OVMax= 0.00D+00

 Cycle  16  Pass 1  IDiag  1:
 RMSU=  2.46D-07    CP:  9.92D-01  1.15D+00  1.01D+00  1.15D+00  1.70D+00
                    CP:  2.49D+00  3.00D+00  3.00D+00  3.00D+00  3.00D+00
                    CP:  2.48D+00  2.10D+00  3.00D+00  3.00D+00  1.68D+00
 E= -474.159778386741     Delta-E=       -0.000000006911 Rises=F Damp=F
 DIIS: error= 6.77D-07 at cycle  16 NSaved=  16.
 NSaved=16 IEnMin=16 EnMin= -474.159778386741     IErMin=16 ErrMin= 6.77D-07
 ErrMax= 6.77D-07  0.00D+00 EMaxC= 1.00D-01 BMatC= 5.58D-11 BMatP= 3.21D-10
 IDIUse=1 WtCom= 1.00D+00 WtEn= 0.00D+00
 Coeff-Com:  0.674D-05-0.468D-04-0.306D-05 0.491D-03 0.475D-03-0.274D-02
 Coeff-Com: -0.105D-01 0.105D-01 0.432D-01-0.659D-01-0.324D-01 0.153D+00
 Coeff-Com:  0.753D-01-0.449D+00 0.373D-01 0.124D+01
 Coeff:      0.674D-05-0.468D-04-0.306D-05 0.491D-03 0.475D-03-0.274D-02
 Coeff:     -0.105D-01 0.105D-01 0.432D-01-0.659D-01-0.324D-01 0.153D+00
 Coeff:      0.753D-01-0.449D+00 0.373D-01 0.124D+01
 RMSDP=3.73D-07 MaxDP=1.91D-05 DE=-6.91D-09 OVMax= 0.00D+00

 Cycle  17  Pass 1  IDiag  1:
 RMSU=  1.80D-07    CP:  9.92D-01  1.15D+00  1.01D+00  1.15D+00  1.70D+00
                    CP:  2.49D+00  3.00D+00  3.00D+00  3.00D+00  3.00D+00
                    CP:  2.50D+00  2.13D+00  3.00D+00  3.00D+00  2.10D+00
                    CP:  2.03D+00
 E= -474.159778387682     Delta-E=       -0.000000000941 Rises=F Damp=F
 DIIS: error= 5.84D-07 at cycle  17 NSaved=  17.
 NSaved=17 IEnMin=17 EnMin= -474.159778387682     IErMin=17 ErrMin= 5.84D-07
 ErrMax= 5.84D-07  0.00D+00 EMaxC= 1.00D-01 BMatC= 6.30D-12 BMatP= 5.58D-11
 IDIUse=1 WtCom= 1.00D+00 WtEn= 0.00D+00
 Coeff-Com:  0.735D-06-0.292D-05-0.181D-04 0.162D-04 0.146D-03 0.135D-03
 Coeff-Com: -0.184D-02-0.119D-02 0.502D-02 0.533D-03-0.970D-02-0.113D-01
 Coeff-Com:  0.637D-01 0.209D-01-0.185D+00-0.436D-02 0.112D+01
 Coeff:      0.735D-06-0.292D-05-0.181D-04 0.162D-04 0.146D-03 0.135D-03
 Coeff:     -0.184D-02-0.119D-02 0.502D-02 0.533D-03-0.970D-02-0.113D-01
 Coeff:      0.637D-01 0.209D-01-0.185D+00-0.436D-02 0.112D+01
 RMSDP=5.66D-08 MaxDP=3.99D-06 DE=-9.41D-10 OVMax= 0.00D+00

 Cycle  18  Pass 1  IDiag  1:
 RMSU=  2.64D-08    CP:  9.92D-01  1.15D+00  1.01D+00  1.15D+00  1.70D+00
                    CP:  2.49D+00  3.00D+00  3.00D+00  3.00D+00  3.00D+00
                    CP:  2.50D+00  2.13D+00  3.00D+00  3.00D+00  2.18D+00
                    CP:  2.16D+00  1.06D+00
 E= -474.159778387749     Delta-E=       -0.000000000066 Rises=F Damp=F
 DIIS: error= 3.36D-07 at cycle  18 NSaved=  18.
 NSaved=18 IEnMin=18 EnMin= -474.159778387749     IErMin=18 ErrMin= 3.36D-07
 ErrMax= 3.36D-07  0.00D+00 EMaxC= 1.00D-01 BMatC= 1.53D-12 BMatP= 6.30D-12
 IDIUse=1 WtCom= 1.00D+00 WtEn= 0.00D+00
 Coeff-Com: -0.156D-05 0.106D-04 0.114D-05-0.106D-03-0.117D-03 0.600D-03
 Coeff-Com:  0.239D-02-0.215D-02-0.932D-02 0.134D-01 0.923D-02-0.333D-01
 Coeff-Com: -0.208D-01 0.892D-01 0.135D-01-0.277D+00-0.129D+00 0.134D+01
 Coeff:     -0.156D-05 0.106D-04 0.114D-05-0.106D-03-0.117D-03 0.600D-03
 Coeff:      0.239D-02-0.215D-02-0.932D-02 0.134D-01 0.923D-02-0.333D-01
 Coeff:     -0.208D-01 0.892D-01 0.135D-01-0.277D+00-0.129D+00 0.134D+01
 RMSDP=3.42D-08 MaxDP=3.09D-06 DE=-6.64D-11 OVMax= 0.00D+00

 Cycle  19  Pass 1  IDiag  1:
 RMSU=  8.79D-09    CP:  9.92D-01  1.15D+00  1.01D+00  1.15D+00  1.70D+00
                    CP:  2.49D+00  3.00D+00  3.00D+00  3.00D+00  3.00D+00
                    CP:  2.50D+00  2.13D+00  3.00D+00  3.00D+00  2.22D+00
                    CP:  2.25D+00  1.12D+00  1.72D+00
 E= -474.159778387761     Delta-E=       -0.000000000013 Rises=F Damp=F
 DIIS: error= 1.46D-07 at cycle  19 NSaved=  19.
 NSaved=19 IEnMin=19 EnMin= -474.159778387761     IErMin=19 ErrMin= 1.46D-07
 ErrMax= 1.46D-07  0.00D+00 EMaxC= 1.00D-01 BMatC= 2.60D-13 BMatP= 1.53D-12
 IDIUse=1 WtCom= 1.00D+00 WtEn= 0.00D+00
 Coeff-Com: -0.216D-06 0.108D-05 0.430D-05-0.868D-05-0.320D-04-0.107D-04
 Coeff-Com:  0.414D-03 0.154D-03-0.131D-02 0.172D-03 0.231D-02 0.115D-02
 Coeff-Com: -0.118D-01-0.436D-02 0.381D-01-0.471D-03-0.220D+00-0.226D-01
 Coeff-Com:  0.122D+01
 Coeff:     -0.216D-06 0.108D-05 0.430D-05-0.868D-05-0.320D-04-0.107D-04
 Coeff:      0.414D-03 0.154D-03-0.131D-02 0.172D-03 0.231D-02 0.115D-02
 Coeff:     -0.118D-01-0.436D-02 0.381D-01-0.471D-03-0.220D+00-0.226D-01
 Coeff:      0.122D+01
 RMSDP=1.40D-08 MaxDP=1.58D-06 DE=-1.27D-11 OVMax= 0.00D+00

 Cycle  20  Pass 1  IDiag  1:
 RMSU=  3.73D-09    CP:  9.92D-01  1.15D+00  1.01D+00  1.15D+00  1.70D+00
                    CP:  2.49D+00  3.00D+00  3.00D+00  3.00D+00  3.00D+00
                    CP:  2.50D+00  2.14D+00  3.00D+00  3.00D+00  2.24D+00
                    CP:  2.27D+00  1.13D+00  2.06D+00  1.36D+00
 E= -474.159778387753     Delta-E=        0.000000000008 Rises=F Damp=F
 DIIS: error= 4.94D-08 at cycle  20 NSaved=  20.
 NSaved=20 IEnMin=19 EnMin= -474.159778387761     IErMin=20 ErrMin= 4.94D-08
 ErrMax= 4.94D-08  0.00D+00 EMaxC= 1.00D-01 BMatC= 4.45D-14 BMatP= 2.60D-13
 IDIUse=1 WtCom= 1.00D+00 WtEn= 0.00D+00
 Coeff-Com:  0.305D-06-0.206D-05 0.116D-07 0.197D-04 0.242D-04-0.117D-03
 Coeff-Com: -0.467D-03 0.490D-03 0.168D-02-0.248D-02-0.170D-02 0.641D-02
 Coeff-Com:  0.412D-02-0.176D-01-0.137D-02 0.523D-01 0.270D-01-0.258D+00
 Coeff-Com:  0.526D-01 0.114D+01
 Coeff:      0.305D-06-0.206D-05 0.116D-07 0.197D-04 0.242D-04-0.117D-03
 Coeff:     -0.467D-03 0.490D-03 0.168D-02-0.248D-02-0.170D-02 0.641D-02
 Coeff:      0.412D-02-0.176D-01-0.137D-02 0.523D-01 0.270D-01-0.258D+00
 Coeff:      0.526D-01 0.114D+01
 RMSDP=4.65D-09 MaxDP=5.43D-07 DE= 8.19D-12 OVMax= 0.00D+00

 SCF Done:  E(RZINDO/S) =  -474.159778388     A.U. after   20 cycles
            NFock= 20  Conv=0.46D-08     -V/T= 0.9488
 KE=-9.267246795737D+03 PE=-3.451423253864D-07 EE= 4.496696638247D+03
 Leave Link  502 at Thu May  5 07:58:43 2022, MaxMem=  6710886400 cpu:              19.9 elap:               0.8
 (Enter /sw/apps/gaussian-16.0/g16/l801.exe)
 Range of M.O.s used for correlation:     1   338
 NBasis=   338 NAE=   176 NBE=   176 NFC=     0 NFV=     0
 NROrb=    338 NOA=   176 NOB=   176 NVA=   162 NVB=   162
 Leave Link  801 at Thu May  5 07:58:43 2022, MaxMem=  6710886400 cpu:               0.6 elap:               0.0
 (Enter /sw/apps/gaussian-16.0/g16/l914.exe)
 RHF ground state
 Two-electron integral symmetry not used.
 MDV=  6710886400 DFT=F DoStab=F Mixed=F DoRPA=F DoScal=F NonHer=F
 Making orbital integer symmetry assigments:
 Orbital symmetries:
       Occupied  (A) (A) (A) (A) (A) (A) (A) (A) (A) (A) (A) (A)
                 (A) (A) (A) (A) (A) (A) (A) (A) (A) (A) (A) (A)
                 (A) (A) (A) (A) (A) (A) (A) (A) (A) (A) (A) (A)
                 (A) (A) (A) (A) (A) (A) (A) (A) (A) (A) (A) (A)
                 (A) (A) (A) (A) (A) (A) (A) (A) (A) (A) (A) (A)
                 (A) (A) (A) (A) (A) (A) (A) (A) (A) (A) (A) (A)
                 (A) (A) (A) (A) (A) (A) (A) (A) (A) (A) (A) (A)
                 (A) (A) (A) (A) (A) (A) (A) (A) (A) (A) (A) (A)
                 (A) (A) (A) (A) (A) (A) (A) (A) (A) (A) (A) (A)
                 (A) (A) (A) (A) (A) (A) (A) (A) (A) (A) (A) (A)
                 (A) (A) (A) (A) (A) (A) (A) (A) (A) (A) (A) (A)
                 (A) (A) (A) (A) (A) (A) (A) (A) (A) (A) (A) (A)
                 (A) (A) (A) (A) (A) (A) (A) (A) (A) (A) (A) (A)
                 (A) (A) (A) (A) (A) (A) (A) (A) (A) (A) (A) (A)
                 (A) (A) (A) (A) (A) (A) (A) (A)
       Virtual   (A) (A) (A) (A) (A) (A) (A) (A) (A) (A) (A) (A)
                 (A) (A) (A) (A) (A) (A) (A) (A) (A) (A) (A) (A)
                 (A) (A) (A) (A) (A) (A) (A) (A) (A) (A) (A) (A)
                 (A) (A) (A) (A) (A) (A) (A) (A) (A) (A) (A) (A)
                 (A) (A) (A) (A) (A) (A) (A) (A) (A) (A) (A) (A)
                 (A) (A) (A) (A) (A) (A) (A) (A) (A) (A) (A) (A)
                 (A) (A) (A) (A) (A) (A) (A) (A) (A) (A) (A) (A)
                 (A) (A) (A) (A) (A) (A) (A) (A) (A) (A) (A) (A)
                 (A) (A) (A) (A) (A) (A) (A) (A) (A) (A) (A) (A)
                 (A) (A) (A) (A) (A) (A) (A) (A) (A) (A) (A) (A)
                 (A) (A) (A) (A) (A) (A) (A) (A) (A) (A) (A) (A)
                 (A) (A) (A) (A) (A) (A) (A) (A) (A) (A) (A) (A)
                 (A) (A) (A) (A) (A) (A) (A) (A) (A) (A) (A) (A)
                 (A) (A) (A) (A) (A) (A)
    20 initial guesses have been made.
 Convergence on wavefunction:    0.001000000000000
 Davidson Disk Diagonalization:  ConvIn= 1.00D-03 SkipCon=T Conv= 1.00D-03.
 Max sub-space:  2000 roots to seek:    20 dimension of matrix:        57024
 Iteration     1 Dimension    20 NMult     0 NNew     20
 CISAX will form    20 AO SS matrices at one time.
 NMat=    20 NSing=    20 JSym2X= 0.
 New state      3 was old state      4
 New state      4 was old state      7
 New state      5 was old state      3
 Excitation Energies [eV] at current iteration:
 Root      1 :     1.640144828694765
 Root      2 :     2.125295578830465
 Root      3 :     3.359877693163996
 Root      4 :     3.395309585136216
 Root      5 :     3.472677676759005
 Root      6 :     3.655574890539214
 Root      7 :     3.779768920406124
 Root      8 :     3.810339471833318
 Root      9 :     3.911406381939849
 Root     10 :     3.987502269288450
 Root     11 :     4.137001122061979
 Root     12 :     4.194158499171584
 Root     13 :     4.320268311851038
 Root     14 :     4.357981272735228
 Root     15 :     4.445699188408824
 Root     16 :     4.513610975172753
 Root     17 :     4.726737490087494
 Root     18 :     4.912650109532628
 Root     19 :     5.299315173472571
 Root     20 :     5.770691809646665
 Iteration     2 Dimension    40 NMult    20 NNew     20
 CISAX will form    20 AO SS matrices at one time.
 NMat=    20 NSing=    20 JSym2X= 0.
 Root      1 not converged, maximum delta is    0.043727464098648
 Root      2 not converged, maximum delta is    0.029444311598156
 New state      3 was old state      4
 Root      3 not converged, maximum delta is    0.335850590896747
 New state      4 was old state      3
 Root      4 not converged, maximum delta is    0.135973421008503
 Root      5 not converged, maximum delta is    0.337166859288876
 Excitation Energies [eV] at current iteration:
 Root      1 :     1.301184944224885   Change is   -0.338959884469880
 Root      2 :     1.922263785588626   Change is   -0.203031793241839
 Root      3 :     3.048460903931900   Change is   -0.346848681204315
 Root      4 :     3.129381577183549   Change is   -0.230496115980447
 Root      5 :     3.240455352528418   Change is   -0.232222324230587
 Root      6 :     3.423469837548387   Change is   -0.232105052990827
 Root      7 :     3.548009492294691   Change is   -0.262329979538627
 Root      8 :     3.561901024451686   Change is   -0.217867895954437
 Root      9 :     3.657420288493813   Change is   -0.330081980794637
 Root     10 :     3.705568596374296   Change is   -0.808042378798457
 Root     11 :     3.771292715141054   Change is   -0.365708406920925
 Root     12 :     3.804929454994141   Change is   -0.106476926945709
 Root     13 :     4.076597039138753   Change is   -0.243671272712285
 Root     14 :     4.153419319178097   Change is   -0.040739179993487
 Root     15 :     4.167111024991196   Change is   -0.278588163417628
 Root     16 :     4.221639261004356   Change is   -0.136342011730872
 Root     17 :     4.499330036194363   Change is   -0.227407453893132
 Root     18 :     4.900673755359308   Change is   -0.011976354173320
 Root     19 :     5.211406944748568   Change is   -0.087908228724002
 Root     20 :     5.697365090820251
 Iteration     3 Dimension    45 NMult    40 NNew      5
 CISAX will form     5 AO SS matrices at one time.
 NMat=     5 NSing=     5 JSym2X= 0.
 Root      1 not converged, maximum delta is    0.008341283043793
 Root      2 not converged, maximum delta is    0.019760530341031
 Root      3 not converged, maximum delta is    0.014407615606443
 Root      4 not converged, maximum delta is    0.026250736289276
 Root      5 not converged, maximum delta is    0.027554294093668
 Excitation Energies [eV] at current iteration:
 Root      1 :     1.284659863633914   Change is   -0.016525080590971
 Root      2 :     1.896039589601301   Change is   -0.026224195987325
 Root      3 :     3.030175835066768   Change is   -0.018285068865133
 Root      4 :     3.093287037978713   Change is   -0.036094539204836
 Root      5 :     3.207845448666646   Change is   -0.032609903861773
 Iteration     4 Dimension    50 NMult    45 NNew      5
 CISAX will form     5 AO SS matrices at one time.
 NMat=     5 NSing=     5 JSym2X= 0.
 Root      1 not converged, maximum delta is    0.001712918112779
 Root      2 not converged, maximum delta is    0.001894987184391
 Root      3 not converged, maximum delta is    0.005862801453243
 Root      4 not converged, maximum delta is    0.008532737991095
 Root      5 not converged, maximum delta is    0.045763537572097
 Excitation Energies [eV] at current iteration:
 Root      1 :     1.283891305603200   Change is   -0.000768558030714
 Root      2 :     1.895360377418484   Change is   -0.000679212182818
 Root      3 :     3.027534140699706   Change is   -0.002641694367062
 Root      4 :     3.090116177777714   Change is   -0.003170860200999
 Root      5 :     3.199399492322780   Change is   -0.008445956343866
 Iteration     5 Dimension    55 NMult    50 NNew      5
 CISAX will form     5 AO SS matrices at one time.
 NMat=     5 NSing=     5 JSym2X= 0.
 Root      1 has converged.
 Root      2 has converged.
 Root      3 not converged, maximum delta is    0.029372506827347
 Root      4 not converged, maximum delta is    0.147073401534700
 Root      5 not converged, maximum delta is    0.364687870259404
 Excitation Energies [eV] at current iteration:
 Root      1 :     1.283843377483997   Change is   -0.000047928119203
 Root      2 :     1.895306717428683   Change is   -0.000053659989800
 Root      3 :     3.026529226734953   Change is   -0.001004913964753
 Root      4 :     3.085770405818773   Change is   -0.004345771958942
 Root      5 :     3.106219142553375   Change is   -0.093180349769404
 Iteration     6 Dimension    58 NMult    55 NNew      3
 CISAX will form     3 AO SS matrices at one time.
 NMat=     3 NSing=     3 JSym2X= 0.
 Root      1 has converged.
 Root      2 has converged.
 Root      3 not converged, maximum delta is    0.138100626514848
 New state      4 was old state      5
 Root      4 not converged, maximum delta is    0.409989838241659
 New state      5 was old state      4
 Root      5 not converged, maximum delta is    0.210526673600088
 Excitation Energies [eV] at current iteration:
 Root      1 :     1.283843225618137   Change is   -0.000000151865861
 Root      2 :     1.895303461769755   Change is   -0.000003255658928
 Root      3 :     3.023112623993069   Change is   -0.003416602741884
 Root      4 :     3.040816077522146   Change is   -0.065403065031230
 Root      5 :     3.090902226768635   Change is    0.005131820949862
 Iteration     7 Dimension    61 NMult    58 NNew      3
 CISAX will form     3 AO SS matrices at one time.
 NMat=     3 NSing=     3 JSym2X= 0.
 Root      1 has converged.
 Root      2 has converged.
 Root      3 not converged, maximum delta is    0.124558415765163
 Root      4 not converged, maximum delta is    0.159272251452473
 Root      5 not converged, maximum delta is    0.045346503193512
 Excitation Energies [eV] at current iteration:
 Root      1 :     1.283843168063424   Change is   -0.000000057554712
 Root      2 :     1.895294925689452   Change is   -0.000008536080303
 Root      3 :     3.018584388992881   Change is   -0.004528235000188
 Root      4 :     3.033252681867382   Change is   -0.007563395654763
 Root      5 :     3.089466952519714   Change is   -0.001435274248920
 Iteration     8 Dimension    64 NMult    61 NNew      3
 CISAX will form     3 AO SS matrices at one time.
 NMat=     3 NSing=     3 JSym2X= 0.
 Root      1 has converged.
 Root      2 has converged.
 New state      3 was old state      5
 Root      3 not converged, maximum delta is    0.593717558255829
 New state      4 was old state      3
 Root      4 not converged, maximum delta is    0.052773904340711
 New state      5 was old state      4
 Root      5 not converged, maximum delta is    0.054133894974275
 Excitation Energies [eV] at current iteration:
 Root      1 :     1.283843096241089   Change is   -0.000000071822335
 Root      2 :     1.895290300436484   Change is   -0.000004625252968
 Root      3 :     2.921225306088450   Change is   -0.168241646431264
 Root      4 :     3.018456432667017   Change is   -0.000127956325863
 Root      5 :     3.033406406176073   Change is    0.000153724308691
 Iteration     9 Dimension    67 NMult    64 NNew      3
 CISAX will form     3 AO SS matrices at one time.
 NMat=     3 NSing=     3 JSym2X= 0.
 Root      1 has converged.
 Root      2 has converged.
 Root      3 not converged, maximum delta is    0.026095305037361
 Root      4 not converged, maximum delta is    0.009477347986437
 Root      5 not converged, maximum delta is    0.008136783171001
 Excitation Energies [eV] at current iteration:
 Root      1 :     1.283842993042870   Change is   -0.000000103198220
 Root      2 :     1.895289595350547   Change is   -0.000000705085938
 Root      3 :     2.890342625275707   Change is   -0.030882680812743
 Root      4 :     3.018095744803464   Change is   -0.000360687863553
 Root      5 :     3.033084747418871   Change is   -0.000321658757202
 Iteration    10 Dimension    70 NMult    67 NNew      3
 CISAX will form     3 AO SS matrices at one time.
 NMat=     3 NSing=     3 JSym2X= 0.
 Root      1 has converged.
 Root      2 has converged.
 Root      3 not converged, maximum delta is    0.004908448906367
 Root      4 not converged, maximum delta is    0.001283638197801
 Root      5 not converged, maximum delta is    0.001076962357539
 Excitation Energies [eV] at current iteration:
 Root      1 :     1.283842925088376   Change is   -0.000000067954494
 Root      2 :     1.895289424598040   Change is   -0.000000170752507
 Root      3 :     2.886680305315008   Change is   -0.003662319960699
 Root      4 :     3.018047585560637   Change is   -0.000048159242827
 Root      5 :     3.033041664877836   Change is   -0.000043082541035
 Iteration    11 Dimension    73 NMult    70 NNew      3
 CISAX will form     3 AO SS matrices at one time.
 NMat=     3 NSing=     3 JSym2X= 0.
 Root      1 has converged.
 Root      2 has converged.
 Root      3 not converged, maximum delta is    0.002718059817189
 Root      4 has converged.
 Root      5 has converged.
 Excitation Energies [eV] at current iteration:
 Root      1 :     1.283842909402989   Change is   -0.000000015685387
 Root      2 :     1.895289375753401   Change is   -0.000000048844640
 Root      3 :     2.886144688418401   Change is   -0.000535616896606
 Root      4 :     3.018041122823276   Change is   -0.000006462737361
 Root      5 :     3.033035538154752   Change is   -0.000006126723084
 Iteration    12 Dimension    74 NMult    73 NNew      1
 CISAX will form     1 AO SS matrices at one time.
 NMat=     1 NSing=     1 JSym2X= 0.
 Root      1 has converged.
 Root      2 has converged.
 Root      3 not converged, maximum delta is    0.002427681495505
 Root      4 has converged.
 Root      5 has converged.
 Excitation Energies [eV] at current iteration:
 Root      1 :     1.283842905661466   Change is   -0.000000003741523
 Root      2 :     1.895289285527441   Change is   -0.000000090225960
 Root      3 :     2.886029747852264   Change is   -0.000114940566137
 Root      4 :     3.018040648338729   Change is   -0.000000474484548
 Root      5 :     3.033034937190473   Change is   -0.000000600964280
 Iteration    13 Dimension    75 NMult    74 NNew      1
 CISAX will form     1 AO SS matrices at one time.
 NMat=     1 NSing=     1 JSym2X= 0.
 Root      1 has converged.
 Root      2 has converged.
 Root      3 not converged, maximum delta is    0.003071696798552
 Root      4 has converged.
 Root      5 has converged.
 Excitation Energies [eV] at current iteration:
 Root      1 :     1.283842903150545   Change is   -0.000000002510921
 Root      2 :     1.895289115458820   Change is   -0.000000170068621
 Root      3 :     2.885969685333711   Change is   -0.000060062518553
 Root      4 :     3.018040403644183   Change is   -0.000000244694545
 Root      5 :     3.033034483571619   Change is   -0.000000453618853
 Iteration    14 Dimension    76 NMult    75 NNew      1
 CISAX will form     1 AO SS matrices at one time.
 NMat=     1 NSing=     1 JSym2X= 0.
 Root      1 has converged.
 Root      2 has converged.
 Root      3 not converged, maximum delta is    0.002182875061542
 Root      4 has converged.
 Root      5 has converged.
 Excitation Energies [eV] at current iteration:
 Root      1 :     1.283842896371571   Change is   -0.000000006778974
 Root      2 :     1.895289067414529   Change is   -0.000000048044291
 Root      3 :     2.885940495988975   Change is   -0.000029189344736
 Root      4 :     3.018040264457206   Change is   -0.000000139186977
 Root      5 :     3.033034154136859   Change is   -0.000000329434760
 Iteration    15 Dimension    77 NMult    76 NNew      1
 CISAX will form     1 AO SS matrices at one time.
 NMat=     1 NSing=     1 JSym2X= 0.
 Root      1 has converged.
 Root      2 has converged.
 Root      3 has converged.
 Root      4 has converged.
 Root      5 has converged.
 Excitation Energies [eV] at current iteration:
 Root      1 :     1.283842870325012   Change is   -0.000000026046559
 Root      2 :     1.895289066089904   Change is   -0.000000001324625
 Root      3 :     2.885933299772947   Change is   -0.000007196216028
 Root      4 :     3.018040244247458   Change is   -0.000000020209748
 Root      5 :     3.033034073951585   Change is   -0.000000080185275
 Convergence achieved on expansion vectors.
 ***********************************************************************
 Excited states from <AA,BB:AA,BB> singles matrix:
 ***********************************************************************
 
 1PDM for each excited state written to RWF  633
 Ground to excited state transition densities written to RWF  633
 Ground to excited state transition electric dipole moments (Au):
       state          X           Y           Z        Dip. S.      Osc.
         1        -0.0050     -4.2471     -0.7630     18.6201      0.5857
         2         1.1607     -0.4176      0.2470      1.5826      0.0735
         3        -0.1183      0.0807     -0.0293      0.0214      0.0015
         4         2.5018     -0.4228      0.4594      6.6490      0.4916
         5         2.9203     -0.2385      0.6195      8.9689      0.6665
 Ground to excited state transition velocity dipole moments (Au):
       state          X           Y           Z        Dip. S.      Osc.
         1        -0.0304     -0.0531     -0.0110      0.0039      0.0547
         2        -0.0116      0.0091     -0.0060      0.0003      0.0024
         3         0.0050      0.0006     -0.0072      0.0001      0.0005
         4        -0.0782      0.0181     -0.0167      0.0067      0.0404
         5        -0.0947      0.0129     -0.0188      0.0095      0.0567
 Ground to excited state transition magnetic dipole moments (Au):
       state          X           Y           Z
         1         0.0860     -0.0253      0.2995
         2        -0.1408     -0.1140      0.4575
         3         0.6530     -0.0434      0.0904
         4         0.2175     -0.6942     -0.0088
         5        -0.2358      0.1973      0.2650
 Ground to excited state transition velocity quadrupole moments (Au):
       state          XX          YY          ZZ          XY          XZ          YZ
         1         0.3554      0.1506     -0.0241      0.5951      0.0311      0.0334
         2         0.1273      0.0662     -0.0250     -0.0569      0.0439     -0.0100
         3        -0.0944      0.0489     -0.0026      0.0616      0.0985     -0.1096
         4         1.3920     -0.0971     -0.0320     -0.0096      0.1004      0.0677
         5         1.5653     -0.0335     -0.0438     -0.0186      0.1706      0.0339
 <0|del|b> * <b|rxdel|0> + <0|del|b> * <b|delr+rdel|0>
 Rotatory Strengths (R) in cgs (10**-40 erg-esu-cm/Gauss)
       state          XX          YY          ZZ    R(velocity)    E-M Angle
         1       -51.3046     -2.8584    -14.2823    -22.8151      103.58
         2       -19.5726     -6.8776      4.5093     -7.3136      105.98
         3        -3.9091      8.4527     12.9335      5.8257       63.23
         4       -44.7713    -71.1663    -71.5438    -62.4938      119.52
         5       -13.6202     43.6994     96.0220     42.0337       59.81
 1/2[<0|r|b>*<b|rxdel|0> + (<0|rxdel|b>*<b|r|0>)*]
 Rotatory Strengths (R) in cgs (10**-40 erg-esu-cm/Gauss)
       state          XX          YY          ZZ     R(length)
         1         0.3017    -76.0939    161.6106     28.6061
         2       115.5685    -33.6777    -79.9200      0.6569
         3        54.6322      2.4776      1.8740     19.6613
         4      -384.7345   -207.5772      2.8580   -196.4846
         5       486.9153     33.2672   -116.0957    134.6956
  1/2[<0|del|b>*<b|r|0> + (<0|r|b>*<b|del|0>)*] (Au)
       state          X           Y           Z        Dip. S.   Osc.(frdel)
         1         0.0002      0.2257      0.0084     -0.2343     -0.1562
         2        -0.0135     -0.0038     -0.0015      0.0188      0.0125
         3        -0.0006      0.0000      0.0002      0.0003      0.0002
         4        -0.1957     -0.0076     -0.0077      0.2111      0.1407
         5        -0.2765     -0.0031     -0.0117      0.2912      0.1942

 Excitation energies and oscillator strengths:
 
 Excited State   1:      Singlet-A      1.2838 eV  965.73 nm  f=0.5857  <S**2>=0.000
     175 ->178         0.19905
     176 ->177         0.66059
 This state for optimization and/or second-order correction.
 Total Energy, E(CIS/TDA) =  -474.112598030    
 Copying the excited state density for this state as the 1-particle RhoCI density.
 
 Excited State   2:      Singlet-A      1.8953 eV  654.17 nm  f=0.0735  <S**2>=0.000
     175 ->177         0.56131
     176 ->178        -0.40278
 
 Excited State   3:      Singlet-A      2.8859 eV  429.62 nm  f=0.0015  <S**2>=0.000
     168 ->177         0.30810
     168 ->178        -0.12186
     168 ->179        -0.43590
     168 ->181         0.24031
     168 ->186        -0.22556
     171 ->177        -0.10885
 
 Excited State   4:      Singlet-A      3.0180 eV  410.81 nm  f=0.4916  <S**2>=0.000
     170 ->177        -0.26826
     170 ->179        -0.20642
     170 ->181        -0.29527
     170 ->186        -0.13526
     170 ->188         0.11160
     175 ->177         0.24422
     176 ->178         0.35217
 
 Excited State   5:      Singlet-A      3.0330 eV  408.78 nm  f=0.6665  <S**2>=0.000
     170 ->177         0.19005
     170 ->179         0.15385
     170 ->181         0.22450
     170 ->186         0.10695
     173 ->177         0.16288
     175 ->177         0.28554
     176 ->178         0.42107
 SavETr:  write IOETrn=   770 NScale= 10 NData=  16 NLR=1 NState=    5 LETran=     100.
 Leave Link  914 at Thu May  5 07:58:48 2022, MaxMem=  6710886400 cpu:             127.4 elap:               5.4
 (Enter /sw/apps/gaussian-16.0/g16/l601.exe)
 Copying SCF densities to generalized density rwf, IOpCl= 0 IROHF=0.

 **********************************************************************

            Population analysis using the SCF density.

 **********************************************************************

 Orbital symmetries:
       Occupied  (A) (A) (A) (A) (A) (A) (A) (A) (A) (A) (A) (A)
                 (A) (A) (A) (A) (A) (A) (A) (A) (A) (A) (A) (A)
                 (A) (A) (A) (A) (A) (A) (A) (A) (A) (A) (A) (A)
                 (A) (A) (A) (A) (A) (A) (A) (A) (A) (A) (A) (A)
                 (A) (A) (A) (A) (A) (A) (A) (A) (A) (A) (A) (A)
                 (A) (A) (A) (A) (A) (A) (A) (A) (A) (A) (A) (A)
                 (A) (A) (A) (A) (A) (A) (A) (A) (A) (A) (A) (A)
                 (A) (A) (A) (A) (A) (A) (A) (A) (A) (A) (A) (A)
                 (A) (A) (A) (A) (A) (A) (A) (A) (A) (A) (A) (A)
                 (A) (A) (A) (A) (A) (A) (A) (A) (A) (A) (A) (A)
                 (A) (A) (A) (A) (A) (A) (A) (A) (A) (A) (A) (A)
                 (A) (A) (A) (A) (A) (A) (A) (A) (A) (A) (A) (A)
                 (A) (A) (A) (A) (A) (A) (A) (A) (A) (A) (A) (A)
                 (A) (A) (A) (A) (A) (A) (A) (A) (A) (A) (A) (A)
                 (A) (A) (A) (A) (A) (A) (A) (A)
       Virtual   (A) (A) (A) (A) (A) (A) (A) (A) (A) (A) (A) (A)
                 (A) (A) (A) (A) (A) (A) (A) (A) (A) (A) (A) (A)
                 (A) (A) (A) (A) (A) (A) (A) (A) (A) (A) (A) (A)
                 (A) (A) (A) (A) (A) (A) (A) (A) (A) (A) (A) (A)
                 (A) (A) (A) (A) (A) (A) (A) (A) (A) (A) (A) (A)
                 (A) (A) (A) (A) (A) (A) (A) (A) (A) (A) (A) (A)
                 (A) (A) (A) (A) (A) (A) (A) (A) (A) (A) (A) (A)
                 (A) (A) (A) (A) (A) (A) (A) (A) (A) (A) (A) (A)
                 (A) (A) (A) (A) (A) (A) (A) (A) (A) (A) (A) (A)
                 (A) (A) (A) (A) (A) (A) (A) (A) (A) (A) (A) (A)
                 (A) (A) (A) (A) (A) (A) (A) (A) (A) (A) (A) (A)
                 (A) (A) (A) (A) (A) (A) (A) (A) (A) (A) (A) (A)
                 (A) (A) (A) (A) (A) (A) (A) (A) (A) (A) (A) (A)
                 (A) (A) (A) (A) (A) (A)
 The electronic state is 1-A.
 Alpha  occ. eigenvalues --   -1.84517  -1.81836  -1.80767  -1.72289  -1.71459
 Alpha  occ. eigenvalues --   -1.70404  -1.66293  -1.60172  -1.57610  -1.57352
 Alpha  occ. eigenvalues --   -1.55448  -1.51808  -1.48062  -1.47039  -1.45556
 Alpha  occ. eigenvalues --   -1.42977  -1.42450  -1.39916  -1.38952  -1.36679
 Alpha  occ. eigenvalues --   -1.36181  -1.32693  -1.32525  -1.31599  -1.28572
 Alpha  occ. eigenvalues --   -1.28113  -1.23882  -1.21960  -1.21051  -1.18237
 Alpha  occ. eigenvalues --   -1.17562  -1.17047  -1.14621  -1.14052  -1.12838
 Alpha  occ. eigenvalues --   -1.11495  -1.11286  -1.10680  -1.05938  -1.04133
 Alpha  occ. eigenvalues --   -1.02000  -1.01000  -0.99092  -0.98313  -0.97549
 Alpha  occ. eigenvalues --   -0.96109  -0.95183  -0.94675  -0.93167  -0.92824
 Alpha  occ. eigenvalues --   -0.90959  -0.90256  -0.89981  -0.87832  -0.85783
 Alpha  occ. eigenvalues --   -0.85428  -0.83672  -0.82309  -0.81145  -0.80497
 Alpha  occ. eigenvalues --   -0.80217  -0.79352  -0.79265  -0.77511  -0.76284
 Alpha  occ. eigenvalues --   -0.75128  -0.74743  -0.74232  -0.73749  -0.73201
 Alpha  occ. eigenvalues --   -0.73093  -0.72588  -0.71852  -0.71250  -0.70758
 Alpha  occ. eigenvalues --   -0.70564  -0.69709  -0.69268  -0.68574  -0.67991
 Alpha  occ. eigenvalues --   -0.67768  -0.67730  -0.66372  -0.65827  -0.65579
 Alpha  occ. eigenvalues --   -0.65059  -0.64109  -0.64072  -0.63825  -0.63083
 Alpha  occ. eigenvalues --   -0.62610  -0.62256  -0.61955  -0.61813  -0.61401
 Alpha  occ. eigenvalues --   -0.61099  -0.60908  -0.60524  -0.60390  -0.60263
 Alpha  occ. eigenvalues --   -0.59606  -0.59430  -0.58731  -0.58559  -0.58385
 Alpha  occ. eigenvalues --   -0.57908  -0.57733  -0.57396  -0.56817  -0.56396
 Alpha  occ. eigenvalues --   -0.56261  -0.55405  -0.55024  -0.54671  -0.54563
 Alpha  occ. eigenvalues --   -0.54343  -0.54082  -0.53814  -0.53617  -0.53170
 Alpha  occ. eigenvalues --   -0.52657  -0.52416  -0.51985  -0.51834  -0.51342
 Alpha  occ. eigenvalues --   -0.51245  -0.50883  -0.50553  -0.50435  -0.49980
 Alpha  occ. eigenvalues --   -0.49912  -0.49712  -0.49474  -0.49304  -0.49216
 Alpha  occ. eigenvalues --   -0.48238  -0.48124  -0.48051  -0.47871  -0.47754
 Alpha  occ. eigenvalues --   -0.47617  -0.47247  -0.46968  -0.46853  -0.46433
 Alpha  occ. eigenvalues --   -0.46150  -0.45953  -0.45753  -0.44858  -0.44561
 Alpha  occ. eigenvalues --   -0.44522  -0.44379  -0.44244  -0.43776  -0.43609
 Alpha  occ. eigenvalues --   -0.43394  -0.43299  -0.43105  -0.42882  -0.42449
 Alpha  occ. eigenvalues --   -0.41748  -0.41705  -0.40593  -0.40080  -0.38706
 Alpha  occ. eigenvalues --   -0.37482  -0.36883  -0.35732  -0.34720  -0.34158
 Alpha  occ. eigenvalues --   -0.33290  -0.32026  -0.31448  -0.31222  -0.26221
 Alpha  occ. eigenvalues --   -0.21914
 Alpha virt. eigenvalues --   -0.08454  -0.02152  -0.00635   0.00412   0.01721
 Alpha virt. eigenvalues --    0.03098   0.03267   0.03603   0.04180   0.04942
 Alpha virt. eigenvalues --    0.06581   0.06629   0.06852   0.07372   0.08244
 Alpha virt. eigenvalues --    0.08717   0.08884   0.08928   0.09110   0.09798
 Alpha virt. eigenvalues --    0.09880   0.10200   0.10366   0.10403   0.10535
 Alpha virt. eigenvalues --    0.10865   0.11078   0.11501   0.11674   0.12320
 Alpha virt. eigenvalues --    0.12460   0.12660   0.12898   0.13161   0.13237
 Alpha virt. eigenvalues --    0.13537   0.13714   0.14176   0.14192   0.14574
 Alpha virt. eigenvalues --    0.15069   0.15395   0.15566   0.15638   0.15769
 Alpha virt. eigenvalues --    0.15971   0.15990   0.16564   0.16857   0.17085
 Alpha virt. eigenvalues --    0.17331   0.17615   0.17830   0.18108   0.18342
 Alpha virt. eigenvalues --    0.18417   0.18531   0.18861   0.19576   0.19594
 Alpha virt. eigenvalues --    0.19756   0.19931   0.20265   0.20684   0.21155
 Alpha virt. eigenvalues --    0.22297   0.22374   0.23094   0.23222   0.23274
 Alpha virt. eigenvalues --    0.23639   0.23973   0.24004   0.24051   0.24180
 Alpha virt. eigenvalues --    0.24221   0.24333   0.24389   0.24402   0.24530
 Alpha virt. eigenvalues --    0.24560   0.24646   0.24663   0.24700   0.24918
 Alpha virt. eigenvalues --    0.24924   0.24993   0.25173   0.25272   0.25319
 Alpha virt. eigenvalues --    0.25330   0.25341   0.25436   0.25571   0.25715
 Alpha virt. eigenvalues --    0.25755   0.25769   0.25830   0.25854   0.25968
 Alpha virt. eigenvalues --    0.26078   0.26187   0.26400   0.26455   0.26486
 Alpha virt. eigenvalues --    0.26573   0.26814   0.26841   0.26957   0.27241
 Alpha virt. eigenvalues --    0.27299   0.27525   0.27802   0.27871   0.27884
 Alpha virt. eigenvalues --    0.28045   0.28737   0.28929   0.29270   0.29294
 Alpha virt. eigenvalues --    0.29454   0.29917   0.30145   0.31209   0.31402
 Alpha virt. eigenvalues --    0.32030   0.32895   0.32941   0.33247   0.34600
 Alpha virt. eigenvalues --    0.34850   0.35483   0.36299   0.36360   0.36486
 Alpha virt. eigenvalues --    0.36750   0.37558   0.37902   0.38236   0.38500
 Alpha virt. eigenvalues --    0.39217   0.39345   0.39598   0.39883   0.40527
 Alpha virt. eigenvalues --    0.41115   0.41245   0.41563   0.42308   0.42917
 Alpha virt. eigenvalues --    0.44029   0.44462   0.44870   0.45856   0.46151
 Alpha virt. eigenvalues --    0.47268   0.47694   0.48235   0.51085   0.53194
 Alpha virt. eigenvalues --    0.54401   0.57219
          Condensed to atoms (all electrons):
 Mulliken charges:
               1
     1  Mg   0.421607
     2  C   -0.046923
     3  C   -0.084807
     4  C   -0.069552
     5  C   -0.062337
     6  N   -0.275785
     7  C    0.127400
     8  C    0.009602
     9  C   -0.011388
    10  C    0.145674
    11  C   -0.052297
    12  C   -0.024535
    13  C    0.000605
    14  C    0.455717
    15  O   -0.491491
    16  O   -0.266211
    17  N   -0.337915
    18  C    0.134669
    19  C    0.006970
    20  C   -0.029772
    21  C    0.133070
    22  C   -0.041552
    23  C    0.315861
    24  O   -0.536057
    25  C   -0.032830
    26  N   -0.253195
    27  C    0.154098
    28  C    0.010800
    29  C    0.001937
    30  C    0.102819
    31  C   -0.045622
    32  C   -0.020271
    33  C   -0.061352
    34  N   -0.311673
    35  C    0.083613
    36  C    0.020191
    37  C   -0.069841
    38  C    0.118500
    39  C   -0.036847
    40  C    0.343413
    41  O   -0.521756
    42  C    0.058424
    43  C    0.480114
    44  O   -0.531364
    45  O   -0.279976
    46  C    0.078244
    47  C    0.104838
    48  C   -0.101034
    49  C   -0.000352
    50  C   -0.047091
    51  C   -0.019981
    52  C   -0.029987
    53  C   -0.033472
    54  C   -0.017336
    55  C   -0.051874
    56  C   -0.048001
    57  C   -0.037473
    58  C   -0.037066
    59  C   -0.011990
    60  C   -0.058041
    61  C   -0.032006
    62  C   -0.038689
    63  C   -0.032136
    64  C    0.007959
    65  C   -0.055198
    66  C   -0.060909
    67  H    0.013298
    68  H    0.044023
    69  H    0.026182
    70  H    0.043207
    71  H    0.031199
    72  H    0.019117
    73  H    0.021203
    74  H    0.038470
    75  H    0.017500
    76  H    0.034576
    77  H    0.045753
    78  H    0.034962
    79  H    0.026015
    80  H    0.025206
    81  H    0.030783
    82  H    0.038677
    83  H    0.056569
    84  H    0.040705
    85  H    0.038080
    86  H    0.027873
    87  H    0.019109
    88  H    0.023008
    89  H    0.021707
    90  H    0.013524
    91  H    0.013465
    92  H    0.014247
    93  H    0.028940
    94  H    0.027698
    95  H    0.020911
    96  H    0.036602
    97  H    0.031905
    98  H    0.068005
    99  H    0.064146
   100  H    0.025785
   101  H    0.025737
   102  H    0.054314
   103  H    0.056205
   104  H    0.028041
   105  H    0.035930
   106  H    0.024391
   107  H    0.025447
   108  H    0.019713
   109  H    0.020575
   110  H    0.023229
   111  H    0.014043
   112  H    0.021998
   113  H    0.013867
   114  H    0.021390
   115  H    0.009390
   116  H    0.015950
   117  H    0.024753
   118  H    0.006805
   119  H    0.020425
   120  H    0.027719
   121  H    0.023864
   122  H    0.017335
   123  H    0.018458
   124  H    0.016430
   125  H    0.015570
   126  H    0.011596
   127  H    0.025094
   128  H    0.018208
   129  H    0.013832
   130  H    0.023003
   131  H    0.010886
   132  H    0.021155
   133  H    0.000990
   134  H    0.026071
   135  H    0.001898
   136  H    0.027690
   137  H    0.017341
   138  H    0.009628
   139  H    0.014057
   140  H    0.026384
 Sum of Mulliken charges =  -0.00000
 Mulliken charges with hydrogens summed into heavy atoms:
               1
     1  Mg   0.421607
     2  C   -0.046923
     3  C   -0.071509
     4  C   -0.025529
     5  C   -0.036155
     6  N   -0.275785
     7  C    0.127400
     8  C    0.052808
     9  C    0.019811
    10  C    0.145674
    11  C    0.026493
    12  C    0.027541
    13  C    0.081321
    14  C    0.455717
    15  O   -0.491491
    16  O   -0.266211
    17  N   -0.337915
    18  C    0.134669
    19  C    0.006970
    20  C   -0.029772
    21  C    0.133070
    22  C    0.040451
    23  C    0.315861
    24  O   -0.536057
    25  C    0.103121
    26  N   -0.253195
    27  C    0.154098
    28  C    0.048880
    29  C    0.029810
    30  C    0.102819
    31  C    0.018202
    32  C    0.006718
    33  C    0.009534
    34  N   -0.311673
    35  C    0.083613
    36  C    0.020191
    37  C   -0.069841
    38  C    0.118500
    39  C    0.052571
    40  C    0.343413
    41  O   -0.521756
    42  C    0.126429
    43  C    0.480114
    44  O   -0.531364
    45  O   -0.279976
    46  C    0.193911
    47  C    0.215356
    48  C   -0.072993
    49  C   -0.000352
    50  C    0.038678
    51  C    0.020307
    52  C    0.007285
    53  C    0.002393
    54  C    0.004054
    55  C   -0.001781
    56  C   -0.020771
    57  C    0.014110
    58  C   -0.001273
    59  C    0.004440
    60  C   -0.005781
    61  C    0.000034
    62  C   -0.004799
    63  C   -0.009991
    64  C    0.034031
    65  C   -0.008269
    66  C   -0.010840
 Charge=             -0.0000 electrons
 Dipole moment (field-independent basis, Debye):
    X=              4.9845    Y=              9.8463    Z=              2.2941  Tot=             11.2720
 N-N= 4.296390379447D+03 E-N= 0.000000000000D+00  KE=-9.267246795737D+03
 Leave Link  601 at Thu May  5 07:58:48 2022, MaxMem=  6710886400 cpu:               0.7 elap:               0.0
 (Enter /sw/apps/gaussian-16.0/g16/l9999.exe)
 1\1\GINC-BP1-COMPUTE063\SP\RZINDO CIS\STO-3G\C55H74Mg1N4O6\OF15641\05-
 May-2022\0\\#p ZINDO=(nstates=5)\\step_751_chromophore_10 ZINDO\\0,1\M
 g,0,41.426,8.005,28.735\C,0,43.006,9.343,31.598\C,0,39.129,6.664,30.65
 1\C,0,40.159,6.651,25.888\C,0,44.045,9.37,26.856\N,0,41.167,8.026,30.9
 21\C,0,41.822,8.652,31.883\C,0,41.269,8.284,33.232\C,0,40.1,7.195,32.9
 05\C,0,40.121,7.287,31.425\C,0,40.208,5.708,33.507\C,0,40.705,9.521,33
 .967\C,0,40.998,9.735,35.503\C,0,41.535,11.125,35.979\O,0,42.076,11.94
 9,35.233\O,0,41.083,11.408,37.307\N,0,39.813,6.915,28.358\C,0,38.917,6
 .517,29.303\C,0,37.819,5.808,28.704\C,0,38.057,5.871,27.286\C,0,39.402
 ,6.425,27.089\C,0,36.744,5.04,29.5\C,0,37.079,5.451,26.215\O,0,37.453,
 5.537,25.024\C,0,35.706,4.858,26.533\N,0,42.065,7.975,26.66\C,0,41.42,
 7.315,25.686\C,0,42.102,7.368,24.33\C,0,43.245,8.389,24.61\C,0,43.108,
 8.652,26.146\C,0,42.671,6.036,23.85\C,0,43.115,9.612,23.743\C,0,42.094
 ,10.686,24.165\N,0,43.138,9.241,29.111\C,0,44.036,9.749,28.221\C,0,45.
 12,10.432,28.848\C,0,44.724,10.396,30.243\C,0,43.567,9.551,30.312\C,0,
 46.342,11.072,28.162\C,0,45.065,10.756,31.64\O,0,46.025,11.361,32.14\C
 ,0,43.947,10.17,32.526\C,0,44.571,9.136,33.445\O,0,45.52,8.394,33.147\
 O,0,43.984,9.148,34.701\C,0,44.465,8.219,35.708\C,0,41.45,12.751,37.68
 5\C,0,40.77,12.873,39.003\C,0,41.373,12.714,40.236\C,0,42.793,12.187,4
 0.442\C,0,40.589,12.81,41.533\C,0,39.686,11.568,41.739\C,0,40.13,10.64
 2,42.908\C,0,39.148,10.741,44.16\C,0,39.845,10.244,45.419\C,0,37.683,1
 0.114,43.971\C,0,36.525,10.75,44.819\C,0,35.766,11.831,43.981\C,0,34.3
 54,11.452,43.499\C,0,34.217,11.769,42.\C,0,33.235,12.138,44.388\C,0,33
 .182,11.671,45.837\C,0,33.895,12.592,46.936\C,0,34.794,11.896,47.893\C
 ,0,33.852,11.105,48.75\C,0,35.676,12.88,48.676\H,0,38.253,6.369,31.232
 \H,0,39.779,6.255,24.944\H,0,44.858,9.887,26.343\H,0,42.079,7.748,33.7
 28\H,0,39.109,7.497,33.242\H,0,39.285,5.573,34.071\H,0,41.026,5.786,34
 .223\H,0,40.366,4.878,32.819\H,0,39.617,9.492,33.901\H,0,40.982,10.404
 ,33.391\H,0,41.687,8.947,35.808\H,0,40.048,9.468,35.965\H,0,35.908,5.7
 26,29.639\H,0,37.014,4.794,30.527\H,0,36.323,4.128,29.078\H,0,35.301,5
 .568,27.255\H,0,35.858,3.811,26.795\H,0,35.171,4.99,25.593\H,0,41.369,
 7.718,23.604\H,0,44.243,7.978,24.458\H,0,42.754,6.062,22.763\H,0,42.04
 9,5.193,24.151\H,0,43.668,5.861,24.256\H,0,42.903,9.262,22.733\H,0,44.
 131,10.002,23.679\H,0,42.705,11.575,24.32\H,0,41.701,10.682,25.182\H,0
 ,41.283,10.823,23.45\H,0,46.391,10.886,27.089\H,0,47.239,10.708,28.663
 \H,0,46.402,12.16,28.189\H,0,43.339,10.833,33.141\H,0,45.472,7.811,35.
 628\H,0,43.694,7.45,35.764\H,0,44.387,8.734,36.665\H,0,40.97,13.484,37
 .037\H,0,42.515,12.839,37.901\H,0,39.764,13.283,38.91\H,0,43.614,12.81
 3,40.091\H,0,42.753,11.332,39.768\H,0,42.993,11.818,41.448\H,0,39.858,
 13.616,41.607\H,0,41.248,12.931,42.393\H,0,39.493,11.008,40.824\H,0,38
 .701,11.995,41.925\H,0,41.157,10.777,43.249\H,0,40.189,9.595,42.61\H,0
 ,38.784,11.76,44.287\H,0,39.231,10.462,46.293\H,0,40.757,10.818,45.581
 \H,0,40.019,9.168,45.433\H,0,37.566,9.094,44.337\H,0,37.52,10.029,42.8
 97\H,0,37.001,11.173,45.704\H,0,35.831,9.943,45.057\H,0,36.367,12.038,
 43.095\H,0,35.673,12.761,44.541\H,0,34.274,10.366,43.545\H,0,33.17,11.
 722,41.7\H,0,34.69,10.955,41.452\H,0,34.723,12.702,41.751\H,0,32.241,1
 2.137,43.941\H,0,33.517,13.189,44.323\H,0,33.556,10.651,45.921\H,0,32.
 13,11.668,46.123\H,0,33.209,13.239,47.481\H,0,34.446,13.275,46.289\H,0
 ,35.436,11.23,47.316\H,0,34.275,10.103,48.688\H,0,32.804,10.968,48.484
 \H,0,33.926,11.322,49.816\H,0,36.677,12.459,48.58\H,0,35.483,12.884,49
 .749\H,0,35.734,13.945,48.451\\Version=ES64L-G16RevA.03\State=1-A\HF=-
 474.1597784\RMSD=4.648e-09\PG=C01 [X(C55H74Mg1N4O6)]\\@


 Boundary, n.  In political geography, an imaginary
 line between two nations, separating the imaginary
 rights of one from the imaginary rights of another.
                               -- Ambrose Bierce
 Job cpu time:       0 days  0 hours  2 minutes 53.1 seconds.
 Elapsed time:       0 days  0 hours  0 minutes  7.6 seconds.
 File lengths (MBytes):  RWF=   1273 Int=      0 D2E=      0 Chk=     38 Scr=      1
 Normal termination of Gaussian 16 at Thu May  5 07:58:48 2022.
