 Entering Gaussian System, Link 0=g16
 Initial command:
 /sw/apps/gaussian-16.0/g16/l1.exe "/tmp/Gau-48830.inp" -scrdir="/tmp/"
 Entering Link 1 = /sw/apps/gaussian-16.0/g16/l1.exe PID=     48831.
  
 Copyright (c) 1988,1990,1992,1993,1995,1998,2003,2009,2016,
            Gaussian, Inc.  All Rights Reserved.
  
 This is part of the Gaussian(R) 16 program.  It is based on
 the Gaussian(R) 09 system (copyright 2009, Gaussian, Inc.),
 the Gaussian(R) 03 system (copyright 2003, Gaussian, Inc.),
 the Gaussian(R) 98 system (copyright 1998, Gaussian, Inc.),
 the Gaussian(R) 94 system (copyright 1995, Gaussian, Inc.),
 the Gaussian 92(TM) system (copyright 1992, Gaussian, Inc.),
 the Gaussian 90(TM) system (copyright 1990, Gaussian, Inc.),
 the Gaussian 88(TM) system (copyright 1988, Gaussian, Inc.),
 the Gaussian 86(TM) system (copyright 1986, Carnegie Mellon
 University), and the Gaussian 82(TM) system (copyright 1983,
 Carnegie Mellon University). Gaussian is a federally registered
 trademark of Gaussian, Inc.
  
 This software contains proprietary and confidential information,
 including trade secrets, belonging to Gaussian, Inc.
  
 This software is provided under written license and may be
 used, copied, transmitted, or stored only in accord with that
 written license.
  
 The following legend is applicable only to US Government
 contracts under FAR:
  
                    RESTRICTED RIGHTS LEGEND
  
 Use, reproduction and disclosure by the US Government is
 subject to restrictions as set forth in subparagraphs (a)
 and (c) of the Commercial Computer Software - Restricted
 Rights clause in FAR 52.227-19.
  
 Gaussian, Inc.
 340 Quinnipiac St., Bldg. 40, Wallingford CT 06492
  
  
 ---------------------------------------------------------------
 Warning -- This program may not be used in any manner that
 competes with the business of Gaussian, Inc. or will provide
 assistance to any competitor of Gaussian, Inc.  The licensee
 of this program is prohibited from giving any competitor of
 Gaussian, Inc. access to this program.  By using this program,
 the user acknowledges that Gaussian, Inc. is engaged in the
 business of creating and licensing software in the field of
 computational chemistry and represents and warrants to the
 licensee that it is not a competitor of Gaussian, Inc. and that
 it will not use this program in any manner prohibited above.
 ---------------------------------------------------------------
  

 Cite this work as:
 Gaussian 16, Revision A.03,
 M. J. Frisch, G. W. Trucks, H. B. Schlegel, G. E. Scuseria, 
 M. A. Robb, J. R. Cheeseman, G. Scalmani, V. Barone, 
 G. A. Petersson, H. Nakatsuji, X. Li, M. Caricato, A. V. Marenich, 
 J. Bloino, B. G. Janesko, R. Gomperts, B. Mennucci, H. P. Hratchian, 
 J. V. Ortiz, A. F. Izmaylov, J. L. Sonnenberg, D. Williams-Young, 
 F. Ding, F. Lipparini, F. Egidi, J. Goings, B. Peng, A. Petrone, 
 T. Henderson, D. Ranasinghe, V. G. Zakrzewski, J. Gao, N. Rega, 
 G. Zheng, W. Liang, M. Hada, M. Ehara, K. Toyota, R. Fukuda, 
 J. Hasegawa, M. Ishida, T. Nakajima, Y. Honda, O. Kitao, H. Nakai, 
 T. Vreven, K. Throssell, J. A. Montgomery, Jr., J. E. Peralta, 
 F. Ogliaro, M. J. Bearpark, J. J. Heyd, E. N. Brothers, K. N. Kudin, 
 V. N. Staroverov, T. A. Keith, R. Kobayashi, J. Normand, 
 K. Raghavachari, A. P. Rendell, J. C. Burant, S. S. Iyengar, 
 J. Tomasi, M. Cossi, J. M. Millam, M. Klene, C. Adamo, R. Cammi, 
 J. W. Ochterski, R. L. Martin, K. Morokuma, O. Farkas, 
 J. B. Foresman, and D. J. Fox, Gaussian, Inc., Wallingford CT, 2016.
 
 ******************************************
 Gaussian 16:  ES64L-G16RevA.03 25-Dec-2016
                30-Apr-2022 
 ******************************************
 %nproc=24
 Will use up to   24 processors via shared memory.
 %mem=75GB
 ---------------------------------
 #p PBE1PBE/Def2SVP td=(nstates=5)
 ---------------------------------
 1/38=1,172=1/1;
 2/12=2,17=6,18=5,40=1/2;
 3/5=43,7=101,11=9,25=1,30=1,74=-13/1,2,3,8;
 4//1;
 5/5=2,38=5/2;
 8/6=1,10=1,108=5/1;
 9/41=5,42=1,70=2/14;
 6/7=2,8=2,9=2,10=2/1;
 99/5=1,9=1/99;
 Leave Link    1 at Sat Apr 30 10:32:07 2022, MaxMem= 10066329600 cpu:               0.6 elap:               0.0
 (Enter /sw/apps/gaussian-16.0/g16/l101.exe)
 -----------------------------------------------------
 step_701_chromophore_23 TDDFT with PBE1PBE functional
 -----------------------------------------------------
 Symbolic Z-matrix:
 Charge =  0 Multiplicity = 1
 Mg                   -11.007    40.418    42.528 
 C                    -9.157     37.505    41.458 
 C                    -8.701     42.338    40.758 
 C                    -12.981    42.956    42.986 
 C                    -13.588    38.084    43.472 
 N                    -9.12      39.965    41.25 
 C                    -8.551     38.736    41.001 
 C                    -7.214     38.82     40.196 
 C                    -7.002     40.349    40.208 
 C                    -8.349     40.963    40.811 
 C                    -5.738     40.768    40.821 
 C                    -7.33      38.186    38.787 
 C                    -6.778     36.814    38.533 
 C                    -5.792     36.608    37.409 
 O                    -4.718     37.248    37.303 
 O                    -6.132     35.568    36.571 
 N                    -10.848    42.424    42.035 
 C                    -9.814     43.075    41.292 
 C                    -10.101    44.505    41.19 
 C                    -11.301    44.704    41.96 
 C                    -11.803    43.318    42.311 
 C                    -9.192     45.435    40.519 
 C                    -11.955    46.036    42.244 
 O                    -11.531    47.086    41.819 
 C                    -13.18     46.198    42.99 
 N                    -12.937    40.486    43.179 
 C                    -13.554    41.697    43.327 
 C                    -15.053    41.637    43.781 
 C                    -15.235    40.044    43.786 
 C                    -13.885    39.464    43.45 
 C                    -15.33     42.29     45.151 
 C                    -16.279    39.412    42.787 
 C                    -17.594    38.909    43.387 
 N                    -11.313    38.321    42.551 
 C                    -12.389    37.541    42.989 
 C                    -11.941    36.175    43.093 
 C                    -10.729    36.113    42.421 
 C                    -10.41     37.471    42.081 
 C                    -12.764    35.041    43.645 
 C                    -9.694     35.179    42.037 
 O                    -9.616     33.939    42.057 
 C                    -8.626     36.072    41.483 
 C                    -7.378     35.998    42.302 
 O                    -7.026     36.642    43.297 
 O                    -6.515     35.14     41.675 
 C                    -5.344     34.554    42.448 
 C                    -5.286     35.358    35.42 
 C                    -5.976     35.569    34.08 
 C                    -6.032     36.608    33.281 
 C                    -5.369     37.957    33.673 
 C                    -6.734     36.589    31.95 
 C                    -5.803     36.372    30.757 
 C                    -6.328     35.615    29.604 
 C                    -5.855     36.342    28.278 
 C                    -5.277     35.221    27.395 
 C                    -7.055     37.038    27.561 
 C                    -7.58      38.268    28.283 
 C                    -9.091     38.526    28.149 
 C                    -9.715     39.158    29.425 
 C                    -10.425    38.173    30.345 
 C                    -10.716    40.291    28.937 
 C                    -9.93      41.651    28.818 
 C                    -9.656     42.335    30.172 
 C                    -8.17      42.452    30.586 
 C                    -7.933     41.987    32.075 
 C                    -7.829     44.002    30.541 
 H                    -7.915     42.935    40.289 
 H                    -13.718    43.758    42.909 
 H                    -14.414    37.467    43.831 
 H                    -6.426     38.423    40.837 
 H                    -6.839     40.758    39.211 
 H                    -5.461     41.822    40.792 
 H                    -4.9       40.314    40.292 
 H                    -5.715     40.441    41.861 
 H                    -6.849     38.853    38.071 
 H                    -8.374     38.228    38.478 
 H                    -7.632     36.165    38.339 
 H                    -6.393     36.506    39.505 
 H                    -9.019     46.254    41.217 
 H                    -9.604     45.741    39.557 
 H                    -8.221     45.007    40.27 
 H                    -13.089    45.584    43.886 
 H                    -13.99     45.825    42.363 
 H                    -13.332    47.255    43.209 
 H                    -15.805    42.133    43.167 
 H                    -15.348    39.76     44.833 
 H                    -14.46     42.299    45.807 
 H                    -16.123    41.811    45.725 
 H                    -15.619    43.335    45.042 
 H                    -15.781    38.633    42.209 
 H                    -16.544    40.289    42.197 
 H                    -17.913    39.642    44.128 
 H                    -17.255    38.007    43.896 
 H                    -18.355    38.542    42.698 
 H                    -12.068    34.24     43.893 
 H                    -13.444    34.666    42.88 
 H                    -13.369    35.309    44.512 
 H                    -8.399     35.668    40.497 
 H                    -4.554     34.156    41.812 
 H                    -5.78      33.664    42.9 
 H                    -4.93      35.215    43.21 
 H                    -4.8       34.39     35.299 
 H                    -4.47      36.074    35.33 
 H                    -6.48      34.686    33.687 
 H                    -4.402     37.947    34.174 
 H                    -6.082     38.373    34.385 
 H                    -5.355     38.7      32.876 
 H                    -7.163     37.591    31.929 
 H                    -7.502     35.825    32.07 
 H                    -4.931     35.911    31.221 
 H                    -5.418     37.353    30.477 
 H                    -7.412     35.658    29.504 
 H                    -5.948     34.601    29.726 
 H                    -5.098     37.124    28.335 
 H                    -4.188     35.277    27.373 
 H                    -5.599     35.265    26.355 
 H                    -5.645     34.244    27.709 
 H                    -7.792     36.269    27.328 
 H                    -6.595     37.33     26.617 
 H                    -7.067     39.022    27.687 
 H                    -7.291     38.25     29.334 
 H                    -9.427     37.499    28.003 
 H                    -9.246     39.014    27.186 
 H                    -9.012     39.646    30.1 
 H                    -11.476    38.16     30.059 
 H                    -10.275    38.618    31.329 
 H                    -10.093    37.136    30.296 
 H                    -11.594    40.495    29.551 
 H                    -11.035    39.983    27.941 
 H                    -10.404    42.349    28.127 
 H                    -8.985     41.497    28.297 
 H                    -10.179    41.951    31.048 
 H                    -10.071    43.343    30.178 
 H                    -7.546     41.848    29.927 
 H                    -7.834     40.904    32.141 
 H                    -8.72      42.282    32.77 
 H                    -7.024     42.459    32.447 
 H                    -8.452     44.666    29.943 
 H                    -6.874     44.033    30.017 
 H                    -7.622     44.443    31.516 
 
 ITRead=  0  0  0  0  0  0  0  0  0  0  0  0  0  0  0  0  0  0  0  0
 ITRead=  0  0  0  0  0  0  0  0  0  0  0  0  0  0  0  0  0  0  0  0
 ITRead=  0  0  0  0  0  0  0  0  0  0  0  0  0  0  0  0  0  0  0  0
 ITRead=  0  0  0  0  0  0  0  0  0  0  0  0  0  0  0  0  0  0  0  0
 ITRead=  0  0  0  0  0  0  0  0  0  0  0  0  0  0  0  0  0  0  0  0
 ITRead=  0  0  0  0  0  0  0  0  0  0  0  0  0  0  0  0  0  0  0  0
 ITRead=  0  0  0  0  0  0  0  0  0  0  0  0  0  0  0  0  0  0  0  0
 MicOpt= -1 -1 -1 -1 -1 -1 -1 -1 -1 -1 -1 -1 -1 -1 -1 -1 -1 -1 -1 -1
 MicOpt= -1 -1 -1 -1 -1 -1 -1 -1 -1 -1 -1 -1 -1 -1 -1 -1 -1 -1 -1 -1
 MicOpt= -1 -1 -1 -1 -1 -1 -1 -1 -1 -1 -1 -1 -1 -1 -1 -1 -1 -1 -1 -1
 MicOpt= -1 -1 -1 -1 -1 -1 -1 -1 -1 -1 -1 -1 -1 -1 -1 -1 -1 -1 -1 -1
 MicOpt= -1 -1 -1 -1 -1 -1 -1 -1 -1 -1 -1 -1 -1 -1 -1 -1 -1 -1 -1 -1
 MicOpt= -1 -1 -1 -1 -1 -1 -1 -1 -1 -1 -1 -1 -1 -1 -1 -1 -1 -1 -1 -1
 MicOpt= -1 -1 -1 -1 -1 -1 -1 -1 -1 -1 -1 -1 -1 -1 -1 -1 -1 -1 -1 -1
 NAtoms=    140 NQM=      140 NQMF=       0 NMMI=      0 NMMIF=      0
                NMic=       0 NMicF=      0.
                    Isotopes and Nuclear Properties:
 (Nuclear quadrupole moments (NQMom) in fm**2, nuclear magnetic moments (NMagM)
  in nuclear magnetons)

  Atom         1           2           3           4           5           6           7           8           9          10
 IAtWgt=          24          12          12          12          12          14          12          12          12          12
 AtmWgt=  23.9850450  12.0000000  12.0000000  12.0000000  12.0000000  14.0030740  12.0000000  12.0000000  12.0000000  12.0000000
 NucSpn=           0           0           0           0           0           2           0           0           0           0
 AtZEff=  -0.0000000  -0.0000000  -0.0000000  -0.0000000  -0.0000000  -0.0000000  -0.0000000  -0.0000000  -0.0000000  -0.0000000
 NQMom=    0.0000000   0.0000000   0.0000000   0.0000000   0.0000000   2.0440000   0.0000000   0.0000000   0.0000000   0.0000000
 NMagM=    0.0000000   0.0000000   0.0000000   0.0000000   0.0000000   0.4037610   0.0000000   0.0000000   0.0000000   0.0000000
 AtZNuc=  12.0000000   6.0000000   6.0000000   6.0000000   6.0000000   7.0000000   6.0000000   6.0000000   6.0000000   6.0000000

  Atom        11          12          13          14          15          16          17          18          19          20
 IAtWgt=          12          12          12          12          16          16          14          12          12          12
 AtmWgt=  12.0000000  12.0000000  12.0000000  12.0000000  15.9949146  15.9949146  14.0030740  12.0000000  12.0000000  12.0000000
 NucSpn=           0           0           0           0           0           0           2           0           0           0
 AtZEff=  -0.0000000  -0.0000000  -0.0000000  -0.0000000  -0.0000000  -0.0000000  -0.0000000  -0.0000000  -0.0000000  -0.0000000
 NQMom=    0.0000000   0.0000000   0.0000000   0.0000000   0.0000000   0.0000000   2.0440000   0.0000000   0.0000000   0.0000000
 NMagM=    0.0000000   0.0000000   0.0000000   0.0000000   0.0000000   0.0000000   0.4037610   0.0000000   0.0000000   0.0000000
 AtZNuc=   6.0000000   6.0000000   6.0000000   6.0000000   8.0000000   8.0000000   7.0000000   6.0000000   6.0000000   6.0000000

  Atom        21          22          23          24          25          26          27          28          29          30
 IAtWgt=          12          12          12          16          12          14          12          12          12          12
 AtmWgt=  12.0000000  12.0000000  12.0000000  15.9949146  12.0000000  14.0030740  12.0000000  12.0000000  12.0000000  12.0000000
 NucSpn=           0           0           0           0           0           2           0           0           0           0
 AtZEff=  -0.0000000  -0.0000000  -0.0000000  -0.0000000  -0.0000000  -0.0000000  -0.0000000  -0.0000000  -0.0000000  -0.0000000
 NQMom=    0.0000000   0.0000000   0.0000000   0.0000000   0.0000000   2.0440000   0.0000000   0.0000000   0.0000000   0.0000000
 NMagM=    0.0000000   0.0000000   0.0000000   0.0000000   0.0000000   0.4037610   0.0000000   0.0000000   0.0000000   0.0000000
 AtZNuc=   6.0000000   6.0000000   6.0000000   8.0000000   6.0000000   7.0000000   6.0000000   6.0000000   6.0000000   6.0000000

  Atom        31          32          33          34          35          36          37          38          39          40
 IAtWgt=          12          12          12          14          12          12          12          12          12          12
 AtmWgt=  12.0000000  12.0000000  12.0000000  14.0030740  12.0000000  12.0000000  12.0000000  12.0000000  12.0000000  12.0000000
 NucSpn=           0           0           0           2           0           0           0           0           0           0
 AtZEff=  -0.0000000  -0.0000000  -0.0000000  -0.0000000  -0.0000000  -0.0000000  -0.0000000  -0.0000000  -0.0000000  -0.0000000
 NQMom=    0.0000000   0.0000000   0.0000000   2.0440000   0.0000000   0.0000000   0.0000000   0.0000000   0.0000000   0.0000000
 NMagM=    0.0000000   0.0000000   0.0000000   0.4037610   0.0000000   0.0000000   0.0000000   0.0000000   0.0000000   0.0000000
 AtZNuc=   6.0000000   6.0000000   6.0000000   7.0000000   6.0000000   6.0000000   6.0000000   6.0000000   6.0000000   6.0000000

  Atom        41          42          43          44          45          46          47          48          49          50
 IAtWgt=          16          12          12          16          16          12          12          12          12          12
 AtmWgt=  15.9949146  12.0000000  12.0000000  15.9949146  15.9949146  12.0000000  12.0000000  12.0000000  12.0000000  12.0000000
 NucSpn=           0           0           0           0           0           0           0           0           0           0
 AtZEff=  -0.0000000  -0.0000000  -0.0000000  -0.0000000  -0.0000000  -0.0000000  -0.0000000  -0.0000000  -0.0000000  -0.0000000
 NQMom=    0.0000000   0.0000000   0.0000000   0.0000000   0.0000000   0.0000000   0.0000000   0.0000000   0.0000000   0.0000000
 NMagM=    0.0000000   0.0000000   0.0000000   0.0000000   0.0000000   0.0000000   0.0000000   0.0000000   0.0000000   0.0000000
 AtZNuc=   8.0000000   6.0000000   6.0000000   8.0000000   8.0000000   6.0000000   6.0000000   6.0000000   6.0000000   6.0000000

  Atom        51          52          53          54          55          56          57          58          59          60
 IAtWgt=          12          12          12          12          12          12          12          12          12          12
 AtmWgt=  12.0000000  12.0000000  12.0000000  12.0000000  12.0000000  12.0000000  12.0000000  12.0000000  12.0000000  12.0000000
 NucSpn=           0           0           0           0           0           0           0           0           0           0
 AtZEff=  -0.0000000  -0.0000000  -0.0000000  -0.0000000  -0.0000000  -0.0000000  -0.0000000  -0.0000000  -0.0000000  -0.0000000
 NQMom=    0.0000000   0.0000000   0.0000000   0.0000000   0.0000000   0.0000000   0.0000000   0.0000000   0.0000000   0.0000000
 NMagM=    0.0000000   0.0000000   0.0000000   0.0000000   0.0000000   0.0000000   0.0000000   0.0000000   0.0000000   0.0000000
 AtZNuc=   6.0000000   6.0000000   6.0000000   6.0000000   6.0000000   6.0000000   6.0000000   6.0000000   6.0000000   6.0000000

  Atom        61          62          63          64          65          66          67          68          69          70
 IAtWgt=          12          12          12          12          12          12           1           1           1           1
 AtmWgt=  12.0000000  12.0000000  12.0000000  12.0000000  12.0000000  12.0000000   1.0078250   1.0078250   1.0078250   1.0078250
 NucSpn=           0           0           0           0           0           0           1           1           1           1
 AtZEff=  -0.0000000  -0.0000000  -0.0000000  -0.0000000  -0.0000000  -0.0000000  -0.0000000  -0.0000000  -0.0000000  -0.0000000
 NQMom=    0.0000000   0.0000000   0.0000000   0.0000000   0.0000000   0.0000000   0.0000000   0.0000000   0.0000000   0.0000000
 NMagM=    0.0000000   0.0000000   0.0000000   0.0000000   0.0000000   0.0000000   2.7928460   2.7928460   2.7928460   2.7928460
 AtZNuc=   6.0000000   6.0000000   6.0000000   6.0000000   6.0000000   6.0000000   1.0000000   1.0000000   1.0000000   1.0000000

  Atom        71          72          73          74          75          76          77          78          79          80
 IAtWgt=           1           1           1           1           1           1           1           1           1           1
 AtmWgt=   1.0078250   1.0078250   1.0078250   1.0078250   1.0078250   1.0078250   1.0078250   1.0078250   1.0078250   1.0078250
 NucSpn=           1           1           1           1           1           1           1           1           1           1
 AtZEff=  -0.0000000  -0.0000000  -0.0000000  -0.0000000  -0.0000000  -0.0000000  -0.0000000  -0.0000000  -0.0000000  -0.0000000
 NQMom=    0.0000000   0.0000000   0.0000000   0.0000000   0.0000000   0.0000000   0.0000000   0.0000000   0.0000000   0.0000000
 NMagM=    2.7928460   2.7928460   2.7928460   2.7928460   2.7928460   2.7928460   2.7928460   2.7928460   2.7928460   2.7928460
 AtZNuc=   1.0000000   1.0000000   1.0000000   1.0000000   1.0000000   1.0000000   1.0000000   1.0000000   1.0000000   1.0000000

  Atom        81          82          83          84          85          86          87          88          89          90
 IAtWgt=           1           1           1           1           1           1           1           1           1           1
 AtmWgt=   1.0078250   1.0078250   1.0078250   1.0078250   1.0078250   1.0078250   1.0078250   1.0078250   1.0078250   1.0078250
 NucSpn=           1           1           1           1           1           1           1           1           1           1
 AtZEff=  -0.0000000  -0.0000000  -0.0000000  -0.0000000  -0.0000000  -0.0000000  -0.0000000  -0.0000000  -0.0000000  -0.0000000
 NQMom=    0.0000000   0.0000000   0.0000000   0.0000000   0.0000000   0.0000000   0.0000000   0.0000000   0.0000000   0.0000000
 NMagM=    2.7928460   2.7928460   2.7928460   2.7928460   2.7928460   2.7928460   2.7928460   2.7928460   2.7928460   2.7928460
 AtZNuc=   1.0000000   1.0000000   1.0000000   1.0000000   1.0000000   1.0000000   1.0000000   1.0000000   1.0000000   1.0000000

  Atom        91          92          93          94          95          96          97          98          99         100
 IAtWgt=           1           1           1           1           1           1           1           1           1           1
 AtmWgt=   1.0078250   1.0078250   1.0078250   1.0078250   1.0078250   1.0078250   1.0078250   1.0078250   1.0078250   1.0078250
 NucSpn=           1           1           1           1           1           1           1           1           1           1
 AtZEff=  -0.0000000  -0.0000000  -0.0000000  -0.0000000  -0.0000000  -0.0000000  -0.0000000  -0.0000000  -0.0000000  -0.0000000
 NQMom=    0.0000000   0.0000000   0.0000000   0.0000000   0.0000000   0.0000000   0.0000000   0.0000000   0.0000000   0.0000000
 NMagM=    2.7928460   2.7928460   2.7928460   2.7928460   2.7928460   2.7928460   2.7928460   2.7928460   2.7928460   2.7928460
 AtZNuc=   1.0000000   1.0000000   1.0000000   1.0000000   1.0000000   1.0000000   1.0000000   1.0000000   1.0000000   1.0000000

  Atom       101         102         103         104         105         106         107         108         109         110
 IAtWgt=           1           1           1           1           1           1           1           1           1           1
 AtmWgt=   1.0078250   1.0078250   1.0078250   1.0078250   1.0078250   1.0078250   1.0078250   1.0078250   1.0078250   1.0078250
 NucSpn=           1           1           1           1           1           1           1           1           1           1
 AtZEff=  -0.0000000  -0.0000000  -0.0000000  -0.0000000  -0.0000000  -0.0000000  -0.0000000  -0.0000000  -0.0000000  -0.0000000
 NQMom=    0.0000000   0.0000000   0.0000000   0.0000000   0.0000000   0.0000000   0.0000000   0.0000000   0.0000000   0.0000000
 NMagM=    2.7928460   2.7928460   2.7928460   2.7928460   2.7928460   2.7928460   2.7928460   2.7928460   2.7928460   2.7928460
 AtZNuc=   1.0000000   1.0000000   1.0000000   1.0000000   1.0000000   1.0000000   1.0000000   1.0000000   1.0000000   1.0000000

  Atom       111         112         113         114         115         116         117         118         119         120
 IAtWgt=           1           1           1           1           1           1           1           1           1           1
 AtmWgt=   1.0078250   1.0078250   1.0078250   1.0078250   1.0078250   1.0078250   1.0078250   1.0078250   1.0078250   1.0078250
 NucSpn=           1           1           1           1           1           1           1           1           1           1
 AtZEff=  -0.0000000  -0.0000000  -0.0000000  -0.0000000  -0.0000000  -0.0000000  -0.0000000  -0.0000000  -0.0000000  -0.0000000
 NQMom=    0.0000000   0.0000000   0.0000000   0.0000000   0.0000000   0.0000000   0.0000000   0.0000000   0.0000000   0.0000000
 NMagM=    2.7928460   2.7928460   2.7928460   2.7928460   2.7928460   2.7928460   2.7928460   2.7928460   2.7928460   2.7928460
 AtZNuc=   1.0000000   1.0000000   1.0000000   1.0000000   1.0000000   1.0000000   1.0000000   1.0000000   1.0000000   1.0000000

  Atom       121         122         123         124         125         126         127         128         129         130
 IAtWgt=           1           1           1           1           1           1           1           1           1           1
 AtmWgt=   1.0078250   1.0078250   1.0078250   1.0078250   1.0078250   1.0078250   1.0078250   1.0078250   1.0078250   1.0078250
 NucSpn=           1           1           1           1           1           1           1           1           1           1
 AtZEff=  -0.0000000  -0.0000000  -0.0000000  -0.0000000  -0.0000000  -0.0000000  -0.0000000  -0.0000000  -0.0000000  -0.0000000
 NQMom=    0.0000000   0.0000000   0.0000000   0.0000000   0.0000000   0.0000000   0.0000000   0.0000000   0.0000000   0.0000000
 NMagM=    2.7928460   2.7928460   2.7928460   2.7928460   2.7928460   2.7928460   2.7928460   2.7928460   2.7928460   2.7928460
 AtZNuc=   1.0000000   1.0000000   1.0000000   1.0000000   1.0000000   1.0000000   1.0000000   1.0000000   1.0000000   1.0000000

  Atom       131         132         133         134         135         136         137         138         139         140
 IAtWgt=           1           1           1           1           1           1           1           1           1           1
 AtmWgt=   1.0078250   1.0078250   1.0078250   1.0078250   1.0078250   1.0078250   1.0078250   1.0078250   1.0078250   1.0078250
 NucSpn=           1           1           1           1           1           1           1           1           1           1
 AtZEff=  -0.0000000  -0.0000000  -0.0000000  -0.0000000  -0.0000000  -0.0000000  -0.0000000  -0.0000000  -0.0000000  -0.0000000
 NQMom=    0.0000000   0.0000000   0.0000000   0.0000000   0.0000000   0.0000000   0.0000000   0.0000000   0.0000000   0.0000000
 NMagM=    2.7928460   2.7928460   2.7928460   2.7928460   2.7928460   2.7928460   2.7928460   2.7928460   2.7928460   2.7928460
 AtZNuc=   1.0000000   1.0000000   1.0000000   1.0000000   1.0000000   1.0000000   1.0000000   1.0000000   1.0000000   1.0000000
 Leave Link  101 at Sat Apr 30 10:32:07 2022, MaxMem= 10066329600 cpu:               2.9 elap:               0.1
 (Enter /sw/apps/gaussian-16.0/g16/l202.exe)
 Stoichiometry    C55H74MgN4O6
 Framework group  C1[X(C55H74MgN4O6)]
 Deg. of freedom   414
 Full point group                 C1      NOp   1
 Largest Abelian subgroup         C1      NOp   1
 Largest concise Abelian subgroup C1      NOp   1
                         Standard orientation:                         
 ---------------------------------------------------------------------
 Center     Atomic      Atomic             Coordinates (Angstroms)
 Number     Number       Type             X           Y           Z
 ---------------------------------------------------------------------
      1         12           0        4.820155    0.258034   -0.301614
      2          6           0        2.682740   -2.652292   -0.181483
      3          6           0        2.696612    1.521405   -2.757504
      4          6           0        6.376078    3.091721    0.010156
      5          6           0        6.212930   -0.985960    2.782686
      6          7           0        2.895683   -0.495218   -1.363820
      7          6           0        2.255372   -1.700877   -1.183287
      8          6           0        1.052823   -1.919673   -2.157276
      9          6           0        1.247473   -0.700842   -3.084363
     10          6           0        2.386422    0.183654   -2.394815
     11          6           0        1.430332   -1.052125   -4.495812
     12          6           0       -0.307549   -1.968908   -1.417238
     13          6           0       -0.970636   -3.288484   -1.151457
     14          6           0       -2.390074   -3.511293   -1.613582
     15          8           0       -2.762348   -3.368081   -2.803210
     16          8           0       -3.214827   -3.997578   -0.622244
     17          7           0        4.650750    2.066858   -1.297518
     18          6           0        3.709496    2.437566   -2.308271
     19          6           0        3.960796    3.811399   -2.740824
     20          6           0        5.130279    4.227676   -2.011766
     21          6           0        5.396860    3.134673   -0.996640
     22          6           0        3.177626    4.449206   -3.799724
     23          6           0        5.850556    5.545132   -2.179420
     24          8           0        5.486864    6.405717   -2.947549
     25          6           0        7.000643    5.947533   -1.405626
     26          7           0        6.118742    0.897777    1.132863
     27          6           0        6.680362    2.139604    1.025328
     28          6           0        7.622403    2.556238    2.206722
     29          6           0        7.421803    1.264980    3.135814
     30          6           0        6.532807    0.323806    2.364016
     31          6           0        9.090486    2.794492    1.796838
     32          6           0        6.769706    1.466353    4.557636
     33          6           0        7.705031    1.382344    5.766083
     34          7           0        4.594883   -1.419850    0.973350
     35          6           0        5.249091   -1.787267    2.154466
     36          6           0        4.953000   -3.172647    2.420042
     37          6           0        3.892488   -3.507558    1.590874
     38          6           0        3.696599   -2.367324    0.740568
     39          6           0        5.561558   -3.982531    3.534373
     40          6           0        3.011827   -4.608067    1.267838
     41          8           0        2.792046   -5.707947    1.802670
     42          6           0        2.273085   -4.103892    0.065733
     43          6           0        2.567269   -4.936005   -1.140412
     44          8           0        3.464791   -4.843405   -1.985719
     45          8           0        1.537694   -5.824278   -1.298555
     46          6           0        1.730280   -7.048779   -2.179278
     47          6           0       -4.609761   -4.158121   -0.958402
     48          6           0       -5.558505   -3.271434   -0.164745
     49          6           0       -6.096233   -2.105906   -0.435764
     50          6           0       -5.744075   -1.345619   -1.743809
     51          6           0       -7.071434   -1.414102    0.478084
     52          6           0       -8.536482   -1.602028    0.083855
     53          6           0       -9.536537   -1.670730    1.167023
     54          6           0      -10.800133   -0.821334    0.728406
     55          6           0      -12.007712   -1.737392    0.998600
     56          6           0      -10.912270    0.491451    1.566575
     57          6           0       -9.853016    1.530197    1.236733
     58          6           0       -9.392876    2.410240    2.412078
     59          6           0       -7.890811    2.801909    2.326223
     60          6           0       -6.959293    1.956927    3.185877
     61          6           0       -7.789529    4.335112    2.729789
     62          6           0       -7.948808    5.216461    1.433869
     63          6           0       -6.686888    5.261441    0.549684
     64          6           0       -6.817303    4.624002   -0.853863
     65          6           0       -5.613036    3.657531   -1.178192
     66          6           0       -6.717507    5.826217   -1.886105
     67          1           0        2.086430    1.860314   -3.598328
     68          1           0        6.704498    4.103594    0.256238
     69          1           0        6.732959   -1.290828    3.692890
     70          1           0        1.292955   -2.784225   -2.777213
     71          1           0        0.342832   -0.101402   -3.185136
     72          1           0        1.483555   -0.253540   -5.236026
     73          1           0        0.568221   -1.615321   -4.853269
     74          1           0        2.321972   -1.670888   -4.601501
     75          1           0       -1.023851   -1.367352   -1.977547
     76          1           0       -0.211524   -1.408983   -0.487483
     77          1           0       -0.954005   -3.434175   -0.071341
     78          1           0       -0.267481   -4.017188   -1.554493
     79          1           0        3.895922    4.858767   -4.509797
     80          1           0        2.492957    5.184049   -3.375391
     81          1           0        2.529638    3.765306   -4.347830
     82          1           0        7.687056    5.100891   -1.394346
     83          1           0        6.650635    6.157341   -0.394769
     84          1           0        7.435345    6.845230   -1.845500
     85          1           0        7.411010    3.482310    2.741717
     86          1           0        8.375721    0.736325    3.121755
     87          1           0        9.383977    2.239347    0.906335
     88          1           0        9.819629    2.526218    2.561131
     89          1           0        9.270775    3.841714    1.555493
     90          1           0        5.928855    0.779173    4.656032
     91          1           0        6.471103    2.512280    4.491852
     92          1           0        8.623898    1.905456    5.501191
     93          1           0        7.898570    0.310464    5.801046
     94          1           0        7.281595    1.596928    6.747503
     95          1           0        5.405021   -5.030974    3.281815
     96          1           0        5.038035   -3.783785    4.469612
     97          1           0        6.619412   -3.780740    3.706897
     98          1           0        1.217814   -4.230162    0.305314
     99          1           0        0.796517   -7.510547   -2.498429
    100          1           0        2.150194   -7.776024   -1.485529
    101          1           0        2.394524   -6.893131   -3.029875
    102          1           0       -5.058596   -5.146972   -0.865764
    103          1           0       -4.862335   -3.849605   -1.972126
    104          1           0       -5.889316   -3.697301    0.782544
    105          1           0       -5.630817   -1.907530   -2.669886
    106          1           0       -4.764940   -0.923937   -1.516110
    107          1           0       -6.355160   -0.462735   -1.929672
    108          1           0       -6.767620   -0.374429    0.354542
    109          1           0       -6.816581   -1.792809    1.467806
    110          1           0       -8.499782   -2.499600   -0.533573
    111          1           0       -8.764760   -0.830528   -0.652124
    112          1           0       -9.234081   -1.159818    2.080475
    113          1           0       -9.732117   -2.732668    1.313707
    114          1           0      -10.885419   -0.478785   -0.302714
    115          1           0      -12.407228   -2.126938    0.061487
    116          1           0      -12.840597   -1.238905    1.493611
    117          1           0      -11.753594   -2.523173    1.710303
    118          1           0      -10.993587    0.207613    2.616167
    119          1           0      -11.894108    0.852709    1.260820
    120          1           0      -10.455760    2.155178    0.578705
    121          1           0       -8.993836    1.063957    0.754161
    122          1           0       -9.581204    1.714280    3.230072
    123          1           0      -10.139352    3.196340    2.531901
    124          1           0       -7.439005    2.719034    1.337799
    125          1           0       -6.848971    2.465333    4.142914
    126          1           0       -6.033506    1.965068    2.610003
    127          1           0       -7.298712    0.949047    3.424553
    128          1           0       -6.877458    4.673658    3.222749
    129          1           0       -8.642766    4.517049    3.383644
    130          1           0       -8.295926    6.226415    1.654921
    131          1           0       -8.790893    4.863926    0.838223
    132          1           0       -5.760623    4.868661    0.969347
    133          1           0       -6.362253    6.291986    0.405066
    134          1           0       -7.747864    4.060888   -0.927575
    135          1           0       -5.771433    2.668937   -0.748495
    136          1           0       -4.643618    4.011197   -0.825251
    137          1           0       -5.515818    3.572846   -2.260239
    138          1           0       -6.931767    6.838417   -1.545263
    139          1           0       -7.534541    5.628950   -2.579721
    140          1           0       -5.821015    5.810519   -2.505792
 ---------------------------------------------------------------------
 Rotational constants (GHZ):           0.0341097           0.0139198           0.0118363
 Leave Link  202 at Sat Apr 30 10:32:07 2022, MaxMem= 10066329600 cpu:               0.2 elap:               0.0
 (Enter /sw/apps/gaussian-16.0/g16/l301.exe)
 Standard basis: def2SVP (5D, 7F)
 Ernie: Thresh=  0.10000D-02 Tol=  0.10000D-05 Strict=F.
 There are  1364 symmetry adapted cartesian basis functions of A   symmetry.
 There are  1298 symmetry adapted basis functions of A   symmetry.
  1298 basis functions,  2180 primitive gaussians,  1364 cartesian basis functions
   246 alpha electrons      246 beta electrons
       nuclear repulsion energy      9788.7062192394 Hartrees.
 IExCor= 1009 DFT=T Ex+Corr=PBE1PBE ExCW=0 ScaHFX=  0.250000
 ScaDFX=  0.750000  0.750000  1.000000  1.000000 ScalE2=  1.000000  1.000000
 IRadAn=      5 IRanWt=     -1 IRanGd=            0 ICorTp=0 IEmpDi=  4
 NAtoms=  140 NActive=  140 NUniq=  140 SFac= 1.00D+00 NAtFMM=   60 NAOKFM=T Big=T
 Integral buffers will be    131072 words long.
 Regular integral format.
 Two-electron integral symmetry is turned on.
 Leave Link  301 at Sat Apr 30 10:32:07 2022, MaxMem= 10066329600 cpu:               1.3 elap:               0.1
 (Enter /sw/apps/gaussian-16.0/g16/l302.exe)
 NPDir=0 NMtPBC=     1 NCelOv=     1 NCel=       1 NClECP=     1 NCelD=      1
         NCelK=      1 NCelE2=     1 NClLst=     1 CellRange=     0.0.
 One-electron integrals computed using PRISM.
 One-electron integral symmetry used in STVInt
   1 Symmetry operations used in ECPInt.
 ECPInt:  NShTT=  192510 NPrTT=  683786 LenC2=  100380 LenP2D=  216365.
 LDataN:  DoStor=T MaxTD1= 4 Len=   56
 NBasis=  1298 RedAO= T EigKep=  2.85D-04  NBF=  1298
 NBsUse=  1298 1.00D-06 EigRej= -1.00D+00 NBFU=  1298
 Precomputing XC quadrature grid using
 IXCGrd= 4 IRadAn=           5 IRanWt=          -1 IRanGd=           0 AccXCQ= 0.00D+00.
 Generated NRdTot=       0 NPtTot=           0 NUsed=           0 NTot=          32
 NSgBfM=  1036  1022  1024  1027  1036 MxSgAt=   140 MxSgA2=   140.
 Leave Link  302 at Sat Apr 30 10:32:11 2022, MaxMem= 10066329600 cpu:              78.5 elap:               3.3
 (Enter /sw/apps/gaussian-16.0/g16/l303.exe)
 DipDrv:  MaxL=1.
 Leave Link  303 at Sat Apr 30 10:32:11 2022, MaxMem= 10066329600 cpu:               7.0 elap:               0.3
 (Enter /sw/apps/gaussian-16.0/g16/l308.exe)
 Leave Link  308 at Sat Apr 30 10:32:11 2022, MaxMem= 10066329600 cpu:              10.8 elap:               0.5
 (Enter /sw/apps/gaussian-16.0/g16/l401.exe)
 ExpMin= 3.36D-02 ExpMax= 4.95D+03 ExpMxC= 7.45D+02 IAcc=3 IRadAn=         5 AccDes= 0.00D+00
 Harris functional with IExCor= 1009 and IRadAn=       5 diagonalized for initial guess.
 HarFok:  IExCor= 1009 AccDes= 0.00D+00 IRadAn=         5 IDoV= 1 UseB2=F ITyADJ=14
 ICtDFT=  3500011 ScaDFX=  1.000000  1.000000  1.000000  1.000000
 FoFCou: FMM=F IPFlag=           0 FMFlag=      100000 FMFlg1=        2001
         NFxFlg=           0 DoJE=T BraDBF=F KetDBF=T FulRan=T
         wScrn=  0.000000 ICntrl=       500 IOpCl=  0 I1Cent=   200000004 NGrid=           0
         NMat0=    1 NMatS0=      1 NMatT0=    0 NMatD0=    1 NMtDS0=    0 NMtDT0=    0
 Petite list used in FoFCou.
 Harris En= -3006.14676572978    
 JPrj=0 DoOrth=F DoCkMO=F.
 Leave Link  401 at Sat Apr 30 10:32:17 2022, MaxMem= 10066329600 cpu:             134.1 elap:               5.6
 (Enter /sw/apps/gaussian-16.0/g16/l502.exe)
 Integral symmetry usage will be decided dynamically.
 Closed shell SCF:
 Using DIIS extrapolation, IDIIS=  1040.
 NGot= 10066329600 LenX= 10062561258 LenY= 10060699398
 Requested convergence on RMS density matrix=1.00D-08 within 128 cycles.
 Requested convergence on MAX density matrix=1.00D-06.
 Requested convergence on             energy=1.00D-06.
 No special actions if energy rises.
 Fock matrices will be formed incrementally for  20 cycles.

 Cycle   1  Pass 1  IDiag  1:
 FoFJK:  IHMeth= 1 ICntrl=       0 DoSepK=F KAlg= 0 I1Cent=           0 FoldK=F
 IRaf= 540000000 NMat=       1 IRICut=       1 DoRegI=T DoRafI=F ISym2E= 0 IDoP0=0 IntGTp=1.
 FoFCou: FMM=T IPFlag=           0 FMFlag=      100000 FMFlg1=        2001
         NFxFlg=           0 DoJE=F BraDBF=F KetDBF=F FulRan=T
         wScrn=  0.000000 ICntrl=         0 IOpCl=  0 I1Cent=           0 NGrid=           0
         NMat0=    1 NMatS0=      1 NMatT0=    0 NMatD0=    1 NMtDS0=    0 NMtDT0=    0
 Symmetry not used in FoFCou.
 FMM levels:  10  Number of levels for PrismC:   9
 E= -3003.77329247317    
 DIIS: error= 2.27D-02 at cycle   1 NSaved=   1.
 NSaved= 1 IEnMin= 1 EnMin= -3003.77329247317     IErMin= 1 ErrMin= 2.27D-02
 ErrMax= 2.27D-02  0.00D+00 EMaxC= 1.00D-01 BMatC= 1.48D+00 BMatP= 1.48D+00
 IDIUse=3 WtCom= 7.73D-01 WtEn= 2.27D-01
 Coeff-Com:  0.100D+01
 Coeff-En:   0.100D+01
 Coeff:      0.100D+01
 Gap=     0.088 Goal=   None    Shift=    0.000
 GapD=    0.088 DampG=0.500 DampE=0.500 DampFc=0.2500 IDamp=-1.
 Damping current iteration by 2.50D-01
 RMSDP=2.85D-03 MaxDP=6.57D-01              OVMax= 3.19D-01

 Cycle   2  Pass 1  IDiag  1:
 RMSU=  7.06D-04    CP:  9.90D-01
 E= -3004.33099819923     Delta-E=       -0.557705726062 Rises=F Damp=T
 DIIS: error= 1.19D-02 at cycle   2 NSaved=   2.
 NSaved= 2 IEnMin= 2 EnMin= -3004.33099819923     IErMin= 2 ErrMin= 1.19D-02
 ErrMax= 1.19D-02  0.00D+00 EMaxC= 1.00D-01 BMatC= 3.67D-01 BMatP= 1.48D+00
 IDIUse=3 WtCom= 8.81D-01 WtEn= 1.19D-01
 Coeff-Com: -0.758D+00 0.176D+01
 Coeff-En:   0.000D+00 0.100D+01
 Coeff:     -0.668D+00 0.167D+01
 Gap=     0.176 Goal=   None    Shift=    0.000
 RMSDP=9.88D-04 MaxDP=5.91D-02 DE=-5.58D-01 OVMax= 2.65D-01

 Cycle   3  Pass 1  IDiag  1:
 RMSU=  8.50D-04    CP:  9.65D-01  1.64D+00
 E= -3005.17546708383     Delta-E=       -0.844468884596 Rises=F Damp=F
 DIIS: error= 1.03D-02 at cycle   3 NSaved=   3.
 NSaved= 3 IEnMin= 3 EnMin= -3005.17546708383     IErMin= 3 ErrMin= 1.03D-02
 ErrMax= 1.03D-02  0.00D+00 EMaxC= 1.00D-01 BMatC= 1.74D-01 BMatP= 3.67D-01
 IDIUse=3 WtCom= 8.97D-01 WtEn= 1.03D-01
 Coeff-Com: -0.479D+00 0.104D+01 0.443D+00
 Coeff-En:   0.000D+00 0.000D+00 0.100D+01
 Coeff:     -0.430D+00 0.929D+00 0.501D+00
 Gap=     0.074 Goal=   None    Shift=    0.000
 RMSDP=5.47D-04 MaxDP=9.19D-02 DE=-8.44D-01 OVMax= 1.69D-01

 Cycle   4  Pass 1  IDiag  1:
 RMSU=  3.74D-04    CP:  9.71D-01  1.86D+00  5.72D-01
 E= -3005.30190381392     Delta-E=       -0.126436730096 Rises=F Damp=F
 DIIS: error= 4.89D-03 at cycle   4 NSaved=   4.
 NSaved= 4 IEnMin= 4 EnMin= -3005.30190381392     IErMin= 4 ErrMin= 4.89D-03
 ErrMax= 4.89D-03  0.00D+00 EMaxC= 1.00D-01 BMatC= 3.49D-02 BMatP= 1.74D-01
 IDIUse=3 WtCom= 9.51D-01 WtEn= 4.89D-02
 Coeff-Com: -0.915D-01 0.205D+00 0.312D+00 0.575D+00
 Coeff-En:   0.000D+00 0.000D+00 0.205D+00 0.795D+00
 Coeff:     -0.871D-01 0.195D+00 0.307D+00 0.586D+00
 Gap=     0.076 Goal=   None    Shift=    0.000
 RMSDP=2.42D-04 MaxDP=3.68D-02 DE=-1.26D-01 OVMax= 1.21D-01

 Cycle   5  Pass 1  IDiag  1:
 RMSU=  1.36D-04    CP:  9.70D-01  1.76D+00  6.98D-01  5.81D-01
 E= -3005.32763638205     Delta-E=       -0.025732568130 Rises=F Damp=F
 DIIS: error= 1.30D-03 at cycle   5 NSaved=   5.
 NSaved= 5 IEnMin= 5 EnMin= -3005.32763638205     IErMin= 5 ErrMin= 1.30D-03
 ErrMax= 1.30D-03  0.00D+00 EMaxC= 1.00D-01 BMatC= 5.17D-03 BMatP= 3.49D-02
 IDIUse=3 WtCom= 9.87D-01 WtEn= 1.30D-02
 Coeff-Com: -0.225D-01 0.540D-01 0.175D+00 0.403D+00 0.391D+00
 Coeff-En:   0.000D+00 0.000D+00 0.000D+00 0.171D+00 0.829D+00
 Coeff:     -0.222D-01 0.533D-01 0.172D+00 0.400D+00 0.397D+00
 Gap=     0.075 Goal=   None    Shift=    0.000
 RMSDP=1.25D-04 MaxDP=8.50D-03 DE=-2.57D-02 OVMax= 8.52D-02

 Cycle   6  Pass 1  IDiag  1:
 RMSU=  5.64D-05    CP:  9.69D-01  1.76D+00  6.86D-01  6.92D-01  2.41D-01
 E= -3005.33334919302     Delta-E=       -0.005712810969 Rises=F Damp=F
 DIIS: error= 6.31D-04 at cycle   6 NSaved=   6.
 NSaved= 6 IEnMin= 6 EnMin= -3005.33334919302     IErMin= 6 ErrMin= 6.31D-04
 ErrMax= 6.31D-04  0.00D+00 EMaxC= 1.00D-01 BMatC= 8.64D-04 BMatP= 5.17D-03
 IDIUse=3 WtCom= 9.94D-01 WtEn= 6.31D-03
 Coeff-Com:  0.344D-03 0.223D-02 0.703D-01 0.188D+00 0.296D+00 0.443D+00
 Coeff-En:   0.000D+00 0.000D+00 0.000D+00 0.000D+00 0.199D+00 0.801D+00
 Coeff:      0.342D-03 0.222D-02 0.699D-01 0.187D+00 0.296D+00 0.445D+00
 Gap=     0.076 Goal=   None    Shift=    0.000
 RMSDP=4.81D-05 MaxDP=3.32D-03 DE=-5.71D-03 OVMax= 3.54D-02

 Cycle   7  Pass 1  IDiag  1:
 RMSU=  2.19D-05    CP:  9.69D-01  1.76D+00  6.95D-01  6.68D-01  4.46D-01
                    CP:  4.59D-01
 E= -3005.33445479021     Delta-E=       -0.001105597194 Rises=F Damp=F
 DIIS: error= 2.12D-04 at cycle   7 NSaved=   7.
 NSaved= 7 IEnMin= 7 EnMin= -3005.33445479021     IErMin= 7 ErrMin= 2.12D-04
 ErrMax= 2.12D-04  0.00D+00 EMaxC= 1.00D-01 BMatC= 1.11D-04 BMatP= 8.64D-04
 IDIUse=3 WtCom= 9.98D-01 WtEn= 2.12D-03
 Coeff-Com:  0.309D-02-0.542D-02 0.235D-01 0.694D-01 0.145D+00 0.311D+00
 Coeff-Com:  0.453D+00
 Coeff-En:   0.000D+00 0.000D+00 0.000D+00 0.000D+00 0.000D+00 0.118D+00
 Coeff-En:   0.882D+00
 Coeff:      0.309D-02-0.541D-02 0.235D-01 0.692D-01 0.145D+00 0.311D+00
 Coeff:      0.454D+00
 Gap=     0.076 Goal=   None    Shift=    0.000
 RMSDP=1.64D-05 MaxDP=1.04D-03 DE=-1.11D-03 OVMax= 1.06D-02

 Cycle   8  Pass 1  IDiag  1:
 RMSU=  8.56D-06    CP:  9.69D-01  1.76D+00  6.94D-01  6.73D-01  4.21D-01
                    CP:  5.65D-01  4.55D-01
 E= -3005.33457602147     Delta-E=       -0.000121231253 Rises=F Damp=F
 DIIS: error= 8.07D-05 at cycle   8 NSaved=   8.
 NSaved= 8 IEnMin= 8 EnMin= -3005.33457602147     IErMin= 8 ErrMin= 8.07D-05
 ErrMax= 8.07D-05  0.00D+00 EMaxC= 1.00D-01 BMatC= 1.44D-05 BMatP= 1.11D-04
 IDIUse=1 WtCom= 1.00D+00 WtEn= 0.00D+00
 Coeff-Com:  0.198D-02-0.381D-02 0.659D-02 0.213D-01 0.580D-01 0.152D+00
 Coeff-Com:  0.312D+00 0.452D+00
 Coeff:      0.198D-02-0.381D-02 0.659D-02 0.213D-01 0.580D-01 0.152D+00
 Coeff:      0.312D+00 0.452D+00
 Gap=     0.076 Goal=   None    Shift=    0.000
 RMSDP=6.06D-06 MaxDP=5.17D-04 DE=-1.21D-04 OVMax= 2.88D-03

 Cycle   9  Pass 1  IDiag  1:
 RMSU=  2.76D-06    CP:  9.69D-01  1.76D+00  6.94D-01  6.74D-01  4.23D-01
                    CP:  5.55D-01  5.77D-01  4.63D-01
 E= -3005.33459163887     Delta-E=       -0.000015617406 Rises=F Damp=F
 DIIS: error= 2.34D-05 at cycle   9 NSaved=   9.
 NSaved= 9 IEnMin= 9 EnMin= -3005.33459163887     IErMin= 9 ErrMin= 2.34D-05
 ErrMax= 2.34D-05  0.00D+00 EMaxC= 1.00D-01 BMatC= 1.68D-06 BMatP= 1.44D-05
 IDIUse=1 WtCom= 1.00D+00 WtEn= 0.00D+00
 Coeff-Com:  0.888D-03-0.173D-02 0.139D-02 0.478D-02 0.192D-01 0.602D-01
 Coeff-Com:  0.149D+00 0.294D+00 0.472D+00
 Coeff:      0.888D-03-0.173D-02 0.139D-02 0.478D-02 0.192D-01 0.602D-01
 Coeff:      0.149D+00 0.294D+00 0.472D+00
 Gap=     0.076 Goal=   None    Shift=    0.000
 RMSDP=2.15D-06 MaxDP=4.22D-04 DE=-1.56D-05 OVMax= 1.03D-03

 Cycle  10  Pass 1  IDiag  1:
 RMSU=  1.30D-06    CP:  9.69D-01  1.76D+00  6.94D-01  6.74D-01  4.25D-01
                    CP:  5.65D-01  5.64D-01  5.66D-01  5.54D-01
 E= -3005.33459324898     Delta-E=       -0.000001610104 Rises=F Damp=F
 DIIS: error= 1.07D-05 at cycle  10 NSaved=  10.
 NSaved=10 IEnMin=10 EnMin= -3005.33459324898     IErMin=10 ErrMin= 1.07D-05
 ErrMax= 1.07D-05  0.00D+00 EMaxC= 1.00D-01 BMatC= 3.00D-07 BMatP= 1.68D-06
 IDIUse=1 WtCom= 1.00D+00 WtEn= 0.00D+00
 Coeff-Com:  0.216D-03-0.407D-03-0.230D-03-0.923D-03 0.167D-02 0.111D-01
 Coeff-Com:  0.413D-01 0.110D+00 0.321D+00 0.517D+00
 Coeff:      0.216D-03-0.407D-03-0.230D-03-0.923D-03 0.167D-02 0.111D-01
 Coeff:      0.413D-01 0.110D+00 0.321D+00 0.517D+00
 Gap=     0.076 Goal=   None    Shift=    0.000
 RMSDP=8.11D-07 MaxDP=6.63D-05 DE=-1.61D-06 OVMax= 4.56D-04

 Cycle  11  Pass 1  IDiag  1:
 RMSU=  4.01D-07    CP:  9.69D-01  1.76D+00  6.94D-01  6.74D-01  4.25D-01
                    CP:  5.65D-01  5.70D-01  5.52D-01  7.06D-01  5.90D-01
 E= -3005.33459357896     Delta-E=       -0.000000329987 Rises=F Damp=F
 DIIS: error= 4.18D-06 at cycle  11 NSaved=  11.
 NSaved=11 IEnMin=11 EnMin= -3005.33459357896     IErMin=11 ErrMin= 4.18D-06
 ErrMax= 4.18D-06  0.00D+00 EMaxC= 1.00D-01 BMatC= 4.57D-08 BMatP= 3.00D-07
 IDIUse=1 WtCom= 1.00D+00 WtEn= 0.00D+00
 Coeff-Com:  0.221D-04-0.284D-04-0.363D-03-0.140D-02-0.187D-02-0.207D-02
 Coeff-Com:  0.479D-02 0.268D-01 0.136D+00 0.340D+00 0.498D+00
 Coeff:      0.221D-04-0.284D-04-0.363D-03-0.140D-02-0.187D-02-0.207D-02
 Coeff:      0.479D-02 0.268D-01 0.136D+00 0.340D+00 0.498D+00
 Gap=     0.076 Goal=   None    Shift=    0.000
 RMSDP=2.90D-07 MaxDP=3.85D-05 DE=-3.30D-07 OVMax= 1.11D-04

 Cycle  12  Pass 1  IDiag  1:
 RMSU=  1.50D-07    CP:  9.69D-01  1.76D+00  6.94D-01  6.74D-01  4.25D-01
                    CP:  5.65D-01  5.73D-01  5.62D-01  6.92D-01  7.04D-01
                    CP:  6.40D-01
 E= -3005.33459362888     Delta-E=       -0.000000049920 Rises=F Damp=F
 DIIS: error= 1.05D-06 at cycle  12 NSaved=  12.
 NSaved=12 IEnMin=12 EnMin= -3005.33459362888     IErMin=12 ErrMin= 1.05D-06
 ErrMax= 1.05D-06  0.00D+00 EMaxC= 1.00D-01 BMatC= 3.06D-09 BMatP= 4.57D-08
 IDIUse=1 WtCom= 1.00D+00 WtEn= 0.00D+00
 Coeff-Com: -0.417D-06 0.121D-04-0.150D-03-0.615D-03-0.106D-02-0.209D-02
 Coeff-Com: -0.874D-03 0.324D-02 0.386D-01 0.127D+00 0.262D+00 0.573D+00
 Coeff:     -0.417D-06 0.121D-04-0.150D-03-0.615D-03-0.106D-02-0.209D-02
 Coeff:     -0.874D-03 0.324D-02 0.386D-01 0.127D+00 0.262D+00 0.573D+00
 Gap=     0.076 Goal=   None    Shift=    0.000
 RMSDP=8.66D-08 MaxDP=9.17D-06 DE=-4.99D-08 OVMax= 2.30D-05

 Cycle  13  Pass 1  IDiag  1:
 RMSU=  6.03D-08    CP:  9.69D-01  1.76D+00  6.95D-01  6.74D-01  4.25D-01
                    CP:  5.65D-01  5.72D-01  5.63D-01  7.01D-01  7.09D-01
                    CP:  7.21D-01  7.59D-01
 E= -3005.33459363161     Delta-E=       -0.000000002727 Rises=F Damp=F
 DIIS: error= 5.68D-07 at cycle  13 NSaved=  13.
 NSaved=13 IEnMin=13 EnMin= -3005.33459363161     IErMin=13 ErrMin= 5.68D-07
 ErrMax= 5.68D-07  0.00D+00 EMaxC= 1.00D-01 BMatC= 7.51D-10 BMatP= 3.06D-09
 IDIUse=1 WtCom= 1.00D+00 WtEn= 0.00D+00
 Coeff-Com: -0.200D-05 0.964D-05-0.344D-04-0.160D-03-0.379D-03-0.110D-02
 Coeff-Com: -0.144D-02-0.325D-02-0.463D-03 0.194D-01 0.766D-01 0.364D+00
 Coeff-Com:  0.547D+00
 Coeff:     -0.200D-05 0.964D-05-0.344D-04-0.160D-03-0.379D-03-0.110D-02
 Coeff:     -0.144D-02-0.325D-02-0.463D-03 0.194D-01 0.766D-01 0.364D+00
 Coeff:      0.547D+00
 Gap=     0.076 Goal=   None    Shift=    0.000
 RMSDP=3.53D-08 MaxDP=2.97D-06 DE=-2.73D-09 OVMax= 9.26D-06

 Cycle  14  Pass 1  IDiag  1:
 RMSU=  2.27D-08    CP:  9.69D-01  1.76D+00  6.95D-01  6.74D-01  4.25D-01
                    CP:  5.65D-01  5.73D-01  5.63D-01  7.02D-01  7.19D-01
                    CP:  7.25D-01  8.66D-01  7.47D-01
 E= -3005.33459363223     Delta-E=       -0.000000000620 Rises=F Damp=F
 DIIS: error= 2.89D-07 at cycle  14 NSaved=  14.
 NSaved=14 IEnMin=14 EnMin= -3005.33459363223     IErMin=14 ErrMin= 2.89D-07
 ErrMax= 2.89D-07  0.00D+00 EMaxC= 1.00D-01 BMatC= 1.08D-10 BMatP= 7.51D-10
 IDIUse=1 WtCom= 1.00D+00 WtEn= 0.00D+00
 Coeff-Com:  0.454D-06 0.144D-05 0.482D-05 0.420D-05-0.513D-04-0.361D-03
 Coeff-Com: -0.693D-03-0.276D-02-0.721D-02-0.986D-02 0.268D-02 0.129D+00
 Coeff-Com:  0.329D+00 0.560D+00
 Coeff:      0.454D-06 0.144D-05 0.482D-05 0.420D-05-0.513D-04-0.361D-03
 Coeff:     -0.693D-03-0.276D-02-0.721D-02-0.986D-02 0.268D-02 0.129D+00
 Coeff:      0.329D+00 0.560D+00
 Gap=     0.076 Goal=   None    Shift=    0.000
 RMSDP=1.52D-08 MaxDP=2.64D-06 DE=-6.20D-10 OVMax= 4.34D-06

 Cycle  15  Pass 1  IDiag  1:
 RMSU=  9.59D-09    CP:  9.69D-01  1.76D+00  6.95D-01  6.74D-01  4.25D-01
                    CP:  5.65D-01  5.73D-01  5.63D-01  7.03D-01  7.20D-01
                    CP:  7.36D-01  8.87D-01  8.33D-01  8.05D-01
 E= -3005.33459363240     Delta-E=       -0.000000000166 Rises=F Damp=F
 DIIS: error= 8.28D-08 at cycle  15 NSaved=  15.
 NSaved=15 IEnMin=15 EnMin= -3005.33459363240     IErMin=15 ErrMin= 8.28D-08
 ErrMax= 8.28D-08  0.00D+00 EMaxC= 1.00D-01 BMatC= 1.59D-11 BMatP= 1.08D-10
 IDIUse=1 WtCom= 1.00D+00 WtEn= 0.00D+00
 Coeff-Com:  0.117D-05-0.149D-05 0.831D-05 0.246D-04 0.347D-04-0.368D-04
 Coeff-Com: -0.775D-04-0.930D-03-0.348D-02-0.753D-02-0.900D-02 0.144D-01
 Coeff-Com:  0.901D-01 0.312D+00 0.604D+00
 Coeff:      0.117D-05-0.149D-05 0.831D-05 0.246D-04 0.347D-04-0.368D-04
 Coeff:     -0.775D-04-0.930D-03-0.348D-02-0.753D-02-0.900D-02 0.144D-01
 Coeff:      0.901D-01 0.312D+00 0.604D+00
 Gap=     0.076 Goal=   None    Shift=    0.000
 RMSDP=5.49D-09 MaxDP=4.34D-07 DE=-1.66D-10 OVMax= 2.18D-06

 SCF Done:  E(RPBE1PBE) =  -3005.33459363     A.U. after   15 cycles
            NFock= 15  Conv=0.55D-08     -V/T= 2.0102
 KE= 2.974881501246D+03 PE=-2.656790895096D+04 EE= 1.079898663685D+04
 Leave Link  502 at Sat Apr 30 10:36:50 2022, MaxMem= 10066329600 cpu:            6500.9 elap:             272.6
 (Enter /sw/apps/gaussian-16.0/g16/l801.exe)
 DoSCS=F DFT=T ScalE2(SS,OS)=  1.000000  1.000000
 ExpMin= 3.36D-02 ExpMax= 4.95D+03 ExpMxC= 7.45D+02 IAcc=3 IRadAn=         5 AccDes= 0.00D+00
 HarFok:  IExCor=  205 AccDes= 0.00D+00 IRadAn=         5 IDoV=-2 UseB2=F ITyADJ=14
 ICtDFT= 12500011 ScaDFX=  1.000000  1.000000  1.000000  1.000000
 GSVD:  LWork=       -5460 too small for GESVD, short by       25550 words or       25550 for optimal perf.
 Largest valence mixing into a core orbital is  1.37D-04
 Largest core mixing into a valence orbital is  5.62D-05
 Range of M.O.s used for correlation:    71  1298
 NBasis=  1298 NAE=   246 NBE=   246 NFC=    70 NFV=     0
 NROrb=   1228 NOA=   176 NOB=   176 NVA=  1052 NVB=  1052

 **** Warning!!: The smallest alpha delta epsilon is  0.76077411D-01

 Leave Link  801 at Sat Apr 30 10:36:50 2022, MaxMem= 10066329600 cpu:               7.2 elap:               0.3
 (Enter /sw/apps/gaussian-16.0/g16/l914.exe)
 RHF ground state
 Two-electron integrals replicated using symmetry.
 MDV= 10066329600 DFT=T DoStab=F Mixed=T DoRPA=T DoScal=F NonHer=T
 Making orbital integer symmetry assigments:
 Orbital symmetries:
       Occupied  (A) (A) (A) (A) (A) (A) (A) (A) (A) (A) (A) (A)
                 (A) (A) (A) (A) (A) (A) (A) (A) (A) (A) (A) (A)
                 (A) (A) (A) (A) (A) (A) (A) (A) (A) (A) (A) (A)
                 (A) (A) (A) (A) (A) (A) (A) (A) (A) (A) (A) (A)
                 (A) (A) (A) (A) (A) (A) (A) (A) (A) (A) (A) (A)
                 (A) (A) (A) (A) (A) (A) (A) (A) (A) (A) (A) (A)
                 (A) (A) (A) (A) (A) (A) (A) (A) (A) (A) (A) (A)
                 (A) (A) (A) (A) (A) (A) (A) (A) (A) (A) (A) (A)
                 (A) (A) (A) (A) (A) (A) (A) (A) (A) (A) (A) (A)
                 (A) (A) (A) (A) (A) (A) (A) (A) (A) (A) (A) (A)
                 (A) (A) (A) (A) (A) (A) (A) (A) (A) (A) (A) (A)
                 (A) (A) (A) (A) (A) (A) (A) (A) (A) (A) (A) (A)
                 (A) (A) (A) (A) (A) (A) (A) (A) (A) (A) (A) (A)
                 (A) (A) (A) (A) (A) (A) (A) (A) (A) (A) (A) (A)
                 (A) (A) (A) (A) (A) (A) (A) (A) (A) (A) (A) (A)
                 (A) (A) (A) (A) (A) (A) (A) (A) (A) (A) (A) (A)
                 (A) (A) (A) (A) (A) (A) (A) (A) (A) (A) (A) (A)
                 (A) (A) (A) (A) (A) (A) (A) (A) (A) (A) (A) (A)
                 (A) (A) (A) (A) (A) (A) (A) (A) (A) (A) (A) (A)
                 (A) (A) (A) (A) (A) (A) (A) (A) (A) (A) (A) (A)
                 (A) (A) (A) (A) (A) (A)
       Virtual   (A) (A) (A) (A) (A) (A) (A) (A) (A) (A) (A) (A)
                 (A) (A) (A) (A) (A) (A) (A) (A) (A) (A) (A) (A)
                 (A) (A) (A) (A) (A) (A) (A) (A) (A) (A) (A) (A)
                 (A) (A) (A) (A) (A) (A) (A) (A) (A) (A) (A) (A)
                 (A) (A) (A) (A) (A) (A) (A) (A) (A) (A) (A) (A)
                 (A) (A) (A) (A) (A) (A) (A) (A) (A) (A) (A) (A)
                 (A) (A) (A) (A) (A) (A) (A) (A) (A) (A) (A) (A)
                 (A) (A) (A) (A) (A) (A) (A) (A) (A) (A) (A) (A)
                 (A) (A) (A) (A) (A) (A) (A) (A) (A) (A) (A) (A)
                 (A) (A) (A) (A) (A) (A) (A) (A) (A) (A) (A) (A)
                 (A) (A) (A) (A) (A) (A) (A) (A) (A) (A) (A) (A)
                 (A) (A) (A) (A) (A) (A) (A) (A) (A) (A) (A) (A)
                 (A) (A) (A) (A) (A) (A) (A) (A) (A) (A) (A) (A)
                 (A) (A) (A) (A) (A) (A) (A) (A) (A) (A) (A) (A)
                 (A) (A) (A) (A) (A) (A) (A) (A) (A) (A) (A) (A)
                 (A) (A) (A) (A) (A) (A) (A) (A) (A) (A) (A) (A)
                 (A) (A) (A) (A) (A) (A) (A) (A) (A) (A) (A) (A)
                 (A) (A) (A) (A) (A) (A) (A) (A) (A) (A) (A) (A)
                 (A) (A) (A) (A) (A) (A) (A) (A) (A) (A) (A) (A)
                 (A) (A) (A) (A) (A) (A) (A) (A) (A) (A) (A) (A)
                 (A) (A) (A) (A) (A) (A) (A) (A) (A) (A) (A) (A)
                 (A) (A) (A) (A) (A) (A) (A) (A) (A) (A) (A) (A)
                 (A) (A) (A) (A) (A) (A) (A) (A) (A) (A) (A) (A)
                 (A) (A) (A) (A) (A) (A) (A) (A) (A) (A) (A) (A)
                 (A) (A) (A) (A) (A) (A) (A) (A) (A) (A) (A) (A)
                 (A) (A) (A) (A) (A) (A) (A) (A) (A) (A) (A) (A)
                 (A) (A) (A) (A) (A) (A) (A) (A) (A) (A) (A) (A)
                 (A) (A) (A) (A) (A) (A) (A) (A) (A) (A) (A) (A)
                 (A) (A) (A) (A) (A) (A) (A) (A) (A) (A) (A) (A)
                 (A) (A) (A) (A) (A) (A) (A) (A) (A) (A) (A) (A)
                 (A) (A) (A) (A) (A) (A) (A) (A) (A) (A) (A) (A)
                 (A) (A) (A) (A) (A) (A) (A) (A) (A) (A) (A) (A)
                 (A) (A) (A) (A) (A) (A) (A) (A) (A) (A) (A) (A)
                 (A) (A) (A) (A) (A) (A) (A) (A) (A) (A) (A) (A)
                 (A) (A) (A) (A) (A) (A) (A) (A) (A) (A) (A) (A)
                 (A) (A) (A) (A) (A) (A) (A) (A) (A) (A) (A) (A)
                 (A) (A) (A) (A) (A) (A) (A) (A) (A) (A) (A) (A)
                 (A) (A) (A) (A) (A) (A) (A) (A) (A) (A) (A) (A)
                 (A) (A) (A) (A) (A) (A) (A) (A) (A) (A) (A) (A)
                 (A) (A) (A) (A) (A) (A) (A) (A) (A) (A) (A) (A)
                 (A) (A) (A) (A) (A) (A) (A) (A) (A) (A) (A) (A)
                 (A) (A) (A) (A) (A) (A) (A) (A) (A) (A) (A) (A)
                 (A) (A) (A) (A) (A) (A) (A) (A) (A) (A) (A) (A)
                 (A) (A) (A) (A) (A) (A) (A) (A) (A) (A) (A) (A)
                 (A) (A) (A) (A) (A) (A) (A) (A) (A) (A) (A) (A)
                 (A) (A) (A) (A) (A) (A) (A) (A) (A) (A) (A) (A)
                 (A) (A) (A) (A) (A) (A) (A) (A) (A) (A) (A) (A)
                 (A) (A) (A) (A) (A) (A) (A) (A) (A) (A) (A) (A)
                 (A) (A) (A) (A) (A) (A) (A) (A) (A) (A) (A) (A)
                 (A) (A) (A) (A) (A) (A) (A) (A) (A) (A) (A) (A)
                 (A) (A) (A) (A) (A) (A) (A) (A) (A) (A) (A) (A)
                 (A) (A) (A) (A) (A) (A) (A) (A) (A) (A) (A) (A)
                 (A) (A) (A) (A) (A) (A) (A) (A) (A) (A) (A) (A)
                 (A) (A) (A) (A) (A) (A) (A) (A) (A) (A) (A) (A)
                 (A) (A) (A) (A) (A) (A) (A) (A) (A) (A) (A) (A)
                 (A) (A) (A) (A) (A) (A) (A) (A) (A) (A) (A) (A)
                 (A) (A) (A) (A) (A) (A) (A) (A) (A) (A) (A) (A)
                 (A) (A) (A) (A) (A) (A) (A) (A) (A) (A) (A) (A)
                 (A) (A) (A) (A) (A) (A) (A) (A) (A) (A) (A) (A)
                 (A) (A) (A) (A) (A) (A) (A) (A) (A) (A) (A) (A)
                 (A) (A) (A) (A) (A) (A) (A) (A) (A) (A) (A) (A)
                 (A) (A) (A) (A) (A) (A) (A) (A) (A) (A) (A) (A)
                 (A) (A) (A) (A) (A) (A) (A) (A) (A) (A) (A) (A)
                 (A) (A) (A) (A) (A) (A) (A) (A) (A) (A) (A) (A)
                 (A) (A) (A) (A) (A) (A) (A) (A) (A) (A) (A) (A)
                 (A) (A) (A) (A) (A) (A) (A) (A) (A) (A) (A) (A)
                 (A) (A) (A) (A) (A) (A) (A) (A) (A) (A) (A) (A)
                 (A) (A) (A) (A) (A) (A) (A) (A) (A) (A) (A) (A)
                 (A) (A) (A) (A) (A) (A) (A) (A) (A) (A) (A) (A)
                 (A) (A) (A) (A) (A) (A) (A) (A) (A) (A) (A) (A)
                 (A) (A) (A) (A) (A) (A) (A) (A) (A) (A) (A) (A)
                 (A) (A) (A) (A) (A) (A) (A) (A) (A) (A) (A) (A)
                 (A) (A) (A) (A) (A) (A) (A) (A) (A) (A) (A) (A)
                 (A) (A) (A) (A) (A) (A) (A) (A) (A) (A) (A) (A)
                 (A) (A) (A) (A) (A) (A) (A) (A) (A) (A) (A) (A)
                 (A) (A) (A) (A) (A) (A) (A) (A) (A) (A) (A) (A)
                 (A) (A) (A) (A) (A) (A) (A) (A) (A) (A) (A) (A)
                 (A) (A) (A) (A) (A) (A) (A) (A) (A) (A) (A) (A)
                 (A) (A) (A) (A) (A) (A) (A) (A) (A) (A) (A) (A)
                 (A) (A) (A) (A) (A) (A) (A) (A) (A) (A) (A) (A)
                 (A) (A) (A) (A) (A) (A) (A) (A) (A) (A) (A) (A)
                 (A) (A) (A) (A) (A) (A) (A) (A) (A) (A) (A) (A)
                 (A) (A) (A) (A) (A) (A) (A) (A) (A) (A) (A) (A)
                 (A) (A) (A) (A) (A) (A) (A) (A) (A) (A) (A) (A)
                 (A) (A) (A) (A) (A) (A) (A) (A) (A) (A) (A) (A)
                 (A) (A) (A) (A) (A) (A) (A) (A) (A) (A) (A) (A)
                 (A) (A) (A) (A) (A) (A) (A) (A) (A) (A) (A) (A)
                 (A) (A) (A) (A) (A) (A) (A) (A)
    20 initial guesses have been made.
 Convergence on wavefunction:    0.001000000000000
 Davidson Disk Diagonalization:  ConvIn= 1.00D-03 SkipCon=T Conv= 1.00D-03.
 Max sub-space:  2000 roots to seek:    20 dimension of matrix:       370304
 Iteration     1 Dimension    20 NMult     0 NNew     20
 CISAX will form    20 AO SS matrices at one time.
 NMat=    20 NSing=    20 JSym2X= 0.
 FoFJK:  IHMeth= 1 ICntrl=       0 DoSepK=F KAlg= 0 I1Cent=           0 FoldK=F
 IRaf= 540000000 NMat=      40 IRICut=       1 DoRegI=T DoRafI=F ISym2E= 0 IDoP0=3 IntGTp=3.
 FoFCou: FMM=T IPFlag=           0 FMFlag=      100000 FMFlg1=        2001
         NFxFlg=           0 DoJE=F BraDBF=F KetDBF=F FulRan=T
         wScrn=  0.000000 ICntrl=         0 IOpCl=  0 I1Cent=           0 NGrid=           0
         NMat0=   40 NMatS0=     20 NMatT0=    0 NMatD0=   40 NMtDS0=    0 NMtDT0=    0
 Symmetry not used in FoFCou.
 FMM levels:  10  Number of levels for PrismC:   9
 New state      3 was old state      4
 New state      4 was old state      9
 New state      5 was old state      6
 Excitation Energies [eV] at current iteration:
 Root      1 :     2.205231686887026
 Root      2 :     2.537481557492285
 Root      3 :     2.963544129679997
 Root      4 :     3.293024157584369
 Root      5 :     3.402765744882634
 Root      6 :     3.553715593700029
 Root      7 :     3.602914021614658
 Root      8 :     3.722045194259167
 Root      9 :     3.831256315764155
 Root     10 :     3.940138346968120
 Root     11 :     4.115163948259115
 Root     12 :     4.177429899304841
 Root     13 :     4.224252790155988
 Root     14 :     4.262336349505161
 Root     15 :     4.396663765680707
 Root     16 :     4.452206602571425
 Root     17 :     4.586920649134630
 Root     18 :     4.635686523241398
 Root     19 :     4.659692892052299
 Root     20 :     4.923778998631548
 Iteration     2 Dimension    30 NMult    20 NNew     10
 CISAX will form    10 AO SS matrices at one time.
 NMat=    10 NSing=    10 JSym2X= 0.
 Root      1 not converged, maximum delta is    0.053062356451660
 Root      2 not converged, maximum delta is    0.046832806378850
 Root      3 not converged, maximum delta is    0.108551485747107
 Root      4 not converged, maximum delta is    0.175940856977450
 Root      5 not converged, maximum delta is    0.143641039147870
 Excitation Energies [eV] at current iteration:
 Root      1 :     1.875931812242476   Change is   -0.329299874644550
 Root      2 :     2.279918650400576   Change is   -0.257562907091708
 Root      3 :     2.834531730805770   Change is   -0.129012398874227
 Root      4 :     3.116699005496851   Change is   -0.176325152087518
 Root      5 :     3.169931958849620   Change is   -0.232833786033014
 Iteration     3 Dimension    40 NMult    30 NNew     10
 CISAX will form    10 AO SS matrices at one time.
 NMat=    10 NSing=    10 JSym2X= 0.
 Root      1 not converged, maximum delta is    0.024960160162675
 Root      2 not converged, maximum delta is    0.022263768543674
 Root      3 not converged, maximum delta is    0.018681482518312
 Root      4 not converged, maximum delta is    0.024141813541958
 Root      5 not converged, maximum delta is    0.035940049720173
 Excitation Energies [eV] at current iteration:
 Root      1 :     1.845950687222932   Change is   -0.029981125019544
 Root      2 :     2.263719827092728   Change is   -0.016198823307848
 Root      3 :     2.823843887353618   Change is   -0.010687843452152
 Root      4 :     3.103188654236969   Change is   -0.013510351259882
 Root      5 :     3.153331053131896   Change is   -0.016600905717724
 Iteration     4 Dimension    50 NMult    40 NNew     10
 CISAX will form    10 AO SS matrices at one time.
 NMat=    10 NSing=    10 JSym2X= 0.
 Root      1 not converged, maximum delta is    0.004036120062048
 Root      2 not converged, maximum delta is    0.006711210453083
 Root      3 not converged, maximum delta is    0.002417434045741
 Root      4 not converged, maximum delta is    0.013395692550208
 Root      5 not converged, maximum delta is    0.024149120580761
 Excitation Energies [eV] at current iteration:
 Root      1 :     1.842882625855696   Change is   -0.003068061367236
 Root      2 :     2.261276563153475   Change is   -0.002443263939253
 Root      3 :     2.822915431783440   Change is   -0.000928455570177
 Root      4 :     3.100950467584394   Change is   -0.002238186652576
 Root      5 :     3.149939433429495   Change is   -0.003391619702401
 Iteration     5 Dimension    60 NMult    50 NNew     10
 CISAX will form    10 AO SS matrices at one time.
 NMat=    10 NSing=    10 JSym2X= 0.
 Root      1 not converged, maximum delta is    0.001123296097150
 Root      2 has converged.
 Root      3 has converged.
 Root      4 not converged, maximum delta is    0.002534550245317
 Root      5 not converged, maximum delta is    0.012904202512723
 Excitation Energies [eV] at current iteration:
 Root      1 :     1.842535470024293   Change is   -0.000347155831403
 Root      2 :     2.261078074936500   Change is   -0.000198488216975
 Root      3 :     2.822801885510967   Change is   -0.000113546272473
 Root      4 :     3.100667114266985   Change is   -0.000283353317409
 Root      5 :     3.149113497018154   Change is   -0.000825936411341
 Iteration     6 Dimension    66 NMult    60 NNew      6
 CISAX will form     6 AO SS matrices at one time.
 NMat=     6 NSing=     6 JSym2X= 0.
 Root      1 has converged.
 Root      2 has converged.
 Root      3 has converged.
 Root      4 not converged, maximum delta is    0.001358989031212
 Root      5 not converged, maximum delta is    0.009022537159870
 Excitation Energies [eV] at current iteration:
 Root      1 :     1.842501935274066   Change is   -0.000033534750227
 Root      2 :     2.261073983929379   Change is   -0.000004091007121
 Root      3 :     2.822801558418738   Change is   -0.000000327092230
 Root      4 :     3.100623218629203   Change is   -0.000043895637782
 Root      5 :     3.148900783434568   Change is   -0.000212713583586
 Iteration     7 Dimension    70 NMult    66 NNew      4
 CISAX will form     4 AO SS matrices at one time.
 NMat=     4 NSing=     4 JSym2X= 0.
 Root      1 has converged.
 Root      2 has converged.
 Root      3 has converged.
 Root      4 has converged.
 Root      5 not converged, maximum delta is    0.003998252671685
 Excitation Energies [eV] at current iteration:
 Root      1 :     1.842501559588841   Change is   -0.000000375685225
 Root      2 :     2.261072360340437   Change is   -0.000001623588943
 Root      3 :     2.822801194248648   Change is   -0.000000364170089
 Root      4 :     3.100618426665552   Change is   -0.000004791963651
 Root      5 :     3.148851697820552   Change is   -0.000049085614017
 Iteration     8 Dimension    72 NMult    70 NNew      2
 CISAX will form     2 AO SS matrices at one time.
 NMat=     2 NSing=     2 JSym2X= 0.
 Root      1 has converged.
 Root      2 has converged.
 Root      3 has converged.
 Root      4 has converged.
 Root      5 not converged, maximum delta is    0.001271411481647
 Excitation Energies [eV] at current iteration:
 Root      1 :     1.842501306638006   Change is   -0.000000252950835
 Root      2 :     2.261071786981397   Change is   -0.000000573359040
 Root      3 :     2.822801073746481   Change is   -0.000000120502168
 Root      4 :     3.100618392359774   Change is   -0.000000034305778
 Root      5 :     3.148840871719056   Change is   -0.000010826101496
 Iteration     9 Dimension    74 NMult    72 NNew      2
 CISAX will form     2 AO SS matrices at one time.
 NMat=     2 NSing=     2 JSym2X= 0.
 Root      1 has converged.
 Root      2 has converged.
 Root      3 has converged.
 Root      4 has converged.
 Root      5 has converged.
 Excitation Energies [eV] at current iteration:
 Root      1 :     1.842501253102546   Change is   -0.000000053535460
 Root      2 :     2.261071720893887   Change is   -0.000000066087510
 Root      3 :     2.822800980501850   Change is   -0.000000093244630
 Root      4 :     3.100618343507811   Change is   -0.000000048851963
 Root      5 :     3.148839240415252   Change is   -0.000001631303803
 Convergence achieved on expansion vectors.
 ***********************************************************************
 Excited states from <AA,BB:AA,BB> singles matrix:
 ***********************************************************************
 
 1PDM for each excited state written to RWF  633
 Ground to excited state transition densities written to RWF  633
 Ground to excited state transition electric dipole moments (Au):
       state          X           Y           Z        Dip. S.      Osc.
         1         0.0300     -2.3258      1.5619      7.8498      0.3543
         2         0.8086      0.6933      0.3820      1.2803      0.0709
         3         0.0592      0.0443     -0.0005      0.0055      0.0004
         4         0.0772      0.0337      0.0059      0.0071      0.0005
         5         0.2916      0.1163      0.2129      0.1439      0.0111
 Ground to excited state transition velocity dipole moments (Au):
       state          X           Y           Z        Dip. S.      Osc.
         1        -0.0007      0.1517     -0.1020      0.0334      0.3291
         2        -0.0629     -0.0552     -0.0294      0.0079      0.0632
         3        -0.0045     -0.0052     -0.0020      0.0001      0.0003
         4        -0.0063     -0.0046      0.0002      0.0001      0.0004
         5        -0.0319     -0.0150     -0.0247      0.0018      0.0106
 Ground to excited state transition magnetic dipole moments (Au):
       state          X           Y           Z
         1         0.1570      0.8312      1.1861
         2        -0.1483      0.3804     -0.3068
         3        -0.1504     -0.1786      0.3722
         4        -0.2236      0.7202      0.0930
         5         0.4331      0.1660     -0.5759
 Ground to excited state transition velocity quadrupole moments (Au):
       state          XX          YY          ZZ          XY          XZ          YZ
         1        -0.0410      0.1268      0.0134      1.2846     -0.9199     -0.1672
         2        -0.9551     -0.0353     -0.0398     -0.4904     -0.2451      0.0901
         3        -0.0491     -0.1528      0.0429     -0.1054      0.0427      0.0381
         4        -0.0605     -0.1549     -0.0077     -0.1737      0.0339     -0.0751
         5        -0.4638      0.2528     -0.0438      0.0313     -0.3156     -0.0686
 <0|del|b> * <b|rxdel|0> + <0|del|b> * <b|delr+rdel|0>
 Rotatory Strengths (R) in cgs (10**-40 erg-esu-cm/Gauss)
       state          XX          YY          ZZ    R(velocity)    E-M Angle
         1        71.0626     52.5141    -71.4992     17.3592       88.93
         2       -47.1521     -7.4076     32.0204     -7.5131       93.35
         3         2.1166     -1.5427      5.3117      1.9619       74.12
         4        -9.9398      5.9507     -7.9877     -3.9923      109.00
         5        18.9937     10.2940    -41.9879     -4.2334       93.75
 1/2[<0|r|b>*<b|rxdel|0> + (<0|rxdel|b>*<b|r|0>)*]
 Rotatory Strengths (R) in cgs (10**-40 erg-esu-cm/Gauss)
       state          XX          YY          ZZ     R(length)
         1        -3.3282   1367.0934  -1310.0821     17.8944
         2        84.7990   -186.5198     82.8806     -6.2800
         3         6.3008      5.5900      0.1402      4.0103
         4        12.2028    -17.1370     -0.3871     -1.7738
         5       -89.3121    -13.6541     86.7063     -5.4200
  1/2[<0|del|b>*<b|r|0> + (<0|r|b>*<b|del|0>)*] (Au)
       state          X           Y           Z        Dip. S.   Osc.(frdel)
         1        -0.0000     -0.3529     -0.1593      0.5122      0.3415
         2        -0.0509     -0.0383     -0.0112      0.1004      0.0669
         3        -0.0003     -0.0002      0.0000      0.0005      0.0003
         4        -0.0005     -0.0002      0.0000      0.0006      0.0004
         5        -0.0093     -0.0017     -0.0053      0.0163      0.0109

 Excitation energies and oscillator strengths:
 
 Excited State   1:      Singlet-A      1.8425 eV  672.91 nm  f=0.3543  <S**2>=0.000
     245 -> 248        0.18706
     246 -> 247        0.68962
     246 <- 247       -0.10348
 This state for optimization and/or second-order correction.
 Total Energy, E(TD-HF/TD-DFT) =  -3005.26688296    
 Copying the excited state density for this state as the 1-particle RhoCI density.
 
 Excited State   2:      Singlet-A      2.2611 eV  548.34 nm  f=0.0709  <S**2>=0.000
     245 -> 247        0.62446
     246 -> 248       -0.32226
 
 Excited State   3:      Singlet-A      2.8228 eV  439.22 nm  f=0.0004  <S**2>=0.000
     244 -> 247        0.67723
     244 -> 249        0.11382
     244 -> 250        0.10793
 
 Excited State   4:      Singlet-A      3.1006 eV  399.87 nm  f=0.0005  <S**2>=0.000
     240 -> 247        0.43782
     240 -> 249       -0.17319
     241 -> 247       -0.24550
     242 -> 247        0.17733
     243 -> 247       -0.41153
 
 Excited State   5:      Singlet-A      3.1488 eV  393.75 nm  f=0.0111  <S**2>=0.000
     240 -> 247        0.35239
     240 -> 249       -0.11276
     241 -> 247       -0.21335
     242 -> 247       -0.19686
     243 -> 247        0.48117
     246 -> 248        0.15627
 SavETr:  write IOETrn=   770 NScale= 10 NData=  16 NLR=1 NState=    5 LETran=     100.
 Leave Link  914 at Sat Apr 30 10:53:42 2022, MaxMem= 10066329600 cpu:           24247.0 elap:            1012.2
 (Enter /sw/apps/gaussian-16.0/g16/l601.exe)
 Copying SCF densities to generalized density rwf, IOpCl= 0 IROHF=0.
 Hyperfine terms turned off by default for NAtoms > 100.

 **********************************************************************

            Population analysis using the SCF density.

 **********************************************************************

 Orbital symmetries:
       Occupied  (A) (A) (A) (A) (A) (A) (A) (A) (A) (A) (A) (A)
                 (A) (A) (A) (A) (A) (A) (A) (A) (A) (A) (A) (A)
                 (A) (A) (A) (A) (A) (A) (A) (A) (A) (A) (A) (A)
                 (A) (A) (A) (A) (A) (A) (A) (A) (A) (A) (A) (A)
                 (A) (A) (A) (A) (A) (A) (A) (A) (A) (A) (A) (A)
                 (A) (A) (A) (A) (A) (A) (A) (A) (A) (A) (A) (A)
                 (A) (A) (A) (A) (A) (A) (A) (A) (A) (A) (A) (A)
                 (A) (A) (A) (A) (A) (A) (A) (A) (A) (A) (A) (A)
                 (A) (A) (A) (A) (A) (A) (A) (A) (A) (A) (A) (A)
                 (A) (A) (A) (A) (A) (A) (A) (A) (A) (A) (A) (A)
                 (A) (A) (A) (A) (A) (A) (A) (A) (A) (A) (A) (A)
                 (A) (A) (A) (A) (A) (A) (A) (A) (A) (A) (A) (A)
                 (A) (A) (A) (A) (A) (A) (A) (A) (A) (A) (A) (A)
                 (A) (A) (A) (A) (A) (A) (A) (A) (A) (A) (A) (A)
                 (A) (A) (A) (A) (A) (A) (A) (A) (A) (A) (A) (A)
                 (A) (A) (A) (A) (A) (A) (A) (A) (A) (A) (A) (A)
                 (A) (A) (A) (A) (A) (A) (A) (A) (A) (A) (A) (A)
                 (A) (A) (A) (A) (A) (A) (A) (A) (A) (A) (A) (A)
                 (A) (A) (A) (A) (A) (A) (A) (A) (A) (A) (A) (A)
                 (A) (A) (A) (A) (A) (A) (A) (A) (A) (A) (A) (A)
                 (A) (A) (A) (A) (A) (A)
       Virtual   (A) (A) (A) (A) (A) (A) (A) (A) (A) (A) (A) (A)
                 (A) (A) (A) (A) (A) (A) (A) (A) (A) (A) (A) (A)
                 (A) (A) (A) (A) (A) (A) (A) (A) (A) (A) (A) (A)
                 (A) (A) (A) (A) (A) (A) (A) (A) (A) (A) (A) (A)
                 (A) (A) (A) (A) (A) (A) (A) (A) (A) (A) (A) (A)
                 (A) (A) (A) (A) (A) (A) (A) (A) (A) (A) (A) (A)
                 (A) (A) (A) (A) (A) (A) (A) (A) (A) (A) (A) (A)
                 (A) (A) (A) (A) (A) (A) (A) (A) (A) (A) (A) (A)
                 (A) (A) (A) (A) (A) (A) (A) (A) (A) (A) (A) (A)
                 (A) (A) (A) (A) (A) (A) (A) (A) (A) (A) (A) (A)
                 (A) (A) (A) (A) (A) (A) (A) (A) (A) (A) (A) (A)
                 (A) (A) (A) (A) (A) (A) (A) (A) (A) (A) (A) (A)
                 (A) (A) (A) (A) (A) (A) (A) (A) (A) (A) (A) (A)
                 (A) (A) (A) (A) (A) (A) (A) (A) (A) (A) (A) (A)
                 (A) (A) (A) (A) (A) (A) (A) (A) (A) (A) (A) (A)
                 (A) (A) (A) (A) (A) (A) (A) (A) (A) (A) (A) (A)
                 (A) (A) (A) (A) (A) (A) (A) (A) (A) (A) (A) (A)
                 (A) (A) (A) (A) (A) (A) (A) (A) (A) (A) (A) (A)
                 (A) (A) (A) (A) (A) (A) (A) (A) (A) (A) (A) (A)
                 (A) (A) (A) (A) (A) (A) (A) (A) (A) (A) (A) (A)
                 (A) (A) (A) (A) (A) (A) (A) (A) (A) (A) (A) (A)
                 (A) (A) (A) (A) (A) (A) (A) (A) (A) (A) (A) (A)
                 (A) (A) (A) (A) (A) (A) (A) (A) (A) (A) (A) (A)
                 (A) (A) (A) (A) (A) (A) (A) (A) (A) (A) (A) (A)
                 (A) (A) (A) (A) (A) (A) (A) (A) (A) (A) (A) (A)
                 (A) (A) (A) (A) (A) (A) (A) (A) (A) (A) (A) (A)
                 (A) (A) (A) (A) (A) (A) (A) (A) (A) (A) (A) (A)
[...]
 Alpha virt. eigenvalues --    1.16639   1.16951   1.17194   1.17707   1.18254
 Alpha virt. eigenvalues --    1.18986   1.19465   1.19863   1.19961   1.20664
 Alpha virt. eigenvalues --    1.20987   1.21686   1.22612   1.23035   1.23157
 Alpha virt. eigenvalues --    1.23350   1.23855   1.24476   1.24866   1.25121
 Alpha virt. eigenvalues --    1.25626   1.25975   1.26637   1.27330   1.27501
 Alpha virt. eigenvalues --    1.27849   1.28026   1.29175   1.29955   1.30342
 Alpha virt. eigenvalues --    1.30882   1.31318   1.31585   1.32154   1.32546
 Alpha virt. eigenvalues --    1.32975   1.33563   1.33803   1.34001   1.34140
 Alpha virt. eigenvalues --    1.34456   1.35399   1.35762   1.36205   1.36256
 Alpha virt. eigenvalues --    1.36363   1.36834   1.37142   1.37493   1.38063
 Alpha virt. eigenvalues --    1.38488   1.38686   1.39220   1.39695   1.39942
 Alpha virt. eigenvalues --    1.40377   1.40628   1.40889   1.41783   1.41920
 Alpha virt. eigenvalues --    1.42440   1.42621   1.43717   1.44195   1.44495
 Alpha virt. eigenvalues --    1.44721   1.45065   1.45378   1.45618   1.46272
 Alpha virt. eigenvalues --    1.46611   1.47045   1.47742   1.48004   1.48223
 Alpha virt. eigenvalues --    1.49481   1.50007   1.50143   1.50460   1.50679
 Alpha virt. eigenvalues --    1.50987   1.51250   1.52169   1.52289   1.52644
 Alpha virt. eigenvalues --    1.52649   1.52820   1.53161   1.53387   1.54235
 Alpha virt. eigenvalues --    1.54277   1.54728   1.54836   1.54943   1.55541
 Alpha virt. eigenvalues --    1.55756   1.56262   1.56458   1.56657   1.56832
 Alpha virt. eigenvalues --    1.56859   1.57029   1.57082   1.57201   1.57425
 Alpha virt. eigenvalues --    1.57923   1.58033   1.58414   1.58502   1.59091
 Alpha virt. eigenvalues --    1.59462   1.59907   1.59990   1.60167   1.60543
 Alpha virt. eigenvalues --    1.61694   1.62098   1.62959   1.63070   1.63427
 Alpha virt. eigenvalues --    1.63944   1.63999   1.64901   1.65431   1.65761
 Alpha virt. eigenvalues --    1.66632   1.66882   1.67289   1.67534   1.67787
 Alpha virt. eigenvalues --    1.68640   1.68724   1.68972   1.69322   1.69687
 Alpha virt. eigenvalues --    1.69852   1.70370   1.70745   1.70929   1.71297
 Alpha virt. eigenvalues --    1.71594   1.72001   1.72209   1.72544   1.72663
 Alpha virt. eigenvalues --    1.72795   1.73398   1.73647   1.73842   1.73928
 Alpha virt. eigenvalues --    1.74158   1.74246   1.74933   1.75191   1.75284
 Alpha virt. eigenvalues --    1.75430   1.76096   1.76343   1.76665   1.76826
 Alpha virt. eigenvalues --    1.77058   1.77331   1.77513   1.77740   1.77827
 Alpha virt. eigenvalues --    1.78001   1.78378   1.78533   1.78543   1.78710
 Alpha virt. eigenvalues --    1.78913   1.79086   1.79244   1.79389   1.79483
 Alpha virt. eigenvalues --    1.79668   1.79794   1.79935   1.80183   1.80247
 Alpha virt. eigenvalues --    1.80449   1.80809   1.80973   1.81096   1.81165
 Alpha virt. eigenvalues --    1.81269   1.81723   1.81814   1.82035   1.82111
 Alpha virt. eigenvalues --    1.82356   1.82781   1.82880   1.83266   1.83602
 Alpha virt. eigenvalues --    1.83693   1.83882   1.84102   1.84594   1.84830
 Alpha virt. eigenvalues --    1.84940   1.85198   1.85657   1.85699   1.85765
 Alpha virt. eigenvalues --    1.86009   1.86390   1.86478   1.86631   1.86818
 Alpha virt. eigenvalues --    1.87243   1.87321   1.87611   1.87766   1.87906
 Alpha virt. eigenvalues --    1.88139   1.88412   1.88670   1.88862   1.89335
 Alpha virt. eigenvalues --    1.89729   1.89924   1.90159   1.90350   1.90906
 Alpha virt. eigenvalues --    1.91227   1.91236   1.91631   1.92049   1.92234
 Alpha virt. eigenvalues --    1.92274   1.92550   1.92600   1.93082   1.93140
 Alpha virt. eigenvalues --    1.93523   1.93596   1.93685   1.93996   1.94139
 Alpha virt. eigenvalues --    1.94741   1.95127   1.95763   1.95859   1.96044
 Alpha virt. eigenvalues --    1.96347   1.96630   1.96737   1.96754   1.97242
 Alpha virt. eigenvalues --    1.97509   1.97759   1.97957   1.98210   1.98271
 Alpha virt. eigenvalues --    1.98327   1.98723   1.99557   1.99621   1.99722
 Alpha virt. eigenvalues --    1.99974   2.00166   2.00285   2.00908   2.00981
 Alpha virt. eigenvalues --    2.01592   2.01705   2.01765   2.02263   2.02708
 Alpha virt. eigenvalues --    2.02944   2.03139   2.03381   2.03591   2.04204
 Alpha virt. eigenvalues --    2.04495   2.04772   2.05138   2.05498   2.05836
 Alpha virt. eigenvalues --    2.06043   2.06474   2.06608   2.06711   2.06853
 Alpha virt. eigenvalues --    2.07034   2.07621   2.07758   2.08195   2.08607
 Alpha virt. eigenvalues --    2.08704   2.09081   2.09245   2.09860   2.10290
 Alpha virt. eigenvalues --    2.10491   2.10727   2.11053   2.11339   2.11522
 Alpha virt. eigenvalues --    2.11563   2.11749   2.12072   2.12287   2.12696
 Alpha virt. eigenvalues --    2.12902   2.13299   2.13958   2.14446   2.14903
 Alpha virt. eigenvalues --    2.15022   2.15313   2.15605   2.16053   2.16087
 Alpha virt. eigenvalues --    2.17096   2.17306   2.17749   2.17889   2.18396
 Alpha virt. eigenvalues --    2.18503   2.18664   2.19252   2.19379   2.19825
 Alpha virt. eigenvalues --    2.20284   2.20549   2.20938   2.21261   2.22020
 Alpha virt. eigenvalues --    2.22283   2.22861   2.23684   2.24483   2.25186
 Alpha virt. eigenvalues --    2.25323   2.25555   2.26632   2.26837   2.27236
 Alpha virt. eigenvalues --    2.27480   2.28389   2.28523   2.29066   2.29495
 Alpha virt. eigenvalues --    2.29758   2.30557   2.30965   2.31211   2.31976
 Alpha virt. eigenvalues --    2.32501   2.32897   2.33444   2.34003   2.34316
 Alpha virt. eigenvalues --    2.34410   2.34458   2.34675   2.35028   2.35626
 Alpha virt. eigenvalues --    2.35688   2.35967   2.36702   2.37007   2.37108
 Alpha virt. eigenvalues --    2.37418   2.37493   2.37854   2.38314   2.38447
 Alpha virt. eigenvalues --    2.38601   2.38718   2.39206   2.39398   2.40387
 Alpha virt. eigenvalues --    2.40663   2.41068   2.41385   2.41548   2.42196
 Alpha virt. eigenvalues --    2.42662   2.43013   2.43067   2.43226   2.43997
 Alpha virt. eigenvalues --    2.44263   2.44734   2.44965   2.46263   2.46333
 Alpha virt. eigenvalues --    2.46907   2.47145   2.47253   2.48128   2.48453
 Alpha virt. eigenvalues --    2.48557   2.48906   2.49218   2.49363   2.49368
 Alpha virt. eigenvalues --    2.49798   2.49813   2.50281   2.51308   2.51715
 Alpha virt. eigenvalues --    2.52139   2.52469   2.52732   2.53104   2.53573
 Alpha virt. eigenvalues --    2.54337   2.55098   2.55280   2.55373   2.55779
 Alpha virt. eigenvalues --    2.56347   2.56742   2.56805   2.57473   2.57638
 Alpha virt. eigenvalues --    2.57900   2.58530   2.58910   2.59114   2.59339
 Alpha virt. eigenvalues --    2.59957   2.60566   2.60608   2.61125   2.62303
 Alpha virt. eigenvalues --    2.63285   2.63470   2.63590   2.64096   2.64363
 Alpha virt. eigenvalues --    2.64418   2.64780   2.65142   2.65248   2.65771
 Alpha virt. eigenvalues --    2.66137   2.66439   2.67183   2.67205   2.67656
 Alpha virt. eigenvalues --    2.67820   2.67894   2.69197   2.69515   2.69849
 Alpha virt. eigenvalues --    2.70298   2.70554   2.70827   2.71497   2.71948
 Alpha virt. eigenvalues --    2.72320   2.72510   2.72940   2.73301   2.73675
 Alpha virt. eigenvalues --    2.73965   2.74059   2.74429   2.74487   2.75102
 Alpha virt. eigenvalues --    2.75245   2.75774   2.76801   2.76854   2.77457
 Alpha virt. eigenvalues --    2.77688   2.77946   2.78249   2.79885   2.80157
 Alpha virt. eigenvalues --    2.80394   2.80948   2.82270   2.82694   2.83294
 Alpha virt. eigenvalues --    2.83731   2.84342   2.84468   2.85112   2.85592
 Alpha virt. eigenvalues --    2.85960   2.86358   2.87229   2.87591   2.88438
 Alpha virt. eigenvalues --    2.88701   2.89513   2.89685   2.90022   2.90672
 Alpha virt. eigenvalues --    2.91025   2.91445   2.91480   2.91971   2.92118
 Alpha virt. eigenvalues --    2.92646   2.92690   2.93506   2.93730   2.94156
 Alpha virt. eigenvalues --    2.94358   2.94453   2.95111   2.95366   2.95709
 Alpha virt. eigenvalues --    2.96393   2.96437   2.97009   2.97207   2.97341
 Alpha virt. eigenvalues --    2.97894   2.97929   2.98157   2.98574   2.98804
 Alpha virt. eigenvalues --    2.99283   2.99421   2.99670   2.99908   2.99986
 Alpha virt. eigenvalues --    3.00462   3.00820   3.01058   3.01473   3.01754
 Alpha virt. eigenvalues --    3.01982   3.02288   3.02442   3.02577   3.03028
 Alpha virt. eigenvalues --    3.03634   3.03865   3.04043   3.05179   3.05585
 Alpha virt. eigenvalues --    3.06518   3.06698   3.07241   3.07576   3.08073
 Alpha virt. eigenvalues --    3.08317   3.08645   3.08916   3.09838   3.10110
 Alpha virt. eigenvalues --    3.10295   3.10400   3.10646   3.11581   3.11696
 Alpha virt. eigenvalues --    3.12410   3.13508   3.14411   3.14611   3.15389
 Alpha virt. eigenvalues --    3.15663   3.16102   3.16183   3.16940   3.17677
 Alpha virt. eigenvalues --    3.18976   3.19640   3.19776   3.20407   3.22152
 Alpha virt. eigenvalues --    3.26193   3.28128   3.37457   3.38115   3.38703
 Alpha virt. eigenvalues --    3.40525   3.44753   3.45542   3.47090   3.49638
 Alpha virt. eigenvalues --    3.53093   3.56975   3.58884   3.62589   3.64617
 Alpha virt. eigenvalues --    3.67348   3.67522
          Condensed to atoms (all electrons):
 Mulliken charges:
               1
     1  Mg   0.995494
     2  C   -0.052906
     3  C   -0.057466
     4  C   -0.066416
     5  C   -0.092642
     6  N   -0.339126
     7  C    0.007484
     8  C   -0.090452
     9  C   -0.122127
    10  C    0.083207
    11  C   -0.013439
    12  C    0.032215
    13  C   -0.028303
    14  C    0.248625
    15  O   -0.299523
    16  O   -0.338575
    17  N   -0.510097
    18  C    0.151355
    19  C   -0.148759
    20  C   -0.093841
    21  C    0.173473
    22  C    0.077586
    23  C    0.013296
    24  O   -0.239591
    25  C   -0.012243
    26  N   -0.456718
    27  C    0.106202
    28  C   -0.126995
    29  C   -0.068078
    30  C    0.042584
    31  C   -0.011553
    32  C   -0.033384
    33  C   -0.058384
    34  N   -0.449622
    35  C    0.164724
    36  C   -0.190928
    37  C   -0.077116
    38  C    0.208547
    39  C    0.059430
    40  C    0.153943
    41  O   -0.232390
    42  C   -0.111143
    43  C    0.300958
    44  O   -0.260607
    45  O   -0.386619
    46  C    0.117487
    47  C    0.287114
    48  C   -0.175181
    49  C   -0.239184
    50  C   -0.008488
    51  C    0.034158
    52  C   -0.045655
    53  C    0.055446
    54  C   -0.266346
    55  C    0.003936
    56  C   -0.046354
    57  C   -0.047414
    58  C    0.025674
    59  C   -0.232085
    60  C    0.006258
    61  C   -0.013281
    62  C   -0.038954
    63  C    0.020575
    64  C   -0.264447
    65  C   -0.037308
    66  C   -0.028854
    67  H    0.003319
    68  H    0.004879
    69  H    0.013359
    70  H    0.062601
    71  H    0.038278
    72  H    0.038433
    73  H    0.050668
    74  H    0.043106
    75  H    0.045421
    76  H    0.045283
    77  H    0.063805
    78  H    0.084899
    79  H    0.072071
    80  H    0.064751
    81  H    0.025960
    82  H    0.053856
    83  H    0.070813
    84  H    0.057889
    85  H    0.053827
    86  H    0.045762
    87  H    0.042954
    88  H    0.045058
    89  H    0.043967
    90  H    0.063389
    91  H    0.036723
    92  H    0.046176
    93  H    0.028751
    94  H    0.054697
    95  H    0.063048
    96  H    0.060644
    97  H    0.042119
    98  H    0.084323
    99  H    0.065819
   100  H    0.066195
   101  H    0.078874
   102  H    0.044832
   103  H    0.042994
   104  H    0.006000
   105  H    0.065777
   106  H    0.052662
   107  H    0.032626
   108  H    0.031108
   109  H    0.033595
   110  H    0.029501
   111  H    0.028442
   112  H    0.033659
   113  H    0.046145
   114  H    0.035530
   115  H    0.038510
   116  H    0.014614
   117  H    0.030559
   118  H    0.023822
   119  H    0.025008
   120  H    0.030492
   121  H    0.042629
   122  H    0.016759
   123  H    0.030839
   124  H    0.047788
   125  H    0.032318
   126  H    0.037319
   127  H    0.034834
   128  H    0.032468
   129  H    0.026951
   130  H    0.022839
   131  H    0.018308
   132  H    0.012806
   133  H    0.020148
   134  H    0.045676
   135  H    0.034766
   136  H    0.038865
   137  H    0.035642
   138  H    0.040929
   139  H    0.024867
   140  H    0.038483
 Sum of Mulliken charges =  -0.00000
 Mulliken charges with hydrogens summed into heavy atoms:
               1
     1  Mg   0.995494
     2  C   -0.052906
     3  C   -0.054147
     4  C   -0.061537
     5  C   -0.079283
     6  N   -0.339126
     7  C    0.007484
     8  C   -0.027851
     9  C   -0.083849
    10  C    0.083207
    11  C    0.118768
    12  C    0.122918
    13  C    0.120401
    14  C    0.248625
    15  O   -0.299523
    16  O   -0.338575
    17  N   -0.510097
    18  C    0.151355
    19  C   -0.148759
    20  C   -0.093841
    21  C    0.173473
    22  C    0.240367
    23  C    0.013296
    24  O   -0.239591
    25  C    0.170315
    26  N   -0.456718
    27  C    0.106202
    28  C   -0.073168
    29  C   -0.022316
    30  C    0.042584
    31  C    0.120426
    32  C    0.066728
    33  C    0.071240
    34  N   -0.449622
    35  C    0.164724
    36  C   -0.190928
    37  C   -0.077116
    38  C    0.208547
    39  C    0.225241
    40  C    0.153943
    41  O   -0.232390
    42  C   -0.026820
    43  C    0.300958
    44  O   -0.260607
    45  O   -0.386619
    46  C    0.328375
    47  C    0.374940
    48  C   -0.169180
    49  C   -0.239184
    50  C    0.142577
    51  C    0.098861
    52  C    0.012288
    53  C    0.135250
    54  C   -0.230816
    55  C    0.087619
    56  C    0.002476
    57  C    0.025707
    58  C    0.073272
    59  C   -0.184297
    60  C    0.110728
    61  C    0.046138
    62  C    0.002193
    63  C    0.053528
    64  C   -0.218771
    65  C    0.071964
    66  C    0.075425
 Electronic spatial extent (au):  <R**2>=          94021.9480
 Charge=             -0.0000 electrons
 Dipole moment (field-independent basis, Debye):
    X=              0.0775    Y=              1.0547    Z=              2.3424  Tot=              2.5701
 Quadrupole moment (field-independent basis, Debye-Ang):
   XX=           -357.1292   YY=           -429.0545   ZZ=           -400.1654
   XY=              3.5813   XZ=             26.6053   YZ=             23.2218
 Traceless Quadrupole moment (field-independent basis, Debye-Ang):
   XX=             38.3205   YY=            -33.6048   ZZ=             -4.7157
   XY=              3.5813   XZ=             26.6053   YZ=             23.2218
 Octapole moment (field-independent basis, Debye-Ang**2):
  XXX=            177.7627  YYY=           -270.3930  ZZZ=             23.1595  XYY=           -144.0458
  XXY=             61.1163  XXZ=            217.0120  XZZ=             68.2098  YZZ=            -45.1433
  YYZ=             10.8969  XYZ=            126.8663
 Hexadecapole moment (field-independent basis, Debye-Ang**3):
 XXXX=         -84853.4218 YYYY=         -28459.8614 ZZZZ=         -11811.6847 XXXY=            556.6298
 XXXZ=           1584.5150 YYYX=           -407.8547 YYYZ=           1802.1446 ZZZX=            369.3893
 ZZZY=            101.0279 XXYY=         -19776.2821 XXZZ=         -16676.7627 YYZZ=          -7062.4764
 XXYZ=            470.5601 YYXZ=            545.3535 ZZXY=           -235.3353
 N-N= 9.788706219239D+03 E-N=-2.656790895587D+04  KE= 2.974881501246D+03
 Leave Link  601 at Sat Apr 30 10:53:43 2022, MaxMem= 10066329600 cpu:              10.2 elap:               0.5
 (Enter /sw/apps/gaussian-16.0/g16/l9999.exe)
 1\1\GINC-BP1-COMPUTE103\SP\RPBE1PBE TD-FC\def2SVP\C55H74Mg1N4O6\OF1564
 1\30-Apr-2022\0\\#p PBE1PBE/Def2SVP td=(nstates=5)\\step_701_chromopho
 re_23 TDDFT with PBE1PBE functional\\0,1\Mg,0,-11.007,40.418,42.528\C,
 0,-9.157,37.505,41.458\C,0,-8.701,42.338,40.758\C,0,-12.981,42.956,42.
 986\C,0,-13.588,38.084,43.472\N,0,-9.12,39.965,41.25\C,0,-8.551,38.736
 ,41.001\C,0,-7.214,38.82,40.196\C,0,-7.002,40.349,40.208\C,0,-8.349,40
 .963,40.811\C,0,-5.738,40.768,40.821\C,0,-7.33,38.186,38.787\C,0,-6.77
 8,36.814,38.533\C,0,-5.792,36.608,37.409\O,0,-4.718,37.248,37.303\O,0,
 -6.132,35.568,36.571\N,0,-10.848,42.424,42.035\C,0,-9.814,43.075,41.29
 2\C,0,-10.101,44.505,41.19\C,0,-11.301,44.704,41.96\C,0,-11.803,43.318
 ,42.311\C,0,-9.192,45.435,40.519\C,0,-11.955,46.036,42.244\O,0,-11.531
 ,47.086,41.819\C,0,-13.18,46.198,42.99\N,0,-12.937,40.486,43.179\C,0,-
 13.554,41.697,43.327\C,0,-15.053,41.637,43.781\C,0,-15.235,40.044,43.7
 86\C,0,-13.885,39.464,43.45\C,0,-15.33,42.29,45.151\C,0,-16.279,39.412
 ,42.787\C,0,-17.594,38.909,43.387\N,0,-11.313,38.321,42.551\C,0,-12.38
 9,37.541,42.989\C,0,-11.941,36.175,43.093\C,0,-10.729,36.113,42.421\C,
 0,-10.41,37.471,42.081\C,0,-12.764,35.041,43.645\C,0,-9.694,35.179,42.
 037\O,0,-9.616,33.939,42.057\C,0,-8.626,36.072,41.483\C,0,-7.378,35.99
 8,42.302\O,0,-7.026,36.642,43.297\O,0,-6.515,35.14,41.675\C,0,-5.344,3
 4.554,42.448\C,0,-5.286,35.358,35.42\C,0,-5.976,35.569,34.08\C,0,-6.03
 2,36.608,33.281\C,0,-5.369,37.957,33.673\C,0,-6.734,36.589,31.95\C,0,-
 5.803,36.372,30.757\C,0,-6.328,35.615,29.604\C,0,-5.855,36.342,28.278\
 C,0,-5.277,35.221,27.395\C,0,-7.055,37.038,27.561\C,0,-7.58,38.268,28.
 283\C,0,-9.091,38.526,28.149\C,0,-9.715,39.158,29.425\C,0,-10.425,38.1
 73,30.345\C,0,-10.716,40.291,28.937\C,0,-9.93,41.651,28.818\C,0,-9.656
 ,42.335,30.172\C,0,-8.17,42.452,30.586\C,0,-7.933,41.987,32.075\C,0,-7
 .829,44.002,30.541\H,0,-7.915,42.935,40.289\H,0,-13.718,43.758,42.909\
 H,0,-14.414,37.467,43.831\H,0,-6.426,38.423,40.837\H,0,-6.839,40.758,3
 9.211\H,0,-5.461,41.822,40.792\H,0,-4.9,40.314,40.292\H,0,-5.715,40.44
 1,41.861\H,0,-6.849,38.853,38.071\H,0,-8.374,38.228,38.478\H,0,-7.632,
 36.165,38.339\H,0,-6.393,36.506,39.505\H,0,-9.019,46.254,41.217\H,0,-9
 .604,45.741,39.557\H,0,-8.221,45.007,40.27\H,0,-13.089,45.584,43.886\H
 ,0,-13.99,45.825,42.363\H,0,-13.332,47.255,43.209\H,0,-15.805,42.133,4
 3.167\H,0,-15.348,39.76,44.833\H,0,-14.46,42.299,45.807\H,0,-16.123,41
 .811,45.725\H,0,-15.619,43.335,45.042\H,0,-15.781,38.633,42.209\H,0,-1
 6.544,40.289,42.197\H,0,-17.913,39.642,44.128\H,0,-17.255,38.007,43.89
 6\H,0,-18.355,38.542,42.698\H,0,-12.068,34.24,43.893\H,0,-13.444,34.66
 6,42.88\H,0,-13.369,35.309,44.512\H,0,-8.399,35.668,40.497\H,0,-4.554,
 34.156,41.812\H,0,-5.78,33.664,42.9\H,0,-4.93,35.215,43.21\H,0,-4.8,34
 .39,35.299\H,0,-4.47,36.074,35.33\H,0,-6.48,34.686,33.687\H,0,-4.402,3
 7.947,34.174\H,0,-6.082,38.373,34.385\H,0,-5.355,38.7,32.876\H,0,-7.16
 3,37.591,31.929\H,0,-7.502,35.825,32.07\H,0,-4.931,35.911,31.221\H,0,-
 5.418,37.353,30.477\H,0,-7.412,35.658,29.504\H,0,-5.948,34.601,29.726\
 H,0,-5.098,37.124,28.335\H,0,-4.188,35.277,27.373\H,0,-5.599,35.265,26
 .355\H,0,-5.645,34.244,27.709\H,0,-7.792,36.269,27.328\H,0,-6.595,37.3
 3,26.617\H,0,-7.067,39.022,27.687\H,0,-7.291,38.25,29.334\H,0,-9.427,3
 7.499,28.003\H,0,-9.246,39.014,27.186\H,0,-9.012,39.646,30.1\H,0,-11.4
 76,38.16,30.059\H,0,-10.275,38.618,31.329\H,0,-10.093,37.136,30.296\H,
 0,-11.594,40.495,29.551\H,0,-11.035,39.983,27.941\H,0,-10.404,42.349,2
 8.127\H,0,-8.985,41.497,28.297\H,0,-10.179,41.951,31.048\H,0,-10.071,4
 3.343,30.178\H,0,-7.546,41.848,29.927\H,0,-7.834,40.904,32.141\H,0,-8.
 72,42.282,32.77\H,0,-7.024,42.459,32.447\H,0,-8.452,44.666,29.943\H,0,
 -6.874,44.033,30.017\H,0,-7.622,44.443,31.516\\Version=ES64L-G16RevA.0
 3\State=1-A\HF=-3005.3345936\RMSD=5.490e-09\PG=C01 [X(C55H74Mg1N4O6)]\
 \@


 VIRTUE IS LEARNED AT YOUR MOTHER'S KNEE,
 VICES ARE PICKED UP AT SOME OTHER JOINT.
 Job cpu time:       0 days  8 hours 36 minutes 47.9 seconds.
 Elapsed time:       0 days  0 hours 21 minutes 36.0 seconds.
 File lengths (MBytes):  RWF=   8929 Int=      0 D2E=      0 Chk=    390 Scr=      1
 Normal termination of Gaussian 16 at Sat Apr 30 10:53:44 2022.
