 Entering Gaussian System, Link 0=g16
 Initial command:
 /sw/apps/gaussian-16.0/g16/l1.exe "/tmp/Gau-204943.inp" -scrdir="/tmp/"
 Entering Link 1 = /sw/apps/gaussian-16.0/g16/l1.exe PID=    204944.
  
 Copyright (c) 1988,1990,1992,1993,1995,1998,2003,2009,2016,
            Gaussian, Inc.  All Rights Reserved.
  
 This is part of the Gaussian(R) 16 program.  It is based on
 the Gaussian(R) 09 system (copyright 2009, Gaussian, Inc.),
 the Gaussian(R) 03 system (copyright 2003, Gaussian, Inc.),
 the Gaussian(R) 98 system (copyright 1998, Gaussian, Inc.),
 the Gaussian(R) 94 system (copyright 1995, Gaussian, Inc.),
 the Gaussian 92(TM) system (copyright 1992, Gaussian, Inc.),
 the Gaussian 90(TM) system (copyright 1990, Gaussian, Inc.),
 the Gaussian 88(TM) system (copyright 1988, Gaussian, Inc.),
 the Gaussian 86(TM) system (copyright 1986, Carnegie Mellon
 University), and the Gaussian 82(TM) system (copyright 1983,
 Carnegie Mellon University). Gaussian is a federally registered
 trademark of Gaussian, Inc.
  
 This software contains proprietary and confidential information,
 including trade secrets, belonging to Gaussian, Inc.
  
 This software is provided under written license and may be
 used, copied, transmitted, or stored only in accord with that
 written license.
  
 The following legend is applicable only to US Government
 contracts under FAR:
  
                    RESTRICTED RIGHTS LEGEND
  
 Use, reproduction and disclosure by the US Government is
 subject to restrictions as set forth in subparagraphs (a)
 and (c) of the Commercial Computer Software - Restricted
 Rights clause in FAR 52.227-19.
  
 Gaussian, Inc.
 340 Quinnipiac St., Bldg. 40, Wallingford CT 06492
  
  
 ---------------------------------------------------------------
 Warning -- This program may not be used in any manner that
 competes with the business of Gaussian, Inc. or will provide
 assistance to any competitor of Gaussian, Inc.  The licensee
 of this program is prohibited from giving any competitor of
 Gaussian, Inc. access to this program.  By using this program,
 the user acknowledges that Gaussian, Inc. is engaged in the
 business of creating and licensing software in the field of
 computational chemistry and represents and warrants to the
 licensee that it is not a competitor of Gaussian, Inc. and that
 it will not use this program in any manner prohibited above.
 ---------------------------------------------------------------
  

 Cite this work as:
 Gaussian 16, Revision A.03,
 M. J. Frisch, G. W. Trucks, H. B. Schlegel, G. E. Scuseria, 
 M. A. Robb, J. R. Cheeseman, G. Scalmani, V. Barone, 
 G. A. Petersson, H. Nakatsuji, X. Li, M. Caricato, A. V. Marenich, 
 J. Bloino, B. G. Janesko, R. Gomperts, B. Mennucci, H. P. Hratchian, 
 J. V. Ortiz, A. F. Izmaylov, J. L. Sonnenberg, D. Williams-Young, 
 F. Ding, F. Lipparini, F. Egidi, J. Goings, B. Peng, A. Petrone, 
 T. Henderson, D. Ranasinghe, V. G. Zakrzewski, J. Gao, N. Rega, 
 G. Zheng, W. Liang, M. Hada, M. Ehara, K. Toyota, R. Fukuda, 
 J. Hasegawa, M. Ishida, T. Nakajima, Y. Honda, O. Kitao, H. Nakai, 
 T. Vreven, K. Throssell, J. A. Montgomery, Jr., J. E. Peralta, 
 F. Ogliaro, M. J. Bearpark, J. J. Heyd, E. N. Brothers, K. N. Kudin, 
 V. N. Staroverov, T. A. Keith, R. Kobayashi, J. Normand, 
 K. Raghavachari, A. P. Rendell, J. C. Burant, S. S. Iyengar, 
 J. Tomasi, M. Cossi, J. M. Millam, M. Klene, C. Adamo, R. Cammi, 
 J. W. Ochterski, R. L. Martin, K. Morokuma, O. Farkas, 
 J. B. Foresman, and D. J. Fox, Gaussian, Inc., Wallingford CT, 2016.
 
 ******************************************
 Gaussian 16:  ES64L-G16RevA.03 25-Dec-2016
                 4-May-2022 
 ******************************************
 %nproc=24
 Will use up to   24 processors via shared memory.
 %mem=75GB
 ---------------------------------
 #p PBE1PBE/Def2SVP td=(nstates=5)
 ---------------------------------
 1/38=1,172=1/1;
 2/12=2,17=6,18=5,40=1/2;
 3/5=43,7=101,11=9,25=1,30=1,74=-13/1,2,3,8;
 4//1;
 5/5=2,38=5/2;
 8/6=1,10=1,108=5/1;
 9/41=5,42=1,70=2/14;
 6/7=2,8=2,9=2,10=2/1;
 99/5=1,9=1/99;
 Leave Link    1 at Wed May  4 15:37:25 2022, MaxMem= 10066329600 cpu:               1.9 elap:               0.1
 (Enter /sw/apps/gaussian-16.0/g16/l101.exe)
 --------------------------------------------------
 step_1_chromophore_2 TDDFT with PBE1PBE functional
 --------------------------------------------------
 Symbolic Z-matrix:
 Charge =  0 Multiplicity = 1
 Mg                    3.158    -0.094     44.312 
 C                     5.981     1.967     44.127 
 C                     1.598     2.251     42.305 
 C                     0.535    -2.151     44.137 
 C                     5.149    -2.67      45.585 
 N                     3.887     1.897     43.132 
 C                     5.038     2.565     43.339 
 C                     5.131     3.861     42.57 
 C                     3.59      4.004     42.271 
 C                     2.946     2.644     42.52 
 C                     2.955     5.033     43.244 
 C                     6.136     3.755     41.416 
 C                     6.21      2.461     40.579 
 C                     6.195     2.644     39.066 
 O                     6.007     3.683     38.4 
 O                     6.519     1.434     38.422 
 N                     1.341     0.027     43.38 
 C                     0.866     1.125     42.713 
 C                    -0.598     1.037     42.635 
 C                    -0.951    -0.318     43.02 
 C                     0.339    -0.855     43.551 
 C                    -1.479     2.108     41.885 
 C                    -2.325    -0.981     42.895 
 O                    -3.285    -0.34      42.569 
 C                    -2.49     -2.436     43.227 
 N                     2.984    -2.239     44.619 
 C                     1.732    -2.881     44.593 
 C                     1.803    -4.396     45.061 
 C                     3.316    -4.491     45.581 
 C                     3.86     -3.019     45.284 
 C                     0.723    -4.977     46.104 
 C                     4.234    -5.645     44.969 
 C                     5.28     -6.178     46.068 
 N                     5.163    -0.356     44.84 
 C                     5.798    -1.431     45.428 
 C                     7.171    -1.059     45.747 
 C                     7.33      0.289     45.334 
 C                     6.084     0.653     44.707 
 C                     8.162    -1.875     46.535 
 C                     8.239     1.467     45.15 
 O                     9.427     1.578     45.356 
 C                     7.352     2.565     44.423 
 C                     7.283     3.745     45.353 
 O                     8.218     4.569     45.513 
 O                     6.001     3.854     45.872 
 C                     5.729     5.056     46.587 
 C                     6.66      1.463     36.987 
 C                     5.302     1.318     36.431 
 C                     5.078     0.839     35.187 
 C                     6.152     0.257     34.231 
 C                     3.638     0.679     34.791 
 C                     3.102     2.034     34.274 
 C                     2.501     1.746     32.904 
 C                     0.971     2.203     32.903 
 C                     0.118     0.988     33.3 
 C                     0.545     2.734     31.509 
 C                    -0.641     3.659     31.518 
 C                    -1.911     3.091     30.741 
 C                    -2.124     4.095     29.606 
 C                    -2.549     5.45      30.064 
 C                    -3.157     3.469     28.691 
 C                    -3.278     4.168     27.279 
 C                    -2.311     3.556     26.234 
 C                    -3.025     2.423     25.43 
 C                    -2.372     1.03      25.606 
 C                    -3.078     2.687     23.904 
 H                     1.075     3.032     41.749 
 H                    -0.296    -2.836     44.319 
 H                     5.7      -3.415     46.163 
 H                     5.376     4.7       43.221 
 H                     3.291     4.312     41.27 
 H                     1.94      4.68      43.428 
 H                     3.04      6.042     42.843 
 H                     3.315     5.085     44.272 
 H                     7.12      3.815     41.88 
 H                     5.982     4.608     40.755 
 H                     5.339     1.846     40.804 
 H                     7.152     1.964     40.809 
 H                    -1.465     2.038     40.797 
 H                    -1.165     3.109     42.181 
 H                    -2.53      2.147     42.169 
 H                    -3.476    -2.809     42.948 
 H                    -2.332    -2.656     44.283 
 H                    -1.797    -2.902     42.526 
 H                     1.687    -4.884     44.094 
 H                     3.35     -4.606     46.664 
 H                    -0.107    -5.37      45.518 
 H                     0.379    -4.207     46.794 
 H                     1.203    -5.755     46.698 
 H                     4.889    -5.253     44.191 
 H                     3.628    -6.445     44.543 
 H                     6.307    -6.009     45.744 
 H                     5.136    -7.248     46.215 
 H                     5.312    -5.697     47.045 
 H                     8.316    -2.821     46.017 
 H                     7.758    -2.083     47.526 
 H                     9.136    -1.391     46.605 
 H                     7.97      2.884     43.584 
 H                     4.675     5.078     46.863 
 H                     6.083     5.93      46.04 
 H                     6.206     5.066     47.567 
 H                     7.208     0.658     36.497 
 H                     7.169     2.36      36.633 
 H                     4.481     1.537     37.114 
 H                     7.159     0.587     34.487 
 H                     5.947     0.594     33.215 
 H                     6.082    -0.817     34.399 
 H                     3.08      0.322     35.657 
 H                     3.654    -0.102     34.032 
 H                     3.888     2.789     34.254 
 H                     2.292     2.326     34.942 
 H                     2.469     0.695     32.613 
 H                     3.072     2.336     32.187 
 H                     0.708     2.993     33.605 
 H                    -0.853     1.132     32.825 
 H                     0.121     1.044     34.388 
 H                     0.469     0.036     32.903 
 H                     0.332     1.915     30.822 
 H                     1.341     3.336     31.071 
 H                    -0.396     4.636     31.103 
 H                    -0.935     3.809     32.556 
 H                    -2.78      2.956     31.384 
 H                    -1.74      2.143     30.231 
 H                    -1.152     4.354     29.187 
 H                    -1.7       6.127     29.966 
 H                    -2.999     5.445     31.057 
 H                    -3.348     5.871     29.454 
 H                    -4.121     3.583     29.187 
 H                    -3.        2.4       28.547 
 H                    -2.983     5.217     27.325 
 H                    -4.301     4.146     26.903 
 H                    -1.447     3.143     26.754 
 H                    -1.891     4.318     25.577 
 H                    -4.052     2.27      25.761 
 H                    -3.196     0.372     25.331 
 H                    -2.13      0.909     26.662 
 H                    -1.531     0.829     24.942 
 H                    -2.599     1.89      23.334 
 H                    -2.646     3.649     23.627 
 H                    -4.121     2.735     23.593 
 
 ITRead=  0  0  0  0  0  0  0  0  0  0  0  0  0  0  0  0  0  0  0  0
 ITRead=  0  0  0  0  0  0  0  0  0  0  0  0  0  0  0  0  0  0  0  0
 ITRead=  0  0  0  0  0  0  0  0  0  0  0  0  0  0  0  0  0  0  0  0
 ITRead=  0  0  0  0  0  0  0  0  0  0  0  0  0  0  0  0  0  0  0  0
 ITRead=  0  0  0  0  0  0  0  0  0  0  0  0  0  0  0  0  0  0  0  0
 ITRead=  0  0  0  0  0  0  0  0  0  0  0  0  0  0  0  0  0  0  0  0
 ITRead=  0  0  0  0  0  0  0  0  0  0  0  0  0  0  0  0  0  0  0  0
 MicOpt= -1 -1 -1 -1 -1 -1 -1 -1 -1 -1 -1 -1 -1 -1 -1 -1 -1 -1 -1 -1
 MicOpt= -1 -1 -1 -1 -1 -1 -1 -1 -1 -1 -1 -1 -1 -1 -1 -1 -1 -1 -1 -1
 MicOpt= -1 -1 -1 -1 -1 -1 -1 -1 -1 -1 -1 -1 -1 -1 -1 -1 -1 -1 -1 -1
 MicOpt= -1 -1 -1 -1 -1 -1 -1 -1 -1 -1 -1 -1 -1 -1 -1 -1 -1 -1 -1 -1
 MicOpt= -1 -1 -1 -1 -1 -1 -1 -1 -1 -1 -1 -1 -1 -1 -1 -1 -1 -1 -1 -1
 MicOpt= -1 -1 -1 -1 -1 -1 -1 -1 -1 -1 -1 -1 -1 -1 -1 -1 -1 -1 -1 -1
 MicOpt= -1 -1 -1 -1 -1 -1 -1 -1 -1 -1 -1 -1 -1 -1 -1 -1 -1 -1 -1 -1
 NAtoms=    140 NQM=      140 NQMF=       0 NMMI=      0 NMMIF=      0
                NMic=       0 NMicF=      0.
                    Isotopes and Nuclear Properties:
 (Nuclear quadrupole moments (NQMom) in fm**2, nuclear magnetic moments (NMagM)
  in nuclear magnetons)

  Atom         1           2           3           4           5           6           7           8           9          10
 IAtWgt=          24          12          12          12          12          14          12          12          12          12
 AtmWgt=  23.9850450  12.0000000  12.0000000  12.0000000  12.0000000  14.0030740  12.0000000  12.0000000  12.0000000  12.0000000
 NucSpn=           0           0           0           0           0           2           0           0           0           0
 AtZEff=  -0.0000000  -0.0000000  -0.0000000  -0.0000000  -0.0000000  -0.0000000  -0.0000000  -0.0000000  -0.0000000  -0.0000000
 NQMom=    0.0000000   0.0000000   0.0000000   0.0000000   0.0000000   2.0440000   0.0000000   0.0000000   0.0000000   0.0000000
 NMagM=    0.0000000   0.0000000   0.0000000   0.0000000   0.0000000   0.4037610   0.0000000   0.0000000   0.0000000   0.0000000
 AtZNuc=  12.0000000   6.0000000   6.0000000   6.0000000   6.0000000   7.0000000   6.0000000   6.0000000   6.0000000   6.0000000

  Atom        11          12          13          14          15          16          17          18          19          20
 IAtWgt=          12          12          12          12          16          16          14          12          12          12
 AtmWgt=  12.0000000  12.0000000  12.0000000  12.0000000  15.9949146  15.9949146  14.0030740  12.0000000  12.0000000  12.0000000
 NucSpn=           0           0           0           0           0           0           2           0           0           0
 AtZEff=  -0.0000000  -0.0000000  -0.0000000  -0.0000000  -0.0000000  -0.0000000  -0.0000000  -0.0000000  -0.0000000  -0.0000000
 NQMom=    0.0000000   0.0000000   0.0000000   0.0000000   0.0000000   0.0000000   2.0440000   0.0000000   0.0000000   0.0000000
 NMagM=    0.0000000   0.0000000   0.0000000   0.0000000   0.0000000   0.0000000   0.4037610   0.0000000   0.0000000   0.0000000
 AtZNuc=   6.0000000   6.0000000   6.0000000   6.0000000   8.0000000   8.0000000   7.0000000   6.0000000   6.0000000   6.0000000

  Atom        21          22          23          24          25          26          27          28          29          30
 IAtWgt=          12          12          12          16          12          14          12          12          12          12
 AtmWgt=  12.0000000  12.0000000  12.0000000  15.9949146  12.0000000  14.0030740  12.0000000  12.0000000  12.0000000  12.0000000
 NucSpn=           0           0           0           0           0           2           0           0           0           0
 AtZEff=  -0.0000000  -0.0000000  -0.0000000  -0.0000000  -0.0000000  -0.0000000  -0.0000000  -0.0000000  -0.0000000  -0.0000000
 NQMom=    0.0000000   0.0000000   0.0000000   0.0000000   0.0000000   2.0440000   0.0000000   0.0000000   0.0000000   0.0000000
 NMagM=    0.0000000   0.0000000   0.0000000   0.0000000   0.0000000   0.4037610   0.0000000   0.0000000   0.0000000   0.0000000
 AtZNuc=   6.0000000   6.0000000   6.0000000   8.0000000   6.0000000   7.0000000   6.0000000   6.0000000   6.0000000   6.0000000

  Atom        31          32          33          34          35          36          37          38          39          40
 IAtWgt=          12          12          12          14          12          12          12          12          12          12
 AtmWgt=  12.0000000  12.0000000  12.0000000  14.0030740  12.0000000  12.0000000  12.0000000  12.0000000  12.0000000  12.0000000
 NucSpn=           0           0           0           2           0           0           0           0           0           0
 AtZEff=  -0.0000000  -0.0000000  -0.0000000  -0.0000000  -0.0000000  -0.0000000  -0.0000000  -0.0000000  -0.0000000  -0.0000000
 NQMom=    0.0000000   0.0000000   0.0000000   2.0440000   0.0000000   0.0000000   0.0000000   0.0000000   0.0000000   0.0000000
 NMagM=    0.0000000   0.0000000   0.0000000   0.4037610   0.0000000   0.0000000   0.0000000   0.0000000   0.0000000   0.0000000
 AtZNuc=   6.0000000   6.0000000   6.0000000   7.0000000   6.0000000   6.0000000   6.0000000   6.0000000   6.0000000   6.0000000

  Atom        41          42          43          44          45          46          47          48          49          50
 IAtWgt=          16          12          12          16          16          12          12          12          12          12
 AtmWgt=  15.9949146  12.0000000  12.0000000  15.9949146  15.9949146  12.0000000  12.0000000  12.0000000  12.0000000  12.0000000
 NucSpn=           0           0           0           0           0           0           0           0           0           0
 AtZEff=  -0.0000000  -0.0000000  -0.0000000  -0.0000000  -0.0000000  -0.0000000  -0.0000000  -0.0000000  -0.0000000  -0.0000000
 NQMom=    0.0000000   0.0000000   0.0000000   0.0000000   0.0000000   0.0000000   0.0000000   0.0000000   0.0000000   0.0000000
 NMagM=    0.0000000   0.0000000   0.0000000   0.0000000   0.0000000   0.0000000   0.0000000   0.0000000   0.0000000   0.0000000
 AtZNuc=   8.0000000   6.0000000   6.0000000   8.0000000   8.0000000   6.0000000   6.0000000   6.0000000   6.0000000   6.0000000

  Atom        51          52          53          54          55          56          57          58          59          60
 IAtWgt=          12          12          12          12          12          12          12          12          12          12
 AtmWgt=  12.0000000  12.0000000  12.0000000  12.0000000  12.0000000  12.0000000  12.0000000  12.0000000  12.0000000  12.0000000
 NucSpn=           0           0           0           0           0           0           0           0           0           0
 AtZEff=  -0.0000000  -0.0000000  -0.0000000  -0.0000000  -0.0000000  -0.0000000  -0.0000000  -0.0000000  -0.0000000  -0.0000000
 NQMom=    0.0000000   0.0000000   0.0000000   0.0000000   0.0000000   0.0000000   0.0000000   0.0000000   0.0000000   0.0000000
 NMagM=    0.0000000   0.0000000   0.0000000   0.0000000   0.0000000   0.0000000   0.0000000   0.0000000   0.0000000   0.0000000
 AtZNuc=   6.0000000   6.0000000   6.0000000   6.0000000   6.0000000   6.0000000   6.0000000   6.0000000   6.0000000   6.0000000

  Atom        61          62          63          64          65          66          67          68          69          70
 IAtWgt=          12          12          12          12          12          12           1           1           1           1
 AtmWgt=  12.0000000  12.0000000  12.0000000  12.0000000  12.0000000  12.0000000   1.0078250   1.0078250   1.0078250   1.0078250
 NucSpn=           0           0           0           0           0           0           1           1           1           1
 AtZEff=  -0.0000000  -0.0000000  -0.0000000  -0.0000000  -0.0000000  -0.0000000  -0.0000000  -0.0000000  -0.0000000  -0.0000000
 NQMom=    0.0000000   0.0000000   0.0000000   0.0000000   0.0000000   0.0000000   0.0000000   0.0000000   0.0000000   0.0000000
 NMagM=    0.0000000   0.0000000   0.0000000   0.0000000   0.0000000   0.0000000   2.7928460   2.7928460   2.7928460   2.7928460
 AtZNuc=   6.0000000   6.0000000   6.0000000   6.0000000   6.0000000   6.0000000   1.0000000   1.0000000   1.0000000   1.0000000

  Atom        71          72          73          74          75          76          77          78          79          80
 IAtWgt=           1           1           1           1           1           1           1           1           1           1
 AtmWgt=   1.0078250   1.0078250   1.0078250   1.0078250   1.0078250   1.0078250   1.0078250   1.0078250   1.0078250   1.0078250
 NucSpn=           1           1           1           1           1           1           1           1           1           1
 AtZEff=  -0.0000000  -0.0000000  -0.0000000  -0.0000000  -0.0000000  -0.0000000  -0.0000000  -0.0000000  -0.0000000  -0.0000000
 NQMom=    0.0000000   0.0000000   0.0000000   0.0000000   0.0000000   0.0000000   0.0000000   0.0000000   0.0000000   0.0000000
 NMagM=    2.7928460   2.7928460   2.7928460   2.7928460   2.7928460   2.7928460   2.7928460   2.7928460   2.7928460   2.7928460
 AtZNuc=   1.0000000   1.0000000   1.0000000   1.0000000   1.0000000   1.0000000   1.0000000   1.0000000   1.0000000   1.0000000

  Atom        81          82          83          84          85          86          87          88          89          90
 IAtWgt=           1           1           1           1           1           1           1           1           1           1
 AtmWgt=   1.0078250   1.0078250   1.0078250   1.0078250   1.0078250   1.0078250   1.0078250   1.0078250   1.0078250   1.0078250
 NucSpn=           1           1           1           1           1           1           1           1           1           1
 AtZEff=  -0.0000000  -0.0000000  -0.0000000  -0.0000000  -0.0000000  -0.0000000  -0.0000000  -0.0000000  -0.0000000  -0.0000000
 NQMom=    0.0000000   0.0000000   0.0000000   0.0000000   0.0000000   0.0000000   0.0000000   0.0000000   0.0000000   0.0000000
 NMagM=    2.7928460   2.7928460   2.7928460   2.7928460   2.7928460   2.7928460   2.7928460   2.7928460   2.7928460   2.7928460
 AtZNuc=   1.0000000   1.0000000   1.0000000   1.0000000   1.0000000   1.0000000   1.0000000   1.0000000   1.0000000   1.0000000

  Atom        91          92          93          94          95          96          97          98          99         100
 IAtWgt=           1           1           1           1           1           1           1           1           1           1
 AtmWgt=   1.0078250   1.0078250   1.0078250   1.0078250   1.0078250   1.0078250   1.0078250   1.0078250   1.0078250   1.0078250
 NucSpn=           1           1           1           1           1           1           1           1           1           1
 AtZEff=  -0.0000000  -0.0000000  -0.0000000  -0.0000000  -0.0000000  -0.0000000  -0.0000000  -0.0000000  -0.0000000  -0.0000000
 NQMom=    0.0000000   0.0000000   0.0000000   0.0000000   0.0000000   0.0000000   0.0000000   0.0000000   0.0000000   0.0000000
 NMagM=    2.7928460   2.7928460   2.7928460   2.7928460   2.7928460   2.7928460   2.7928460   2.7928460   2.7928460   2.7928460
 AtZNuc=   1.0000000   1.0000000   1.0000000   1.0000000   1.0000000   1.0000000   1.0000000   1.0000000   1.0000000   1.0000000

  Atom       101         102         103         104         105         106         107         108         109         110
 IAtWgt=           1           1           1           1           1           1           1           1           1           1
 AtmWgt=   1.0078250   1.0078250   1.0078250   1.0078250   1.0078250   1.0078250   1.0078250   1.0078250   1.0078250   1.0078250
 NucSpn=           1           1           1           1           1           1           1           1           1           1
 AtZEff=  -0.0000000  -0.0000000  -0.0000000  -0.0000000  -0.0000000  -0.0000000  -0.0000000  -0.0000000  -0.0000000  -0.0000000
 NQMom=    0.0000000   0.0000000   0.0000000   0.0000000   0.0000000   0.0000000   0.0000000   0.0000000   0.0000000   0.0000000
 NMagM=    2.7928460   2.7928460   2.7928460   2.7928460   2.7928460   2.7928460   2.7928460   2.7928460   2.7928460   2.7928460
 AtZNuc=   1.0000000   1.0000000   1.0000000   1.0000000   1.0000000   1.0000000   1.0000000   1.0000000   1.0000000   1.0000000

  Atom       111         112         113         114         115         116         117         118         119         120
 IAtWgt=           1           1           1           1           1           1           1           1           1           1
 AtmWgt=   1.0078250   1.0078250   1.0078250   1.0078250   1.0078250   1.0078250   1.0078250   1.0078250   1.0078250   1.0078250
 NucSpn=           1           1           1           1           1           1           1           1           1           1
 AtZEff=  -0.0000000  -0.0000000  -0.0000000  -0.0000000  -0.0000000  -0.0000000  -0.0000000  -0.0000000  -0.0000000  -0.0000000
 NQMom=    0.0000000   0.0000000   0.0000000   0.0000000   0.0000000   0.0000000   0.0000000   0.0000000   0.0000000   0.0000000
 NMagM=    2.7928460   2.7928460   2.7928460   2.7928460   2.7928460   2.7928460   2.7928460   2.7928460   2.7928460   2.7928460
 AtZNuc=   1.0000000   1.0000000   1.0000000   1.0000000   1.0000000   1.0000000   1.0000000   1.0000000   1.0000000   1.0000000

  Atom       121         122         123         124         125         126         127         128         129         130
 IAtWgt=           1           1           1           1           1           1           1           1           1           1
 AtmWgt=   1.0078250   1.0078250   1.0078250   1.0078250   1.0078250   1.0078250   1.0078250   1.0078250   1.0078250   1.0078250
 NucSpn=           1           1           1           1           1           1           1           1           1           1
 AtZEff=  -0.0000000  -0.0000000  -0.0000000  -0.0000000  -0.0000000  -0.0000000  -0.0000000  -0.0000000  -0.0000000  -0.0000000
 NQMom=    0.0000000   0.0000000   0.0000000   0.0000000   0.0000000   0.0000000   0.0000000   0.0000000   0.0000000   0.0000000
 NMagM=    2.7928460   2.7928460   2.7928460   2.7928460   2.7928460   2.7928460   2.7928460   2.7928460   2.7928460   2.7928460
 AtZNuc=   1.0000000   1.0000000   1.0000000   1.0000000   1.0000000   1.0000000   1.0000000   1.0000000   1.0000000   1.0000000

  Atom       131         132         133         134         135         136         137         138         139         140
 IAtWgt=           1           1           1           1           1           1           1           1           1           1
 AtmWgt=   1.0078250   1.0078250   1.0078250   1.0078250   1.0078250   1.0078250   1.0078250   1.0078250   1.0078250   1.0078250
 NucSpn=           1           1           1           1           1           1           1           1           1           1
 AtZEff=  -0.0000000  -0.0000000  -0.0000000  -0.0000000  -0.0000000  -0.0000000  -0.0000000  -0.0000000  -0.0000000  -0.0000000
 NQMom=    0.0000000   0.0000000   0.0000000   0.0000000   0.0000000   0.0000000   0.0000000   0.0000000   0.0000000   0.0000000
 NMagM=    2.7928460   2.7928460   2.7928460   2.7928460   2.7928460   2.7928460   2.7928460   2.7928460   2.7928460   2.7928460
 AtZNuc=   1.0000000   1.0000000   1.0000000   1.0000000   1.0000000   1.0000000   1.0000000   1.0000000   1.0000000   1.0000000
 Leave Link  101 at Wed May  4 15:37:25 2022, MaxMem= 10066329600 cpu:               4.9 elap:               0.2
 (Enter /sw/apps/gaussian-16.0/g16/l202.exe)
 Stoichiometry    C55H74MgN4O6
 Framework group  C1[X(C55H74MgN4O6)]
 Deg. of freedom   414
 Full point group                 C1      NOp   1
 Largest Abelian subgroup         C1      NOp   1
 Largest concise Abelian subgroup C1      NOp   1
                         Standard orientation:                         
 ---------------------------------------------------------------------
 Center     Atomic      Atomic             Coordinates (Angstroms)
 Number     Number       Type             X           Y           Z
 ---------------------------------------------------------------------
      1         12           0        4.621727    1.187734   -0.560220
      2          6           0        5.073215   -2.282883   -0.607687
      3          6           0        1.804017    0.616833   -2.482525
      4          6           0        3.909503    4.437048   -0.283279
      5          6           0        6.959380    1.434564    2.027219
      6          7           0        3.434310   -0.794825   -1.300099
      7          6           0        3.908931   -2.055149   -1.286197
      8          6           0        3.000692   -3.050236   -1.967762
      9          6           0        2.157070   -1.996262   -2.781378
     10          6           0        2.405292   -0.627807   -2.155237
     11          6           0        2.639929   -1.955972   -4.255833
     12          6           0        2.314704   -3.969440   -0.949203
     13          6           0        1.807012   -3.390144    0.387639
     14          6           0        0.379487   -3.758260    0.774353
     15          8           0       -0.486634   -4.361398    0.107660
     16          8           0        0.121874   -3.389347    2.109025
     17          7           0        3.103664    2.356472   -1.277359
     18          6           0        2.124761    1.939698   -2.140010
     19          6           0        1.553065    3.113446   -2.812768
     20          6           0        2.027814    4.277574   -2.085940
     21          6           0        3.067404    3.698354   -1.181403
     22          6           0        0.359748    3.012856   -3.838232
     23          6           0        1.548963    5.722189   -2.249831
     24          8           0        0.795041    6.019042   -3.134272
     25          6           0        2.059456    6.791942   -1.328148
     26          7           0        5.231220    2.678745    0.899559
     27          6           0        4.882455    4.033680    0.748373
     28          6           0        5.611874    4.981160    1.792173
     29          6           0        6.639818    3.958996    2.475625
     30          6           0        6.291968    2.591521    1.727331
     31          6           0        6.294100    6.355662    1.305220
     32          6           0        6.610806    3.839422    4.067430
     33          6           0        8.085132    3.547674    4.639490
     34          7           0        5.860724   -0.112831    0.507896
     35          6           0        6.819326    0.152001    1.464735
     36          6           0        7.528701   -1.080795    1.784540
     37          6           0        6.961133   -2.095351    0.971215
     38          6           0        5.880289   -1.462282    0.257675
     39          6           0        8.749437   -1.213423    2.656947
     40          6           0        6.898999   -3.547119    0.601988
     41          8           0        7.486751   -4.498270    1.066703
     42          6           0        5.719786   -3.655362   -0.455671
     43          6           0        6.335295   -4.152835   -1.734628
     44          8           0        6.662339   -5.348833   -1.938176
     45          8           0        6.340120   -3.133619   -2.675873
     46          6           0        6.682697   -3.525355   -4.002220
     47          6           0       -1.151125   -3.771013    2.669158
     48          6           0       -2.113962   -2.729680    2.265555
     49          6           0       -3.248146   -2.486375    2.959516
     50          6           0       -3.641715   -3.135012    4.312479
     51          6           0       -4.090275   -1.343998    2.467772
     52          6           0       -4.999572   -1.842837    1.321060
     53          6           0       -6.416958   -1.445744    1.713970
     54          6           0       -7.040057   -0.537923    0.557528
     55          6           0       -6.755924    0.930740    0.909297
     56          6           0       -8.566310   -0.777678    0.417020
     57          6           0       -9.143840   -0.418592   -0.924554
     58          6           0      -10.201845    0.772017   -0.876301
     59          6           0      -11.501010    0.126200   -1.362820
     60          6           0      -11.476056   -0.285490   -2.796802
     61          6           0      -12.591653    1.143889   -1.096369
     62          6           0      -14.057388    0.562696   -1.200401
     63          6           0      -14.564942   -0.000645    0.151151
     64          6           0      -15.349294    1.097291    0.938061
     65          6           0      -14.704929    1.467991    2.296446
     66          6           0      -16.816837    0.707151    1.246752
     67          1           0        0.967587    0.449329   -3.164400
     68          1           0        3.907894    5.528856   -0.253908
     69          1           0        7.819349    1.562436    2.688136
     70          1           0        3.532576   -3.633584   -2.719129
     71          1           0        1.076827   -2.129290   -2.821928
     72          1           0        2.515093   -0.922733   -4.580677
     73          1           0        2.118768   -2.705345   -4.849919
     74          1           0        3.701180   -2.083873   -4.471418
     75          1           0        3.076661   -4.685781   -0.643541
     76          1           0        1.498887   -4.485157   -1.455883
     77          1           0        1.818086   -2.302190    0.326604
     78          1           0        2.440341   -3.777486    1.185219
     79          1           0       -0.621492    2.851279   -3.391130
     80          1           0        0.560658    2.214701   -4.552933
     81          1           0        0.242944    3.853858   -4.520764
     82          1           0        1.523398    7.732629   -1.458206
     83          1           0        3.124534    6.990570   -1.449204
     84          1           0        1.744663    6.413363   -0.355322
     85          1           0        4.771698    5.195448    2.451624
     86          1           0        7.666935    4.194765    2.198654
     87          1           0        5.534808    7.133111    1.381328
     88          1           0        6.666685    6.277426    0.284242
     89          1           0        7.149717    6.561407    1.948734
     90          1           0        6.056336    2.955932    4.383630
     91          1           0        6.151170    4.718734    4.519377
     92          1           0        8.119034    2.591937    5.162638
     93          1           0        8.363366    4.334668    5.339827
     94          1           0        8.906149    3.404487    3.937819
     95          1           0        8.499704   -0.850639    3.653430
     96          1           0        9.554566   -0.598225    2.254629
     97          1           0        9.069258   -2.249289    2.768878
     98          1           0        5.109509   -4.476719   -0.080784
     99          1           0        6.560574   -2.673133   -4.670336
    100          1           0        6.146797   -4.427131   -4.298887
    101          1           0        7.748737   -3.726935   -4.106875
    102          1           0       -1.261840   -3.794065    3.753428
    103          1           0       -1.459371   -4.772556    2.367658
    104          1           0       -1.816022   -2.105242    1.423059
    105          1           0       -3.111573   -4.069959    4.494987
    106          1           0       -4.707854   -3.361127    4.304146
    107          1           0       -3.317392   -2.399192    5.047314
    108          1           0       -3.427169   -0.541270    2.144218
    109          1           0       -4.639828   -1.017230    3.349538
    110          1           0       -4.877790   -2.913493    1.156485
    111          1           0       -4.724763   -1.273884    0.433163
    112          1           0       -6.504809   -0.834831    2.613622
    113          1           0       -6.980940   -2.373480    1.811235
    114          1           0       -6.631530   -0.688917   -0.440661
    115          1           0       -7.560391    1.511259    0.456492
    116          1           0       -5.766153    1.087643    0.481953
    117          1           0       -6.824041    1.166031    1.970953
    118          1           0       -9.123591   -0.237652    1.182466
    119          1           0       -8.797014   -1.837463    0.524231
    120          1           0       -9.615652   -1.274988   -1.404926
    121          1           0       -8.321708   -0.097518   -1.562826
    122          1           0       -9.893353    1.641363   -1.455874
    123          1           0      -10.437878    1.124265    0.127818
    124          1           0      -11.590033   -0.858414   -0.904523
    125          1           0      -11.389532   -1.371471   -2.840303
    126          1           0      -10.722117    0.242511   -3.381068
    127          1           0      -12.394066   -0.030294   -3.325833
    128          1           0      -12.496759    1.909624   -1.866404
    129          1           0      -12.474662    1.645407   -0.135672
    130          1           0      -14.101399   -0.294264   -1.873621
    131          1           0      -14.759192    1.301819   -1.587128
    132          1           0      -13.708097   -0.327036    0.740007
    133          1           0      -15.158255   -0.905121    0.014785
    134          1           0      -15.379671    2.044561    0.400051
    135          1           0      -15.128529    2.456836    2.470557
    136          1           0      -13.628194    1.541465    2.142872
    137          1           0      -14.981640    0.820509    3.128778
    138          1           0      -17.026770    0.718495    2.316962
    139          1           0      -17.093319   -0.260509    0.827243
    140          1           0      -17.478709    1.430832    0.772321
 ---------------------------------------------------------------------
 Rotational constants (GHZ):           0.0398519           0.0104299           0.0095191
 Leave Link  202 at Wed May  4 15:37:25 2022, MaxMem= 10066329600 cpu:               1.7 elap:               0.1
 (Enter /sw/apps/gaussian-16.0/g16/l301.exe)
 Standard basis: def2SVP (5D, 7F)
 Ernie: Thresh=  0.10000D-02 Tol=  0.10000D-05 Strict=F.
 There are  1364 symmetry adapted cartesian basis functions of A   symmetry.
 There are  1298 symmetry adapted basis functions of A   symmetry.
  1298 basis functions,  2180 primitive gaussians,  1364 cartesian basis functions
   246 alpha electrons      246 beta electrons
       nuclear repulsion energy      9600.6533286867 Hartrees.
 IExCor= 1009 DFT=T Ex+Corr=PBE1PBE ExCW=0 ScaHFX=  0.250000
 ScaDFX=  0.750000  0.750000  1.000000  1.000000 ScalE2=  1.000000  1.000000
 IRadAn=      5 IRanWt=     -1 IRanGd=            0 ICorTp=0 IEmpDi=  4
 NAtoms=  140 NActive=  140 NUniq=  140 SFac= 1.00D+00 NAtFMM=   60 NAOKFM=T Big=T
 Integral buffers will be    131072 words long.
 Regular integral format.
 Two-electron integral symmetry is turned on.
 Leave Link  301 at Wed May  4 15:37:25 2022, MaxMem= 10066329600 cpu:               1.5 elap:               0.1
 (Enter /sw/apps/gaussian-16.0/g16/l302.exe)
 NPDir=0 NMtPBC=     1 NCelOv=     1 NCel=       1 NClECP=     1 NCelD=      1
         NCelK=      1 NCelE2=     1 NClLst=     1 CellRange=     0.0.
 One-electron integrals computed using PRISM.
 One-electron integral symmetry used in STVInt
   1 Symmetry operations used in ECPInt.
 ECPInt:  NShTT=  192510 NPrTT=  683786 LenC2=   96769 LenP2D=  210424.
 LDataN:  DoStor=T MaxTD1= 4 Len=   56
 NBasis=  1298 RedAO= T EigKep=  3.11D-04  NBF=  1298
 NBsUse=  1298 1.00D-06 EigRej= -1.00D+00 NBFU=  1298
 Precomputing XC quadrature grid using
 IXCGrd= 4 IRadAn=           5 IRanWt=          -1 IRanGd=           0 AccXCQ= 0.00D+00.
 Generated NRdTot=       0 NPtTot=           0 NUsed=           0 NTot=          32
 NSgBfM=  1020  1006  1013  1019  1020 MxSgAt=   140 MxSgA2=   140.
 Leave Link  302 at Wed May  4 15:37:29 2022, MaxMem= 10066329600 cpu:              98.5 elap:               4.1
 (Enter /sw/apps/gaussian-16.0/g16/l303.exe)
 DipDrv:  MaxL=1.
 Leave Link  303 at Wed May  4 15:37:30 2022, MaxMem= 10066329600 cpu:               5.6 elap:               0.3
 (Enter /sw/apps/gaussian-16.0/g16/l308.exe)
 Leave Link  308 at Wed May  4 15:37:30 2022, MaxMem= 10066329600 cpu:              13.0 elap:               0.6
 (Enter /sw/apps/gaussian-16.0/g16/l401.exe)
 ExpMin= 3.36D-02 ExpMax= 4.95D+03 ExpMxC= 7.45D+02 IAcc=3 IRadAn=         5 AccDes= 0.00D+00
 Harris functional with IExCor= 1009 and IRadAn=       5 diagonalized for initial guess.
 HarFok:  IExCor= 1009 AccDes= 0.00D+00 IRadAn=         5 IDoV= 1 UseB2=F ITyADJ=14
 ICtDFT=  3500011 ScaDFX=  1.000000  1.000000  1.000000  1.000000
 FoFCou: FMM=F IPFlag=           0 FMFlag=      100000 FMFlg1=        2001
         NFxFlg=           0 DoJE=T BraDBF=F KetDBF=T FulRan=T
         wScrn=  0.000000 ICntrl=       500 IOpCl=  0 I1Cent=   200000004 NGrid=           0
         NMat0=    1 NMatS0=      1 NMatT0=    0 NMatD0=    1 NMtDS0=    0 NMtDT0=    0
 Petite list used in FoFCou.
 Harris En= -3006.13860977903    
 JPrj=0 DoOrth=F DoCkMO=F.
 Leave Link  401 at Wed May  4 15:37:37 2022, MaxMem= 10066329600 cpu:             164.8 elap:               6.9
 (Enter /sw/apps/gaussian-16.0/g16/l502.exe)
 Integral symmetry usage will be decided dynamically.
 Closed shell SCF:
 Using DIIS extrapolation, IDIIS=  1040.
 NGot= 10066329600 LenX= 10062561258 LenY= 10060699398
 Requested convergence on RMS density matrix=1.00D-08 within 128 cycles.
 Requested convergence on MAX density matrix=1.00D-06.
 Requested convergence on             energy=1.00D-06.
 No special actions if energy rises.
 Fock matrices will be formed incrementally for  20 cycles.

 Cycle   1  Pass 1  IDiag  1:
 FoFJK:  IHMeth= 1 ICntrl=       0 DoSepK=F KAlg= 0 I1Cent=           0 FoldK=F
 IRaf= 520000000 NMat=       1 IRICut=       1 DoRegI=T DoRafI=F ISym2E= 0 IDoP0=0 IntGTp=1.
 FoFCou: FMM=T IPFlag=           0 FMFlag=      100000 FMFlg1=        2001
         NFxFlg=           0 DoJE=F BraDBF=F KetDBF=F FulRan=T
         wScrn=  0.000000 ICntrl=         0 IOpCl=  0 I1Cent=           0 NGrid=           0
         NMat0=    1 NMatS0=      1 NMatT0=    0 NMatD0=    1 NMtDS0=    0 NMtDT0=    0
 Symmetry not used in FoFCou.
 FMM levels:  10  Number of levels for PrismC:   9
 E= -3003.80372049323    
 DIIS: error= 2.00D-02 at cycle   1 NSaved=   1.
 NSaved= 1 IEnMin= 1 EnMin= -3003.80372049323     IErMin= 1 ErrMin= 2.00D-02
 ErrMax= 2.00D-02  0.00D+00 EMaxC= 1.00D-01 BMatC= 1.47D+00 BMatP= 1.47D+00
 IDIUse=3 WtCom= 8.00D-01 WtEn= 2.00D-01
 Coeff-Com:  0.100D+01
 Coeff-En:   0.100D+01
 Coeff:      0.100D+01
 Gap=     0.080 Goal=   None    Shift=    0.000
 GapD=    0.080 DampG=0.500 DampE=0.500 DampFc=0.2500 IDamp=-1.
 Damping current iteration by 2.50D-01
 RMSDP=2.73D-03 MaxDP=6.18D-01              OVMax= 3.13D-01

 Cycle   2  Pass 1  IDiag  1:
 RMSU=  6.76D-04    CP:  9.90D-01
 E= -3004.35249018225     Delta-E=       -0.548769689020 Rises=F Damp=T
 DIIS: error= 9.86D-03 at cycle   2 NSaved=   2.
 NSaved= 2 IEnMin= 2 EnMin= -3004.35249018225     IErMin= 2 ErrMin= 9.86D-03
 ErrMax= 9.86D-03  0.00D+00 EMaxC= 1.00D-01 BMatC= 3.60D-01 BMatP= 1.47D+00
 IDIUse=3 WtCom= 9.01D-01 WtEn= 9.86D-02
 Coeff-Com: -0.739D+00 0.174D+01
 Coeff-En:   0.000D+00 0.100D+01
 Coeff:     -0.666D+00 0.167D+01
 Gap=     0.143 Goal=   None    Shift=    0.000
 RMSDP=9.70D-04 MaxDP=6.82D-02 DE=-5.49D-01 OVMax= 3.42D-01

 Cycle   3  Pass 1  IDiag  1:
 RMSU=  8.35D-04    CP:  9.66D-01  1.65D+00
 E= -3005.15566087142     Delta-E=       -0.803170689169 Rises=F Damp=F
 DIIS: error= 1.63D-02 at cycle   3 NSaved=   3.
 NSaved= 3 IEnMin= 3 EnMin= -3005.15566087142     IErMin= 2 ErrMin= 9.86D-03
 ErrMax= 1.63D-02  0.00D+00 EMaxC= 1.00D-01 BMatC= 2.04D-01 BMatP= 3.60D-01
 IDIUse=3 WtCom= 8.37D-01 WtEn= 1.63D-01
 Coeff-Com: -0.496D+00 0.107D+01 0.429D+00
 Coeff-En:   0.000D+00 0.000D+00 0.100D+01
 Coeff:     -0.415D+00 0.893D+00 0.522D+00
 Gap=     0.076 Goal=   None    Shift=    0.000
 RMSDP=6.45D-04 MaxDP=1.22D-01 DE=-8.03D-01 OVMax= 2.42D-01

 Cycle   4  Pass 1  IDiag  1:
 RMSU=  4.15D-04    CP:  9.72D-01  1.95D+00  4.63D-01
 E= -3005.28329260063     Delta-E=       -0.127631729212 Rises=F Damp=F
 DIIS: error= 1.02D-02 at cycle   4 NSaved=   4.
 NSaved= 4 IEnMin= 4 EnMin= -3005.28329260063     IErMin= 2 ErrMin= 9.86D-03
 ErrMax= 1.02D-02  0.00D+00 EMaxC= 1.00D-01 BMatC= 6.44D-02 BMatP= 2.04D-01
 IDIUse=3 WtCom= 8.98D-01 WtEn= 1.02D-01
 Coeff-Com: -0.887D-01 0.207D+00 0.353D+00 0.529D+00
 Coeff-En:   0.000D+00 0.000D+00 0.292D+00 0.708D+00
 Coeff:     -0.797D-01 0.185D+00 0.347D+00 0.548D+00
 Gap=     0.078 Goal=   None    Shift=    0.000
 RMSDP=3.11D-04 MaxDP=5.28D-02 DE=-1.28D-01 OVMax= 1.60D-01

 Cycle   5  Pass 1  IDiag  1:
 RMSU=  1.41D-04    CP:  9.70D-01  1.80D+00  6.67D-01  5.29D-01
 E= -3005.33580779611     Delta-E=       -0.052515195477 Rises=F Damp=F
 DIIS: error= 1.79D-03 at cycle   5 NSaved=   5.
 NSaved= 5 IEnMin= 5 EnMin= -3005.33580779611     IErMin= 5 ErrMin= 1.79D-03
 ErrMax= 1.79D-03  0.00D+00 EMaxC= 1.00D-01 BMatC= 6.51D-03 BMatP= 6.44D-02
 IDIUse=3 WtCom= 9.82D-01 WtEn= 1.79D-02
 Coeff-Com: -0.168D-01 0.468D-01 0.203D+00 0.380D+00 0.388D+00
 Coeff-En:   0.000D+00 0.000D+00 0.000D+00 0.112D+00 0.888D+00
 Coeff:     -0.165D-01 0.459D-01 0.199D+00 0.375D+00 0.397D+00
 Gap=     0.078 Goal=   None    Shift=    0.000
 RMSDP=1.31D-04 MaxDP=9.83D-03 DE=-5.25D-02 OVMax= 9.04D-02

 Cycle   6  Pass 1  IDiag  1:
 RMSU=  5.74D-05    CP:  9.70D-01  1.81D+00  6.42D-01  6.41D-01  2.46D-01
 E= -3005.34316942184     Delta-E=       -0.007361625729 Rises=F Damp=F
 DIIS: error= 6.65D-04 at cycle   6 NSaved=   6.
 NSaved= 6 IEnMin= 6 EnMin= -3005.34316942184     IErMin= 6 ErrMin= 6.65D-04
 ErrMax= 6.65D-04  0.00D+00 EMaxC= 1.00D-01 BMatC= 9.52D-04 BMatP= 6.51D-03
 IDIUse=3 WtCom= 9.93D-01 WtEn= 6.65D-03
 Coeff-Com:  0.390D-02-0.356D-02 0.772D-01 0.168D+00 0.289D+00 0.465D+00
 Coeff-En:   0.000D+00 0.000D+00 0.000D+00 0.000D+00 0.177D+00 0.823D+00
 Coeff:      0.388D-02-0.353D-02 0.767D-01 0.167D+00 0.289D+00 0.467D+00
 Gap=     0.078 Goal=   None    Shift=    0.000
 RMSDP=5.01D-05 MaxDP=3.32D-03 DE=-7.36D-03 OVMax= 3.52D-02

 Cycle   7  Pass 1  IDiag  1:
 RMSU=  2.38D-05    CP:  9.70D-01  1.81D+00  6.51D-01  6.20D-01  4.57D-01
                    CP:  4.73D-01
 E= -3005.34432645612     Delta-E=       -0.001157034289 Rises=F Damp=F
 DIIS: error= 3.60D-04 at cycle   7 NSaved=   7.
 NSaved= 7 IEnMin= 7 EnMin= -3005.34432645612     IErMin= 7 ErrMin= 3.60D-04
 ErrMax= 3.60D-04  0.00D+00 EMaxC= 1.00D-01 BMatC= 1.54D-04 BMatP= 9.52D-04
 IDIUse=3 WtCom= 9.96D-01 WtEn= 3.60D-03
 Coeff-Com:  0.455D-02-0.821D-02 0.226D-01 0.562D-01 0.141D+00 0.335D+00
 Coeff-Com:  0.450D+00
 Coeff-En:   0.000D+00 0.000D+00 0.000D+00 0.000D+00 0.000D+00 0.145D+00
 Coeff-En:   0.855D+00
 Coeff:      0.454D-02-0.818D-02 0.225D-01 0.560D-01 0.140D+00 0.334D+00
 Coeff:      0.451D+00
 Gap=     0.079 Goal=   None    Shift=    0.000
 RMSDP=1.79D-05 MaxDP=1.27D-03 DE=-1.16D-03 OVMax= 1.09D-02

 Cycle   8  Pass 1  IDiag  1:
 RMSU=  8.76D-06    CP:  9.70D-01  1.81D+00  6.50D-01  6.25D-01  4.25D-01
                    CP:  5.97D-01  4.54D-01
 E= -3005.34449091727     Delta-E=       -0.000164461144 Rises=F Damp=F
 DIIS: error= 9.42D-05 at cycle   8 NSaved=   8.
 NSaved= 8 IEnMin= 8 EnMin= -3005.34449091727     IErMin= 8 ErrMin= 9.42D-05
 ErrMax= 9.42D-05  0.00D+00 EMaxC= 1.00D-01 BMatC= 1.64D-05 BMatP= 1.54D-04
 IDIUse=1 WtCom= 1.00D+00 WtEn= 0.00D+00
 Coeff-Com:  0.218D-02-0.429D-02 0.488D-02 0.144D-01 0.532D-01 0.158D+00
 Coeff-Com:  0.298D+00 0.474D+00
 Coeff:      0.218D-02-0.429D-02 0.488D-02 0.144D-01 0.532D-01 0.158D+00
 Coeff:      0.298D+00 0.474D+00
 Gap=     0.079 Goal=   None    Shift=    0.000
 RMSDP=6.42D-06 MaxDP=6.16D-04 DE=-1.64D-04 OVMax= 3.18D-03

 Cycle   9  Pass 1  IDiag  1:
 RMSU=  3.30D-06    CP:  9.70D-01  1.81D+00  6.51D-01  6.25D-01  4.30D-01
                    CP:  5.82D-01  5.64D-01  4.64D-01
 E= -3005.34450728502     Delta-E=       -0.000016367754 Rises=F Damp=F
 DIIS: error= 3.97D-05 at cycle   9 NSaved=   9.
 NSaved= 9 IEnMin= 9 EnMin= -3005.34450728502     IErMin= 9 ErrMin= 3.97D-05
 ErrMax= 3.97D-05  0.00D+00 EMaxC= 1.00D-01 BMatC= 2.55D-06 BMatP= 1.64D-05
 IDIUse=1 WtCom= 1.00D+00 WtEn= 0.00D+00
 Coeff-Com:  0.813D-03-0.166D-02 0.387D-03 0.197D-02 0.172D-01 0.637D-01
 Coeff-Com:  0.142D+00 0.320D+00 0.456D+00
 Coeff:      0.813D-03-0.166D-02 0.387D-03 0.197D-02 0.172D-01 0.637D-01
 Coeff:      0.142D+00 0.320D+00 0.456D+00
 Gap=     0.079 Goal=   None    Shift=    0.000
 RMSDP=2.57D-06 MaxDP=3.83D-04 DE=-1.64D-05 OVMax= 1.36D-03

 Cycle  10  Pass 1  IDiag  1:
 RMSU=  1.50D-06    CP:  9.70D-01  1.81D+00  6.51D-01  6.25D-01  4.31D-01
                    CP:  5.92D-01  5.54D-01  5.76D-01  4.77D-01
 E= -3005.34450973547     Delta-E=       -0.000002450444 Rises=F Damp=F
 DIIS: error= 1.12D-05 at cycle  10 NSaved=  10.
 NSaved=10 IEnMin=10 EnMin= -3005.34450973547     IErMin=10 ErrMin= 1.12D-05
 ErrMax= 1.12D-05  0.00D+00 EMaxC= 1.00D-01 BMatC= 4.16D-07 BMatP= 2.55D-06
 IDIUse=1 WtCom= 1.00D+00 WtEn= 0.00D+00
 Coeff-Com:  0.162D-03-0.338D-03-0.523D-03-0.120D-02 0.223D-02 0.156D-01
 Coeff-Com:  0.441D-01 0.135D+00 0.317D+00 0.487D+00
 Coeff:      0.162D-03-0.338D-03-0.523D-03-0.120D-02 0.223D-02 0.156D-01
 Coeff:      0.441D-01 0.135D+00 0.317D+00 0.487D+00
 Gap=     0.079 Goal=   None    Shift=    0.000
 RMSDP=1.01D-06 MaxDP=6.41D-05 DE=-2.45D-06 OVMax= 5.31D-04

 Cycle  11  Pass 1  IDiag  1:
 RMSU=  4.79D-07    CP:  9.70D-01  1.81D+00  6.51D-01  6.25D-01  4.30D-01
                    CP:  5.93D-01  5.56D-01  5.63D-01  6.50D-01  5.68D-01
 E= -3005.34451021413     Delta-E=       -0.000000478662 Rises=F Damp=F
 DIIS: error= 6.91D-06 at cycle  11 NSaved=  11.
 NSaved=11 IEnMin=11 EnMin= -3005.34451021413     IErMin=11 ErrMin= 6.91D-06
 ErrMax= 6.91D-06  0.00D+00 EMaxC= 1.00D-01 BMatC= 6.83D-08 BMatP= 4.16D-07
 IDIUse=1 WtCom= 1.00D+00 WtEn= 0.00D+00
 Coeff-Com: -0.143D-04 0.265D-04-0.444D-03-0.123D-02-0.132D-02 0.568D-03
 Coeff-Com:  0.782D-02 0.429D-01 0.150D+00 0.337D+00 0.464D+00
 Coeff:     -0.143D-04 0.265D-04-0.444D-03-0.123D-02-0.132D-02 0.568D-03
 Coeff:      0.782D-02 0.429D-01 0.150D+00 0.337D+00 0.464D+00
 Gap=     0.079 Goal=   None    Shift=    0.000
 RMSDP=3.48D-07 MaxDP=2.45D-05 DE=-4.79D-07 OVMax= 1.73D-04

 Cycle  12  Pass 1  IDiag  1:
 RMSU=  1.87D-07    CP:  9.70D-01  1.81D+00  6.51D-01  6.25D-01  4.31D-01
                    CP:  5.93D-01  5.60D-01  5.73D-01  6.24D-01  6.83D-01
                    CP:  6.05D-01
 E= -3005.34451028977     Delta-E=       -0.000000075643 Rises=F Damp=F
 DIIS: error= 2.00D-06 at cycle  12 NSaved=  12.
 NSaved=12 IEnMin=12 EnMin= -3005.34451028977     IErMin=12 ErrMin= 2.00D-06
 ErrMax= 2.00D-06  0.00D+00 EMaxC= 1.00D-01 BMatC= 4.53D-09 BMatP= 6.83D-08
 IDIUse=1 WtCom= 1.00D+00 WtEn= 0.00D+00
 Coeff-Com: -0.163D-04 0.362D-04-0.180D-03-0.512D-03-0.963D-03-0.133D-02
 Coeff-Com: -0.599D-03 0.783D-02 0.465D-01 0.125D+00 0.255D+00 0.569D+00
 Coeff:     -0.163D-04 0.362D-04-0.180D-03-0.512D-03-0.963D-03-0.133D-02
 Coeff:     -0.599D-03 0.783D-02 0.465D-01 0.125D+00 0.255D+00 0.569D+00
 Gap=     0.079 Goal=   None    Shift=    0.000
 RMSDP=9.61D-08 MaxDP=9.42D-06 DE=-7.56D-08 OVMax= 3.18D-05

 Cycle  13  Pass 1  IDiag  1:
 RMSU=  6.57D-08    CP:  9.70D-01  1.81D+00  6.51D-01  6.25D-01  4.30D-01
                    CP:  5.93D-01  5.60D-01  5.74D-01  6.33D-01  6.90D-01
                    CP:  6.89D-01  7.88D-01
 E= -3005.34451029410     Delta-E=       -0.000000004333 Rises=F Damp=F
 DIIS: error= 8.99D-07 at cycle  13 NSaved=  13.
 NSaved=13 IEnMin=13 EnMin= -3005.34451029410     IErMin=13 ErrMin= 8.99D-07
 ErrMax= 8.99D-07  0.00D+00 EMaxC= 1.00D-01 BMatC= 1.00D-09 BMatP= 4.53D-09
 IDIUse=1 WtCom= 1.00D+00 WtEn= 0.00D+00
 Coeff-Com: -0.552D-05 0.146D-04-0.280D-04-0.828D-04-0.379D-03-0.972D-03
 Coeff-Com: -0.202D-02-0.386D-02 0.176D-03 0.933D-02 0.678D-01 0.353D+00
 Coeff-Com:  0.577D+00
 Coeff:     -0.552D-05 0.146D-04-0.280D-04-0.828D-04-0.379D-03-0.972D-03
 Coeff:     -0.202D-02-0.386D-02 0.176D-03 0.933D-02 0.678D-01 0.353D+00
 Coeff:      0.577D+00
 Gap=     0.079 Goal=   None    Shift=    0.000
 RMSDP=3.76D-08 MaxDP=4.18D-06 DE=-4.33D-09 OVMax= 1.27D-05

 Cycle  14  Pass 1  IDiag  1:
 RMSU=  2.72D-08    CP:  9.70D-01  1.81D+00  6.51D-01  6.25D-01  4.31D-01
                    CP:  5.93D-01  5.60D-01  5.74D-01  6.36D-01  6.98D-01
                    CP:  7.02D-01  8.60D-01  7.92D-01
 E= -3005.34451029476     Delta-E=       -0.000000000655 Rises=F Damp=F
 DIIS: error= 2.66D-07 at cycle  14 NSaved=  14.
 NSaved=14 IEnMin=14 EnMin= -3005.34451029476     IErMin=14 ErrMin= 2.66D-07
 ErrMax= 2.66D-07  0.00D+00 EMaxC= 1.00D-01 BMatC= 1.11D-10 BMatP= 1.00D-09
 IDIUse=1 WtCom= 1.00D+00 WtEn= 0.00D+00
 Coeff-Com:  0.584D-07 0.175D-05 0.103D-04 0.282D-04-0.910D-04-0.378D-03
 Coeff-Com: -0.117D-02-0.365D-02-0.699D-02-0.149D-01-0.586D-03 0.113D+00
 Coeff-Com:  0.317D+00 0.598D+00
 Coeff:      0.584D-07 0.175D-05 0.103D-04 0.282D-04-0.910D-04-0.378D-03
 Coeff:     -0.117D-02-0.365D-02-0.699D-02-0.149D-01-0.586D-03 0.113D+00
 Coeff:      0.317D+00 0.598D+00
 Gap=     0.079 Goal=   None    Shift=    0.000
 RMSDP=1.58D-08 MaxDP=1.69D-06 DE=-6.55D-10 OVMax= 4.75D-06

 Cycle  15  Pass 1  IDiag  1:
 RMSU=  9.72D-09    CP:  9.70D-01  1.81D+00  6.51D-01  6.25D-01  4.30D-01
                    CP:  5.93D-01  5.60D-01  5.74D-01  6.37D-01  7.00D-01
                    CP:  7.11D-01  8.90D-01  8.57D-01  8.30D-01
 E= -3005.34451029508     Delta-E=       -0.000000000326 Rises=F Damp=F
 DIIS: error= 1.06D-07 at cycle  15 NSaved=  15.
 NSaved=15 IEnMin=15 EnMin= -3005.34451029508     IErMin=15 ErrMin= 1.06D-07
 ErrMax= 1.06D-07  0.00D+00 EMaxC= 1.00D-01 BMatC= 1.13D-11 BMatP= 1.11D-10
 IDIUse=1 WtCom= 1.00D+00 WtEn= 0.00D+00
 Coeff-Com:  0.108D-05-0.140D-05 0.830D-05 0.223D-04-0.193D-05-0.487D-04
 Coeff-Com: -0.308D-03-0.120D-02-0.290D-02-0.797D-02-0.682D-02 0.163D-01
 Coeff-Com:  0.914D-01 0.296D+00 0.616D+00
 Coeff:      0.108D-05-0.140D-05 0.830D-05 0.223D-04-0.193D-05-0.487D-04
 Coeff:     -0.308D-03-0.120D-02-0.290D-02-0.797D-02-0.682D-02 0.163D-01
 Coeff:      0.914D-01 0.296D+00 0.616D+00
 Gap=     0.079 Goal=   None    Shift=    0.000
 RMSDP=4.99D-09 MaxDP=4.10D-07 DE=-3.26D-10 OVMax= 2.51D-06

 SCF Done:  E(RPBE1PBE) =  -3005.34451030     A.U. after   15 cycles
            NFock= 15  Conv=0.50D-08     -V/T= 2.0105
 KE= 2.974205180295D+03 PE=-2.619128692429D+04 EE= 1.061108390501D+04
 Leave Link  502 at Wed May  4 15:43:41 2022, MaxMem= 10066329600 cpu:            8704.8 elap:             364.3
 (Enter /sw/apps/gaussian-16.0/g16/l801.exe)
 DoSCS=F DFT=T ScalE2(SS,OS)=  1.000000  1.000000
 ExpMin= 3.36D-02 ExpMax= 4.95D+03 ExpMxC= 7.45D+02 IAcc=3 IRadAn=         5 AccDes= 0.00D+00
 HarFok:  IExCor=  205 AccDes= 0.00D+00 IRadAn=         5 IDoV=-2 UseB2=F ITyADJ=14
 ICtDFT= 12500011 ScaDFX=  1.000000  1.000000  1.000000  1.000000
 GSVD:  LWork=       -5460 too small for GESVD, short by       25550 words or       25550 for optimal perf.
 Largest valence mixing into a core orbital is  1.50D-04
 Largest core mixing into a valence orbital is  5.53D-05
 Range of M.O.s used for correlation:    71  1298
 NBasis=  1298 NAE=   246 NBE=   246 NFC=    70 NFV=     0
 NROrb=   1228 NOA=   176 NOB=   176 NVA=  1052 NVB=  1052

 **** Warning!!: The smallest alpha delta epsilon is  0.78713958D-01

 Leave Link  801 at Wed May  4 15:43:42 2022, MaxMem= 10066329600 cpu:               8.0 elap:               0.4
 (Enter /sw/apps/gaussian-16.0/g16/l914.exe)
 RHF ground state
 Two-electron integrals replicated using symmetry.
 MDV= 10066329600 DFT=T DoStab=F Mixed=T DoRPA=T DoScal=F NonHer=T
 Making orbital integer symmetry assigments:
 Orbital symmetries:
       Occupied  (A) (A) (A) (A) (A) (A) (A) (A) (A) (A) (A) (A)
                 (A) (A) (A) (A) (A) (A) (A) (A) (A) (A) (A) (A)
                 (A) (A) (A) (A) (A) (A) (A) (A) (A) (A) (A) (A)
                 (A) (A) (A) (A) (A) (A) (A) (A) (A) (A) (A) (A)
                 (A) (A) (A) (A) (A) (A) (A) (A) (A) (A) (A) (A)
                 (A) (A) (A) (A) (A) (A) (A) (A) (A) (A) (A) (A)
                 (A) (A) (A) (A) (A) (A) (A) (A) (A) (A) (A) (A)
                 (A) (A) (A) (A) (A) (A) (A) (A) (A) (A) (A) (A)
                 (A) (A) (A) (A) (A) (A) (A) (A) (A) (A) (A) (A)
                 (A) (A) (A) (A) (A) (A) (A) (A) (A) (A) (A) (A)
                 (A) (A) (A) (A) (A) (A) (A) (A) (A) (A) (A) (A)
                 (A) (A) (A) (A) (A) (A) (A) (A) (A) (A) (A) (A)
                 (A) (A) (A) (A) (A) (A) (A) (A) (A) (A) (A) (A)
                 (A) (A) (A) (A) (A) (A) (A) (A) (A) (A) (A) (A)
                 (A) (A) (A) (A) (A) (A) (A) (A) (A) (A) (A) (A)
                 (A) (A) (A) (A) (A) (A) (A) (A) (A) (A) (A) (A)
                 (A) (A) (A) (A) (A) (A) (A) (A) (A) (A) (A) (A)
                 (A) (A) (A) (A) (A) (A) (A) (A) (A) (A) (A) (A)
                 (A) (A) (A) (A) (A) (A) (A) (A) (A) (A) (A) (A)
                 (A) (A) (A) (A) (A) (A) (A) (A) (A) (A) (A) (A)
                 (A) (A) (A) (A) (A) (A)
       Virtual   (A) (A) (A) (A) (A) (A) (A) (A) (A) (A) (A) (A)
                 (A) (A) (A) (A) (A) (A) (A) (A) (A) (A) (A) (A)
                 (A) (A) (A) (A) (A) (A) (A) (A) (A) (A) (A) (A)
                 (A) (A) (A) (A) (A) (A) (A) (A) (A) (A) (A) (A)
                 (A) (A) (A) (A) (A) (A) (A) (A) (A) (A) (A) (A)
                 (A) (A) (A) (A) (A) (A) (A) (A) (A) (A) (A) (A)
                 (A) (A) (A) (A) (A) (A) (A) (A) (A) (A) (A) (A)
                 (A) (A) (A) (A) (A) (A) (A) (A) (A) (A) (A) (A)
                 (A) (A) (A) (A) (A) (A) (A) (A) (A) (A) (A) (A)
                 (A) (A) (A) (A) (A) (A) (A) (A) (A) (A) (A) (A)
                 (A) (A) (A) (A) (A) (A) (A) (A) (A) (A) (A) (A)
                 (A) (A) (A) (A) (A) (A) (A) (A) (A) (A) (A) (A)
                 (A) (A) (A) (A) (A) (A) (A) (A) (A) (A) (A) (A)
                 (A) (A) (A) (A) (A) (A) (A) (A) (A) (A) (A) (A)
                 (A) (A) (A) (A) (A) (A) (A) (A) (A) (A) (A) (A)
                 (A) (A) (A) (A) (A) (A) (A) (A) (A) (A) (A) (A)
                 (A) (A) (A) (A) (A) (A) (A) (A) (A) (A) (A) (A)
                 (A) (A) (A) (A) (A) (A) (A) (A) (A) (A) (A) (A)
                 (A) (A) (A) (A) (A) (A) (A) (A) (A) (A) (A) (A)
                 (A) (A) (A) (A) (A) (A) (A) (A) (A) (A) (A) (A)
                 (A) (A) (A) (A) (A) (A) (A) (A) (A) (A) (A) (A)
                 (A) (A) (A) (A) (A) (A) (A) (A) (A) (A) (A) (A)
                 (A) (A) (A) (A) (A) (A) (A) (A) (A) (A) (A) (A)
                 (A) (A) (A) (A) (A) (A) (A) (A) (A) (A) (A) (A)
                 (A) (A) (A) (A) (A) (A) (A) (A) (A) (A) (A) (A)
                 (A) (A) (A) (A) (A) (A) (A) (A) (A) (A) (A) (A)
                 (A) (A) (A) (A) (A) (A) (A) (A) (A) (A) (A) (A)
                 (A) (A) (A) (A) (A) (A) (A) (A) (A) (A) (A) (A)
                 (A) (A) (A) (A) (A) (A) (A) (A) (A) (A) (A) (A)
                 (A) (A) (A) (A) (A) (A) (A) (A) (A) (A) (A) (A)
                 (A) (A) (A) (A) (A) (A) (A) (A) (A) (A) (A) (A)
                 (A) (A) (A) (A) (A) (A) (A) (A) (A) (A) (A) (A)
                 (A) (A) (A) (A) (A) (A) (A) (A) (A) (A) (A) (A)
                 (A) (A) (A) (A) (A) (A) (A) (A) (A) (A) (A) (A)
                 (A) (A) (A) (A) (A) (A) (A) (A) (A) (A) (A) (A)
                 (A) (A) (A) (A) (A) (A) (A) (A) (A) (A) (A) (A)
                 (A) (A) (A) (A) (A) (A) (A) (A) (A) (A) (A) (A)
                 (A) (A) (A) (A) (A) (A) (A) (A) (A) (A) (A) (A)
                 (A) (A) (A) (A) (A) (A) (A) (A) (A) (A) (A) (A)
                 (A) (A) (A) (A) (A) (A) (A) (A) (A) (A) (A) (A)
                 (A) (A) (A) (A) (A) (A) (A) (A) (A) (A) (A) (A)
                 (A) (A) (A) (A) (A) (A) (A) (A) (A) (A) (A) (A)
                 (A) (A) (A) (A) (A) (A) (A) (A) (A) (A) (A) (A)
                 (A) (A) (A) (A) (A) (A) (A) (A) (A) (A) (A) (A)
                 (A) (A) (A) (A) (A) (A) (A) (A) (A) (A) (A) (A)
                 (A) (A) (A) (A) (A) (A) (A) (A) (A) (A) (A) (A)
                 (A) (A) (A) (A) (A) (A) (A) (A) (A) (A) (A) (A)
                 (A) (A) (A) (A) (A) (A) (A) (A) (A) (A) (A) (A)
                 (A) (A) (A) (A) (A) (A) (A) (A) (A) (A) (A) (A)
                 (A) (A) (A) (A) (A) (A) (A) (A) (A) (A) (A) (A)
                 (A) (A) (A) (A) (A) (A) (A) (A) (A) (A) (A) (A)
                 (A) (A) (A) (A) (A) (A) (A) (A) (A) (A) (A) (A)
                 (A) (A) (A) (A) (A) (A) (A) (A) (A) (A) (A) (A)
                 (A) (A) (A) (A) (A) (A) (A) (A) (A) (A) (A) (A)
                 (A) (A) (A) (A) (A) (A) (A) (A) (A) (A) (A) (A)
                 (A) (A) (A) (A) (A) (A) (A) (A) (A) (A) (A) (A)
                 (A) (A) (A) (A) (A) (A) (A) (A) (A) (A) (A) (A)
                 (A) (A) (A) (A) (A) (A) (A) (A) (A) (A) (A) (A)
                 (A) (A) (A) (A) (A) (A) (A) (A) (A) (A) (A) (A)
                 (A) (A) (A) (A) (A) (A) (A) (A) (A) (A) (A) (A)
                 (A) (A) (A) (A) (A) (A) (A) (A) (A) (A) (A) (A)
                 (A) (A) (A) (A) (A) (A) (A) (A) (A) (A) (A) (A)
                 (A) (A) (A) (A) (A) (A) (A) (A) (A) (A) (A) (A)
                 (A) (A) (A) (A) (A) (A) (A) (A) (A) (A) (A) (A)
                 (A) (A) (A) (A) (A) (A) (A) (A) (A) (A) (A) (A)
                 (A) (A) (A) (A) (A) (A) (A) (A) (A) (A) (A) (A)
                 (A) (A) (A) (A) (A) (A) (A) (A) (A) (A) (A) (A)
                 (A) (A) (A) (A) (A) (A) (A) (A) (A) (A) (A) (A)
                 (A) (A) (A) (A) (A) (A) (A) (A) (A) (A) (A) (A)
                 (A) (A) (A) (A) (A) (A) (A) (A) (A) (A) (A) (A)
                 (A) (A) (A) (A) (A) (A) (A) (A) (A) (A) (A) (A)
                 (A) (A) (A) (A) (A) (A) (A) (A) (A) (A) (A) (A)
                 (A) (A) (A) (A) (A) (A) (A) (A) (A) (A) (A) (A)
                 (A) (A) (A) (A) (A) (A) (A) (A) (A) (A) (A) (A)
                 (A) (A) (A) (A) (A) (A) (A) (A) (A) (A) (A) (A)
                 (A) (A) (A) (A) (A) (A) (A) (A) (A) (A) (A) (A)
                 (A) (A) (A) (A) (A) (A) (A) (A) (A) (A) (A) (A)
                 (A) (A) (A) (A) (A) (A) (A) (A) (A) (A) (A) (A)
                 (A) (A) (A) (A) (A) (A) (A) (A) (A) (A) (A) (A)
                 (A) (A) (A) (A) (A) (A) (A) (A) (A) (A) (A) (A)
                 (A) (A) (A) (A) (A) (A) (A) (A) (A) (A) (A) (A)
                 (A) (A) (A) (A) (A) (A) (A) (A) (A) (A) (A) (A)
                 (A) (A) (A) (A) (A) (A) (A) (A) (A) (A) (A) (A)
                 (A) (A) (A) (A) (A) (A) (A) (A) (A) (A) (A) (A)
                 (A) (A) (A) (A) (A) (A) (A) (A) (A) (A) (A) (A)
                 (A) (A) (A) (A) (A) (A) (A) (A) (A) (A) (A) (A)
                 (A) (A) (A) (A) (A) (A) (A) (A) (A) (A) (A) (A)
                 (A) (A) (A) (A) (A) (A) (A) (A)
    20 initial guesses have been made.
 Convergence on wavefunction:    0.001000000000000
 Davidson Disk Diagonalization:  ConvIn= 1.00D-03 SkipCon=T Conv= 1.00D-03.
 Max sub-space:  2000 roots to seek:    20 dimension of matrix:       370304
 Iteration     1 Dimension    20 NMult     0 NNew     20
 CISAX will form    20 AO SS matrices at one time.
 NMat=    20 NSing=    20 JSym2X= 0.
 FoFJK:  IHMeth= 1 ICntrl=       0 DoSepK=F KAlg= 0 I1Cent=           0 FoldK=F
 IRaf= 520000000 NMat=      40 IRICut=       1 DoRegI=T DoRafI=F ISym2E= 0 IDoP0=3 IntGTp=3.
 FoFCou: FMM=T IPFlag=           0 FMFlag=      100000 FMFlg1=        2001
         NFxFlg=           0 DoJE=F BraDBF=F KetDBF=F FulRan=T
         wScrn=  0.000000 ICntrl=         0 IOpCl=  0 I1Cent=           0 NGrid=           0
         NMat0=   40 NMatS0=     20 NMatT0=    0 NMatD0=   40 NMtDS0=    0 NMtDT0=    0
 Symmetry not used in FoFCou.
 FMM levels:  10  Number of levels for PrismC:   9
 New state      4 was old state      5
 New state      5 was old state      6
 Excitation Energies [eV] at current iteration:
 Root      1 :     2.261729945889024
 Root      2 :     2.538704972769125
 Root      3 :     2.874091282267275
 Root      4 :     3.242036997373880
 Root      5 :     3.259225509192484
 Root      6 :     3.446346232648706
 Root      7 :     3.614596718297959
 Root      8 :     3.729671008777911
 Root      9 :     3.766875462109222
 Root     10 :     3.930304743161577
 Root     11 :     3.950797321767289
 Root     12 :     4.161662391925365
 Root     13 :     4.194294514983818
 Root     14 :     4.266384653937409
 Root     15 :     4.336203779112340
 Root     16 :     4.410375225044106
 Root     17 :     4.618995640653785
 Root     18 :     4.687704974535002
 Root     19 :     4.697994155540510
 Root     20 :     4.907827690934323
 Iteration     2 Dimension    30 NMult    20 NNew     10
 CISAX will form    10 AO SS matrices at one time.
 NMat=    10 NSing=    10 JSym2X= 0.
 Root      1 not converged, maximum delta is    0.058964001594262
 Root      2 not converged, maximum delta is    0.056722516503835
 Root      3 not converged, maximum delta is    0.004585731187589
 Root      4 not converged, maximum delta is    0.202819272458403
 Root      5 not converged, maximum delta is    0.116860294876716
 Excitation Energies [eV] at current iteration:
 Root      1 :     1.931787853158899   Change is   -0.329942092730126
 Root      2 :     2.257506200513698   Change is   -0.281198772255427
 Root      3 :     2.873598009111721   Change is   -0.000493273155554
 Root      4 :     3.088982250570049   Change is   -0.153054746803831
 Root      5 :     3.136224046710510   Change is   -0.123001462481975
 Iteration     3 Dimension    40 NMult    30 NNew     10
 CISAX will form    10 AO SS matrices at one time.
 NMat=    10 NSing=    10 JSym2X= 0.
 Root      1 not converged, maximum delta is    0.026803638990106
 Root      2 not converged, maximum delta is    0.023509418833775
 Root      3 has converged.
 Root      4 not converged, maximum delta is    0.017559459655357
 Root      5 not converged, maximum delta is    0.019012100411470
 Excitation Energies [eV] at current iteration:
 Root      1 :     1.899912078036023   Change is   -0.031875775122876
 Root      2 :     2.238414675471144   Change is   -0.019091525042554
 Root      3 :     2.873591263136133   Change is   -0.000006745975588
 Root      4 :     3.077591170927463   Change is   -0.011391079642586
 Root      5 :     3.121832030394457   Change is   -0.014392016316053
 Iteration     4 Dimension    48 NMult    40 NNew      8
 CISAX will form     8 AO SS matrices at one time.
 NMat=     8 NSing=     8 JSym2X= 0.
 Root      1 not converged, maximum delta is    0.003314684209635
 Root      2 not converged, maximum delta is    0.008929606388071
 Root      3 has converged.
 Root      4 not converged, maximum delta is    0.006320343711013
 Root      5 not converged, maximum delta is    0.009476973963664
 Excitation Energies [eV] at current iteration:
 Root      1 :     1.896790291592903   Change is   -0.003121786443120
 Root      2 :     2.235316133769318   Change is   -0.003098541701826
 Root      3 :     2.873591174799602   Change is   -0.000000088336531
 Root      4 :     3.075791609062230   Change is   -0.001799561865233
 Root      5 :     3.120177266298809   Change is   -0.001654764095649
 Iteration     5 Dimension    56 NMult    48 NNew      8
 CISAX will form     8 AO SS matrices at one time.
 NMat=     8 NSing=     8 JSym2X= 0.
 Root      1 has converged.
 Root      2 has converged.
 Root      3 has converged.
 Root      4 not converged, maximum delta is    0.001737928932315
 Root      5 not converged, maximum delta is    0.001532733224214
 Excitation Energies [eV] at current iteration:
 Root      1 :     1.896513443105799   Change is   -0.000276848487104
 Root      2 :     2.234991823977662   Change is   -0.000324309791656
 Root      3 :     2.873591164044505   Change is   -0.000000010755097
 Root      4 :     3.075508250695712   Change is   -0.000283358366517
 Root      5 :     3.119992293251960   Change is   -0.000184973046849
 Iteration     6 Dimension    60 NMult    56 NNew      4
 CISAX will form     4 AO SS matrices at one time.
 NMat=     4 NSing=     4 JSym2X= 0.
 Root      1 has converged.
 Root      2 has converged.
 Root      3 has converged.
 Root      4 not converged, maximum delta is    0.001307686657267
 Root      5 has converged.
 Excitation Energies [eV] at current iteration:
 Root      1 :     1.896512966355852   Change is   -0.000000476749947
 Root      2 :     2.234990813026239   Change is   -0.000001010951423
 Root      3 :     2.873591154500296   Change is   -0.000000009544209
 Root      4 :     3.075471904602069   Change is   -0.000036346093644
 Root      5 :     3.119963238597779   Change is   -0.000029054654181
 Iteration     7 Dimension    62 NMult    60 NNew      2
 CISAX will form     2 AO SS matrices at one time.
 NMat=     2 NSing=     2 JSym2X= 0.
 Root      1 has converged.
 Root      2 has converged.
 Root      3 has converged.
 Root      4 has converged.
 Root      5 has converged.
 Excitation Energies [eV] at current iteration:
 Root      1 :     1.896512726385742   Change is   -0.000000239970110
 Root      2 :     2.234990626319689   Change is   -0.000000186706549
 Root      3 :     2.873591148463707   Change is   -0.000000006036590
 Root      4 :     3.075465365710094   Change is   -0.000006538891975
 Root      5 :     3.119963185946564   Change is   -0.000000052651215
 Convergence achieved on expansion vectors.
 ***********************************************************************
 Excited states from <AA,BB:AA,BB> singles matrix:
 ***********************************************************************
 
 1PDM for each excited state written to RWF  633
 Ground to excited state transition densities written to RWF  633
 Ground to excited state transition electric dipole moments (Au):
       state          X           Y           Z        Dip. S.      Osc.
         1         1.7995     -1.6061      1.2293      7.3289      0.3405
         2        -0.3772     -1.2060     -0.5494      1.8985      0.1040
         3        -0.0059      0.0002     -0.0001      0.0000      0.0000
         4         0.0012      0.1281     -0.0269      0.0171      0.0013
         5         0.0153     -0.0466     -0.0152      0.0026      0.0002
 Ground to excited state transition velocity dipole moments (Au):
       state          X           Y           Z        Dip. S.      Osc.
         1        -0.1209      0.1086     -0.0833      0.0333      0.3190
         2         0.0285      0.0947      0.0417      0.0115      0.0935
         3         0.0005     -0.0000      0.0001      0.0000      0.0000
         4         0.0028     -0.0135      0.0023      0.0002      0.0012
         5        -0.0008      0.0040     -0.0015      0.0000      0.0001
 Ground to excited state transition magnetic dipole moments (Au):
       state          X           Y           Z
         1        -0.0407      0.8160      1.0029
         2         0.4715     -0.4354      0.4385
         3        -0.0023     -0.0020      0.0039
         4        -0.7040      0.1895      0.3165
         5         0.2773     -0.0952      0.2043
 Ground to excited state transition velocity quadrupole moments (Au):
       state          XX          YY          ZZ          XY          XZ          YZ
         1        -2.0307      0.4370      0.1338      0.7108     -0.5952     -0.3325
         2         0.3721      0.3585     -0.0276      0.8397      0.4648     -0.0291
         3         0.0041     -0.0000      0.0000     -0.0004      0.0029      0.0019
         4         0.2144     -0.2761      0.0264     -0.0500      0.0935     -0.0466
         5         0.0002      0.0842     -0.0082     -0.0479     -0.0087     -0.0768
 <0|del|b> * <b|rxdel|0> + <0|del|b> * <b|delr+rdel|0>
 Rotatory Strengths (R) in cgs (10**-40 erg-esu-cm/Gauss)
       state          XX          YY          ZZ    R(velocity)    E-M Angle
         1        52.7506    105.3321    -57.3227     33.5867       87.59
         2      -137.3117    -17.8390     73.3451    -27.2685       96.54
         3         0.0015      0.0001     -0.0073     -0.0019       90.00
         4        -2.1571     -3.9377    -17.6795     -7.9248      110.01
         5        -1.7960     -1.6505     -2.1356     -1.8607      125.55
 1/2[<0|r|b>*<b|rxdel|0> + (<0|rxdel|b>*<b|r|0>)*]
 Rotatory Strengths (R) in cgs (10**-40 erg-esu-cm/Gauss)
       state          XX          YY          ZZ     R(length)
         1        51.7364    926.8328   -871.8150     35.5847
         2       125.7680   -371.2800    170.3669    -25.0483
         3        -0.0096      0.0003      0.0001     -0.0030
         4         0.5923    -17.1571      6.0277     -3.5124
         5        -2.9982     -3.1365      2.1919     -1.3143
  1/2[<0|del|b>*<b|r|0> + (<0|r|b>*<b|del|0>)*] (Au)
       state          X           Y           Z        Dip. S.   Osc.(frdel)
         1        -0.2175     -0.1744     -0.1024      0.4944      0.3296
         2        -0.0107     -0.1142     -0.0229      0.1478      0.0986
         3        -0.0000     -0.0000     -0.0000      0.0000      0.0000
         4         0.0000     -0.0017     -0.0001      0.0018      0.0012
         5        -0.0000     -0.0002      0.0000      0.0002      0.0001

 Excitation energies and oscillator strengths:
 
 Excited State   1:      Singlet-A      1.8965 eV  653.75 nm  f=0.3405  <S**2>=0.000
     245 -> 248       -0.18757
     246 -> 247        0.68746
 This state for optimization and/or second-order correction.
 Total Energy, E(TD-HF/TD-DFT) =  -3005.27481473    
 Copying the excited state density for this state as the 1-particle RhoCI density.
 
 Excited State   2:      Singlet-A      2.2350 eV  554.74 nm  f=0.1040  <S**2>=0.000
     245 -> 247        0.64924
     246 -> 248        0.26890
 
 Excited State   3:      Singlet-A      2.8736 eV  431.46 nm  f=0.0000  <S**2>=0.000
     244 -> 247        0.70697
 
 Excited State   4:      Singlet-A      3.0755 eV  403.14 nm  f=0.0013  <S**2>=0.000
     241 -> 247        0.21626
     243 -> 247        0.63479
     246 -> 248        0.14646
 
 Excited State   5:      Singlet-A      3.1200 eV  397.39 nm  f=0.0002  <S**2>=0.000
     240 -> 247        0.15174
     242 -> 247        0.65420
     242 -> 249        0.12904
     242 -> 250       -0.10121
 SavETr:  write IOETrn=   770 NScale= 10 NData=  16 NLR=1 NState=    5 LETran=     100.
 Leave Link  914 at Wed May  4 16:01:41 2022, MaxMem= 10066329600 cpu:           25806.7 elap:            1078.9
 (Enter /sw/apps/gaussian-16.0/g16/l601.exe)
 Copying SCF densities to generalized density rwf, IOpCl= 0 IROHF=0.
 Hyperfine terms turned off by default for NAtoms > 100.

 **********************************************************************

            Population analysis using the SCF density.

 **********************************************************************

 Orbital symmetries:
       Occupied  (A) (A) (A) (A) (A) (A) (A) (A) (A) (A) (A) (A)
                 (A) (A) (A) (A) (A) (A) (A) (A) (A) (A) (A) (A)
                 (A) (A) (A) (A) (A) (A) (A) (A) (A) (A) (A) (A)
                 (A) (A) (A) (A) (A) (A) (A) (A) (A) (A) (A) (A)
                 (A) (A) (A) (A) (A) (A) (A) (A) (A) (A) (A) (A)
                 (A) (A) (A) (A) (A) (A) (A) (A) (A) (A) (A) (A)
                 (A) (A) (A) (A) (A) (A) (A) (A) (A) (A) (A) (A)
                 (A) (A) (A) (A) (A) (A) (A) (A) (A) (A) (A) (A)
                 (A) (A) (A) (A) (A) (A) (A) (A) (A) (A) (A) (A)
                 (A) (A) (A) (A) (A) (A) (A) (A) (A) (A) (A) (A)
                 (A) (A) (A) (A) (A) (A) (A) (A) (A) (A) (A) (A)
                 (A) (A) (A) (A) (A) (A) (A) (A) (A) (A) (A) (A)
                 (A) (A) (A) (A) (A) (A) (A) (A) (A) (A) (A) (A)
                 (A) (A) (A) (A) (A) (A) (A) (A) (A) (A) (A) (A)
                 (A) (A) (A) (A) (A) (A) (A) (A) (A) (A) (A) (A)
                 (A) (A) (A) (A) (A) (A) (A) (A) (A) (A) (A) (A)
                 (A) (A) (A) (A) (A) (A) (A) (A) (A) (A) (A) (A)
                 (A) (A) (A) (A) (A) (A) (A) (A) (A) (A) (A) (A)
                 (A) (A) (A) (A) (A) (A) (A) (A) (A) (A) (A) (A)
                 (A) (A) (A) (A) (A) (A) (A) (A) (A) (A) (A) (A)
                 (A) (A) (A) (A) (A) (A)
       Virtual   (A) (A) (A) (A) (A) (A) (A) (A) (A) (A) (A) (A)
                 (A) (A) (A) (A) (A) (A) (A) (A) (A) (A) (A) (A)
                 (A) (A) (A) (A) (A) (A) (A) (A) (A) (A) (A) (A)
                 (A) (A) (A) (A) (A) (A) (A) (A) (A) (A) (A) (A)
                 (A) (A) (A) (A) (A) (A) (A) (A) (A) (A) (A) (A)
                 (A) (A) (A) (A) (A) (A) (A) (A) (A) (A) (A) (A)
                 (A) (A) (A) (A) (A) (A) (A) (A) (A) (A) (A) (A)
                 (A) (A) (A) (A) (A) (A) (A) (A) (A) (A) (A) (A)
                 (A) (A) (A) (A) (A) (A) (A) (A) (A) (A) (A) (A)
                 (A) (A) (A) (A) (A) (A) (A) (A) (A) (A) (A) (A)
                 (A) (A) (A) (A) (A) (A) (A) (A) (A) (A) (A) (A)
                 (A) (A) (A) (A) (A) (A) (A) (A) (A) (A) (A) (A)
                 (A) (A) (A) (A) (A) (A) (A) (A) (A) (A) (A) (A)
                 (A) (A) (A) (A) (A) (A) (A) (A) (A) (A) (A) (A)
                 (A) (A) (A) (A) (A) (A) (A) (A) (A) (A) (A) (A)
                 (A) (A) (A) (A) (A) (A) (A) (A) (A) (A) (A) (A)
                 (A) (A) (A) (A) (A) (A) (A) (A) (A) (A) (A) (A)
                 (A) (A) (A) (A) (A) (A) (A) (A) (A) (A) (A) (A)
                 (A) (A) (A) (A) (A) (A) (A) (A) (A) (A) (A) (A)
                 (A) (A) (A) (A) (A) (A) (A) (A) (A) (A) (A) (A)
                 (A) (A) (A) (A) (A) (A) (A) (A) (A) (A) (A) (A)
                 (A) (A) (A) (A) (A) (A) (A) (A) (A) (A) (A) (A)
                 (A) (A) (A) (A) (A) (A) (A) (A) (A) (A) (A) (A)
                 (A) (A) (A) (A) (A) (A) (A) (A) (A) (A) (A) (A)
                 (A) (A) (A) (A) (A) (A) (A) (A) (A) (A) (A) (A)
                 (A) (A) (A) (A) (A) (A) (A) (A) (A) (A) (A) (A)
                 (A) (A) (A) (A) (A) (A) (A) (A) (A) (A) (A) (A)
                 (A) (A) (A) (A) (A) (A) (A) (A) (A) (A) (A) (A)
                 (A) (A) (A) (A) (A) (A) (A) (A) (A) (A) (A) (A)
                 (A) (A) (A) (A) (A) (A) (A) (A) (A) (A) (A) (A)
                 (A) (A) (A) (A) (A) (A) (A) (A) (A) (A) (A) (A)
                 (A) (A) (A) (A) (A) (A) (A) (A) (A) (A) (A) (A)
                 (A) (A) (A) (A) (A) (A) (A) (A) (A) (A) (A) (A)
                 (A) (A) (A) (A) (A) (A) (A) (A) (A) (A) (A) (A)
                 (A) (A) (A) (A) (A) (A) (A) (A) (A) (A) (A) (A)
                 (A) (A) (A) (A) (A) (A) (A) (A) (A) (A) (A) (A)
                 (A) (A) (A) (A) (A) (A) (A) (A) (A) (A) (A) (A)
                 (A) (A) (A) (A) (A) (A) (A) (A) (A) (A) (A) (A)
                 (A) (A) (A) (A) (A) (A) (A) (A) (A) (A) (A) (A)
                 (A) (A) (A) (A) (A) (A) (A) (A) (A) (A) (A) (A)
                 (A) (A) (A) (A) (A) (A) (A) (A) (A) (A) (A) (A)
                 (A) (A) (A) (A) (A) (A) (A) (A) (A) (A) (A) (A)
                 (A) (A) (A) (A) (A) (A) (A) (A) (A) (A) (A) (A)
                 (A) (A) (A) (A) (A) (A) (A) (A) (A) (A) (A) (A)
                 (A) (A) (A) (A) (A) (A) (A) (A) (A) (A) (A) (A)
                 (A) (A) (A) (A) (A) (A) (A) (A) (A) (A) (A) (A)
                 (A) (A) (A) (A) (A) (A) (A) (A) (A) (A) (A) (A)
                 (A) (A) (A) (A) (A) (A) (A) (A) (A) (A) (A) (A)
                 (A) (A) (A) (A) (A) (A) (A) (A) (A) (A) (A) (A)
                 (A) (A) (A) (A) (A) (A) (A) (A) (A) (A) (A) (A)
                 (A) (A) (A) (A) (A) (A) (A) (A) (A) (A) (A) (A)
                 (A) (A) (A) (A) (A) (A) (A) (A) (A) (A) (A) (A)
                 (A) (A) (A) (A) (A) (A) (A) (A) (A) (A) (A) (A)
                 (A) (A) (A) (A) (A) (A) (A) (A) (A) (A) (A) (A)
                 (A) (A) (A) (A) (A) (A) (A) (A) (A) (A) (A) (A)
[...]
 Alpha virt. eigenvalues --    1.19440   1.20185   1.20490   1.20981   1.21341
 Alpha virt. eigenvalues --    1.21409   1.21668   1.22324   1.22672   1.23337
 Alpha virt. eigenvalues --    1.23454   1.23643   1.23848   1.24696   1.25494
 Alpha virt. eigenvalues --    1.25949   1.26433   1.27042   1.27325   1.27735
 Alpha virt. eigenvalues --    1.28020   1.28164   1.28448   1.29264   1.29778
 Alpha virt. eigenvalues --    1.30181   1.30290   1.31117   1.31394   1.32218
 Alpha virt. eigenvalues --    1.32357   1.32493   1.33011   1.34049   1.34163
 Alpha virt. eigenvalues --    1.34355   1.34626   1.35028   1.35379   1.35802
 Alpha virt. eigenvalues --    1.35862   1.36406   1.36514   1.37026   1.37845
 Alpha virt. eigenvalues --    1.38320   1.38767   1.38854   1.38986   1.39565
 Alpha virt. eigenvalues --    1.40134   1.41020   1.41244   1.41384   1.41780
 Alpha virt. eigenvalues --    1.42022   1.42624   1.42807   1.43368   1.43876
 Alpha virt. eigenvalues --    1.44849   1.45025   1.45212   1.45624   1.46599
 Alpha virt. eigenvalues --    1.47659   1.48001   1.48237   1.48920   1.49244
 Alpha virt. eigenvalues --    1.49474   1.49761   1.50436   1.50682   1.51052
 Alpha virt. eigenvalues --    1.51385   1.51839   1.52073   1.52287   1.52499
 Alpha virt. eigenvalues --    1.52638   1.52764   1.53050   1.53334   1.53425
 Alpha virt. eigenvalues --    1.53826   1.54007   1.54244   1.54918   1.55312
 Alpha virt. eigenvalues --    1.55604   1.55797   1.55967   1.56144   1.56462
 Alpha virt. eigenvalues --    1.56888   1.57009   1.57132   1.57567   1.58105
 Alpha virt. eigenvalues --    1.58131   1.58411   1.58515   1.59206   1.59481
 Alpha virt. eigenvalues --    1.59837   1.60206   1.60576   1.60954   1.61151
 Alpha virt. eigenvalues --    1.61731   1.62050   1.62197   1.62489   1.62584
 Alpha virt. eigenvalues --    1.63118   1.63342   1.63693   1.64054   1.65312
 Alpha virt. eigenvalues --    1.65849   1.66306   1.66611   1.66750   1.67020
 Alpha virt. eigenvalues --    1.67584   1.67998   1.68445   1.68540   1.68990
 Alpha virt. eigenvalues --    1.69118   1.69443   1.70310   1.70335   1.71056
 Alpha virt. eigenvalues --    1.71453   1.71817   1.72325   1.72634   1.72749
 Alpha virt. eigenvalues --    1.73047   1.73287   1.73423   1.73519   1.73600
 Alpha virt. eigenvalues --    1.73621   1.74205   1.74275   1.74336   1.74529
 Alpha virt. eigenvalues --    1.74716   1.75086   1.75305   1.75350   1.76020
 Alpha virt. eigenvalues --    1.76070   1.76728   1.76870   1.77077   1.77236
 Alpha virt. eigenvalues --    1.77419   1.77610   1.77870   1.78267   1.78399
 Alpha virt. eigenvalues --    1.78450   1.78833   1.78887   1.79002   1.79212
 Alpha virt. eigenvalues --    1.79281   1.79473   1.79601   1.79903   1.79994
 Alpha virt. eigenvalues --    1.80257   1.80388   1.80636   1.80774   1.81676
 Alpha virt. eigenvalues --    1.81812   1.81941   1.82296   1.82482   1.82619
 Alpha virt. eigenvalues --    1.82646   1.82832   1.83175   1.83246   1.83289
 Alpha virt. eigenvalues --    1.83679   1.83757   1.83919   1.83974   1.84546
 Alpha virt. eigenvalues --    1.84726   1.84906   1.84950   1.85402   1.85510
 Alpha virt. eigenvalues --    1.85631   1.85809   1.85919   1.86119   1.86515
 Alpha virt. eigenvalues --    1.86952   1.86973   1.87278   1.87339   1.87441
 Alpha virt. eigenvalues --    1.87797   1.87877   1.88189   1.88372   1.88816
 Alpha virt. eigenvalues --    1.88930   1.89074   1.89155   1.89371   1.89850
 Alpha virt. eigenvalues --    1.90131   1.90201   1.90595   1.90756   1.90985
 Alpha virt. eigenvalues --    1.91451   1.91583   1.91967   1.92045   1.92293
 Alpha virt. eigenvalues --    1.92363   1.92690   1.92744   1.93150   1.93345
 Alpha virt. eigenvalues --    1.93914   1.94221   1.94638   1.94854   1.95231
 Alpha virt. eigenvalues --    1.95443   1.95831   1.95904   1.96309   1.96799
 Alpha virt. eigenvalues --    1.96977   1.97522   1.97635   1.97795   1.97979
 Alpha virt. eigenvalues --    1.98352   1.98720   1.98918   1.99172   1.99618
 Alpha virt. eigenvalues --    2.00242   2.00416   2.00474   2.00961   2.01216
 Alpha virt. eigenvalues --    2.01276   2.01460   2.01994   2.02227   2.02588
 Alpha virt. eigenvalues --    2.03041   2.03249   2.03742   2.03773   2.03938
 Alpha virt. eigenvalues --    2.04332   2.04994   2.05148   2.05293   2.05491
 Alpha virt. eigenvalues --    2.05644   2.05906   2.06083   2.06408   2.06855
 Alpha virt. eigenvalues --    2.07106   2.07238   2.07462   2.07595   2.07916
 Alpha virt. eigenvalues --    2.08096   2.08915   2.09362   2.09544   2.09771
 Alpha virt. eigenvalues --    2.09991   2.10486   2.10563   2.10981   2.11162
 Alpha virt. eigenvalues --    2.11640   2.12535   2.12908   2.13084   2.13199
 Alpha virt. eigenvalues --    2.13430   2.13614   2.14155   2.14469   2.14972
 Alpha virt. eigenvalues --    2.15084   2.15287   2.15675   2.16240   2.16517
 Alpha virt. eigenvalues --    2.16641   2.17386   2.17855   2.18192   2.18429
 Alpha virt. eigenvalues --    2.18855   2.19277   2.19625   2.20626   2.21108
 Alpha virt. eigenvalues --    2.21315   2.21600   2.22210   2.22402   2.22865
 Alpha virt. eigenvalues --    2.23372   2.24072   2.24397   2.24515   2.25023
 Alpha virt. eigenvalues --    2.25218   2.25978   2.26355   2.26973   2.27018
 Alpha virt. eigenvalues --    2.27417   2.27863   2.28212   2.29058   2.29221
 Alpha virt. eigenvalues --    2.29542   2.29918   2.30377   2.30537   2.31171
 Alpha virt. eigenvalues --    2.31263   2.31399   2.31840   2.31995   2.32649
 Alpha virt. eigenvalues --    2.32997   2.33491   2.33628   2.34001   2.34330
 Alpha virt. eigenvalues --    2.34746   2.34938   2.35439   2.35537   2.35849
 Alpha virt. eigenvalues --    2.36031   2.36342   2.36555   2.36870   2.37452
 Alpha virt. eigenvalues --    2.38484   2.39094   2.39139   2.39269   2.39774
 Alpha virt. eigenvalues --    2.40228   2.40574   2.40763   2.41296   2.41451
 Alpha virt. eigenvalues --    2.41677   2.41935   2.42397   2.42892   2.43005
 Alpha virt. eigenvalues --    2.43428   2.44087   2.44407   2.44623   2.45447
 Alpha virt. eigenvalues --    2.46032   2.46592   2.47135   2.47191   2.47394
 Alpha virt. eigenvalues --    2.47984   2.48241   2.48678   2.49269   2.49390
 Alpha virt. eigenvalues --    2.49793   2.49905   2.50175   2.50469   2.51263
 Alpha virt. eigenvalues --    2.51828   2.52295   2.52335   2.52671   2.52797
 Alpha virt. eigenvalues --    2.53142   2.53383   2.53463   2.54311   2.54834
 Alpha virt. eigenvalues --    2.55192   2.55951   2.56349   2.56645   2.56901
 Alpha virt. eigenvalues --    2.57268   2.57605   2.58569   2.59051   2.59396
 Alpha virt. eigenvalues --    2.59829   2.60090   2.60569   2.60882   2.61520
 Alpha virt. eigenvalues --    2.61992   2.62271   2.63338   2.63534   2.63901
 Alpha virt. eigenvalues --    2.64298   2.64469   2.65143   2.65787   2.66024
 Alpha virt. eigenvalues --    2.66175   2.66666   2.66924   2.67231   2.67995
 Alpha virt. eigenvalues --    2.68504   2.69089   2.69492   2.69573   2.69888
 Alpha virt. eigenvalues --    2.70813   2.70923   2.71419   2.71774   2.71896
 Alpha virt. eigenvalues --    2.72070   2.72374   2.72550   2.72996   2.73138
 Alpha virt. eigenvalues --    2.73382   2.73849   2.74470   2.74615   2.74714
 Alpha virt. eigenvalues --    2.75100   2.75840   2.76355   2.76483   2.76788
 Alpha virt. eigenvalues --    2.77217   2.78249   2.78499   2.79390   2.79841
 Alpha virt. eigenvalues --    2.79898   2.81458   2.82208   2.83132   2.83234
 Alpha virt. eigenvalues --    2.84165   2.85038   2.85589   2.86150   2.86314
 Alpha virt. eigenvalues --    2.87021   2.87248   2.87737   2.88263   2.88607
 Alpha virt. eigenvalues --    2.88834   2.89663   2.89919   2.90532   2.91364
 Alpha virt. eigenvalues --    2.91456   2.91614   2.91899   2.92263   2.92444
 Alpha virt. eigenvalues --    2.92765   2.92808   2.93051   2.93118   2.93645
 Alpha virt. eigenvalues --    2.94232   2.94371   2.94719   2.95129   2.95393
 Alpha virt. eigenvalues --    2.95742   2.96386   2.96411   2.96581   2.97451
 Alpha virt. eigenvalues --    2.97528   2.97901   2.98063   2.98605   2.98694
 Alpha virt. eigenvalues --    2.98897   2.99109   2.99372   3.00187   3.00685
 Alpha virt. eigenvalues --    3.00813   3.01046   3.01470   3.01490   3.01930
 Alpha virt. eigenvalues --    3.02273   3.02324   3.02426   3.02481   3.02633
 Alpha virt. eigenvalues --    3.02980   3.03520   3.03618   3.03897   3.04545
 Alpha virt. eigenvalues --    3.04726   3.04762   3.05436   3.05753   3.06476
 Alpha virt. eigenvalues --    3.06825   3.07093   3.07436   3.08009   3.08164
 Alpha virt. eigenvalues --    3.08384   3.09408   3.10016   3.10459   3.11715
 Alpha virt. eigenvalues --    3.12149   3.12519   3.13903   3.14037   3.14381
 Alpha virt. eigenvalues --    3.14839   3.15103   3.15899   3.17048   3.17493
 Alpha virt. eigenvalues --    3.17595   3.19317   3.19440   3.20986   3.23375
 Alpha virt. eigenvalues --    3.25321   3.27653   3.36701   3.37162   3.42315
 Alpha virt. eigenvalues --    3.42406   3.44340   3.45439   3.47944   3.50236
 Alpha virt. eigenvalues --    3.54287   3.56582   3.58835   3.61716   3.64126
 Alpha virt. eigenvalues --    3.66777   3.67264
          Condensed to atoms (all electrons):
 Mulliken charges:
               1
     1  Mg   0.961298
     2  C    0.110020
     3  C   -0.073415
     4  C   -0.091884
     5  C   -0.075757
     6  N   -0.316958
     7  C   -0.060784
     8  C   -0.007945
     9  C   -0.140408
    10  C    0.032246
    11  C    0.006525
    12  C    0.031000
    13  C   -0.045337
    14  C    0.240386
    15  O   -0.276922
    16  O   -0.383696
    17  N   -0.490239
    18  C    0.179891
    19  C   -0.150822
    20  C   -0.103451
    21  C    0.209992
    22  C    0.033671
    23  C    0.041187
    24  O   -0.205329
    25  C   -0.027870
    26  N   -0.393809
    27  C    0.019420
    28  C   -0.083324
    29  C   -0.109416
    30  C    0.081214
    31  C   -0.008615
    32  C   -0.023438
    33  C   -0.109133
    34  N   -0.473565
    35  C    0.151661
    36  C   -0.219016
    37  C   -0.015082
    38  C    0.097107
    39  C    0.061437
    40  C    0.158032
    41  O   -0.180765
    42  C   -0.251095
    43  C    0.320674
    44  O   -0.270971
    45  O   -0.354224
    46  C    0.128403
    47  C    0.261410
    48  C   -0.120492
    49  C   -0.275484
    50  C    0.006790
    51  C    0.004144
    52  C   -0.002579
    53  C    0.002486
    54  C   -0.262740
    55  C    0.000351
    56  C    0.023684
    57  C   -0.041511
    58  C   -0.008718
    59  C   -0.250281
    60  C    0.006932
    61  C   -0.000744
    62  C   -0.042222
    63  C    0.010373
    64  C   -0.247109
    65  C   -0.033601
    66  C   -0.014654
    67  H    0.013919
    68  H   -0.010234
    69  H   -0.007907
    70  H    0.044220
    71  H    0.041762
    72  H    0.033664
    73  H    0.057021
    74  H    0.034306
    75  H    0.046849
    76  H    0.064585
    77  H    0.096883
    78  H    0.080358
    79  H    0.066597
    80  H    0.032226
    81  H    0.058728
    82  H    0.048037
    83  H    0.084054
    84  H    0.060605
    85  H    0.063542
    86  H    0.053756
    87  H    0.054896
    88  H    0.053425
    89  H    0.055946
    90  H    0.058388
    91  H    0.051161
    92  H    0.044236
    93  H    0.049638
    94  H    0.046325
    95  H    0.044440
    96  H    0.058299
    97  H    0.062551
    98  H    0.091541
    99  H    0.052968
   100  H    0.059469
   101  H    0.050587
   102  H    0.042088
   103  H    0.055111
   104  H    0.025973
   105  H    0.038487
   106  H    0.053622
   107  H    0.069466
   108  H    0.038656
   109  H    0.020846
   110  H    0.053695
   111  H    0.034614
   112  H    0.031292
   113  H    0.024232
   114  H    0.034387
   115  H    0.036191
   116  H    0.039542
   117  H    0.033348
   118  H    0.020247
   119  H    0.013332
   120  H    0.029528
   121  H    0.019464
   122  H    0.027259
   123  H    0.025913
   124  H    0.029730
   125  H    0.036481
   126  H    0.028645
   127  H    0.030515
   128  H    0.020261
   129  H    0.022724
   130  H    0.019863
   131  H    0.029656
   132  H    0.021605
   133  H    0.021503
   134  H    0.037677
   135  H    0.032628
   136  H    0.032113
   137  H    0.043143
   138  H    0.032075
   139  H    0.030567
   140  H    0.029747
 Sum of Mulliken charges =  -0.00000
 Mulliken charges with hydrogens summed into heavy atoms:
               1
     1  Mg   0.961298
     2  C    0.110020
     3  C   -0.059495
     4  C   -0.102118
     5  C   -0.083664
     6  N   -0.316958
     7  C   -0.060784
     8  C    0.036275
     9  C   -0.098647
    10  C    0.032246
    11  C    0.131516
    12  C    0.142434
    13  C    0.131904
    14  C    0.240386
    15  O   -0.276922
    16  O   -0.383696
    17  N   -0.490239
    18  C    0.179891
    19  C   -0.150822
    20  C   -0.103451
    21  C    0.209992
    22  C    0.191223
    23  C    0.041187
    24  O   -0.205329
    25  C    0.164825
    26  N   -0.393809
    27  C    0.019420
    28  C   -0.019782
    29  C   -0.055660
    30  C    0.081214
    31  C    0.155652
    32  C    0.086111
    33  C    0.031066
    34  N   -0.473565
    35  C    0.151661
    36  C   -0.219016
    37  C   -0.015082
    38  C    0.097107
    39  C    0.226726
    40  C    0.158032
    41  O   -0.180765
    42  C   -0.159554
    43  C    0.320674
    44  O   -0.270971
    45  O   -0.354224
    46  C    0.291427
    47  C    0.358609
    48  C   -0.094519
    49  C   -0.275484
    50  C    0.168365
    51  C    0.063647
    52  C    0.085730
    53  C    0.058011
    54  C   -0.228353
    55  C    0.109432
    56  C    0.057262
    57  C    0.007481
    58  C    0.044454
    59  C   -0.220550
    60  C    0.102572
    61  C    0.042241
    62  C    0.007297
    63  C    0.053481
    64  C   -0.209432
    65  C    0.074283
    66  C    0.077735
 Electronic spatial extent (au):  <R**2>=         114920.0660
 Charge=             -0.0000 electrons
 Dipole moment (field-independent basis, Debye):
    X=              0.8264    Y=              5.8698    Z=              0.8700  Tot=              5.9912
 Quadrupole moment (field-independent basis, Debye-Ang):
   XX=           -396.2152   YY=           -430.6533   ZZ=           -383.0294
   XY=             61.6271   XZ=             -5.5542   YZ=             22.0744
 Traceless Quadrupole moment (field-independent basis, Debye-Ang):
   XX=              7.0841   YY=            -27.3540   ZZ=             20.2699
   XY=             61.6271   XZ=             -5.5542   YZ=             22.0744
 Octapole moment (field-independent basis, Debye-Ang**2):
  XXX=            105.5468  YYY=            224.0575  ZZZ=            -13.2280  XYY=            -97.4269
  XXY=            446.2934  XXZ=            -22.8691  XZZ=            135.7311  YZZ=           -104.9895
  YYZ=            145.2691  XYZ=            114.8593
 Hexadecapole moment (field-independent basis, Debye-Ang**3):
 XXXX=        -124846.3493 YYYY=         -23921.5418 ZZZZ=         -11114.1716 XXXY=           3017.7514
 XXXZ=            653.6035 YYYX=           2165.7852 YYYZ=            533.0538 ZZZX=           -386.5789
 ZZZY=            380.8668 XXYY=         -25442.0374 XXZZ=         -21741.6681 YYZZ=          -5851.2712
 XXYZ=            456.3863 YYXZ=            128.7808 ZZXY=            -53.5012
 N-N= 9.600653328687D+03 E-N=-2.619128693726D+04  KE= 2.974205180295D+03
 Leave Link  601 at Wed May  4 16:01:43 2022, MaxMem= 10066329600 cpu:              17.5 elap:               0.8
 (Enter /sw/apps/gaussian-16.0/g16/l9999.exe)
 1\1\GINC-BP1-COMPUTE183\SP\RPBE1PBE TD-FC\def2SVP\C55H74Mg1N4O6\OF1564
 1\04-May-2022\0\\#p PBE1PBE/Def2SVP td=(nstates=5)\\step_1_chromophore
 _2 TDDFT with PBE1PBE functional\\0,1\Mg,0,3.158,-0.094,44.312\C,0,5.9
 81,1.967,44.127\C,0,1.598,2.251,42.305\C,0,0.535,-2.151,44.137\C,0,5.1
 49,-2.67,45.585\N,0,3.887,1.897,43.132\C,0,5.038,2.565,43.339\C,0,5.13
 1,3.861,42.57\C,0,3.59,4.004,42.271\C,0,2.946,2.644,42.52\C,0,2.955,5.
 033,43.244\C,0,6.136,3.755,41.416\C,0,6.21,2.461,40.579\C,0,6.195,2.64
 4,39.066\O,0,6.007,3.683,38.4\O,0,6.519,1.434,38.422\N,0,1.341,0.027,4
 3.38\C,0,0.866,1.125,42.713\C,0,-0.598,1.037,42.635\C,0,-0.951,-0.318,
 43.02\C,0,0.339,-0.855,43.551\C,0,-1.479,2.108,41.885\C,0,-2.325,-0.98
 1,42.895\O,0,-3.285,-0.34,42.569\C,0,-2.49,-2.436,43.227\N,0,2.984,-2.
 239,44.619\C,0,1.732,-2.881,44.593\C,0,1.803,-4.396,45.061\C,0,3.316,-
 4.491,45.581\C,0,3.86,-3.019,45.284\C,0,0.723,-4.977,46.104\C,0,4.234,
 -5.645,44.969\C,0,5.28,-6.178,46.068\N,0,5.163,-0.356,44.84\C,0,5.798,
 -1.431,45.428\C,0,7.171,-1.059,45.747\C,0,7.33,0.289,45.334\C,0,6.084,
 0.653,44.707\C,0,8.162,-1.875,46.535\C,0,8.239,1.467,45.15\O,0,9.427,1
 .578,45.356\C,0,7.352,2.565,44.423\C,0,7.283,3.745,45.353\O,0,8.218,4.
 569,45.513\O,0,6.001,3.854,45.872\C,0,5.729,5.056,46.587\C,0,6.66,1.46
 3,36.987\C,0,5.302,1.318,36.431\C,0,5.078,0.839,35.187\C,0,6.152,0.257
 ,34.231\C,0,3.638,0.679,34.791\C,0,3.102,2.034,34.274\C,0,2.501,1.746,
 32.904\C,0,0.971,2.203,32.903\C,0,0.118,0.988,33.3\C,0,0.545,2.734,31.
 509\C,0,-0.641,3.659,31.518\C,0,-1.911,3.091,30.741\C,0,-2.124,4.095,2
 9.606\C,0,-2.549,5.45,30.064\C,0,-3.157,3.469,28.691\C,0,-3.278,4.168,
 27.279\C,0,-2.311,3.556,26.234\C,0,-3.025,2.423,25.43\C,0,-2.372,1.03,
 25.606\C,0,-3.078,2.687,23.904\H,0,1.075,3.032,41.749\H,0,-0.296,-2.83
 6,44.319\H,0,5.7,-3.415,46.163\H,0,5.376,4.7,43.221\H,0,3.291,4.312,41
 .27\H,0,1.94,4.68,43.428\H,0,3.04,6.042,42.843\H,0,3.315,5.085,44.272\
 H,0,7.12,3.815,41.88\H,0,5.982,4.608,40.755\H,0,5.339,1.846,40.804\H,0
 ,7.152,1.964,40.809\H,0,-1.465,2.038,40.797\H,0,-1.165,3.109,42.181\H,
 0,-2.53,2.147,42.169\H,0,-3.476,-2.809,42.948\H,0,-2.332,-2.656,44.283
 \H,0,-1.797,-2.902,42.526\H,0,1.687,-4.884,44.094\H,0,3.35,-4.606,46.6
 64\H,0,-0.107,-5.37,45.518\H,0,0.379,-4.207,46.794\H,0,1.203,-5.755,46
 .698\H,0,4.889,-5.253,44.191\H,0,3.628,-6.445,44.543\H,0,6.307,-6.009,
 45.744\H,0,5.136,-7.248,46.215\H,0,5.312,-5.697,47.045\H,0,8.316,-2.82
 1,46.017\H,0,7.758,-2.083,47.526\H,0,9.136,-1.391,46.605\H,0,7.97,2.88
 4,43.584\H,0,4.675,5.078,46.863\H,0,6.083,5.93,46.04\H,0,6.206,5.066,4
 7.567\H,0,7.208,0.658,36.497\H,0,7.169,2.36,36.633\H,0,4.481,1.537,37.
 114\H,0,7.159,0.587,34.487\H,0,5.947,0.594,33.215\H,0,6.082,-0.817,34.
 399\H,0,3.08,0.322,35.657\H,0,3.654,-0.102,34.032\H,0,3.888,2.789,34.2
 54\H,0,2.292,2.326,34.942\H,0,2.469,0.695,32.613\H,0,3.072,2.336,32.18
 7\H,0,0.708,2.993,33.605\H,0,-0.853,1.132,32.825\H,0,0.121,1.044,34.38
 8\H,0,0.469,0.036,32.903\H,0,0.332,1.915,30.822\H,0,1.341,3.336,31.071
 \H,0,-0.396,4.636,31.103\H,0,-0.935,3.809,32.556\H,0,-2.78,2.956,31.38
 4\H,0,-1.74,2.143,30.231\H,0,-1.152,4.354,29.187\H,0,-1.7,6.127,29.966
 \H,0,-2.999,5.445,31.057\H,0,-3.348,5.871,29.454\H,0,-4.121,3.583,29.1
 87\H,0,-3.,2.4,28.547\H,0,-2.983,5.217,27.325\H,0,-4.301,4.146,26.903\
 H,0,-1.447,3.143,26.754\H,0,-1.891,4.318,25.577\H,0,-4.052,2.27,25.761
 \H,0,-3.196,0.372,25.331\H,0,-2.13,0.909,26.662\H,0,-1.531,0.829,24.94
 2\H,0,-2.599,1.89,23.334\H,0,-2.646,3.649,23.627\H,0,-4.121,2.735,23.5
 93\\Version=ES64L-G16RevA.03\State=1-A\HF=-3005.3445103\RMSD=4.992e-09
 \PG=C01 [X(C55H74Mg1N4O6)]\\@


 IF YOU BELIEVE CERTAIN WORDS, YOU BELIEVE THEIR HIDDEN ARGUMENTS.
 WHEN YOU BELIEVE SOMETHING IS RIGHT OR WRONG, TRUE OR FALSE, 
 YOU BELIEVE THE ASSUMPTIONS IN THE WORDS WHICH EXPRESS THE ARGUMENTS.
 SUCH ASSUMPTIONS ARE OFTEN FULL OF HOLES, BUT REMAIN MOST PRECIOUS 
 TO THE CONVINCED.

                 -- THE OPEN-ENDED PROOF FROM THE PANOPLIA PROPHETICA
                    CHILDREN OF DUNE BY FRANK HERBERT
 Job cpu time:       0 days  9 hours 40 minutes 38.7 seconds.
 Elapsed time:       0 days  0 hours 24 minutes 17.1 seconds.
 File lengths (MBytes):  RWF=   8929 Int=      0 D2E=      0 Chk=    390 Scr=      1
 Normal termination of Gaussian 16 at Wed May  4 16:01:44 2022.
