 Entering Gaussian System, Link 0=g16
 Initial command:
 /sw/apps/gaussian-16.0/g16/l1.exe "/tmp/Gau-150339.inp" -scrdir="/tmp/"
 Entering Link 1 = /sw/apps/gaussian-16.0/g16/l1.exe PID=    150340.
  
 Copyright (c) 1988,1990,1992,1993,1995,1998,2003,2009,2016,
            Gaussian, Inc.  All Rights Reserved.
  
 This is part of the Gaussian(R) 16 program.  It is based on
 the Gaussian(R) 09 system (copyright 2009, Gaussian, Inc.),
 the Gaussian(R) 03 system (copyright 2003, Gaussian, Inc.),
 the Gaussian(R) 98 system (copyright 1998, Gaussian, Inc.),
 the Gaussian(R) 94 system (copyright 1995, Gaussian, Inc.),
 the Gaussian 92(TM) system (copyright 1992, Gaussian, Inc.),
 the Gaussian 90(TM) system (copyright 1990, Gaussian, Inc.),
 the Gaussian 88(TM) system (copyright 1988, Gaussian, Inc.),
 the Gaussian 86(TM) system (copyright 1986, Carnegie Mellon
 University), and the Gaussian 82(TM) system (copyright 1983,
 Carnegie Mellon University). Gaussian is a federally registered
 trademark of Gaussian, Inc.
  
 This software contains proprietary and confidential information,
 including trade secrets, belonging to Gaussian, Inc.
  
 This software is provided under written license and may be
 used, copied, transmitted, or stored only in accord with that
 written license.
  
 The following legend is applicable only to US Government
 contracts under FAR:
  
                    RESTRICTED RIGHTS LEGEND
  
 Use, reproduction and disclosure by the US Government is
 subject to restrictions as set forth in subparagraphs (a)
 and (c) of the Commercial Computer Software - Restricted
 Rights clause in FAR 52.227-19.
  
 Gaussian, Inc.
 340 Quinnipiac St., Bldg. 40, Wallingford CT 06492
  
  
 ---------------------------------------------------------------
 Warning -- This program may not be used in any manner that
 competes with the business of Gaussian, Inc. or will provide
 assistance to any competitor of Gaussian, Inc.  The licensee
 of this program is prohibited from giving any competitor of
 Gaussian, Inc. access to this program.  By using this program,
 the user acknowledges that Gaussian, Inc. is engaged in the
 business of creating and licensing software in the field of
 computational chemistry and represents and warrants to the
 licensee that it is not a competitor of Gaussian, Inc. and that
 it will not use this program in any manner prohibited above.
 ---------------------------------------------------------------
  

 Cite this work as:
 Gaussian 16, Revision A.03,
 M. J. Frisch, G. W. Trucks, H. B. Schlegel, G. E. Scuseria, 
 M. A. Robb, J. R. Cheeseman, G. Scalmani, V. Barone, 
 G. A. Petersson, H. Nakatsuji, X. Li, M. Caricato, A. V. Marenich, 
 J. Bloino, B. G. Janesko, R. Gomperts, B. Mennucci, H. P. Hratchian, 
 J. V. Ortiz, A. F. Izmaylov, J. L. Sonnenberg, D. Williams-Young, 
 F. Ding, F. Lipparini, F. Egidi, J. Goings, B. Peng, A. Petrone, 
 T. Henderson, D. Ranasinghe, V. G. Zakrzewski, J. Gao, N. Rega, 
 G. Zheng, W. Liang, M. Hada, M. Ehara, K. Toyota, R. Fukuda, 
 J. Hasegawa, M. Ishida, T. Nakajima, Y. Honda, O. Kitao, H. Nakai, 
 T. Vreven, K. Throssell, J. A. Montgomery, Jr., J. E. Peralta, 
 F. Ogliaro, M. J. Bearpark, J. J. Heyd, E. N. Brothers, K. N. Kudin, 
 V. N. Staroverov, T. A. Keith, R. Kobayashi, J. Normand, 
 K. Raghavachari, A. P. Rendell, J. C. Burant, S. S. Iyengar, 
 J. Tomasi, M. Cossi, J. M. Millam, M. Klene, C. Adamo, R. Cammi, 
 J. W. Ochterski, R. L. Martin, K. Morokuma, O. Farkas, 
 J. B. Foresman, and D. J. Fox, Gaussian, Inc., Wallingford CT, 2016.
 
 ******************************************
 Gaussian 16:  ES64L-G16RevA.03 25-Dec-2016
                27-Apr-2022 
 ******************************************
 %nproc=24
 Will use up to   24 processors via shared memory.
 %mem=75GB
 --------------------------------
 #p wB97XD/Def2SVP td=(nstates=5)
 --------------------------------
 1/38=1,172=1/1;
 2/12=2,17=6,18=5,40=1/2;
 3/5=43,7=101,11=9,25=1,30=1,74=-58/1,2,3,8;
 4//1;
 5/5=2,38=5/2;
 8/6=1,10=1,108=5/1;
 9/41=5,42=1,70=2/14;
 6/7=2,8=2,9=2,10=2/1;
 99/5=1,9=1/99;
 Leave Link    1 at Wed Apr 27 11:22:11 2022, MaxMem= 10066329600 cpu:               0.9 elap:               0.0
 (Enter /sw/apps/gaussian-16.0/g16/l101.exe)
 -----------------------------------------------------
 step_1151_chromophore_19 TDDFT with wB97XD functional
 -----------------------------------------------------
 Symbolic Z-matrix:
 Charge =  0 Multiplicity = 1
 Mg                    25.68     50.965    26.654 
 C                     23.388    51.928    29.278 
 C                     27.922    50.004    28.996 
 C                     27.969    50.636    24.22 
 C                     23.456    52.43     24.358 
 N                     25.701    51.075    28.85 
 C                     24.646    51.419    29.712 
 C                     25.029    51.221    31.161 
 C                     26.537    50.756    31.086 
 C                     26.689    50.479    29.548 
 C                     27.558    51.821    31.57 
 C                     24.127    50.096    31.762 
 C                     24.061    49.963    33.246 
 C                     24.987    50.656    34.263 
 O                     25.583    51.715    34.119 
 O                     24.735    50.103    35.533 
 N                     27.671    50.294    26.584 
 C                     28.405    49.883    27.666 
 C                     29.671    49.438    27.148 
 C                     29.658    49.459    25.728 
 C                     28.36     50.133    25.431 
 C                     30.696    48.891    28.062 
 C                     30.672    49.054    24.764 
 O                     30.413    49.118    23.561 
 C                     31.994    48.473    25.23 
 N                     25.711    51.579    24.536 
 C                     26.783    51.304    23.81 
 C                     26.463    51.641    22.363 
 C                     25.041    52.219    22.356 
 C                     24.655    51.984    23.79 
 C                     27.41     52.434    21.618 
 C                     24.075    51.708    21.267 
 C                     23.098    50.527    21.527 
 N                     23.832    51.948    26.735 
 C                     23.042    52.446    25.654 
 C                     21.715    52.868    26.176 
 C                     21.833    52.717    27.582 
 C                     23.151    52.247    27.902 
 C                     20.55     53.296    25.294 
 C                     21.134    52.803    28.867 
 O                     20.035    53.211    29.155 
 C                     22.127    52.317    30.035 
 C                     22.465    53.536    30.831 
 O                     23.511    54.216    30.716 
 O                     21.513    53.755    31.837 
 C                     21.855    54.779    32.725 
 C                     25.526    50.809    36.613 
 C                     25.342    50.062    37.875 
 C                     25.751    50.402    39.071 
 C                     26.604    51.571    39.331 
 C                     25.547    49.509    40.241 
 C                     26.281    48.138    40.167 
 C                     25.543    46.954    40.719 
 C                     26.205    46.349    41.982 
 C                     26.583    44.853    41.729 
 C                     25.333    46.544    43.231 
 C                     25.645    47.792    44.061 
 C                     25.49     47.574    45.547 
 C                     26.812    47.821    46.348 
 C                     27.228    46.645    47.316 
 C                     26.888    49.247    47.096 
 C                     27.732    50.216    46.205 
 C                     26.959    51.524    45.885 
 C                     27.405    51.956    44.44 
 C                     28.824    52.648    44.377 
 C                     26.382    52.942    43.856 
 H                     28.603    49.519    29.698 
 H                     28.662    50.467    23.393 
 H                     22.786    52.841    23.6 
 H                     24.803    52.166    31.654 
 H                     26.649    49.81     31.616 
 H                     28.169    52.199    30.75 
 H                     28.159    51.335    32.338 
 H                     27.124    52.748    31.945 
 H                     24.281    49.108    31.328 
 H                     23.107    50.242    31.407 
 H                     24.288    48.9      33.334 
 H                     23.013    50.165    33.47 
 H                     31.607    49.472    27.913 
 H                     30.725    47.809    27.936 
 H                     30.518    49.226    29.084 
 H                     32.473    47.838    24.484 
 H                     31.794    47.779    26.047 
 H                     32.637    49.302    25.523 
 H                     26.379    50.671    21.873 
 H                     24.955    53.3      22.248 
 H                     28.289    52.574    22.248 
 H                     27.008    53.382    21.262 
 H                     27.694    51.963    20.676 
 H                     24.732    51.475    20.429 
 H                     23.404    52.519    20.985 
 H                     22.922    50.025    20.575 
 H                     22.196    50.916    21.999 
 H                     23.562    49.848    22.242 
 H                     20.463    52.773    24.342 
 H                     20.706    54.361    25.125 
 H                     19.642    53.088    25.86 
 H                     21.733    51.587    30.743 
 H                     21.031    54.966    33.413 
 H                     22.214    55.654    32.182 
 H                     22.643    54.402    33.377 
 H                     25.123    51.814    36.729 
 H                     26.586    50.855    36.362 
 H                     24.735    49.165    37.75 
 H                     26.349    51.902    40.338 
 H                     26.4      52.392    38.644 
 H                     27.64     51.241    39.251 
 H                     24.48     49.429    40.45 
 H                     25.88     50.064    41.117 
 H                     27.256    48.337    40.61 
 H                     26.394    47.86     39.119 
 H                     25.527    46.258    39.88 
 H                     24.5      47.199    40.922 
 H                     27.117    46.914    42.176 
 H                     25.622    44.344    41.662 
 H                     27.212    44.346    42.461 
 H                     27.003    44.654    40.744 
 H                     25.421    45.659    43.861 
 H                     24.272    46.492    42.984 
 H                     24.986    48.545    43.63 
 H                     26.596    48.254    43.794 
 H                     25.313    46.508    45.691 
 H                     24.633    48.18     45.841 
 H                     27.615    47.764    45.613 
 H                     27.1      46.973    48.347 
 H                     28.309    46.508    47.313 
 H                     26.74     45.729    46.983 
 H                     27.372    49.15     48.068 
 H                     25.843    49.533    47.215 
 H                     28.296    49.819    45.36 
 H                     28.425    50.622    46.942 
 H                     27.157    52.297    46.628 
 H                     25.887    51.369    45.763 
 H                     27.434    51.062    43.817 
 H                     29.355    52.335    45.276 
 H                     28.677    53.728    44.386 
 H                     29.357    52.311    43.488 
 H                     25.902    53.441    44.698 
 H                     25.825    52.563    42.999 
 H                     27.036    53.607    43.291 
 
 ITRead=  0  0  0  0  0  0  0  0  0  0  0  0  0  0  0  0  0  0  0  0
 ITRead=  0  0  0  0  0  0  0  0  0  0  0  0  0  0  0  0  0  0  0  0
 ITRead=  0  0  0  0  0  0  0  0  0  0  0  0  0  0  0  0  0  0  0  0
 ITRead=  0  0  0  0  0  0  0  0  0  0  0  0  0  0  0  0  0  0  0  0
 ITRead=  0  0  0  0  0  0  0  0  0  0  0  0  0  0  0  0  0  0  0  0
 ITRead=  0  0  0  0  0  0  0  0  0  0  0  0  0  0  0  0  0  0  0  0
 ITRead=  0  0  0  0  0  0  0  0  0  0  0  0  0  0  0  0  0  0  0  0
 MicOpt= -1 -1 -1 -1 -1 -1 -1 -1 -1 -1 -1 -1 -1 -1 -1 -1 -1 -1 -1 -1
 MicOpt= -1 -1 -1 -1 -1 -1 -1 -1 -1 -1 -1 -1 -1 -1 -1 -1 -1 -1 -1 -1
 MicOpt= -1 -1 -1 -1 -1 -1 -1 -1 -1 -1 -1 -1 -1 -1 -1 -1 -1 -1 -1 -1
 MicOpt= -1 -1 -1 -1 -1 -1 -1 -1 -1 -1 -1 -1 -1 -1 -1 -1 -1 -1 -1 -1
 MicOpt= -1 -1 -1 -1 -1 -1 -1 -1 -1 -1 -1 -1 -1 -1 -1 -1 -1 -1 -1 -1
 MicOpt= -1 -1 -1 -1 -1 -1 -1 -1 -1 -1 -1 -1 -1 -1 -1 -1 -1 -1 -1 -1
 MicOpt= -1 -1 -1 -1 -1 -1 -1 -1 -1 -1 -1 -1 -1 -1 -1 -1 -1 -1 -1 -1
 NAtoms=    140 NQM=      140 NQMF=       0 NMMI=      0 NMMIF=      0
                NMic=       0 NMicF=      0.
                    Isotopes and Nuclear Properties:
 (Nuclear quadrupole moments (NQMom) in fm**2, nuclear magnetic moments (NMagM)
  in nuclear magnetons)

  Atom         1           2           3           4           5           6           7           8           9          10
 IAtWgt=          24          12          12          12          12          14          12          12          12          12
 AtmWgt=  23.9850450  12.0000000  12.0000000  12.0000000  12.0000000  14.0030740  12.0000000  12.0000000  12.0000000  12.0000000
 NucSpn=           0           0           0           0           0           2           0           0           0           0
 AtZEff=  -0.0000000  -0.0000000  -0.0000000  -0.0000000  -0.0000000  -0.0000000  -0.0000000  -0.0000000  -0.0000000  -0.0000000
 NQMom=    0.0000000   0.0000000   0.0000000   0.0000000   0.0000000   2.0440000   0.0000000   0.0000000   0.0000000   0.0000000
 NMagM=    0.0000000   0.0000000   0.0000000   0.0000000   0.0000000   0.4037610   0.0000000   0.0000000   0.0000000   0.0000000
 AtZNuc=  12.0000000   6.0000000   6.0000000   6.0000000   6.0000000   7.0000000   6.0000000   6.0000000   6.0000000   6.0000000

  Atom        11          12          13          14          15          16          17          18          19          20
 IAtWgt=          12          12          12          12          16          16          14          12          12          12
 AtmWgt=  12.0000000  12.0000000  12.0000000  12.0000000  15.9949146  15.9949146  14.0030740  12.0000000  12.0000000  12.0000000
 NucSpn=           0           0           0           0           0           0           2           0           0           0
 AtZEff=  -0.0000000  -0.0000000  -0.0000000  -0.0000000  -0.0000000  -0.0000000  -0.0000000  -0.0000000  -0.0000000  -0.0000000
 NQMom=    0.0000000   0.0000000   0.0000000   0.0000000   0.0000000   0.0000000   2.0440000   0.0000000   0.0000000   0.0000000
 NMagM=    0.0000000   0.0000000   0.0000000   0.0000000   0.0000000   0.0000000   0.4037610   0.0000000   0.0000000   0.0000000
 AtZNuc=   6.0000000   6.0000000   6.0000000   6.0000000   8.0000000   8.0000000   7.0000000   6.0000000   6.0000000   6.0000000

  Atom        21          22          23          24          25          26          27          28          29          30
 IAtWgt=          12          12          12          16          12          14          12          12          12          12
 AtmWgt=  12.0000000  12.0000000  12.0000000  15.9949146  12.0000000  14.0030740  12.0000000  12.0000000  12.0000000  12.0000000
 NucSpn=           0           0           0           0           0           2           0           0           0           0
 AtZEff=  -0.0000000  -0.0000000  -0.0000000  -0.0000000  -0.0000000  -0.0000000  -0.0000000  -0.0000000  -0.0000000  -0.0000000
 NQMom=    0.0000000   0.0000000   0.0000000   0.0000000   0.0000000   2.0440000   0.0000000   0.0000000   0.0000000   0.0000000
 NMagM=    0.0000000   0.0000000   0.0000000   0.0000000   0.0000000   0.4037610   0.0000000   0.0000000   0.0000000   0.0000000
 AtZNuc=   6.0000000   6.0000000   6.0000000   8.0000000   6.0000000   7.0000000   6.0000000   6.0000000   6.0000000   6.0000000

  Atom        31          32          33          34          35          36          37          38          39          40
 IAtWgt=          12          12          12          14          12          12          12          12          12          12
 AtmWgt=  12.0000000  12.0000000  12.0000000  14.0030740  12.0000000  12.0000000  12.0000000  12.0000000  12.0000000  12.0000000
 NucSpn=           0           0           0           2           0           0           0           0           0           0
 AtZEff=  -0.0000000  -0.0000000  -0.0000000  -0.0000000  -0.0000000  -0.0000000  -0.0000000  -0.0000000  -0.0000000  -0.0000000
 NQMom=    0.0000000   0.0000000   0.0000000   2.0440000   0.0000000   0.0000000   0.0000000   0.0000000   0.0000000   0.0000000
 NMagM=    0.0000000   0.0000000   0.0000000   0.4037610   0.0000000   0.0000000   0.0000000   0.0000000   0.0000000   0.0000000
 AtZNuc=   6.0000000   6.0000000   6.0000000   7.0000000   6.0000000   6.0000000   6.0000000   6.0000000   6.0000000   6.0000000

  Atom        41          42          43          44          45          46          47          48          49          50
 IAtWgt=          16          12          12          16          16          12          12          12          12          12
 AtmWgt=  15.9949146  12.0000000  12.0000000  15.9949146  15.9949146  12.0000000  12.0000000  12.0000000  12.0000000  12.0000000
 NucSpn=           0           0           0           0           0           0           0           0           0           0
 AtZEff=  -0.0000000  -0.0000000  -0.0000000  -0.0000000  -0.0000000  -0.0000000  -0.0000000  -0.0000000  -0.0000000  -0.0000000
 NQMom=    0.0000000   0.0000000   0.0000000   0.0000000   0.0000000   0.0000000   0.0000000   0.0000000   0.0000000   0.0000000
 NMagM=    0.0000000   0.0000000   0.0000000   0.0000000   0.0000000   0.0000000   0.0000000   0.0000000   0.0000000   0.0000000
 AtZNuc=   8.0000000   6.0000000   6.0000000   8.0000000   8.0000000   6.0000000   6.0000000   6.0000000   6.0000000   6.0000000

  Atom        51          52          53          54          55          56          57          58          59          60
 IAtWgt=          12          12          12          12          12          12          12          12          12          12
 AtmWgt=  12.0000000  12.0000000  12.0000000  12.0000000  12.0000000  12.0000000  12.0000000  12.0000000  12.0000000  12.0000000
 NucSpn=           0           0           0           0           0           0           0           0           0           0
 AtZEff=  -0.0000000  -0.0000000  -0.0000000  -0.0000000  -0.0000000  -0.0000000  -0.0000000  -0.0000000  -0.0000000  -0.0000000
 NQMom=    0.0000000   0.0000000   0.0000000   0.0000000   0.0000000   0.0000000   0.0000000   0.0000000   0.0000000   0.0000000
 NMagM=    0.0000000   0.0000000   0.0000000   0.0000000   0.0000000   0.0000000   0.0000000   0.0000000   0.0000000   0.0000000
 AtZNuc=   6.0000000   6.0000000   6.0000000   6.0000000   6.0000000   6.0000000   6.0000000   6.0000000   6.0000000   6.0000000

  Atom        61          62          63          64          65          66          67          68          69          70
 IAtWgt=          12          12          12          12          12          12           1           1           1           1
 AtmWgt=  12.0000000  12.0000000  12.0000000  12.0000000  12.0000000  12.0000000   1.0078250   1.0078250   1.0078250   1.0078250
 NucSpn=           0           0           0           0           0           0           1           1           1           1
 AtZEff=  -0.0000000  -0.0000000  -0.0000000  -0.0000000  -0.0000000  -0.0000000  -0.0000000  -0.0000000  -0.0000000  -0.0000000
 NQMom=    0.0000000   0.0000000   0.0000000   0.0000000   0.0000000   0.0000000   0.0000000   0.0000000   0.0000000   0.0000000
 NMagM=    0.0000000   0.0000000   0.0000000   0.0000000   0.0000000   0.0000000   2.7928460   2.7928460   2.7928460   2.7928460
 AtZNuc=   6.0000000   6.0000000   6.0000000   6.0000000   6.0000000   6.0000000   1.0000000   1.0000000   1.0000000   1.0000000

  Atom        71          72          73          74          75          76          77          78          79          80
 IAtWgt=           1           1           1           1           1           1           1           1           1           1
 AtmWgt=   1.0078250   1.0078250   1.0078250   1.0078250   1.0078250   1.0078250   1.0078250   1.0078250   1.0078250   1.0078250
 NucSpn=           1           1           1           1           1           1           1           1           1           1
 AtZEff=  -0.0000000  -0.0000000  -0.0000000  -0.0000000  -0.0000000  -0.0000000  -0.0000000  -0.0000000  -0.0000000  -0.0000000
 NQMom=    0.0000000   0.0000000   0.0000000   0.0000000   0.0000000   0.0000000   0.0000000   0.0000000   0.0000000   0.0000000
 NMagM=    2.7928460   2.7928460   2.7928460   2.7928460   2.7928460   2.7928460   2.7928460   2.7928460   2.7928460   2.7928460
 AtZNuc=   1.0000000   1.0000000   1.0000000   1.0000000   1.0000000   1.0000000   1.0000000   1.0000000   1.0000000   1.0000000

  Atom        81          82          83          84          85          86          87          88          89          90
 IAtWgt=           1           1           1           1           1           1           1           1           1           1
 AtmWgt=   1.0078250   1.0078250   1.0078250   1.0078250   1.0078250   1.0078250   1.0078250   1.0078250   1.0078250   1.0078250
 NucSpn=           1           1           1           1           1           1           1           1           1           1
 AtZEff=  -0.0000000  -0.0000000  -0.0000000  -0.0000000  -0.0000000  -0.0000000  -0.0000000  -0.0000000  -0.0000000  -0.0000000
 NQMom=    0.0000000   0.0000000   0.0000000   0.0000000   0.0000000   0.0000000   0.0000000   0.0000000   0.0000000   0.0000000
 NMagM=    2.7928460   2.7928460   2.7928460   2.7928460   2.7928460   2.7928460   2.7928460   2.7928460   2.7928460   2.7928460
 AtZNuc=   1.0000000   1.0000000   1.0000000   1.0000000   1.0000000   1.0000000   1.0000000   1.0000000   1.0000000   1.0000000

  Atom        91          92          93          94          95          96          97          98          99         100
 IAtWgt=           1           1           1           1           1           1           1           1           1           1
 AtmWgt=   1.0078250   1.0078250   1.0078250   1.0078250   1.0078250   1.0078250   1.0078250   1.0078250   1.0078250   1.0078250
 NucSpn=           1           1           1           1           1           1           1           1           1           1
 AtZEff=  -0.0000000  -0.0000000  -0.0000000  -0.0000000  -0.0000000  -0.0000000  -0.0000000  -0.0000000  -0.0000000  -0.0000000
 NQMom=    0.0000000   0.0000000   0.0000000   0.0000000   0.0000000   0.0000000   0.0000000   0.0000000   0.0000000   0.0000000
 NMagM=    2.7928460   2.7928460   2.7928460   2.7928460   2.7928460   2.7928460   2.7928460   2.7928460   2.7928460   2.7928460
 AtZNuc=   1.0000000   1.0000000   1.0000000   1.0000000   1.0000000   1.0000000   1.0000000   1.0000000   1.0000000   1.0000000

  Atom       101         102         103         104         105         106         107         108         109         110
 IAtWgt=           1           1           1           1           1           1           1           1           1           1
 AtmWgt=   1.0078250   1.0078250   1.0078250   1.0078250   1.0078250   1.0078250   1.0078250   1.0078250   1.0078250   1.0078250
 NucSpn=           1           1           1           1           1           1           1           1           1           1
 AtZEff=  -0.0000000  -0.0000000  -0.0000000  -0.0000000  -0.0000000  -0.0000000  -0.0000000  -0.0000000  -0.0000000  -0.0000000
 NQMom=    0.0000000   0.0000000   0.0000000   0.0000000   0.0000000   0.0000000   0.0000000   0.0000000   0.0000000   0.0000000
 NMagM=    2.7928460   2.7928460   2.7928460   2.7928460   2.7928460   2.7928460   2.7928460   2.7928460   2.7928460   2.7928460
 AtZNuc=   1.0000000   1.0000000   1.0000000   1.0000000   1.0000000   1.0000000   1.0000000   1.0000000   1.0000000   1.0000000

  Atom       111         112         113         114         115         116         117         118         119         120
 IAtWgt=           1           1           1           1           1           1           1           1           1           1
 AtmWgt=   1.0078250   1.0078250   1.0078250   1.0078250   1.0078250   1.0078250   1.0078250   1.0078250   1.0078250   1.0078250
 NucSpn=           1           1           1           1           1           1           1           1           1           1
 AtZEff=  -0.0000000  -0.0000000  -0.0000000  -0.0000000  -0.0000000  -0.0000000  -0.0000000  -0.0000000  -0.0000000  -0.0000000
 NQMom=    0.0000000   0.0000000   0.0000000   0.0000000   0.0000000   0.0000000   0.0000000   0.0000000   0.0000000   0.0000000
 NMagM=    2.7928460   2.7928460   2.7928460   2.7928460   2.7928460   2.7928460   2.7928460   2.7928460   2.7928460   2.7928460
 AtZNuc=   1.0000000   1.0000000   1.0000000   1.0000000   1.0000000   1.0000000   1.0000000   1.0000000   1.0000000   1.0000000

  Atom       121         122         123         124         125         126         127         128         129         130
 IAtWgt=           1           1           1           1           1           1           1           1           1           1
 AtmWgt=   1.0078250   1.0078250   1.0078250   1.0078250   1.0078250   1.0078250   1.0078250   1.0078250   1.0078250   1.0078250
 NucSpn=           1           1           1           1           1           1           1           1           1           1
 AtZEff=  -0.0000000  -0.0000000  -0.0000000  -0.0000000  -0.0000000  -0.0000000  -0.0000000  -0.0000000  -0.0000000  -0.0000000
 NQMom=    0.0000000   0.0000000   0.0000000   0.0000000   0.0000000   0.0000000   0.0000000   0.0000000   0.0000000   0.0000000
 NMagM=    2.7928460   2.7928460   2.7928460   2.7928460   2.7928460   2.7928460   2.7928460   2.7928460   2.7928460   2.7928460
 AtZNuc=   1.0000000   1.0000000   1.0000000   1.0000000   1.0000000   1.0000000   1.0000000   1.0000000   1.0000000   1.0000000

  Atom       131         132         133         134         135         136         137         138         139         140
 IAtWgt=           1           1           1           1           1           1           1           1           1           1
 AtmWgt=   1.0078250   1.0078250   1.0078250   1.0078250   1.0078250   1.0078250   1.0078250   1.0078250   1.0078250   1.0078250
 NucSpn=           1           1           1           1           1           1           1           1           1           1
 AtZEff=  -0.0000000  -0.0000000  -0.0000000  -0.0000000  -0.0000000  -0.0000000  -0.0000000  -0.0000000  -0.0000000  -0.0000000
 NQMom=    0.0000000   0.0000000   0.0000000   0.0000000   0.0000000   0.0000000   0.0000000   0.0000000   0.0000000   0.0000000
 NMagM=    2.7928460   2.7928460   2.7928460   2.7928460   2.7928460   2.7928460   2.7928460   2.7928460   2.7928460   2.7928460
 AtZNuc=   1.0000000   1.0000000   1.0000000   1.0000000   1.0000000   1.0000000   1.0000000   1.0000000   1.0000000   1.0000000
 Leave Link  101 at Wed Apr 27 11:22:11 2022, MaxMem= 10066329600 cpu:               3.6 elap:               0.2
 (Enter /sw/apps/gaussian-16.0/g16/l202.exe)
 Stoichiometry    C55H74MgN4O6
 Framework group  C1[X(C55H74MgN4O6)]
 Deg. of freedom   414
 Full point group                 C1      NOp   1
 Largest Abelian subgroup         C1      NOp   1
 Largest concise Abelian subgroup C1      NOp   1
                         Standard orientation:                         
 ---------------------------------------------------------------------
 Center     Atomic      Atomic             Coordinates (Angstroms)
 Number     Number       Type             X           Y           Z
 ---------------------------------------------------------------------
      1         12           0       -5.931191    0.422173   -0.240619
      2          6           0       -3.546965   -2.293323   -0.327550
      3          6           0       -3.392325    2.606422    0.226572
      4          6           0       -8.202523    2.807814    0.408908
      5          6           0       -8.483574   -1.996301   -0.259022
      6          7           0       -3.765193    0.171556    0.043279
      7          6           0       -2.998937   -0.996152   -0.110719
      8          6           0       -1.520816   -0.709386    0.024988
      9          6           0       -1.471552    0.833269    0.362186
     10          6           0       -2.957198    1.250833    0.072747
     11          6           0       -1.071922    1.153619    1.827994
     12          6           0       -0.831744   -1.003611   -1.345793
     13          6           0        0.653014   -1.141650   -1.373020
     14          6           0        1.621258   -0.774932   -0.232829
     15          8           0        1.379453   -0.758992    0.966633
     16          8           0        2.935293   -0.848988   -0.732868
     17          7           0       -5.830575    2.483861    0.157554
     18          6           0       -4.675222    3.214963    0.252699
     19          6           0       -5.078700    4.581258    0.451565
     20          6           0       -6.490234    4.698970    0.348001
     21          6           0       -6.923819    3.273328    0.265303
     22          6           0       -4.060615    5.647622    0.559272
     23          6           0       -7.352261    5.870784    0.420654
     24          8           0       -8.564823    5.732762    0.250278
     25          6           0       -6.761028    7.255418    0.609423
     26          7           0       -8.103599    0.357846    0.134066
     27          6           0       -8.742399    1.493388    0.367225
     28          6           0      -10.232218    1.193447    0.383121
     29          6           0      -10.372360   -0.321528    0.179579
     30          6           0       -8.939562   -0.682773   -0.098213
     31          6           0      -11.022583    1.702463    1.477155
     32          6           0      -11.435483   -0.804502   -0.828738
     33          6           0      -11.081373   -1.103135   -2.312758
     34          7           0       -6.051534   -1.668346   -0.297188
     35          6           0       -7.218782   -2.490504   -0.344655
     36          6           0       -6.811365   -3.898944   -0.593264
     37          6           0       -5.393494   -3.860861   -0.551415
     38          6           0       -4.960459   -2.519419   -0.280422
     39          6           0       -7.789898   -5.032038   -0.870582
     40          6           0       -4.160855   -4.635441   -0.718294
     41          8           0       -3.973537   -5.816220   -0.885276
     42          6           0       -2.899543   -3.651450   -0.552997
     43          6           0       -2.239722   -4.029499    0.733679
     44          8           0       -2.387283   -3.441310    1.830037
     45          8           0       -1.311099   -5.061073    0.534134
     46          6           0       -0.536647   -5.349747    1.661509
     47          6           0        3.958361   -0.611955    0.356932
     48          6           0        5.290622   -0.531766   -0.278016
     49          6           0        6.454977   -0.459519    0.315579
     50          6           0        6.612445   -0.313658    1.770123
     51          6           0        7.712449   -0.316599   -0.463075
     52          6           0        7.835413    0.995154   -1.292568
     53          6           0        8.490334    0.876805   -2.637289
     54          6           0        9.845030    1.622102   -2.730934
     55          6           0        9.789189    2.703244   -3.859172
     56          6           0       11.021156    0.647827   -2.891956
     57          6           0       11.710073    0.229760   -1.590280
     58          6           0       13.202893    0.055649   -1.734911
     59          6           0       14.027898    1.004380   -0.802403
     60          6           0       15.146776    1.843025   -1.535780
     61          6           0       14.603612    0.302855    0.529953
     62          6           0       13.642830    0.651107    1.713505
     63          6           0       13.134799   -0.625202    2.437200
     64          6           0       11.670373   -0.306695    2.914249
     65          6           0       11.589863    0.594319    4.209658
     66          6           0       10.927468   -1.617376    3.214230
     67          1           0       -2.607480    3.364797    0.200614
     68          1           0       -8.971286    3.572687    0.538185
     69          1           0       -9.314662   -2.703616   -0.296210
     70          1           0       -1.154490   -1.413902    0.771053
     71          1           0       -0.828248    1.339024   -0.358045
     72          1           0       -1.902531    1.580356    2.390655
     73          1           0       -0.225119    1.836570    1.766971
     74          1           0       -0.829920    0.288889    2.446046
     75          1           0       -1.137697   -0.346444   -2.159881
     76          1           0       -1.247445   -1.925239   -1.752654
     77          1           0        0.877044   -0.435787   -2.173526
     78          1           0        0.803670   -2.171608   -1.698248
     79          1           0       -4.236240    6.170156    1.500440
     80          1           0       -4.055556    6.211850   -0.372963
     81          1           0       -3.094850    5.229846    0.844146
     82          1           0       -7.403710    8.053439    0.236188
     83          1           0       -5.877176    7.339548   -0.023708
     84          1           0       -6.539896    7.381271    1.668574
     85          1           0      -10.606642    1.640758   -0.537626
     86          1           0      -10.611980   -0.911804    1.063761
     87          1           0      -10.374532    2.335520    2.084122
     88          1           0      -11.506682    0.926955    2.069844
     89          1           0      -11.888017    2.270607    1.133501
     90          1           0      -12.209174   -0.038645   -0.773541
     91          1           0      -11.842075   -1.754068   -0.481615
     92          1           0      -11.973883   -0.918201   -2.911515
     93          1           0      -10.700365   -2.121708   -2.383826
     94          1           0      -10.270387   -0.439954   -2.612849
     95          1           0       -8.675876   -4.759629   -1.443503
     96          1           0       -8.077151   -5.398488    0.114467
     97          1           0       -7.244904   -5.774423   -1.453617
     98          1           0       -2.128313   -3.707502   -1.322063
     99          1           0        0.086170   -6.223461    1.471744
    100          1           0       -1.163055   -5.410836    2.552147
    101          1           0        0.190606   -4.546166    1.777863
    102          1           0        3.935596   -1.462353    1.036781
    103          1           0        3.751964    0.310343    0.900517
    104          1           0        5.245845   -0.609740   -1.364569
    105          1           0        7.560319   -0.794852    2.012241
    106          1           0        5.824120   -0.823027    2.323939
    107          1           0        6.619300    0.754075    1.990342
    108          1           0        7.880915   -1.224304   -1.042955
    109          1           0        8.530386   -0.383605    0.253011
    110          1           0        8.295317    1.701152   -0.602256
    111          1           0        6.834133    1.331312   -1.562367
    112          1           0        7.740235    1.283978   -3.315636
    113          1           0        8.615273   -0.167685   -2.924539
    114          1           0       10.011564    2.119665   -1.775265
    115          1           0        9.739740    2.123438   -4.780297
    116          1           0       10.604052    3.424251   -3.927446
    117          1           0        8.854910    3.261246   -3.903683
    118          1           0       11.755302    1.093252   -3.563146
    119          1           0       10.734273   -0.223593   -3.481667
    120          1           0       11.163136   -0.666548   -1.299515
    121          1           0       11.433378    0.856511   -0.741895
    122          1           0       13.464517    0.406810   -2.733240
    123          1           0       13.383574   -1.012045   -1.610394
    124          1           0       13.342046    1.801192   -0.514339
    125          1           0       16.124566    1.471174   -1.231509
    126          1           0       15.209083    2.848319   -1.120037
    127          1           0       14.903343    1.897985   -2.596821
    128          1           0       15.601175    0.674890    0.764274
    129          1           0       14.640266   -0.755094    0.270374
    130          1           0       12.877491    1.416759    1.580224
    131          1           0       14.356937    0.982740    2.467379
    132          1           0       13.788766   -0.902468    3.264383
    133          1           0       12.983654   -1.468286    1.763066
    134          1           0       11.160111    0.214744    2.104348
    135          1           0       12.542847    1.119453    4.274369
    136          1           0       11.463647   -0.059889    5.072311
    137          1           0       10.772340    1.308170    4.109397
    138          1           0       11.681503   -2.359474    3.477073
    139          1           0       10.097288   -1.832339    2.541228
    140          1           0       10.317589   -1.318023    4.067225
 ---------------------------------------------------------------------
 Rotational constants (GHZ):           0.0557313           0.0086560           0.0079403
 Leave Link  202 at Wed Apr 27 11:22:11 2022, MaxMem= 10066329600 cpu:               0.2 elap:               0.0
 (Enter /sw/apps/gaussian-16.0/g16/l301.exe)
 Standard basis: def2SVP (5D, 7F)
 Ernie: Thresh=  0.10000D-02 Tol=  0.10000D-05 Strict=F.
 There are  1364 symmetry adapted cartesian basis functions of A   symmetry.
 There are  1298 symmetry adapted basis functions of A   symmetry.
  1298 basis functions,  2180 primitive gaussians,  1364 cartesian basis functions
   246 alpha electrons      246 beta electrons
       nuclear repulsion energy      9478.8375303059 Hartrees.
 IExCor= 4639 DFT=T Ex+Corr=wB97XD ExCW=0 ScaHFX=  1.000000
 ScaDFX=  1.000000  1.000000  1.000000  1.000000 ScalE2=  1.000000  1.000000
 IRadAn=      5 IRanWt=     -1 IRanGd=            0 ICorTp=0 IEmpDi=121
 HFx  wShort=  0.000000 wLong=  0.200000 cFull=  0.222036 cShort=  0.000000 cLong=  0.777964
 DFx  wShort=  0.000000 wLong=  0.200000 cFull=  0.000000 cShort=  0.000000 cLong=  1.000000
 NAtoms=  140 NActive=  140 NUniq=  140 SFac= 1.00D+00 NAtFMM=   60 NAOKFM=T Big=T
 Integral buffers will be    131072 words long.
 Raffenetti 1 integral format.
 Two-electron integral symmetry is turned on.
 R6Disp:  Grimme-D2 Dispersion energy=       -0.1349306006 Hartrees.
 Nuclear repulsion after empirical dispersion term =     9478.7025997053 Hartrees.
 Leave Link  301 at Wed Apr 27 11:22:11 2022, MaxMem= 10066329600 cpu:               1.3 elap:               0.1
 (Enter /sw/apps/gaussian-16.0/g16/l302.exe)
 NPDir=0 NMtPBC=     1 NCelOv=     1 NCel=       1 NClECP=     1 NCelD=      1
         NCelK=      1 NCelE2=     1 NClLst=     1 CellRange=     0.0.
 One-electron integrals computed using PRISM.
 One-electron integral symmetry used in STVInt
   1 Symmetry operations used in ECPInt.
 ECPInt:  NShTT=  192510 NPrTT=  683786 LenC2=   92149 LenP2D=  204105.
 LDataN:  DoStor=T MaxTD1= 4 Len=   56
 NBasis=  1298 RedAO= T EigKep=  3.19D-04  NBF=  1298
 NBsUse=  1298 1.00D-06 EigRej= -1.00D+00 NBFU=  1298
 Precomputing XC quadrature grid using
 IXCGrd= 4 IRadAn=           5 IRanWt=          -1 IRanGd=           0 AccXCQ= 0.00D+00.
 Generated NRdTot=       0 NPtTot=           0 NUsed=           0 NTot=          32
 NSgBfM=  1012   995   996  1008  1012 MxSgAt=   140 MxSgA2=   140.
 Leave Link  302 at Wed Apr 27 11:22:14 2022, MaxMem= 10066329600 cpu:              82.6 elap:               3.5
 (Enter /sw/apps/gaussian-16.0/g16/l303.exe)
 DipDrv:  MaxL=1.
 Leave Link  303 at Wed Apr 27 11:22:15 2022, MaxMem= 10066329600 cpu:               6.0 elap:               0.3
 (Enter /sw/apps/gaussian-16.0/g16/l308.exe)
 Leave Link  308 at Wed Apr 27 11:22:15 2022, MaxMem= 10066329600 cpu:               8.5 elap:               0.4
 (Enter /sw/apps/gaussian-16.0/g16/l401.exe)
 ExpMin= 3.36D-02 ExpMax= 4.95D+03 ExpMxC= 7.45D+02 IAcc=3 IRadAn=         5 AccDes= 0.00D+00
 Harris functional with IExCor= 4639 and IRadAn=       5 diagonalized for initial guess.
 HarFok:  IExCor= 4639 AccDes= 0.00D+00 IRadAn=         5 IDoV= 1 UseB2=F ITyADJ=14
 ICtDFT=  3500011 ScaDFX=  1.000000  1.000000  1.000000  1.000000
 FoFCou: FMM=F IPFlag=           0 FMFlag=      100000 FMFlg1=        2001
         NFxFlg=           0 DoJE=T BraDBF=F KetDBF=T FulRan=T
         wScrn=  0.000000 ICntrl=       500 IOpCl=  0 I1Cent=   200000004 NGrid=           0
         NMat0=    1 NMatS0=      1 NMatT0=    0 NMatD0=    1 NMtDS0=    0 NMtDT0=    0
 Petite list used in FoFCou.
 Harris En= -2877.97587832259    
 JPrj=0 DoOrth=F DoCkMO=F.
 Leave Link  401 at Wed Apr 27 11:22:21 2022, MaxMem= 10066329600 cpu:             133.9 elap:               5.6
 (Enter /sw/apps/gaussian-16.0/g16/l502.exe)
 Integral symmetry usage will be decided dynamically.
 Closed shell SCF:
 Using DIIS extrapolation, IDIIS=  1040.
 NGot= 10066329600 LenX= 10062561258 LenY= 10060699398
 Requested convergence on RMS density matrix=1.00D-08 within 128 cycles.
 Requested convergence on MAX density matrix=1.00D-06.
 Requested convergence on             energy=1.00D-06.
 No special actions if energy rises.
 Fock matrices will be formed incrementally for  20 cycles.

 Cycle   1  Pass 1  IDiag  1:
 FoFJK:  IHMeth= 1 ICntrl=       0 DoSepK=T KAlg= 0 I1Cent=           0 FoldK=F
 IRaf=         1 NMat=       1 IRICut=       1 DoRegI=T DoRafI=F ISym2E= 0 IDoP0=0 IntGTp=1.
 FoFCou: FMM=T IPFlag=           0 FMFlag=      100000 FMFlg1=        2001
         NFxFlg=           0 DoJE=T BraDBF=F KetDBF=F FulRan=T
         wScrn=  0.000000 ICntrl=       500 IOpCl=  0 I1Cent=           0 NGrid=           0
         NMat0=    1 NMatS0=      1 NMatT0=    0 NMatD0=    1 NMtDS0=    0 NMtDT0=    0
 Symmetry not used in FoFCou.
 FMM levels:  10  Number of levels for PrismC:   9
 E= -3007.16662996697    
 DIIS: error= 2.37D-02 at cycle   1 NSaved=   1.
 NSaved= 1 IEnMin= 1 EnMin= -3007.16662996697     IErMin= 1 ErrMin= 2.37D-02
 ErrMax= 2.37D-02  0.00D+00 EMaxC= 1.00D-01 BMatC= 1.49D+00 BMatP= 1.49D+00
 IDIUse=3 WtCom= 7.63D-01 WtEn= 2.37D-01
 Coeff-Com:  0.100D+01
 Coeff-En:   0.100D+01
 Coeff:      0.100D+01
 Gap=     0.158 Goal=   None    Shift=    0.000
 GapD=    0.158 DampG=1.000 DampE=0.500 DampFc=0.5000 IDamp=-1.
 Damping current iteration by 5.00D-01
 RMSDP=1.51D-03 MaxDP=1.58D-01              OVMax= 1.56D-01

 Cycle   2  Pass 1  IDiag  1:
 RMSU=  7.45D-04    CP:  9.87D-01
 E= -3007.49449636260     Delta-E=       -0.327866395635 Rises=F Damp=T
 DIIS: error= 1.12D-02 at cycle   2 NSaved=   2.
 NSaved= 2 IEnMin= 2 EnMin= -3007.49449636260     IErMin= 2 ErrMin= 1.12D-02
 ErrMax= 1.12D-02  0.00D+00 EMaxC= 1.00D-01 BMatC= 2.87D-01 BMatP= 1.49D+00
 IDIUse=3 WtCom= 8.88D-01 WtEn= 1.12D-01
 Coeff-Com: -0.373D+00 0.137D+01
 Coeff-En:   0.000D+00 0.100D+01
 Coeff:     -0.332D+00 0.133D+01
 Gap=     0.172 Goal=   None    Shift=    0.000
 RMSDP=6.93D-04 MaxDP=9.00D-02 DE=-3.28D-01 OVMax= 1.37D-01

 Cycle   3  Pass 1  IDiag  1:
 RMSU=  6.35D-04    CP:  9.79D-01  1.36D+00
 E= -3007.73466601924     Delta-E=       -0.240169656632 Rises=F Damp=F
 DIIS: error= 1.51D-02 at cycle   3 NSaved=   3.
 NSaved= 3 IEnMin= 3 EnMin= -3007.73466601924     IErMin= 2 ErrMin= 1.12D-02
 ErrMax= 1.51D-02  0.00D+00 EMaxC= 1.00D-01 BMatC= 1.29D-01 BMatP= 2.87D-01
 IDIUse=3 WtCom= 8.49D-01 WtEn= 1.51D-01
 Coeff-Com: -0.311D+00 0.690D+00 0.621D+00
 Coeff-En:   0.000D+00 0.000D+00 0.100D+01
 Coeff:     -0.264D+00 0.586D+00 0.678D+00
 Gap=     0.161 Goal=   None    Shift=    0.000
 RMSDP=4.08D-04 MaxDP=5.27D-02 DE=-2.40D-01 OVMax= 7.04D-02

 Cycle   4  Pass 1  IDiag  1:
 RMSU=  2.23D-04    CP:  9.76D-01  1.63D+00  5.75D-01
 E= -3007.82631279162     Delta-E=       -0.091646772386 Rises=F Damp=F
 DIIS: error= 6.65D-03 at cycle   4 NSaved=   4.
 NSaved= 4 IEnMin= 4 EnMin= -3007.82631279162     IErMin= 4 ErrMin= 6.65D-03
 ErrMax= 6.65D-03  0.00D+00 EMaxC= 1.00D-01 BMatC= 2.26D-02 BMatP= 1.29D-01
 IDIUse=3 WtCom= 9.34D-01 WtEn= 6.65D-02
 Coeff-Com: -0.115D+00 0.231D+00 0.379D+00 0.505D+00
 Coeff-En:   0.000D+00 0.000D+00 0.122D+00 0.878D+00
 Coeff:     -0.108D+00 0.216D+00 0.362D+00 0.530D+00
 Gap=     0.159 Goal=   None    Shift=    0.000
 RMSDP=1.31D-04 MaxDP=1.78D-02 DE=-9.16D-02 OVMax= 2.07D-02

 Cycle   5  Pass 1  IDiag  1:
 RMSU=  5.98D-05    CP:  9.76D-01  1.60D+00  7.06D-01  6.52D-01
 E= -3007.84448456872     Delta-E=       -0.018171777094 Rises=F Damp=F
 DIIS: error= 6.84D-04 at cycle   5 NSaved=   5.
 NSaved= 5 IEnMin= 5 EnMin= -3007.84448456872     IErMin= 5 ErrMin= 6.84D-04
 ErrMax= 6.84D-04  0.00D+00 EMaxC= 1.00D-01 BMatC= 4.54D-04 BMatP= 2.26D-02
 IDIUse=3 WtCom= 9.93D-01 WtEn= 6.84D-03
 Coeff-Com: -0.299D-01 0.569D-01 0.123D+00 0.229D+00 0.621D+00
 Coeff-En:   0.000D+00 0.000D+00 0.000D+00 0.000D+00 0.100D+01
 Coeff:     -0.297D-01 0.566D-01 0.122D+00 0.228D+00 0.623D+00
 Gap=     0.159 Goal=   None    Shift=    0.000
 RMSDP=2.41D-05 MaxDP=4.63D-03 DE=-1.82D-02 OVMax= 4.73D-03

 Cycle   6  Pass 1  IDiag  1:
 RMSU=  2.07D-05    CP:  9.76D-01  1.61D+00  7.10D-01  6.98D-01  9.15D-01
 E= -3007.84485014638     Delta-E=       -0.000365577665 Rises=F Damp=F
 DIIS: error= 2.37D-04 at cycle   6 NSaved=   6.
 NSaved= 6 IEnMin= 6 EnMin= -3007.84485014638     IErMin= 6 ErrMin= 2.37D-04
 ErrMax= 2.37D-04  0.00D+00 EMaxC= 1.00D-01 BMatC= 7.35D-05 BMatP= 4.54D-04
 IDIUse=3 WtCom= 9.98D-01 WtEn= 2.37D-03
 Coeff-Com:  0.103D-01-0.220D-01-0.185D-01 0.598D-03 0.304D+00 0.726D+00
 Coeff-En:   0.000D+00 0.000D+00 0.000D+00 0.000D+00 0.000D+00 0.100D+01
 Coeff:      0.102D-01-0.220D-01-0.185D-01 0.596D-03 0.303D+00 0.726D+00
 Gap=     0.159 Goal=   None    Shift=    0.000
 RMSDP=1.24D-05 MaxDP=1.69D-03 DE=-3.66D-04 OVMax= 4.48D-03

 Cycle   7  Pass 1  IDiag  1:
 RMSU=  8.58D-06    CP:  9.76D-01  1.61D+00  7.14D-01  7.18D-01  1.03D+00
                    CP:  9.69D-01
 E= -3007.84494562365     Delta-E=       -0.000095477269 Rises=F Damp=F
 DIIS: error= 7.00D-05 at cycle   7 NSaved=   7.
 NSaved= 7 IEnMin= 7 EnMin= -3007.84494562365     IErMin= 7 ErrMin= 7.00D-05
 ErrMax= 7.00D-05  0.00D+00 EMaxC= 1.00D-01 BMatC= 6.63D-06 BMatP= 7.35D-05
 IDIUse=1 WtCom= 1.00D+00 WtEn= 0.00D+00
 Coeff-Com:  0.647D-02-0.131D-01-0.177D-01-0.229D-01 0.448D-01 0.256D+00
 Coeff-Com:  0.746D+00
 Coeff:      0.647D-02-0.131D-01-0.177D-01-0.229D-01 0.448D-01 0.256D+00
 Coeff:      0.746D+00
 Gap=     0.159 Goal=   None    Shift=    0.000
 RMSDP=5.96D-06 MaxDP=1.11D-03 DE=-9.55D-05 OVMax= 2.70D-03

 Cycle   8  Pass 1  IDiag  1:
 RMSU=  3.92D-06    CP:  9.75D-01  1.61D+00  7.17D-01  7.22D-01  1.06D+00
                    CP:  1.12D+00  1.19D+00
 E= -3007.84496449848     Delta-E=       -0.000018874827 Rises=F Damp=F
 DIIS: error= 3.52D-05 at cycle   8 NSaved=   8.
 NSaved= 8 IEnMin= 8 EnMin= -3007.84496449848     IErMin= 8 ErrMin= 3.52D-05
 ErrMax= 3.52D-05  0.00D+00 EMaxC= 1.00D-01 BMatC= 1.94D-06 BMatP= 6.63D-06
 IDIUse=1 WtCom= 1.00D+00 WtEn= 0.00D+00
 Coeff-Com:  0.818D-03-0.137D-02-0.405D-02-0.111D-01-0.450D-01-0.395D-01
 Coeff-Com:  0.327D+00 0.773D+00
 Coeff:      0.818D-03-0.137D-02-0.405D-02-0.111D-01-0.450D-01-0.395D-01
 Coeff:      0.327D+00 0.773D+00
 Gap=     0.160 Goal=   None    Shift=    0.000
 RMSDP=4.08D-06 MaxDP=3.80D-04 DE=-1.89D-05 OVMax= 2.42D-03

 Cycle   9  Pass 1  IDiag  1:
 RMSU=  2.11D-06    CP:  9.75D-01  1.61D+00  7.17D-01  7.25D-01  1.08D+00
                    CP:  1.18D+00  1.49D+00  1.32D+00
 E= -3007.84497429603     Delta-E=       -0.000009797555 Rises=F Damp=F
 DIIS: error= 2.01D-05 at cycle   9 NSaved=   9.
 NSaved= 9 IEnMin= 9 EnMin= -3007.84497429603     IErMin= 9 ErrMin= 2.01D-05
 ErrMax= 2.01D-05  0.00D+00 EMaxC= 1.00D-01 BMatC= 6.27D-07 BMatP= 1.94D-06
 IDIUse=1 WtCom= 1.00D+00 WtEn= 0.00D+00
 Coeff-Com: -0.162D-02 0.333D-02 0.400D-02 0.346D-02-0.244D-01-0.851D-01
 Coeff-Com: -0.133D+00 0.249D+00 0.984D+00
 Coeff:     -0.162D-02 0.333D-02 0.400D-02 0.346D-02-0.244D-01-0.851D-01
 Coeff:     -0.133D+00 0.249D+00 0.984D+00
 Gap=     0.160 Goal=   None    Shift=    0.000
 RMSDP=3.70D-06 MaxDP=4.14D-04 DE=-9.80D-06 OVMax= 2.31D-03

 Cycle  10  Pass 1  IDiag  1:
 RMSU=  1.15D-06    CP:  9.75D-01  1.61D+00  7.17D-01  7.26D-01  1.09D+00
                    CP:  1.24D+00  1.72D+00  1.89D+00  1.59D+00
 E= -3007.84498002556     Delta-E=       -0.000005729531 Rises=F Damp=F
 DIIS: error= 1.32D-05 at cycle  10 NSaved=  10.
 NSaved=10 IEnMin=10 EnMin= -3007.84498002556     IErMin=10 ErrMin= 1.32D-05
 ErrMax= 1.32D-05  0.00D+00 EMaxC= 1.00D-01 BMatC= 2.16D-07 BMatP= 6.27D-07
 IDIUse=1 WtCom= 1.00D+00 WtEn= 0.00D+00
 Coeff-Com: -0.107D-02 0.206D-02 0.357D-02 0.662D-02 0.995D-02-0.199D-01
 Coeff-Com: -0.212D+00-0.209D+00 0.375D+00 0.104D+01
 Coeff:     -0.107D-02 0.206D-02 0.357D-02 0.662D-02 0.995D-02-0.199D-01
 Coeff:     -0.212D+00-0.209D+00 0.375D+00 0.104D+01
 Gap=     0.160 Goal=   None    Shift=    0.000
 RMSDP=3.25D-06 MaxDP=2.64D-04 DE=-5.73D-06 OVMax= 2.06D-03

 Cycle  11  Pass 1  IDiag  1:
 RMSU=  7.30D-07    CP:  9.75D-01  1.61D+00  7.17D-01  7.26D-01  1.10D+00
                    CP:  1.28D+00  1.92D+00  2.34D+00  2.36D+00  1.58D+00
 E= -3007.84498291943     Delta-E=       -0.000002893863 Rises=F Damp=F
 DIIS: error= 7.16D-06 at cycle  11 NSaved=  11.
 NSaved=11 IEnMin=11 EnMin= -3007.84498291943     IErMin=11 ErrMin= 7.16D-06
 ErrMax= 7.16D-06  0.00D+00 EMaxC= 1.00D-01 BMatC= 8.02D-08 BMatP= 2.16D-07
 IDIUse=1 WtCom= 1.00D+00 WtEn= 0.00D+00
 Coeff-Com: -0.231D-04-0.211D-05 0.467D-03 0.210D-02 0.109D-01 0.152D-01
 Coeff-Com: -0.599D-01-0.144D+00-0.120D+00 0.454D+00 0.840D+00
 Coeff:     -0.231D-04-0.211D-05 0.467D-03 0.210D-02 0.109D-01 0.152D-01
 Coeff:     -0.599D-01-0.144D+00-0.120D+00 0.454D+00 0.840D+00
 Gap=     0.160 Goal=   None    Shift=    0.000
 RMSDP=1.53D-06 MaxDP=1.20D-04 DE=-2.89D-06 OVMax= 9.96D-04

 Cycle  12  Pass 1  IDiag  1:
 RMSU=  3.83D-07    CP:  9.75D-01  1.61D+00  7.17D-01  7.27D-01  1.10D+00
                    CP:  1.29D+00  2.00D+00  2.56D+00  2.71D+00  2.11D+00
                    CP:  1.34D+00
 E= -3007.84498361432     Delta-E=       -0.000000694898 Rises=F Damp=F
 DIIS: error= 4.02D-06 at cycle  12 NSaved=  12.
 NSaved=12 IEnMin=12 EnMin= -3007.84498361432     IErMin=12 ErrMin= 4.02D-06
 ErrMax= 4.02D-06  0.00D+00 EMaxC= 1.00D-01 BMatC= 2.35D-08 BMatP= 8.02D-08
 IDIUse=1 WtCom= 1.00D+00 WtEn= 0.00D+00
 Coeff-Com:  0.423D-03-0.837D-03-0.125D-02-0.169D-02 0.266D-03 0.148D-01
 Coeff-Com:  0.609D-01 0.335D-01-0.216D+00-0.263D+00 0.364D+00 0.101D+01
 Coeff:      0.423D-03-0.837D-03-0.125D-02-0.169D-02 0.266D-03 0.148D-01
 Coeff:      0.609D-01 0.335D-01-0.216D+00-0.263D+00 0.364D+00 0.101D+01
 Gap=     0.160 Goal=   None    Shift=    0.000
 RMSDP=1.11D-06 MaxDP=8.26D-05 DE=-6.95D-07 OVMax= 7.60D-04

 Cycle  13  Pass 1  IDiag  1:
 RMSU=  2.16D-07    CP:  9.75D-01  1.61D+00  7.17D-01  7.27D-01  1.11D+00
                    CP:  1.30D+00  2.04D+00  2.68D+00  2.99D+00  2.51D+00
                    CP:  1.95D+00  1.39D+00
 E= -3007.84498385335     Delta-E=       -0.000000239028 Rises=F Damp=F
 DIIS: error= 2.05D-06 at cycle  13 NSaved=  13.
 NSaved=13 IEnMin=13 EnMin= -3007.84498385335     IErMin=13 ErrMin= 2.05D-06
 ErrMax= 2.05D-06  0.00D+00 EMaxC= 1.00D-01 BMatC= 6.08D-09 BMatP= 2.35D-08
 IDIUse=1 WtCom= 1.00D+00 WtEn= 0.00D+00
 Coeff-Com:  0.201D-03-0.392D-03-0.671D-03-0.114D-02-0.191D-02 0.386D-02
 Coeff-Com:  0.379D-01 0.424D-01-0.696D-01-0.212D+00-0.536D-02 0.478D+00
 Coeff-Com:  0.729D+00
 Coeff:      0.201D-03-0.392D-03-0.671D-03-0.114D-02-0.191D-02 0.386D-02
 Coeff:      0.379D-01 0.424D-01-0.696D-01-0.212D+00-0.536D-02 0.478D+00
 Coeff:      0.729D+00
 Gap=     0.160 Goal=   None    Shift=    0.000
 RMSDP=3.34D-07 MaxDP=2.37D-05 DE=-2.39D-07 OVMax= 2.09D-04

 Cycle  14  Pass 1  IDiag  1:
 RMSU=  1.62D-07    CP:  9.75D-01  1.61D+00  7.17D-01  7.27D-01  1.11D+00
                    CP:  1.30D+00  2.05D+00  2.71D+00  3.00D+00  2.64D+00
                    CP:  2.15D+00  1.67D+00  1.21D+00
 E= -3007.84498388440     Delta-E=       -0.000000031048 Rises=F Damp=F
 DIIS: error= 8.40D-07 at cycle  14 NSaved=  14.
 NSaved=14 IEnMin=14 EnMin= -3007.84498388440     IErMin=14 ErrMin= 8.40D-07
 ErrMax= 8.40D-07  0.00D+00 EMaxC= 1.00D-01 BMatC= 1.05D-09 BMatP= 6.08D-09
 IDIUse=1 WtCom= 1.00D+00 WtEn= 0.00D+00
 Coeff-Com: -0.389D-04 0.797D-04 0.920D-04 0.635D-04-0.665D-03-0.241D-02
 Coeff-Com: -0.336D-02 0.473D-02 0.365D-01-0.870D-02-0.900D-01-0.674D-01
 Coeff-Com:  0.161D+00 0.970D+00
 Coeff:     -0.389D-04 0.797D-04 0.920D-04 0.635D-04-0.665D-03-0.241D-02
 Coeff:     -0.336D-02 0.473D-02 0.365D-01-0.870D-02-0.900D-01-0.674D-01
 Coeff:      0.161D+00 0.970D+00
 Gap=     0.160 Goal=   None    Shift=    0.000
 RMSDP=1.67D-07 MaxDP=2.81D-05 DE=-3.10D-08 OVMax= 1.16D-04

 Cycle  15  Pass 1  IDiag  1:
 RMSU=  6.28D-08    CP:  9.75D-01  1.61D+00  7.17D-01  7.27D-01  1.11D+00
                    CP:  1.30D+00  2.05D+00  2.71D+00  3.00D+00  2.69D+00
                    CP:  2.25D+00  1.82D+00  1.60D+00  1.39D+00
 E= -3007.84498389417     Delta-E=       -0.000000009770 Rises=F Damp=F
 DIIS: error= 5.95D-07 at cycle  15 NSaved=  15.
 NSaved=15 IEnMin=15 EnMin= -3007.84498389417     IErMin=15 ErrMin= 5.95D-07
 ErrMax= 5.95D-07  0.00D+00 EMaxC= 1.00D-01 BMatC= 6.55D-10 BMatP= 1.05D-09
 IDIUse=1 WtCom= 1.00D+00 WtEn= 0.00D+00
 Coeff-Com: -0.797D-04 0.157D-03 0.246D-03 0.367D-03 0.238D-03-0.225D-02
 Coeff-Com: -0.130D-01-0.115D-01 0.396D-01 0.532D-01-0.386D-01-0.154D+00
 Coeff-Com: -0.184D+00 0.517D+00 0.793D+00
 Coeff:     -0.797D-04 0.157D-03 0.246D-03 0.367D-03 0.238D-03-0.225D-02
 Coeff:     -0.130D-01-0.115D-01 0.396D-01 0.532D-01-0.386D-01-0.154D+00
 Coeff:     -0.184D+00 0.517D+00 0.793D+00
 Gap=     0.160 Goal=   None    Shift=    0.000
 RMSDP=1.06D-07 MaxDP=8.22D-06 DE=-9.77D-09 OVMax= 7.01D-05

 Cycle  16  Pass 1  IDiag  1:
 RMSU=  4.39D-08    CP:  9.75D-01  1.61D+00  7.17D-01  7.27D-01  1.11D+00
                    CP:  1.30D+00  2.06D+00  2.71D+00  3.00D+00  2.70D+00
                    CP:  2.30D+00  1.92D+00  1.83D+00  1.74D+00  1.43D+00
 E= -3007.84498389872     Delta-E=       -0.000000004547 Rises=F Damp=F
 DIIS: error= 4.22D-07 at cycle  16 NSaved=  16.
 NSaved=16 IEnMin=16 EnMin= -3007.84498389872     IErMin=16 ErrMin= 4.22D-07
 ErrMax= 4.22D-07  0.00D+00 EMaxC= 1.00D-01 BMatC= 1.88D-10 BMatP= 6.55D-10
 IDIUse=1 WtCom= 1.00D+00 WtEn= 0.00D+00
 Coeff-Com: -0.813D-05 0.146D-04 0.356D-04 0.795D-04 0.355D-03 0.392D-03
 Coeff-Com: -0.261D-02-0.565D-02 0.130D-02 0.153D-01 0.200D-01-0.857D-02
 Coeff-Com: -0.160D+00-0.194D+00 0.185D+00 0.115D+01
 Coeff:     -0.813D-05 0.146D-04 0.356D-04 0.795D-04 0.355D-03 0.392D-03
 Coeff:     -0.261D-02-0.565D-02 0.130D-02 0.153D-01 0.200D-01-0.857D-02
 Coeff:     -0.160D+00-0.194D+00 0.185D+00 0.115D+01
 Gap=     0.160 Goal=   None    Shift=    0.000
 RMSDP=1.01D-07 MaxDP=1.08D-05 DE=-4.55D-09 OVMax= 7.01D-05

 Cycle  17  Pass 1  IDiag  1:
 RMSU=  2.00D-08    CP:  9.75D-01  1.61D+00  7.17D-01  7.27D-01  1.11D+00
                    CP:  1.30D+00  2.06D+00  2.72D+00  3.00D+00  2.72D+00
                    CP:  2.34D+00  1.98D+00  2.05D+00  2.02D+00  2.20D+00
                    CP:  1.77D+00
 E= -3007.84498390138     Delta-E=       -0.000000002661 Rises=F Damp=F
 DIIS: error= 2.52D-07 at cycle  17 NSaved=  17.
 NSaved=17 IEnMin=17 EnMin= -3007.84498390138     IErMin=17 ErrMin= 2.52D-07
 ErrMax= 2.52D-07  0.00D+00 EMaxC= 1.00D-01 BMatC= 7.72D-11 BMatP= 1.88D-10
 IDIUse=1 WtCom= 1.00D+00 WtEn= 0.00D+00
 Coeff-Com:  0.297D-04-0.593D-04-0.891D-04-0.120D-03 0.693D-04 0.119D-02
 Coeff-Com:  0.440D-02 0.218D-02-0.159D-01-0.178D-01 0.264D-01 0.728D-01
 Coeff-Com: -0.601D-02-0.296D+00-0.293D+00 0.517D+00 0.101D+01
 Coeff:      0.297D-04-0.593D-04-0.891D-04-0.120D-03 0.693D-04 0.119D-02
 Coeff:      0.440D-02 0.218D-02-0.159D-01-0.178D-01 0.264D-01 0.728D-01
 Coeff:     -0.601D-02-0.296D+00-0.293D+00 0.517D+00 0.101D+01
 Gap=     0.160 Goal=   None    Shift=    0.000
 RMSDP=6.80D-08 MaxDP=5.10D-06 DE=-2.66D-09 OVMax= 4.46D-05

 Cycle  18  Pass 1  IDiag  1:
 RMSU=  1.03D-08    CP:  9.75D-01  1.61D+00  7.17D-01  7.27D-01  1.11D+00
                    CP:  1.30D+00  2.06D+00  2.72D+00  3.00D+00  2.72D+00
                    CP:  2.36D+00  2.02D+00  2.18D+00  2.20D+00  2.76D+00
                    CP:  2.55D+00  1.41D+00
 E= -3007.84498390218     Delta-E=       -0.000000000799 Rises=F Damp=F
 DIIS: error= 9.55D-08 at cycle  18 NSaved=  18.
 NSaved=18 IEnMin=18 EnMin= -3007.84498390218     IErMin=18 ErrMin= 9.55D-08
 ErrMax= 9.55D-08  0.00D+00 EMaxC= 1.00D-01 BMatC= 1.52D-11 BMatP= 7.72D-11
 IDIUse=1 WtCom= 1.00D+00 WtEn= 0.00D+00
 Coeff-Com:  0.139D-04-0.272D-04-0.464D-04-0.699D-04-0.736D-04 0.361D-03
 Coeff-Com:  0.244D-02 0.250D-02-0.634D-02-0.120D-01 0.408D-02 0.339D-01
 Coeff-Com:  0.375D-01-0.563D-01-0.172D+00-0.920D-01 0.407D+00 0.851D+00
 Coeff:      0.139D-04-0.272D-04-0.464D-04-0.699D-04-0.736D-04 0.361D-03
 Coeff:      0.244D-02 0.250D-02-0.634D-02-0.120D-01 0.408D-02 0.339D-01
 Coeff:      0.375D-01-0.563D-01-0.172D+00-0.920D-01 0.407D+00 0.851D+00
 Gap=     0.160 Goal=   None    Shift=    0.000
 RMSDP=2.36D-08 MaxDP=1.86D-06 DE=-7.99D-10 OVMax= 1.67D-05

 Cycle  19  Pass 1  IDiag  1:
 RMSU=  5.71D-09    CP:  9.75D-01  1.61D+00  7.17D-01  7.27D-01  1.11D+00
                    CP:  1.30D+00  2.06D+00  2.72D+00  3.00D+00  2.73D+00
                    CP:  2.36D+00  2.03D+00  2.22D+00  2.26D+00  2.96D+00
                    CP:  2.81D+00  1.71D+00  1.18D+00
 E= -3007.84498390232     Delta-E=       -0.000000000140 Rises=F Damp=F
 DIIS: error= 7.02D-08 at cycle  19 NSaved=  19.
 NSaved=19 IEnMin=19 EnMin= -3007.84498390232     IErMin=19 ErrMin= 7.02D-08
 ErrMax= 7.02D-08  0.00D+00 EMaxC= 1.00D-01 BMatC= 3.79D-12 BMatP= 1.52D-11
 IDIUse=1 WtCom= 1.00D+00 WtEn= 0.00D+00
 Coeff-Com: -0.499D-06 0.124D-05-0.849D-06-0.275D-05-0.474D-04-0.955D-04
 Coeff-Com:  0.783D-04 0.615D-03 0.505D-03-0.138D-02-0.390D-02-0.329D-03
 Coeff-Com:  0.157D-01 0.388D-01-0.134D-01-0.154D+00-0.471D-01 0.365D+00
 Coeff-Com:  0.800D+00
 Coeff:     -0.499D-06 0.124D-05-0.849D-06-0.275D-05-0.474D-04-0.955D-04
 Coeff:      0.783D-04 0.615D-03 0.505D-03-0.138D-02-0.390D-02-0.329D-03
 Coeff:      0.157D-01 0.388D-01-0.134D-01-0.154D+00-0.471D-01 0.365D+00
 Coeff:      0.800D+00
 Gap=     0.160 Goal=   None    Shift=    0.000
 RMSDP=9.92D-09 MaxDP=8.15D-07 DE=-1.40D-10 OVMax= 6.03D-06

 SCF Done:  E(RwB97XD) =  -3007.84498390     A.U. after   19 cycles
            NFock= 19  Conv=0.99D-08     -V/T= 2.0107
 KE= 2.976086230416D+03 PE=-2.595112780903D+04 EE= 1.048849399500D+04
 Leave Link  502 at Wed Apr 27 11:28:55 2022, MaxMem= 10066329600 cpu:            9026.8 elap:             393.9
 (Enter /sw/apps/gaussian-16.0/g16/l801.exe)
 DoSCS=F DFT=T ScalE2(SS,OS)=  1.000000  1.000000
 ExpMin= 3.36D-02 ExpMax= 4.95D+03 ExpMxC= 7.45D+02 IAcc=3 IRadAn=         5 AccDes= 0.00D+00
 HarFok:  IExCor=  205 AccDes= 0.00D+00 IRadAn=         5 IDoV=-2 UseB2=F ITyADJ=14
 ICtDFT= 12500011 ScaDFX=  1.000000  1.000000  1.000000  1.000000
 GSVD:  LWork=       -5460 too small for GESVD, short by       25550 words or       25550 for optimal perf.
 Largest valence mixing into a core orbital is  1.38D-04
 Largest core mixing into a valence orbital is  5.53D-05
 Range of M.O.s used for correlation:    71  1298
 NBasis=  1298 NAE=   246 NBE=   246 NFC=    70 NFV=     0
 NROrb=   1228 NOA=   176 NOB=   176 NVA=  1052 NVB=  1052
 Leave Link  801 at Wed Apr 27 11:28:55 2022, MaxMem= 10066329600 cpu:               6.8 elap:               0.3
 (Enter /sw/apps/gaussian-16.0/g16/l914.exe)
 RHF ground state
 Two-electron integrals replicated using symmetry.
 MDV= 10066329600 DFT=T DoStab=F Mixed=T DoRPA=T DoScal=F NonHer=T
 Making orbital integer symmetry assigments:
 Orbital symmetries:
       Occupied  (A) (A) (A) (A) (A) (A) (A) (A) (A) (A) (A) (A)
                 (A) (A) (A) (A) (A) (A) (A) (A) (A) (A) (A) (A)
                 (A) (A) (A) (A) (A) (A) (A) (A) (A) (A) (A) (A)
                 (A) (A) (A) (A) (A) (A) (A) (A) (A) (A) (A) (A)
                 (A) (A) (A) (A) (A) (A) (A) (A) (A) (A) (A) (A)
                 (A) (A) (A) (A) (A) (A) (A) (A) (A) (A) (A) (A)
                 (A) (A) (A) (A) (A) (A) (A) (A) (A) (A) (A) (A)
                 (A) (A) (A) (A) (A) (A) (A) (A) (A) (A) (A) (A)
                 (A) (A) (A) (A) (A) (A) (A) (A) (A) (A) (A) (A)
                 (A) (A) (A) (A) (A) (A) (A) (A) (A) (A) (A) (A)
                 (A) (A) (A) (A) (A) (A) (A) (A) (A) (A) (A) (A)
                 (A) (A) (A) (A) (A) (A) (A) (A) (A) (A) (A) (A)
                 (A) (A) (A) (A) (A) (A) (A) (A) (A) (A) (A) (A)
                 (A) (A) (A) (A) (A) (A) (A) (A) (A) (A) (A) (A)
                 (A) (A) (A) (A) (A) (A) (A) (A) (A) (A) (A) (A)
                 (A) (A) (A) (A) (A) (A) (A) (A) (A) (A) (A) (A)
                 (A) (A) (A) (A) (A) (A) (A) (A) (A) (A) (A) (A)
                 (A) (A) (A) (A) (A) (A) (A) (A) (A) (A) (A) (A)
                 (A) (A) (A) (A) (A) (A) (A) (A) (A) (A) (A) (A)
                 (A) (A) (A) (A) (A) (A) (A) (A) (A) (A) (A) (A)
                 (A) (A) (A) (A) (A) (A)
       Virtual   (A) (A) (A) (A) (A) (A) (A) (A) (A) (A) (A) (A)
                 (A) (A) (A) (A) (A) (A) (A) (A) (A) (A) (A) (A)
                 (A) (A) (A) (A) (A) (A) (A) (A) (A) (A) (A) (A)
                 (A) (A) (A) (A) (A) (A) (A) (A) (A) (A) (A) (A)
                 (A) (A) (A) (A) (A) (A) (A) (A) (A) (A) (A) (A)
                 (A) (A) (A) (A) (A) (A) (A) (A) (A) (A) (A) (A)
                 (A) (A) (A) (A) (A) (A) (A) (A) (A) (A) (A) (A)
                 (A) (A) (A) (A) (A) (A) (A) (A) (A) (A) (A) (A)
                 (A) (A) (A) (A) (A) (A) (A) (A) (A) (A) (A) (A)
                 (A) (A) (A) (A) (A) (A) (A) (A) (A) (A) (A) (A)
                 (A) (A) (A) (A) (A) (A) (A) (A) (A) (A) (A) (A)
                 (A) (A) (A) (A) (A) (A) (A) (A) (A) (A) (A) (A)
                 (A) (A) (A) (A) (A) (A) (A) (A) (A) (A) (A) (A)
                 (A) (A) (A) (A) (A) (A) (A) (A) (A) (A) (A) (A)
                 (A) (A) (A) (A) (A) (A) (A) (A) (A) (A) (A) (A)
                 (A) (A) (A) (A) (A) (A) (A) (A) (A) (A) (A) (A)
                 (A) (A) (A) (A) (A) (A) (A) (A) (A) (A) (A) (A)
                 (A) (A) (A) (A) (A) (A) (A) (A) (A) (A) (A) (A)
                 (A) (A) (A) (A) (A) (A) (A) (A) (A) (A) (A) (A)
                 (A) (A) (A) (A) (A) (A) (A) (A) (A) (A) (A) (A)
                 (A) (A) (A) (A) (A) (A) (A) (A) (A) (A) (A) (A)
                 (A) (A) (A) (A) (A) (A) (A) (A) (A) (A) (A) (A)
                 (A) (A) (A) (A) (A) (A) (A) (A) (A) (A) (A) (A)
                 (A) (A) (A) (A) (A) (A) (A) (A) (A) (A) (A) (A)
                 (A) (A) (A) (A) (A) (A) (A) (A) (A) (A) (A) (A)
                 (A) (A) (A) (A) (A) (A) (A) (A) (A) (A) (A) (A)
                 (A) (A) (A) (A) (A) (A) (A) (A) (A) (A) (A) (A)
                 (A) (A) (A) (A) (A) (A) (A) (A) (A) (A) (A) (A)
                 (A) (A) (A) (A) (A) (A) (A) (A) (A) (A) (A) (A)
                 (A) (A) (A) (A) (A) (A) (A) (A) (A) (A) (A) (A)
                 (A) (A) (A) (A) (A) (A) (A) (A) (A) (A) (A) (A)
                 (A) (A) (A) (A) (A) (A) (A) (A) (A) (A) (A) (A)
                 (A) (A) (A) (A) (A) (A) (A) (A) (A) (A) (A) (A)
                 (A) (A) (A) (A) (A) (A) (A) (A) (A) (A) (A) (A)
                 (A) (A) (A) (A) (A) (A) (A) (A) (A) (A) (A) (A)
                 (A) (A) (A) (A) (A) (A) (A) (A) (A) (A) (A) (A)
                 (A) (A) (A) (A) (A) (A) (A) (A) (A) (A) (A) (A)
                 (A) (A) (A) (A) (A) (A) (A) (A) (A) (A) (A) (A)
                 (A) (A) (A) (A) (A) (A) (A) (A) (A) (A) (A) (A)
                 (A) (A) (A) (A) (A) (A) (A) (A) (A) (A) (A) (A)
                 (A) (A) (A) (A) (A) (A) (A) (A) (A) (A) (A) (A)
                 (A) (A) (A) (A) (A) (A) (A) (A) (A) (A) (A) (A)
                 (A) (A) (A) (A) (A) (A) (A) (A) (A) (A) (A) (A)
                 (A) (A) (A) (A) (A) (A) (A) (A) (A) (A) (A) (A)
                 (A) (A) (A) (A) (A) (A) (A) (A) (A) (A) (A) (A)
                 (A) (A) (A) (A) (A) (A) (A) (A) (A) (A) (A) (A)
                 (A) (A) (A) (A) (A) (A) (A) (A) (A) (A) (A) (A)
                 (A) (A) (A) (A) (A) (A) (A) (A) (A) (A) (A) (A)
                 (A) (A) (A) (A) (A) (A) (A) (A) (A) (A) (A) (A)
                 (A) (A) (A) (A) (A) (A) (A) (A) (A) (A) (A) (A)
                 (A) (A) (A) (A) (A) (A) (A) (A) (A) (A) (A) (A)
                 (A) (A) (A) (A) (A) (A) (A) (A) (A) (A) (A) (A)
                 (A) (A) (A) (A) (A) (A) (A) (A) (A) (A) (A) (A)
                 (A) (A) (A) (A) (A) (A) (A) (A) (A) (A) (A) (A)
                 (A) (A) (A) (A) (A) (A) (A) (A) (A) (A) (A) (A)
                 (A) (A) (A) (A) (A) (A) (A) (A) (A) (A) (A) (A)
                 (A) (A) (A) (A) (A) (A) (A) (A) (A) (A) (A) (A)
                 (A) (A) (A) (A) (A) (A) (A) (A) (A) (A) (A) (A)
                 (A) (A) (A) (A) (A) (A) (A) (A) (A) (A) (A) (A)
                 (A) (A) (A) (A) (A) (A) (A) (A) (A) (A) (A) (A)
                 (A) (A) (A) (A) (A) (A) (A) (A) (A) (A) (A) (A)
                 (A) (A) (A) (A) (A) (A) (A) (A) (A) (A) (A) (A)
                 (A) (A) (A) (A) (A) (A) (A) (A) (A) (A) (A) (A)
                 (A) (A) (A) (A) (A) (A) (A) (A) (A) (A) (A) (A)
                 (A) (A) (A) (A) (A) (A) (A) (A) (A) (A) (A) (A)
                 (A) (A) (A) (A) (A) (A) (A) (A) (A) (A) (A) (A)
                 (A) (A) (A) (A) (A) (A) (A) (A) (A) (A) (A) (A)
                 (A) (A) (A) (A) (A) (A) (A) (A) (A) (A) (A) (A)
                 (A) (A) (A) (A) (A) (A) (A) (A) (A) (A) (A) (A)
                 (A) (A) (A) (A) (A) (A) (A) (A) (A) (A) (A) (A)
                 (A) (A) (A) (A) (A) (A) (A) (A) (A) (A) (A) (A)
                 (A) (A) (A) (A) (A) (A) (A) (A) (A) (A) (A) (A)
                 (A) (A) (A) (A) (A) (A) (A) (A) (A) (A) (A) (A)
                 (A) (A) (A) (A) (A) (A) (A) (A) (A) (A) (A) (A)
                 (A) (A) (A) (A) (A) (A) (A) (A) (A) (A) (A) (A)
                 (A) (A) (A) (A) (A) (A) (A) (A) (A) (A) (A) (A)
                 (A) (A) (A) (A) (A) (A) (A) (A) (A) (A) (A) (A)
                 (A) (A) (A) (A) (A) (A) (A) (A) (A) (A) (A) (A)
                 (A) (A) (A) (A) (A) (A) (A) (A) (A) (A) (A) (A)
                 (A) (A) (A) (A) (A) (A) (A) (A) (A) (A) (A) (A)
                 (A) (A) (A) (A) (A) (A) (A) (A) (A) (A) (A) (A)
                 (A) (A) (A) (A) (A) (A) (A) (A) (A) (A) (A) (A)
                 (A) (A) (A) (A) (A) (A) (A) (A) (A) (A) (A) (A)
                 (A) (A) (A) (A) (A) (A) (A) (A) (A) (A) (A) (A)
                 (A) (A) (A) (A) (A) (A) (A) (A) (A) (A) (A) (A)
                 (A) (A) (A) (A) (A) (A) (A) (A) (A) (A) (A) (A)
                 (A) (A) (A) (A) (A) (A) (A) (A) (A) (A) (A) (A)
                 (A) (A) (A) (A) (A) (A) (A) (A)
    20 initial guesses have been made.
 Convergence on wavefunction:    0.001000000000000
 Davidson Disk Diagonalization:  ConvIn= 1.00D-03 SkipCon=T Conv= 1.00D-03.
 Max sub-space:  2000 roots to seek:    20 dimension of matrix:       370304
 Iteration     1 Dimension    20 NMult     0 NNew     20
 CISAX will form    20 AO SS matrices at one time.
 NMat=    20 NSing=    20 JSym2X= 0.
 FoFJK:  IHMeth= 1 ICntrl=       0 DoSepK=T KAlg= 0 I1Cent=           0 FoldK=F
 IRaf=         1 NMat=      40 IRICut=       1 DoRegI=T DoRafI=F ISym2E= 0 IDoP0=3 IntGTp=3.
 FoFCou: FMM=T IPFlag=           0 FMFlag=      100000 FMFlg1=        2001
         NFxFlg=           0 DoJE=F BraDBF=F KetDBF=F FulRan=T
         wScrn=  0.000000 ICntrl=       500 IOpCl=  0 I1Cent=           0 NGrid=           0
         NMat0=   20 NMatS0=     20 NMatT0=    0 NMatD0=   20 NMtDS0=    0 NMtDT0=    0
 Symmetry not used in FoFCou.
 FMM levels:  10  Number of levels for PrismC:   9
 New state      3 was old state      5
 New state      4 was old state      3
 New state      5 was old state     13
 Excitation Energies [eV] at current iteration:
 Root      1 :     2.167537157494817
 Root      2 :     2.589613032742973
 Root      3 :     3.883717649105426
 Root      4 :     4.036923960874740
 Root      5 :     4.235215236320991
 Root      6 :     4.311170185788836
 Root      7 :     4.361487074821694
 Root      8 :     4.398378790330823
 Root      9 :     4.456965600742465
 Root     10 :     4.544739378790257
 Root     11 :     4.719753023050838
 Root     12 :     4.802391894397306
 Root     13 :     4.976939103570690
 Root     14 :     5.090718898067625
 Root     15 :     5.349931021525591
 Root     16 :     5.511222549687261
 Root     17 :     5.682577422948241
 Root     18 :     5.716898616102790
 Root     19 :     5.760062696588669
 Root     20 :     7.281536491993493
 Iteration     2 Dimension    30 NMult    20 NNew     10
 CISAX will form    10 AO SS matrices at one time.
 NMat=    10 NSing=    10 JSym2X= 0.
 Root      1 not converged, maximum delta is    0.074270542829980
 Root      2 not converged, maximum delta is    0.052222003358519
 New state      3 was old state      4
 Root      3 not converged, maximum delta is    0.076842426991137
 New state      4 was old state      3
 Root      4 not converged, maximum delta is    0.057548058811348
 Root      5 not converged, maximum delta is    0.223878995969794
 Excitation Energies [eV] at current iteration:
 Root      1 :     1.687862133275396   Change is   -0.479675024219422
 Root      2 :     2.194569687025600   Change is   -0.395043345717373
 Root      3 :     3.451277052384402   Change is   -0.585646908490339
 Root      4 :     3.506523223471705   Change is   -0.377194425633721
 Root      5 :     3.963878946342494   Change is   -0.271336289978498
 Iteration     3 Dimension    40 NMult    30 NNew     10
 CISAX will form    10 AO SS matrices at one time.
 NMat=    10 NSing=    10 JSym2X= 0.
 Root      1 not converged, maximum delta is    0.017807985762040
 Root      2 not converged, maximum delta is    0.012738898510258
 Root      3 not converged, maximum delta is    0.092872951733114
 Root      4 not converged, maximum delta is    0.034027726532260
 Root      5 not converged, maximum delta is    0.157363029201411
 Excitation Energies [eV] at current iteration:
 Root      1 :     1.650221057828912   Change is   -0.037641075446483
 Root      2 :     2.176150667345602   Change is   -0.018419019679997
 Root      3 :     3.382132560970646   Change is   -0.069144491413756
 Root      4 :     3.488903032082985   Change is   -0.017620191388720
 Root      5 :     3.853182381764720   Change is   -0.110696564577774
 Iteration     4 Dimension    50 NMult    40 NNew     10
 CISAX will form    10 AO SS matrices at one time.
 NMat=    10 NSing=    10 JSym2X= 0.
 Root      1 not converged, maximum delta is    0.004058327775243
 Root      2 not converged, maximum delta is    0.005189324589211
 Root      3 not converged, maximum delta is    0.026670419092594
 Root      4 not converged, maximum delta is    0.009277302912362
 Root      5 not converged, maximum delta is    0.163133609374524
 Excitation Energies [eV] at current iteration:
 Root      1 :     1.646172410810923   Change is   -0.004048647017990
 Root      2 :     2.173582963888707   Change is   -0.002567703456895
 Root      3 :     3.369884113433956   Change is   -0.012248447536690
 Root      4 :     3.484500602123053   Change is   -0.004402429959932
 Root      5 :     3.807905066841019   Change is   -0.045277314923701
 Iteration     5 Dimension    60 NMult    50 NNew     10
 CISAX will form    10 AO SS matrices at one time.
 NMat=    10 NSing=    10 JSym2X= 0.
 Root      1 not converged, maximum delta is    0.001161808144067
 Root      2 has converged.
 Root      3 not converged, maximum delta is    0.006702336656027
 Root      4 not converged, maximum delta is    0.006872366249715
 Root      5 not converged, maximum delta is    0.174778678506110
 Excitation Energies [eV] at current iteration:
 Root      1 :     1.645801818330222   Change is   -0.000370592480701
 Root      2 :     2.173377291628114   Change is   -0.000205672260592
 Root      3 :     3.368353788807049   Change is   -0.001530324626907
 Root      4 :     3.483800369288657   Change is   -0.000700232834396
 Root      5 :     3.762039693422984   Change is   -0.045865373418034
 Iteration     6 Dimension    68 NMult    60 NNew      8
 CISAX will form     8 AO SS matrices at one time.
 NMat=     8 NSing=     8 JSym2X= 0.
 Root      1 has converged.
 Root      2 has converged.
 Root      3 not converged, maximum delta is    0.008632822239056
 Root      4 not converged, maximum delta is    0.014048776634720
 Root      5 not converged, maximum delta is    0.238175053938038
 Excitation Energies [eV] at current iteration:
 Root      1 :     1.645772025285042   Change is   -0.000029793045179
 Root      2 :     2.173375316961403   Change is   -0.000001974666711
 Root      3 :     3.367935097470691   Change is   -0.000418691336358
 Root      4 :     3.483449761480733   Change is   -0.000350607807924
 Root      5 :     3.648409020871687   Change is   -0.113630672551298
 Iteration     7 Dimension    74 NMult    68 NNew      6
 CISAX will form     6 AO SS matrices at one time.
 NMat=     6 NSing=     6 JSym2X= 0.
 Root      1 has converged.
 Root      2 has converged.
 Root      3 not converged, maximum delta is    0.004683179630524
 Root      4 not converged, maximum delta is    0.011901674130720
 Root      5 not converged, maximum delta is    0.092836713052394
 Excitation Energies [eV] at current iteration:
 Root      1 :     1.645771628352509   Change is   -0.000000396932533
 Root      2 :     2.173374391615879   Change is   -0.000000925345525
 Root      3 :     3.367814119294863   Change is   -0.000120978175828
 Root      4 :     3.483245445206201   Change is   -0.000204316274532
 Root      5 :     3.590157832923703   Change is   -0.058251187947984
 Iteration     8 Dimension    80 NMult    74 NNew      6
 CISAX will form     6 AO SS matrices at one time.
 NMat=     6 NSing=     6 JSym2X= 0.
 Root      1 has converged.
 Root      2 has converged.
 Root      3 not converged, maximum delta is    0.001934552449939
 Root      4 not converged, maximum delta is    0.005703463834336
 Root      5 not converged, maximum delta is    0.037520557290554
 Excitation Energies [eV] at current iteration:
 Root      1 :     1.645771520814150   Change is   -0.000000107538359
 Root      2 :     2.173373467739039   Change is   -0.000000923876839
 Root      3 :     3.367782334592400   Change is   -0.000031784702463
 Root      4 :     3.483178064649104   Change is   -0.000067380557097
 Root      5 :     3.572892752755944   Change is   -0.017265080167759
 Iteration     9 Dimension    86 NMult    80 NNew      6
 CISAX will form     6 AO SS matrices at one time.
 NMat=     6 NSing=     6 JSym2X= 0.
 Root      1 has converged.
 Root      2 has converged.
 Root      3 not converged, maximum delta is    0.001685607293082
 Root      4 not converged, maximum delta is    0.007093561615351
 Root      5 not converged, maximum delta is    0.091193361131884
 Excitation Energies [eV] at current iteration:
 Root      1 :     1.645771467154510   Change is   -0.000000053659640
 Root      2 :     2.173373038049053   Change is   -0.000000429689986
 Root      3 :     3.367763705045659   Change is   -0.000018629546741
 Root      4 :     3.483118548344988   Change is   -0.000059516304116
 Root      5 :     3.553853031006919   Change is   -0.019039721749025
 Iteration    10 Dimension    92 NMult    86 NNew      6
 CISAX will form     6 AO SS matrices at one time.
 NMat=     6 NSing=     6 JSym2X= 0.
 Root      1 has converged.
 Root      2 has converged.
 Root      3 has converged.
 Root      4 not converged, maximum delta is    0.003842164167666
 Root      5 not converged, maximum delta is    0.049031920798650
 Excitation Energies [eV] at current iteration:
 Root      1 :     1.645771452259396   Change is   -0.000000014895113
 Root      2 :     2.173372827245501   Change is   -0.000000210803552
 Root      3 :     3.367758168756883   Change is   -0.000005536288776
 Root      4 :     3.483088848772042   Change is   -0.000029699572946
 Root      5 :     3.544424155740370   Change is   -0.009428875266549
 Iteration    11 Dimension    96 NMult    92 NNew      4
 CISAX will form     4 AO SS matrices at one time.
 NMat=     4 NSing=     4 JSym2X= 0.
 Root      1 has converged.
 Root      2 has converged.
 Root      3 has converged.
 Root      4 has converged.
 Root      5 not converged, maximum delta is    0.010000422674219
 Excitation Energies [eV] at current iteration:
 Root      1 :     1.645771441370233   Change is   -0.000000010889163
 Root      2 :     2.173372606618737   Change is   -0.000000220626765
 Root      3 :     3.367757385099068   Change is   -0.000000783657815
 Root      4 :     3.483083048765468   Change is   -0.000005800006574
 Root      5 :     3.542605613575415   Change is   -0.001818542164955
 Iteration    12 Dimension    98 NMult    96 NNew      2
 CISAX will form     2 AO SS matrices at one time.
 NMat=     2 NSing=     2 JSym2X= 0.
 Root      1 has converged.
 Root      2 has converged.
 Root      3 has converged.
 Root      4 has converged.
 Root      5 not converged, maximum delta is    0.002077403539029
 Excitation Energies [eV] at current iteration:
 Root      1 :     1.645771358288999   Change is   -0.000000083081234
 Root      2 :     2.173372155630002   Change is   -0.000000450988734
 Root      3 :     3.367757300049680   Change is   -0.000000085049388
 Root      4 :     3.483082275700606   Change is   -0.000000773064861
 Root      5 :     3.542324400943599   Change is   -0.000281212631815
 Iteration    13 Dimension   100 NMult    98 NNew      2
 CISAX will form     2 AO SS matrices at one time.
 NMat=     2 NSing=     2 JSym2X= 0.
 Root      1 has converged.
 Root      2 has converged.
 Root      3 has converged.
 Root      4 has converged.
 Root      5 has converged.
 Excitation Energies [eV] at current iteration:
 Root      1 :     1.645771353178787   Change is   -0.000000005110212
 Root      2 :     2.173372062341922   Change is   -0.000000093288080
 Root      3 :     3.367757292445767   Change is   -0.000000007603913
 Root      4 :     3.483082187594829   Change is   -0.000000088105778
 Root      5 :     3.542286499666218   Change is   -0.000037901277382
 Convergence achieved on expansion vectors.
 ***********************************************************************
 Excited states from <AA,BB:AA,BB> singles matrix:
 ***********************************************************************
 
 1PDM for each excited state written to RWF  633
 Ground to excited state transition densities written to RWF  633
 Ground to excited state transition electric dipole moments (Au):
       state          X           Y           Z        Dip. S.      Osc.
         1         0.2438      2.9787      0.3542      9.0574      0.3652
         2         0.9800     -0.2644     -0.0028      1.0303      0.0549
         3        -2.7583      0.6187      0.0930      7.9998      0.6600
         4         0.1160      0.0406      0.0336      0.0162      0.0014
[...]
 Alpha virt. eigenvalues --    1.24993   1.25360   1.25789   1.26437   1.26950
 Alpha virt. eigenvalues --    1.27474   1.27626   1.28056   1.28472   1.29310
 Alpha virt. eigenvalues --    1.29644   1.30081   1.30694   1.31079   1.31465
 Alpha virt. eigenvalues --    1.31710   1.32134   1.32375   1.32672   1.33856
 Alpha virt. eigenvalues --    1.34254   1.34528   1.34752   1.35268   1.35485
 Alpha virt. eigenvalues --    1.35706   1.35848   1.36573   1.37153   1.37619
 Alpha virt. eigenvalues --    1.38254   1.38597   1.39035   1.39563   1.39598
 Alpha virt. eigenvalues --    1.40302   1.40644   1.40759   1.40952   1.42176
 Alpha virt. eigenvalues --    1.42670   1.43060   1.44079   1.44523   1.44890
 Alpha virt. eigenvalues --    1.45149   1.45433   1.45888   1.46598   1.46999
 Alpha virt. eigenvalues --    1.47068   1.47442   1.48219   1.48267   1.48753
 Alpha virt. eigenvalues --    1.48834   1.48904   1.49057   1.49156   1.50125
 Alpha virt. eigenvalues --    1.50182   1.50630   1.50944   1.51511   1.52319
 Alpha virt. eigenvalues --    1.52643   1.53139   1.53510   1.54088   1.54160
 Alpha virt. eigenvalues --    1.54742   1.55140   1.55190   1.56156   1.56462
 Alpha virt. eigenvalues --    1.57018   1.57598   1.57652   1.58146   1.58813
 Alpha virt. eigenvalues --    1.59035   1.59191   1.59430   1.59785   1.60139
 Alpha virt. eigenvalues --    1.60317   1.60904   1.61227   1.61558   1.61729
 Alpha virt. eigenvalues --    1.61812   1.62195   1.62290   1.62334   1.62694
 Alpha virt. eigenvalues --    1.62898   1.63024   1.63278   1.63506   1.63838
 Alpha virt. eigenvalues --    1.63890   1.63923   1.64206   1.64845   1.64926
 Alpha virt. eigenvalues --    1.65257   1.65506   1.65650   1.65871   1.66338
 Alpha virt. eigenvalues --    1.66995   1.67442   1.67867   1.68215   1.68761
 Alpha virt. eigenvalues --    1.69104   1.69336   1.69590   1.70431   1.71102
 Alpha virt. eigenvalues --    1.71519   1.71884   1.72632   1.72672   1.73612
 Alpha virt. eigenvalues --    1.73802   1.74262   1.74600   1.75614   1.75841
 Alpha virt. eigenvalues --    1.76136   1.76298   1.76884   1.77061   1.77365
 Alpha virt. eigenvalues --    1.77698   1.77927   1.78646   1.78748   1.79562
 Alpha virt. eigenvalues --    1.80194   1.80278   1.80619   1.80811   1.80918
 Alpha virt. eigenvalues --    1.80960   1.81102   1.81301   1.81905   1.82190
 Alpha virt. eigenvalues --    1.82258   1.82563   1.82822   1.83022   1.83097
 Alpha virt. eigenvalues --    1.83381   1.83635   1.83783   1.84201   1.84325
 Alpha virt. eigenvalues --    1.84608   1.85008   1.85122   1.85191   1.85461
 Alpha virt. eigenvalues --    1.85786   1.86224   1.86259   1.86717   1.86930
 Alpha virt. eigenvalues --    1.87073   1.87348   1.87526   1.87822   1.87872
 Alpha virt. eigenvalues --    1.87916   1.88043   1.88132   1.88349   1.88661
 Alpha virt. eigenvalues --    1.88800   1.88969   1.89074   1.89322   1.89557
 Alpha virt. eigenvalues --    1.89665   1.89791   1.90195   1.90333   1.90378
 Alpha virt. eigenvalues --    1.90637   1.91247   1.91436   1.91704   1.91777
 Alpha virt. eigenvalues --    1.92177   1.92514   1.92759   1.92817   1.92964
 Alpha virt. eigenvalues --    1.93013   1.93353   1.93559   1.93833   1.93863
 Alpha virt. eigenvalues --    1.93978   1.94371   1.94677   1.94815   1.95109
 Alpha virt. eigenvalues --    1.95254   1.95407   1.95494   1.95783   1.96189
 Alpha virt. eigenvalues --    1.96318   1.96690   1.96896   1.97043   1.97239
 Alpha virt. eigenvalues --    1.97305   1.97622   1.97820   1.98246   1.98570
 Alpha virt. eigenvalues --    1.98714   1.98947   1.99517   1.99712   1.99967
 Alpha virt. eigenvalues --    2.00137   2.00207   2.00517   2.00665   2.00855
 Alpha virt. eigenvalues --    2.01001   2.01327   2.01582   2.01728   2.01820
 Alpha virt. eigenvalues --    2.01908   2.02188   2.02458   2.02699   2.02897
 Alpha virt. eigenvalues --    2.03052   2.03265   2.03374   2.03574   2.03805
 Alpha virt. eigenvalues --    2.04413   2.04534   2.04665   2.05184   2.05434
 Alpha virt. eigenvalues --    2.05461   2.06151   2.06813   2.07009   2.07115
 Alpha virt. eigenvalues --    2.07193   2.07558   2.07930   2.08115   2.08161
 Alpha virt. eigenvalues --    2.08508   2.08616   2.09491   2.09920   2.10527
 Alpha virt. eigenvalues --    2.10847   2.11197   2.11511   2.11911   2.12062
 Alpha virt. eigenvalues --    2.12301   2.12638   2.13122   2.13258   2.13410
 Alpha virt. eigenvalues --    2.13925   2.14188   2.15129   2.15184   2.15418
 Alpha virt. eigenvalues --    2.15639   2.15930   2.16199   2.16577   2.16991
 Alpha virt. eigenvalues --    2.17366   2.17627   2.17884   2.18021   2.18223
 Alpha virt. eigenvalues --    2.18395   2.18728   2.18894   2.19218   2.19352
 Alpha virt. eigenvalues --    2.19653   2.20181   2.20331   2.21177   2.21485
 Alpha virt. eigenvalues --    2.21631   2.22052   2.22260   2.22412   2.22651
 Alpha virt. eigenvalues --    2.22710   2.23999   2.24086   2.24386   2.24706
 Alpha virt. eigenvalues --    2.24803   2.24955   2.25566   2.26087   2.26250
 Alpha virt. eigenvalues --    2.26459   2.26969   2.27184   2.27424   2.27752
 Alpha virt. eigenvalues --    2.28499   2.28619   2.29400   2.29516   2.30608
 Alpha virt. eigenvalues --    2.31007   2.31552   2.32192   2.32248   2.33030
 Alpha virt. eigenvalues --    2.33640   2.34286   2.34325   2.34410   2.35273
 Alpha virt. eigenvalues --    2.35807   2.35915   2.36371   2.36611   2.37031
 Alpha virt. eigenvalues --    2.37095   2.37756   2.37945   2.38275   2.38670
 Alpha virt. eigenvalues --    2.39796   2.40105   2.40298   2.40382   2.40676
 Alpha virt. eigenvalues --    2.40810   2.41216   2.41690   2.41979   2.42423
 Alpha virt. eigenvalues --    2.42920   2.43410   2.43540   2.43667   2.43992
 Alpha virt. eigenvalues --    2.44178   2.44592   2.44754   2.45502   2.45608
 Alpha virt. eigenvalues --    2.46051   2.46306   2.46715   2.47102   2.47412
 Alpha virt. eigenvalues --    2.47694   2.48384   2.48734   2.48918   2.49205
 Alpha virt. eigenvalues --    2.50026   2.50053   2.50225   2.50609   2.50736
 Alpha virt. eigenvalues --    2.51252   2.51973   2.52147   2.52207   2.52387
 Alpha virt. eigenvalues --    2.52595   2.53201   2.53426   2.54179   2.54508
 Alpha virt. eigenvalues --    2.54581   2.54988   2.56175   2.56540   2.57007
 Alpha virt. eigenvalues --    2.57510   2.57850   2.58596   2.59390   2.59605
 Alpha virt. eigenvalues --    2.60053   2.60109   2.61130   2.61236   2.61454
 Alpha virt. eigenvalues --    2.62266   2.62690   2.63726   2.64002   2.64916
 Alpha virt. eigenvalues --    2.65115   2.65123   2.65721   2.66455   2.66491
 Alpha virt. eigenvalues --    2.67021   2.67100   2.67607   2.67799   2.68094
 Alpha virt. eigenvalues --    2.68360   2.68615   2.68635   2.68993   2.69129
 Alpha virt. eigenvalues --    2.69673   2.70247   2.70540   2.71005   2.71337
 Alpha virt. eigenvalues --    2.71640   2.72005   2.72101   2.73126   2.73223
 Alpha virt. eigenvalues --    2.74009   2.74378   2.75022   2.75318   2.75389
 Alpha virt. eigenvalues --    2.76292   2.76670   2.76886   2.77282   2.78329
 Alpha virt. eigenvalues --    2.78359   2.78824   2.79142   2.79197   2.79867
 Alpha virt. eigenvalues --    2.80321   2.80478   2.80744   2.81395   2.81853
 Alpha virt. eigenvalues --    2.82100   2.82709   2.83317   2.83673   2.84035
 Alpha virt. eigenvalues --    2.85028   2.85263   2.85539   2.85612   2.86725
 Alpha virt. eigenvalues --    2.86832   2.88310   2.88598   2.89203   2.89261
 Alpha virt. eigenvalues --    2.89407   2.90074   2.90604   2.91253   2.92204
 Alpha virt. eigenvalues --    2.92440   2.92744   2.93260   2.93535   2.93832
 Alpha virt. eigenvalues --    2.94636   2.95060   2.95736   2.95890   2.96635
 Alpha virt. eigenvalues --    2.96954   2.97281   2.97756   2.98101   2.98193
 Alpha virt. eigenvalues --    2.98767   2.98999   2.99189   2.99292   2.99478
 Alpha virt. eigenvalues --    2.99779   3.00173   3.00338   3.00515   3.00959
 Alpha virt. eigenvalues --    3.01031   3.01110   3.01807   3.02053   3.02277
 Alpha virt. eigenvalues --    3.02337   3.02555   3.02616   3.03232   3.03376
 Alpha virt. eigenvalues --    3.03732   3.03844   3.03927   3.04721   3.05099
 Alpha virt. eigenvalues --    3.05321   3.05525   3.05706   3.05867   3.07231
 Alpha virt. eigenvalues --    3.07377   3.07934   3.07976   3.08377   3.08481
 Alpha virt. eigenvalues --    3.09320   3.09830   3.09914   3.10551   3.10902
 Alpha virt. eigenvalues --    3.11181   3.11885   3.12568   3.12721   3.13227
 Alpha virt. eigenvalues --    3.14132   3.14292   3.14355   3.14449   3.15101
 Alpha virt. eigenvalues --    3.15154   3.15478   3.16096   3.16157   3.16371
 Alpha virt. eigenvalues --    3.17129   3.17193   3.18160   3.18346   3.19679
 Alpha virt. eigenvalues --    3.20449   3.20783   3.21459   3.22561   3.22615
 Alpha virt. eigenvalues --    3.23120   3.23436   3.23750   3.24014   3.24774
 Alpha virt. eigenvalues --    3.26221   3.27927   3.28791   3.29364   3.30834
 Alpha virt. eigenvalues --    3.33468   3.36486   3.45277   3.45338   3.47306
 Alpha virt. eigenvalues --    3.48728   3.51048   3.53145   3.57596   3.60458
 Alpha virt. eigenvalues --    3.63369   3.66913   3.68686   3.70465   3.71270
 Alpha virt. eigenvalues --    3.72827   3.76203
          Condensed to atoms (all electrons):
 Mulliken charges:
               1
     1  Mg   0.943765
     2  C   -0.041012
     3  C   -0.086489
     4  C   -0.080466
     5  C   -0.090142
     6  N   -0.360884
     7  C    0.069027
     8  C   -0.070750
     9  C   -0.075523
    10  C    0.065231
    11  C    0.047478
    12  C   -0.014908
    13  C    0.010411
    14  C    0.243761
    15  O   -0.255593
    16  O   -0.402869
    17  N   -0.458233
    18  C    0.154258
    19  C   -0.186165
    20  C   -0.035348
    21  C    0.158524
    22  C    0.069109
    23  C    0.011206
    24  O   -0.249539
    25  C    0.005886
    26  N   -0.319958
    27  C    0.054197
    28  C   -0.085382
    29  C   -0.043953
    30  C   -0.006281
    31  C    0.051541
    32  C   -0.057511
    33  C   -0.022984
    34  N   -0.467697
    35  C    0.178284
    36  C   -0.188863
    37  C   -0.036287
    38  C    0.135588
    39  C    0.080931
    40  C    0.124982
    41  O   -0.181837
    42  C   -0.115770
    43  C    0.292253
    44  O   -0.272237
    45  O   -0.348003
    46  C    0.146977
    47  C    0.263610
    48  C   -0.154290
    49  C   -0.235887
    50  C    0.052834
    51  C    0.036458
    52  C   -0.022715
    53  C    0.041671
    54  C   -0.171229
    55  C   -0.010646
    56  C    0.001362
    57  C   -0.034577
    58  C    0.058520
    59  C   -0.219097
    60  C   -0.001142
    61  C    0.036477
    62  C   -0.041426
    63  C   -0.007623
    64  C   -0.288761
    65  C   -0.000017
    66  C    0.031951
    67  H   -0.005235
    68  H    0.023675
    69  H   -0.013932
    70  H    0.062143
    71  H    0.022099
    72  H    0.035316
    73  H    0.034445
    74  H    0.056577
    75  H    0.019801
    76  H   -0.000239
    77  H    0.055790
    78  H    0.081534
    79  H    0.041577
    80  H    0.081261
    81  H    0.026444
    82  H    0.050877
    83  H    0.037709
    84  H    0.068207
    85  H    0.039809
    86  H    0.039781
    87  H    0.043391
    88  H    0.026592
    89  H    0.026589
    90  H    0.026330
    91  H    0.026937
    92  H    0.047053
    93  H    0.033806
    94  H    0.033383
    95  H    0.041873
    96  H    0.060711
    97  H    0.060584
    98  H    0.080832
    99  H    0.046567
   100  H    0.057771
   101  H    0.031437
   102  H    0.059316
   103  H    0.057093
   104  H    0.025460
   105  H    0.033377
   106  H    0.033780
   107  H    0.055992
   108  H    0.030309
   109  H   -0.000834
   110  H    0.023976
   111  H    0.023721
   112  H    0.012290
   113  H    0.013087
   114  H    0.014721
   115  H    0.019772
   116  H    0.037869
   117  H    0.023054
   118  H    0.001829
   119  H    0.015434
   120  H    0.010017
   121  H    0.009170
   122  H    0.010061
   123  H    0.026767
   124  H    0.020680
   125  H    0.024063
   126  H    0.021140
   127  H    0.031203
   128  H    0.020788
   129  H    0.024291
   130  H    0.037585
   131  H    0.020668
   132  H    0.028577
   133  H    0.023341
   134  H    0.022216
   135  H    0.022438
   136  H    0.033826
   137  H    0.036005
   138  H    0.043818
   139  H    0.026594
   140  H    0.000820
 Sum of Mulliken charges =  -0.00000
 Mulliken charges with hydrogens summed into heavy atoms:
               1
     1  Mg   0.943765
     2  C   -0.041012
     3  C   -0.091724
     4  C   -0.056791
     5  C   -0.104075
     6  N   -0.360884
     7  C    0.069027
     8  C   -0.008607
     9  C   -0.053423
    10  C    0.065231
    11  C    0.173815
    12  C    0.004654
    13  C    0.147735
    14  C    0.243761
    15  O   -0.255593
    16  O   -0.402869
    17  N   -0.458233
    18  C    0.154258
    19  C   -0.186165
    20  C   -0.035348
    21  C    0.158524
    22  C    0.218390
    23  C    0.011206
    24  O   -0.249539
    25  C    0.162679
    26  N   -0.319958
    27  C    0.054197
    28  C   -0.045573
    29  C   -0.004172
    30  C   -0.006281
    31  C    0.148113
    32  C   -0.004244
    33  C    0.091258
    34  N   -0.467697
    35  C    0.178284
    36  C   -0.188863
    37  C   -0.036287
    38  C    0.135588
    39  C    0.244098
    40  C    0.124982
    41  O   -0.181837
    42  C   -0.034938
    43  C    0.292253
    44  O   -0.272237
    45  O   -0.348003
    46  C    0.282752
    47  C    0.380019
    48  C   -0.128830
    49  C   -0.235887
    50  C    0.175983
    51  C    0.065933
    52  C    0.024981
    53  C    0.067048
    54  C   -0.156507
    55  C    0.070048
    56  C    0.018624
    57  C   -0.015391
    58  C    0.095348
    59  C   -0.198418
    60  C    0.075265
    61  C    0.081555
    62  C    0.016826
    63  C    0.044294
    64  C   -0.266546
    65  C    0.092252
    66  C    0.103184
 Electronic spatial extent (au):  <R**2>=         131457.9211
 Charge=             -0.0000 electrons
 Dipole moment (field-independent basis, Debye):
    X=              3.3019    Y=              3.6035    Z=             -1.4698  Tot=              5.1037
 Quadrupole moment (field-independent basis, Debye-Ang):
   XX=           -374.0531   YY=           -414.7508   ZZ=           -403.8650
   XY=              7.3970   XZ=             12.9149   YZ=             -0.0068
 Traceless Quadrupole moment (field-independent basis, Debye-Ang):
   XX=             23.5032   YY=            -17.1945   ZZ=             -6.3087
   XY=              7.3970   XZ=             12.9149   YZ=             -0.0068
 Octapole moment (field-independent basis, Debye-Ang**2):
  XXX=           -195.8602  YYY=            174.6743  ZZZ=             -3.2950  XYY=            125.4598
  XXY=           -272.0352  XXZ=             65.9644  XZZ=            -13.4781  YZZ=             -4.9321
  YYZ=             63.4068  XYZ=            -11.1872
 Hexadecapole moment (field-independent basis, Debye-Ang**3):
 XXXX=        -151271.1772 YYYY=         -19219.2134 ZZZZ=          -6020.9416 XXXY=           3439.4254
 XXXZ=           1846.2651 YYYX=           -546.0259 YYYZ=           -237.3214 ZZZX=            -41.4255
 ZZZY=            -15.6366 XXYY=         -30502.6425 XXZZ=         -27297.2905 YYZZ=          -4102.2677
 XXYZ=            104.4157 YYXZ=           -155.0086 ZZXY=           -156.9719
 N-N= 9.478702599705D+03 E-N=-2.595112780617D+04  KE= 2.976086230416D+03
 Leave Link  601 at Wed Apr 27 11:53:48 2022, MaxMem= 10066329600 cpu:              10.3 elap:               0.5
 (Enter /sw/apps/gaussian-16.0/g16/l9999.exe)
 1\1\GINC-BP1-COMPUTE196\SP\RwB97XD TD-FC\def2SVP\C55H74Mg1N4O6\OF15641
 \27-Apr-2022\0\\#p wB97XD/Def2SVP td=(nstates=5)\\step_1151_chromophor
 e_19 TDDFT with wB97XD functional\\0,1\Mg,0,25.68,50.965,26.654\C,0,23
 .388,51.928,29.278\C,0,27.922,50.004,28.996\C,0,27.969,50.636,24.22\C,
 0,23.456,52.43,24.358\N,0,25.701,51.075,28.85\C,0,24.646,51.419,29.712
 \C,0,25.029,51.221,31.161\C,0,26.537,50.756,31.086\C,0,26.689,50.479,2
 9.548\C,0,27.558,51.821,31.57\C,0,24.127,50.096,31.762\C,0,24.061,49.9
 63,33.246\C,0,24.987,50.656,34.263\O,0,25.583,51.715,34.119\O,0,24.735
 ,50.103,35.533\N,0,27.671,50.294,26.584\C,0,28.405,49.883,27.666\C,0,2
 9.671,49.438,27.148\C,0,29.658,49.459,25.728\C,0,28.36,50.133,25.431\C
 ,0,30.696,48.891,28.062\C,0,30.672,49.054,24.764\O,0,30.413,49.118,23.
 561\C,0,31.994,48.473,25.23\N,0,25.711,51.579,24.536\C,0,26.783,51.304
 ,23.81\C,0,26.463,51.641,22.363\C,0,25.041,52.219,22.356\C,0,24.655,51
 .984,23.79\C,0,27.41,52.434,21.618\C,0,24.075,51.708,21.267\C,0,23.098
 ,50.527,21.527\N,0,23.832,51.948,26.735\C,0,23.042,52.446,25.654\C,0,2
 1.715,52.868,26.176\C,0,21.833,52.717,27.582\C,0,23.151,52.247,27.902\
 C,0,20.55,53.296,25.294\C,0,21.134,52.803,28.867\O,0,20.035,53.211,29.
 155\C,0,22.127,52.317,30.035\C,0,22.465,53.536,30.831\O,0,23.511,54.21
 6,30.716\O,0,21.513,53.755,31.837\C,0,21.855,54.779,32.725\C,0,25.526,
 50.809,36.613\C,0,25.342,50.062,37.875\C,0,25.751,50.402,39.071\C,0,26
 .604,51.571,39.331\C,0,25.547,49.509,40.241\C,0,26.281,48.138,40.167\C
 ,0,25.543,46.954,40.719\C,0,26.205,46.349,41.982\C,0,26.583,44.853,41.
 729\C,0,25.333,46.544,43.231\C,0,25.645,47.792,44.061\C,0,25.49,47.574
 ,45.547\C,0,26.812,47.821,46.348\C,0,27.228,46.645,47.316\C,0,26.888,4
 9.247,47.096\C,0,27.732,50.216,46.205\C,0,26.959,51.524,45.885\C,0,27.
 405,51.956,44.44\C,0,28.824,52.648,44.377\C,0,26.382,52.942,43.856\H,0
 ,28.603,49.519,29.698\H,0,28.662,50.467,23.393\H,0,22.786,52.841,23.6\
 H,0,24.803,52.166,31.654\H,0,26.649,49.81,31.616\H,0,28.169,52.199,30.
 75\H,0,28.159,51.335,32.338\H,0,27.124,52.748,31.945\H,0,24.281,49.108
 ,31.328\H,0,23.107,50.242,31.407\H,0,24.288,48.9,33.334\H,0,23.013,50.
 165,33.47\H,0,31.607,49.472,27.913\H,0,30.725,47.809,27.936\H,0,30.518
 ,49.226,29.084\H,0,32.473,47.838,24.484\H,0,31.794,47.779,26.047\H,0,3
 2.637,49.302,25.523\H,0,26.379,50.671,21.873\H,0,24.955,53.3,22.248\H,
 0,28.289,52.574,22.248\H,0,27.008,53.382,21.262\H,0,27.694,51.963,20.6
 76\H,0,24.732,51.475,20.429\H,0,23.404,52.519,20.985\H,0,22.922,50.025
 ,20.575\H,0,22.196,50.916,21.999\H,0,23.562,49.848,22.242\H,0,20.463,5
 2.773,24.342\H,0,20.706,54.361,25.125\H,0,19.642,53.088,25.86\H,0,21.7
 33,51.587,30.743\H,0,21.031,54.966,33.413\H,0,22.214,55.654,32.182\H,0
 ,22.643,54.402,33.377\H,0,25.123,51.814,36.729\H,0,26.586,50.855,36.36
 2\H,0,24.735,49.165,37.75\H,0,26.349,51.902,40.338\H,0,26.4,52.392,38.
 644\H,0,27.64,51.241,39.251\H,0,24.48,49.429,40.45\H,0,25.88,50.064,41
 .117\H,0,27.256,48.337,40.61\H,0,26.394,47.86,39.119\H,0,25.527,46.258
 ,39.88\H,0,24.5,47.199,40.922\H,0,27.117,46.914,42.176\H,0,25.622,44.3
 44,41.662\H,0,27.212,44.346,42.461\H,0,27.003,44.654,40.744\H,0,25.421
 ,45.659,43.861\H,0,24.272,46.492,42.984\H,0,24.986,48.545,43.63\H,0,26
 .596,48.254,43.794\H,0,25.313,46.508,45.691\H,0,24.633,48.18,45.841\H,
 0,27.615,47.764,45.613\H,0,27.1,46.973,48.347\H,0,28.309,46.508,47.313
 \H,0,26.74,45.729,46.983\H,0,27.372,49.15,48.068\H,0,25.843,49.533,47.
 215\H,0,28.296,49.819,45.36\H,0,28.425,50.622,46.942\H,0,27.157,52.297
 ,46.628\H,0,25.887,51.369,45.763\H,0,27.434,51.062,43.817\H,0,29.355,5
 2.335,45.276\H,0,28.677,53.728,44.386\H,0,29.357,52.311,43.488\H,0,25.
 902,53.441,44.698\H,0,25.825,52.563,42.999\H,0,27.036,53.607,43.291\\V
 ersion=ES64L-G16RevA.03\State=1-A\HF=-3007.8449839\RMSD=9.919e-09\PG=C
 01 [X(C55H74Mg1N4O6)]\\@


 CHEMISTRY BEGAN BY SAYING IT WOULD CHANGE THE BASER
 METALS INTO GOLD.  BY NOT DOING THAT IT HAS DONE MUCH
 GREATER THINGS.  --  RALPH WALDO EMERSON
 Job cpu time:       0 days 12 hours 25 minutes 53.7 seconds.
 Elapsed time:       0 days  0 hours 31 minutes 37.6 seconds.
 File lengths (MBytes):  RWF=   8929 Int=      0 D2E=      0 Chk=    390 Scr=      1
 Normal termination of Gaussian 16 at Wed Apr 27 11:53:49 2022.
