 Entering Gaussian System, Link 0=g16
 Initial command:
 /sw/apps/gaussian-16.0/g16/l1.exe "/tmp/Gau-155846.inp" -scrdir="/tmp/"
 Entering Link 1 = /sw/apps/gaussian-16.0/g16/l1.exe PID=    155847.
  
 Copyright (c) 1988,1990,1992,1993,1995,1998,2003,2009,2016,
            Gaussian, Inc.  All Rights Reserved.
  
 This is part of the Gaussian(R) 16 program.  It is based on
 the Gaussian(R) 09 system (copyright 2009, Gaussian, Inc.),
 the Gaussian(R) 03 system (copyright 2003, Gaussian, Inc.),
 the Gaussian(R) 98 system (copyright 1998, Gaussian, Inc.),
 the Gaussian(R) 94 system (copyright 1995, Gaussian, Inc.),
 the Gaussian 92(TM) system (copyright 1992, Gaussian, Inc.),
 the Gaussian 90(TM) system (copyright 1990, Gaussian, Inc.),
 the Gaussian 88(TM) system (copyright 1988, Gaussian, Inc.),
 the Gaussian 86(TM) system (copyright 1986, Carnegie Mellon
 University), and the Gaussian 82(TM) system (copyright 1983,
 Carnegie Mellon University). Gaussian is a federally registered
 trademark of Gaussian, Inc.
  
 This software contains proprietary and confidential information,
 including trade secrets, belonging to Gaussian, Inc.
  
 This software is provided under written license and may be
 used, copied, transmitted, or stored only in accord with that
 written license.
  
 The following legend is applicable only to US Government
 contracts under FAR:
  
                    RESTRICTED RIGHTS LEGEND
  
 Use, reproduction and disclosure by the US Government is
 subject to restrictions as set forth in subparagraphs (a)
 and (c) of the Commercial Computer Software - Restricted
 Rights clause in FAR 52.227-19.
  
 Gaussian, Inc.
 340 Quinnipiac St., Bldg. 40, Wallingford CT 06492
  
  
 ---------------------------------------------------------------
 Warning -- This program may not be used in any manner that
 competes with the business of Gaussian, Inc. or will provide
 assistance to any competitor of Gaussian, Inc.  The licensee
 of this program is prohibited from giving any competitor of
 Gaussian, Inc. access to this program.  By using this program,
 the user acknowledges that Gaussian, Inc. is engaged in the
 business of creating and licensing software in the field of
 computational chemistry and represents and warrants to the
 licensee that it is not a competitor of Gaussian, Inc. and that
 it will not use this program in any manner prohibited above.
 ---------------------------------------------------------------
  

 Cite this work as:
 Gaussian 16, Revision A.03,
 M. J. Frisch, G. W. Trucks, H. B. Schlegel, G. E. Scuseria, 
 M. A. Robb, J. R. Cheeseman, G. Scalmani, V. Barone, 
 G. A. Petersson, H. Nakatsuji, X. Li, M. Caricato, A. V. Marenich, 
 J. Bloino, B. G. Janesko, R. Gomperts, B. Mennucci, H. P. Hratchian, 
 J. V. Ortiz, A. F. Izmaylov, J. L. Sonnenberg, D. Williams-Young, 
 F. Ding, F. Lipparini, F. Egidi, J. Goings, B. Peng, A. Petrone, 
 T. Henderson, D. Ranasinghe, V. G. Zakrzewski, J. Gao, N. Rega, 
 G. Zheng, W. Liang, M. Hada, M. Ehara, K. Toyota, R. Fukuda, 
 J. Hasegawa, M. Ishida, T. Nakajima, Y. Honda, O. Kitao, H. Nakai, 
 T. Vreven, K. Throssell, J. A. Montgomery, Jr., J. E. Peralta, 
 F. Ogliaro, M. J. Bearpark, J. J. Heyd, E. N. Brothers, K. N. Kudin, 
 V. N. Staroverov, T. A. Keith, R. Kobayashi, J. Normand, 
 K. Raghavachari, A. P. Rendell, J. C. Burant, S. S. Iyengar, 
 J. Tomasi, M. Cossi, J. M. Millam, M. Klene, C. Adamo, R. Cammi, 
 J. W. Ochterski, R. L. Martin, K. Morokuma, O. Farkas, 
 J. B. Foresman, and D. J. Fox, Gaussian, Inc., Wallingford CT, 2016.
 
 ******************************************
 Gaussian 16:  ES64L-G16RevA.03 25-Dec-2016
                27-Apr-2022 
 ******************************************
 %nproc=24
 Will use up to   24 processors via shared memory.
 %mem=75GB
 -----------------------------------
 #p cam-b3lyp/Def2SVP td=(nstates=5)
 -----------------------------------
 1/38=1,172=1/1;
 2/12=2,17=6,18=5,40=1/2;
 3/5=43,7=101,11=9,25=1,30=1,74=-40/1,2,3,8;
 4//1;
 5/5=2,38=5/2;
 8/6=1,10=1,108=5/1;
 9/41=5,42=1,70=2/14;
 6/7=2,8=2,9=2,10=2/1;
 99/5=1,9=1/99;
 Leave Link    1 at Wed Apr 27 22:52:57 2022, MaxMem= 10066329600 cpu:               0.9 elap:               0.0
 (Enter /sw/apps/gaussian-16.0/g16/l101.exe)
 --------------------------------------------------------
 step_1351_chromophore_23 TDDFT with cam-b3lyp functional
 --------------------------------------------------------
 Symbolic Z-matrix:
 Charge =  0 Multiplicity = 1
 Mg                   -8.025     40.937    42.569 
 C                    -6.872     37.567    41.758 
 C                    -5.392     41.978    40.73 
 C                    -9.312     43.96     42.71 
 C                    -10.763    39.477    44.077 
 N                    -6.169     39.779    41.561 
 C                    -6.041     38.518    41.228 
 C                    -4.94      38.271    40.227 
 C                    -4.339     39.727    40.049 
 C                    -5.341     40.578    40.847 
 C                    -2.821     39.975    40.387 
 C                    -5.502     37.653    38.873 
 C                    -4.801     36.357    38.324 
 C                    -3.77      36.63     37.244 
 O                    -2.798     37.382    37.267 
 O                    -4.141     35.897    36.098 
 N                    -7.366     42.756    42.002 
 C                    -6.278     42.946    41.235 
 C                    -6.197     44.448    40.941 
 C                    -7.266     45.11     41.602 
 C                    -8.016     43.944    42.136 
 C                    -5.09      45.139    40.204 
 C                    -7.526     46.59     41.659 
 O                    -6.669     47.354    41.274 
 C                    -8.815     47.08     42.341 
 N                    -9.784     41.616    43.237 
 C                    -10.141    42.92     43.227 
 C                    -11.62     43.099    43.632 
 C                    -11.995    41.711    44.226 
 C                    -10.759    40.885    43.87 
 C                    -12.064    44.347    44.491 
 C                    -13.25     40.996    43.742 
 C                    -14.144    40.424    44.879 
 N                    -8.704     38.909    42.953 
 C                    -9.854     38.526    43.648 
 C                    -9.777     37.124    43.651 
 C                    -8.674     36.681    42.873 
 C                    -8.058     37.806    42.495 
 C                    -10.829    36.308    44.268 
 C                    -7.994     35.539    42.365 
 O                    -8.24      34.38     42.584 
 C                    -6.803     36.101    41.601 
 C                    -5.627     35.376    42.153 
 O                    -5.228     35.468    43.36 
 O                    -5.125     34.489    41.242 
 C                    -3.889     33.891    41.447 
 C                    -3.572     36.349    34.834 
 C                    -4.668     36.335    33.736 
 C                    -5.348     37.394    33.274 
 C                    -5.24      38.718    34.024 
 C                    -6.402     37.24     32.142 
 C                    -6.133     38.029    30.822 
 C                    -5.707     37.052    29.707 
 C                    -6.425     37.161    28.326 
 C                    -5.624     36.522    27.241 
 C                    -7.886     36.855    28.44 
 C                    -8.888     38.095    28.228 
 C                    -9.925     38.268    29.372 
 C                    -9.967     39.746    29.956 
 C                    -9.994     39.753    31.495 
 C                    -11.124    40.631    29.313 
 C                    -10.538    41.786    28.489 
 C                    -11.035    43.197    28.984 
 C                    -9.806     44.171    29.123 
 C                    -9.766     44.788    30.476 
 C                    -9.674     45.385    28.163 
 H                    -4.551     42.422    40.194 
 H                    -9.782     44.945    42.761 
 H                    -11.691    39.065    44.481 
 H                    -4.151     37.679    40.69 
 H                    -4.347     40.08     39.018 
 H                    -2.094     40.353    39.668 
 H                    -2.386     39.019    40.679 
 H                    -2.799     40.712    41.19 
 H                    -5.355     38.282    37.996 
 H                    -6.547     37.345    38.901 
 H                    -5.47      35.605    37.907 
 H                    -4.228     35.768    39.04 
 H                    -4.551     44.457    39.546 
 H                    -4.343     45.513    40.903 
 H                    -5.414     45.963    39.568 
 H                    -8.985     46.918    43.405 
 H                    -9.624     46.686    41.726 
 H                    -8.823     48.169    42.291 
 H                    -12.094    43.213    42.657 
 H                    -12.043    41.896    45.299 
 H                    -11.224    45.005    44.715 
 H                    -12.561    43.985    45.391 
 H                    -12.75     44.988    43.938 
 H                    -13.146    40.151    43.062 
 H                    -13.895    41.729    43.259 
 H                    -14.997    41.085    45.031 
 H                    -13.683    40.465    45.866 
 H                    -14.373    39.372    44.71 
 H                    -10.626    35.24     44.188 
 H                    -11.82     36.61     43.929 
 H                    -10.801    36.46     45.347 
 H                    -7.093     35.772    40.603 
 H                    -3.511     33.61     40.464 
 H                    -3.899     32.957    42.009 
 H                    -3.234     34.596    41.959 
 H                    -2.693     35.722    34.684 
 H                    -3.202     37.373    34.781 
 H                    -4.802     35.349    33.293 
 H                    -5.15      38.702    35.11 
 H                    -6.003     39.448    33.755 
 H                    -4.307     39.209    33.747 
 H                    -7.304     37.674    32.572 
 H                    -6.698     36.202    31.99 
 H                    -5.4       38.782    31.111 
 H                    -7.111     38.457    30.603 
 H                    -5.907     36.027    30.017 
 H                    -4.662     37.359    29.747 
 H                    -6.313     38.228    28.131 
 H                    -4.646     36.236    27.629 
 H                    -5.527     37.282    26.466 
 H                    -6.225     35.731    26.792 
 H                    -8.115     36.28     29.337 
 H                    -8.182     36.203    27.617 
 H                    -9.528     37.917    27.363 
 H                    -8.352     38.994    27.926 
 H                    -9.789     37.648    30.258 
 H                    -10.899    37.993    28.97 
 H                    -9.017     40.195    29.664 
 H                    -10.397    38.867    31.987 
 H                    -10.638    40.569    31.823 
 H                    -8.946     39.876    31.768 
 H                    -11.757    41.094    30.071 
 H                    -11.704    39.991    28.649 
 H                    -10.877    41.761    27.453 
 H                    -9.46      41.71     28.349 
 H                    -11.533    43.189    29.954 
 H                    -11.75     43.558    28.244 
 H                    -8.876     43.619    28.983 
 H                    -8.712     44.895    30.731 
 H                    -10.26     44.27     31.298 
 H                    -10.308    45.733    30.442 
 H                    -10.67     45.716    27.866 
 H                    -9.282     45.06     27.199 
 H                    -8.982     46.171    28.464 
 
 ITRead=  0  0  0  0  0  0  0  0  0  0  0  0  0  0  0  0  0  0  0  0
 ITRead=  0  0  0  0  0  0  0  0  0  0  0  0  0  0  0  0  0  0  0  0
 ITRead=  0  0  0  0  0  0  0  0  0  0  0  0  0  0  0  0  0  0  0  0
 ITRead=  0  0  0  0  0  0  0  0  0  0  0  0  0  0  0  0  0  0  0  0
 ITRead=  0  0  0  0  0  0  0  0  0  0  0  0  0  0  0  0  0  0  0  0
 ITRead=  0  0  0  0  0  0  0  0  0  0  0  0  0  0  0  0  0  0  0  0
 ITRead=  0  0  0  0  0  0  0  0  0  0  0  0  0  0  0  0  0  0  0  0
 MicOpt= -1 -1 -1 -1 -1 -1 -1 -1 -1 -1 -1 -1 -1 -1 -1 -1 -1 -1 -1 -1
 MicOpt= -1 -1 -1 -1 -1 -1 -1 -1 -1 -1 -1 -1 -1 -1 -1 -1 -1 -1 -1 -1
 MicOpt= -1 -1 -1 -1 -1 -1 -1 -1 -1 -1 -1 -1 -1 -1 -1 -1 -1 -1 -1 -1
 MicOpt= -1 -1 -1 -1 -1 -1 -1 -1 -1 -1 -1 -1 -1 -1 -1 -1 -1 -1 -1 -1
 MicOpt= -1 -1 -1 -1 -1 -1 -1 -1 -1 -1 -1 -1 -1 -1 -1 -1 -1 -1 -1 -1
 MicOpt= -1 -1 -1 -1 -1 -1 -1 -1 -1 -1 -1 -1 -1 -1 -1 -1 -1 -1 -1 -1
 MicOpt= -1 -1 -1 -1 -1 -1 -1 -1 -1 -1 -1 -1 -1 -1 -1 -1 -1 -1 -1 -1
 NAtoms=    140 NQM=      140 NQMF=       0 NMMI=      0 NMMIF=      0
                NMic=       0 NMicF=      0.
                    Isotopes and Nuclear Properties:
 (Nuclear quadrupole moments (NQMom) in fm**2, nuclear magnetic moments (NMagM)
  in nuclear magnetons)

  Atom         1           2           3           4           5           6           7           8           9          10
 IAtWgt=          24          12          12          12          12          14          12          12          12          12
 AtmWgt=  23.9850450  12.0000000  12.0000000  12.0000000  12.0000000  14.0030740  12.0000000  12.0000000  12.0000000  12.0000000
 NucSpn=           0           0           0           0           0           2           0           0           0           0
 AtZEff=  -0.0000000  -0.0000000  -0.0000000  -0.0000000  -0.0000000  -0.0000000  -0.0000000  -0.0000000  -0.0000000  -0.0000000
 NQMom=    0.0000000   0.0000000   0.0000000   0.0000000   0.0000000   2.0440000   0.0000000   0.0000000   0.0000000   0.0000000
 NMagM=    0.0000000   0.0000000   0.0000000   0.0000000   0.0000000   0.4037610   0.0000000   0.0000000   0.0000000   0.0000000
 AtZNuc=  12.0000000   6.0000000   6.0000000   6.0000000   6.0000000   7.0000000   6.0000000   6.0000000   6.0000000   6.0000000

  Atom        11          12          13          14          15          16          17          18          19          20
 IAtWgt=          12          12          12          12          16          16          14          12          12          12
 AtmWgt=  12.0000000  12.0000000  12.0000000  12.0000000  15.9949146  15.9949146  14.0030740  12.0000000  12.0000000  12.0000000
 NucSpn=           0           0           0           0           0           0           2           0           0           0
 AtZEff=  -0.0000000  -0.0000000  -0.0000000  -0.0000000  -0.0000000  -0.0000000  -0.0000000  -0.0000000  -0.0000000  -0.0000000
 NQMom=    0.0000000   0.0000000   0.0000000   0.0000000   0.0000000   0.0000000   2.0440000   0.0000000   0.0000000   0.0000000
 NMagM=    0.0000000   0.0000000   0.0000000   0.0000000   0.0000000   0.0000000   0.4037610   0.0000000   0.0000000   0.0000000
 AtZNuc=   6.0000000   6.0000000   6.0000000   6.0000000   8.0000000   8.0000000   7.0000000   6.0000000   6.0000000   6.0000000

  Atom        21          22          23          24          25          26          27          28          29          30
 IAtWgt=          12          12          12          16          12          14          12          12          12          12
 AtmWgt=  12.0000000  12.0000000  12.0000000  15.9949146  12.0000000  14.0030740  12.0000000  12.0000000  12.0000000  12.0000000
 NucSpn=           0           0           0           0           0           2           0           0           0           0
 AtZEff=  -0.0000000  -0.0000000  -0.0000000  -0.0000000  -0.0000000  -0.0000000  -0.0000000  -0.0000000  -0.0000000  -0.0000000
 NQMom=    0.0000000   0.0000000   0.0000000   0.0000000   0.0000000   2.0440000   0.0000000   0.0000000   0.0000000   0.0000000
 NMagM=    0.0000000   0.0000000   0.0000000   0.0000000   0.0000000   0.4037610   0.0000000   0.0000000   0.0000000   0.0000000
 AtZNuc=   6.0000000   6.0000000   6.0000000   8.0000000   6.0000000   7.0000000   6.0000000   6.0000000   6.0000000   6.0000000

  Atom        31          32          33          34          35          36          37          38          39          40
 IAtWgt=          12          12          12          14          12          12          12          12          12          12
 AtmWgt=  12.0000000  12.0000000  12.0000000  14.0030740  12.0000000  12.0000000  12.0000000  12.0000000  12.0000000  12.0000000
 NucSpn=           0           0           0           2           0           0           0           0           0           0
 AtZEff=  -0.0000000  -0.0000000  -0.0000000  -0.0000000  -0.0000000  -0.0000000  -0.0000000  -0.0000000  -0.0000000  -0.0000000
 NQMom=    0.0000000   0.0000000   0.0000000   2.0440000   0.0000000   0.0000000   0.0000000   0.0000000   0.0000000   0.0000000
 NMagM=    0.0000000   0.0000000   0.0000000   0.4037610   0.0000000   0.0000000   0.0000000   0.0000000   0.0000000   0.0000000
 AtZNuc=   6.0000000   6.0000000   6.0000000   7.0000000   6.0000000   6.0000000   6.0000000   6.0000000   6.0000000   6.0000000

  Atom        41          42          43          44          45          46          47          48          49          50
 IAtWgt=          16          12          12          16          16          12          12          12          12          12
 AtmWgt=  15.9949146  12.0000000  12.0000000  15.9949146  15.9949146  12.0000000  12.0000000  12.0000000  12.0000000  12.0000000
 NucSpn=           0           0           0           0           0           0           0           0           0           0
 AtZEff=  -0.0000000  -0.0000000  -0.0000000  -0.0000000  -0.0000000  -0.0000000  -0.0000000  -0.0000000  -0.0000000  -0.0000000
 NQMom=    0.0000000   0.0000000   0.0000000   0.0000000   0.0000000   0.0000000   0.0000000   0.0000000   0.0000000   0.0000000
 NMagM=    0.0000000   0.0000000   0.0000000   0.0000000   0.0000000   0.0000000   0.0000000   0.0000000   0.0000000   0.0000000
 AtZNuc=   8.0000000   6.0000000   6.0000000   8.0000000   8.0000000   6.0000000   6.0000000   6.0000000   6.0000000   6.0000000

  Atom        51          52          53          54          55          56          57          58          59          60
 IAtWgt=          12          12          12          12          12          12          12          12          12          12
 AtmWgt=  12.0000000  12.0000000  12.0000000  12.0000000  12.0000000  12.0000000  12.0000000  12.0000000  12.0000000  12.0000000
 NucSpn=           0           0           0           0           0           0           0           0           0           0
 AtZEff=  -0.0000000  -0.0000000  -0.0000000  -0.0000000  -0.0000000  -0.0000000  -0.0000000  -0.0000000  -0.0000000  -0.0000000
 NQMom=    0.0000000   0.0000000   0.0000000   0.0000000   0.0000000   0.0000000   0.0000000   0.0000000   0.0000000   0.0000000
 NMagM=    0.0000000   0.0000000   0.0000000   0.0000000   0.0000000   0.0000000   0.0000000   0.0000000   0.0000000   0.0000000
 AtZNuc=   6.0000000   6.0000000   6.0000000   6.0000000   6.0000000   6.0000000   6.0000000   6.0000000   6.0000000   6.0000000

  Atom        61          62          63          64          65          66          67          68          69          70
 IAtWgt=          12          12          12          12          12          12           1           1           1           1
 AtmWgt=  12.0000000  12.0000000  12.0000000  12.0000000  12.0000000  12.0000000   1.0078250   1.0078250   1.0078250   1.0078250
 NucSpn=           0           0           0           0           0           0           1           1           1           1
 AtZEff=  -0.0000000  -0.0000000  -0.0000000  -0.0000000  -0.0000000  -0.0000000  -0.0000000  -0.0000000  -0.0000000  -0.0000000
 NQMom=    0.0000000   0.0000000   0.0000000   0.0000000   0.0000000   0.0000000   0.0000000   0.0000000   0.0000000   0.0000000
 NMagM=    0.0000000   0.0000000   0.0000000   0.0000000   0.0000000   0.0000000   2.7928460   2.7928460   2.7928460   2.7928460
 AtZNuc=   6.0000000   6.0000000   6.0000000   6.0000000   6.0000000   6.0000000   1.0000000   1.0000000   1.0000000   1.0000000

  Atom        71          72          73          74          75          76          77          78          79          80
 IAtWgt=           1           1           1           1           1           1           1           1           1           1
 AtmWgt=   1.0078250   1.0078250   1.0078250   1.0078250   1.0078250   1.0078250   1.0078250   1.0078250   1.0078250   1.0078250
 NucSpn=           1           1           1           1           1           1           1           1           1           1
 AtZEff=  -0.0000000  -0.0000000  -0.0000000  -0.0000000  -0.0000000  -0.0000000  -0.0000000  -0.0000000  -0.0000000  -0.0000000
 NQMom=    0.0000000   0.0000000   0.0000000   0.0000000   0.0000000   0.0000000   0.0000000   0.0000000   0.0000000   0.0000000
 NMagM=    2.7928460   2.7928460   2.7928460   2.7928460   2.7928460   2.7928460   2.7928460   2.7928460   2.7928460   2.7928460
 AtZNuc=   1.0000000   1.0000000   1.0000000   1.0000000   1.0000000   1.0000000   1.0000000   1.0000000   1.0000000   1.0000000

  Atom        81          82          83          84          85          86          87          88          89          90
 IAtWgt=           1           1           1           1           1           1           1           1           1           1
 AtmWgt=   1.0078250   1.0078250   1.0078250   1.0078250   1.0078250   1.0078250   1.0078250   1.0078250   1.0078250   1.0078250
 NucSpn=           1           1           1           1           1           1           1           1           1           1
 AtZEff=  -0.0000000  -0.0000000  -0.0000000  -0.0000000  -0.0000000  -0.0000000  -0.0000000  -0.0000000  -0.0000000  -0.0000000
 NQMom=    0.0000000   0.0000000   0.0000000   0.0000000   0.0000000   0.0000000   0.0000000   0.0000000   0.0000000   0.0000000
 NMagM=    2.7928460   2.7928460   2.7928460   2.7928460   2.7928460   2.7928460   2.7928460   2.7928460   2.7928460   2.7928460
 AtZNuc=   1.0000000   1.0000000   1.0000000   1.0000000   1.0000000   1.0000000   1.0000000   1.0000000   1.0000000   1.0000000

  Atom        91          92          93          94          95          96          97          98          99         100
 IAtWgt=           1           1           1           1           1           1           1           1           1           1
 AtmWgt=   1.0078250   1.0078250   1.0078250   1.0078250   1.0078250   1.0078250   1.0078250   1.0078250   1.0078250   1.0078250
 NucSpn=           1           1           1           1           1           1           1           1           1           1
 AtZEff=  -0.0000000  -0.0000000  -0.0000000  -0.0000000  -0.0000000  -0.0000000  -0.0000000  -0.0000000  -0.0000000  -0.0000000
 NQMom=    0.0000000   0.0000000   0.0000000   0.0000000   0.0000000   0.0000000   0.0000000   0.0000000   0.0000000   0.0000000
 NMagM=    2.7928460   2.7928460   2.7928460   2.7928460   2.7928460   2.7928460   2.7928460   2.7928460   2.7928460   2.7928460
 AtZNuc=   1.0000000   1.0000000   1.0000000   1.0000000   1.0000000   1.0000000   1.0000000   1.0000000   1.0000000   1.0000000

  Atom       101         102         103         104         105         106         107         108         109         110
 IAtWgt=           1           1           1           1           1           1           1           1           1           1
 AtmWgt=   1.0078250   1.0078250   1.0078250   1.0078250   1.0078250   1.0078250   1.0078250   1.0078250   1.0078250   1.0078250
 NucSpn=           1           1           1           1           1           1           1           1           1           1
 AtZEff=  -0.0000000  -0.0000000  -0.0000000  -0.0000000  -0.0000000  -0.0000000  -0.0000000  -0.0000000  -0.0000000  -0.0000000
 NQMom=    0.0000000   0.0000000   0.0000000   0.0000000   0.0000000   0.0000000   0.0000000   0.0000000   0.0000000   0.0000000
 NMagM=    2.7928460   2.7928460   2.7928460   2.7928460   2.7928460   2.7928460   2.7928460   2.7928460   2.7928460   2.7928460
 AtZNuc=   1.0000000   1.0000000   1.0000000   1.0000000   1.0000000   1.0000000   1.0000000   1.0000000   1.0000000   1.0000000

  Atom       111         112         113         114         115         116         117         118         119         120
 IAtWgt=           1           1           1           1           1           1           1           1           1           1
 AtmWgt=   1.0078250   1.0078250   1.0078250   1.0078250   1.0078250   1.0078250   1.0078250   1.0078250   1.0078250   1.0078250
 NucSpn=           1           1           1           1           1           1           1           1           1           1
 AtZEff=  -0.0000000  -0.0000000  -0.0000000  -0.0000000  -0.0000000  -0.0000000  -0.0000000  -0.0000000  -0.0000000  -0.0000000
 NQMom=    0.0000000   0.0000000   0.0000000   0.0000000   0.0000000   0.0000000   0.0000000   0.0000000   0.0000000   0.0000000
 NMagM=    2.7928460   2.7928460   2.7928460   2.7928460   2.7928460   2.7928460   2.7928460   2.7928460   2.7928460   2.7928460
 AtZNuc=   1.0000000   1.0000000   1.0000000   1.0000000   1.0000000   1.0000000   1.0000000   1.0000000   1.0000000   1.0000000

  Atom       121         122         123         124         125         126         127         128         129         130
 IAtWgt=           1           1           1           1           1           1           1           1           1           1
 AtmWgt=   1.0078250   1.0078250   1.0078250   1.0078250   1.0078250   1.0078250   1.0078250   1.0078250   1.0078250   1.0078250
 NucSpn=           1           1           1           1           1           1           1           1           1           1
 AtZEff=  -0.0000000  -0.0000000  -0.0000000  -0.0000000  -0.0000000  -0.0000000  -0.0000000  -0.0000000  -0.0000000  -0.0000000
 NQMom=    0.0000000   0.0000000   0.0000000   0.0000000   0.0000000   0.0000000   0.0000000   0.0000000   0.0000000   0.0000000
 NMagM=    2.7928460   2.7928460   2.7928460   2.7928460   2.7928460   2.7928460   2.7928460   2.7928460   2.7928460   2.7928460
 AtZNuc=   1.0000000   1.0000000   1.0000000   1.0000000   1.0000000   1.0000000   1.0000000   1.0000000   1.0000000   1.0000000

  Atom       131         132         133         134         135         136         137         138         139         140
 IAtWgt=           1           1           1           1           1           1           1           1           1           1
 AtmWgt=   1.0078250   1.0078250   1.0078250   1.0078250   1.0078250   1.0078250   1.0078250   1.0078250   1.0078250   1.0078250
 NucSpn=           1           1           1           1           1           1           1           1           1           1
 AtZEff=  -0.0000000  -0.0000000  -0.0000000  -0.0000000  -0.0000000  -0.0000000  -0.0000000  -0.0000000  -0.0000000  -0.0000000
 NQMom=    0.0000000   0.0000000   0.0000000   0.0000000   0.0000000   0.0000000   0.0000000   0.0000000   0.0000000   0.0000000
 NMagM=    2.7928460   2.7928460   2.7928460   2.7928460   2.7928460   2.7928460   2.7928460   2.7928460   2.7928460   2.7928460
 AtZNuc=   1.0000000   1.0000000   1.0000000   1.0000000   1.0000000   1.0000000   1.0000000   1.0000000   1.0000000   1.0000000
 Leave Link  101 at Wed Apr 27 22:52:57 2022, MaxMem= 10066329600 cpu:               2.7 elap:               0.1
 (Enter /sw/apps/gaussian-16.0/g16/l202.exe)
 Stoichiometry    C55H74MgN4O6
 Framework group  C1[X(C55H74MgN4O6)]
 Deg. of freedom   414
 Full point group                 C1      NOp   1
 Largest Abelian subgroup         C1      NOp   1
 Largest concise Abelian subgroup C1      NOp   1
                         Standard orientation:                         
 ---------------------------------------------------------------------
 Center     Atomic      Atomic             Coordinates (Angstroms)
 Number     Number       Type             X           Y           Z
 ---------------------------------------------------------------------
      1         12           0       -4.587152    0.733054    0.320225
      2          6           0       -3.437010   -2.675656   -0.313728
      3          6           0       -2.677804    0.561468    3.099297
      4          6           0       -5.051146    3.971103    0.658648
      5          6           0       -6.139982    0.623199   -2.758566
      6          7           0       -3.375585   -1.065568    1.368475
      7          6           0       -2.934715   -2.192431    0.865278
      8          6           0       -1.850510   -2.835441    1.693681
      9          6           0       -1.753399   -1.837141    2.921194
     10          6           0       -2.678182   -0.694852    2.468466
     11          6           0       -2.015189   -2.383671    4.374756
     12          6           0       -0.488701   -2.968002    0.881901
     13          6           0        0.205517   -4.378673    0.859827
     14          6           0        1.322044   -4.526964    1.877308
     15          8           0        1.299024   -4.340491    3.092016
     16          8           0        2.498086   -4.872356    1.180261
     17          7           0       -4.128712    2.059004    1.768058
     18          6           0       -3.313323    1.779523    2.800126
     19          6           0       -3.136873    3.079185    3.593060
     20          6           0       -3.914303    4.102711    2.988143
     21          6           0       -4.398209    3.392836    1.776069
     22          6           0       -2.390527    3.224175    4.884588
     23          6           0       -4.106472    5.511561    3.477491
     24          8           0       -3.731733    5.804749    4.591036
     25          6           0       -4.904616    6.488680    2.597180
     26          7           0       -5.415844    2.101892   -0.880149
     27          6           0       -5.533210    3.410665   -0.561865
     28          6           0       -6.042549    4.235829   -1.763192
     29          6           0       -6.544918    3.146448   -2.753585
     30          6           0       -6.047295    1.869148   -2.077135
     31          6           0       -7.025297    5.450114   -1.534634
     32          6           0       -6.083884    3.174449   -4.205194
     33          6           0       -7.224491    2.990673   -5.246554
     34          7           0       -4.847943   -0.747020   -1.249058
     35          6           0       -5.580008   -0.598728   -2.429865
     36          6           0       -5.465199   -1.857801   -3.040683
     37          6           0       -4.586914   -2.695019   -2.301885
     38          6           0       -4.263230   -1.972253   -1.224480
     39          6           0       -6.078673   -2.126050   -4.346417
     40          6           0       -3.947202   -3.965529   -2.267199
     41          8           0       -4.086953   -4.879527   -3.039750
     42          6           0       -3.158372   -3.970562   -0.964992
     43          6           0       -3.575904   -5.222413   -0.278083
     44          8           0       -4.759222   -5.455216    0.134317
     45          8           0       -2.566914   -6.144702   -0.282055
     46          6           0       -2.645752   -7.279757    0.513407
     47          6           0        3.754486   -4.624377    1.877203
     48          6           0        4.779721   -4.000005    0.894314
     49          6           0        5.111658   -2.704220    0.804410
     50          6           0        4.265559   -1.677696    1.551074
     51          6           0        6.184613   -2.218594   -0.209981
     52          6           0        7.450894   -1.527291    0.386603
     53          6           0        8.665350   -2.471005    0.269419
     54          6           0        9.985717   -1.892405   -0.327589
     55          6           0       11.166416   -2.724579    0.047354
     56          6           0        9.806078   -1.469264   -1.752311
     57          6           0        9.854692    0.113663   -2.032539
     58          6           0        8.638177    0.647073   -2.838516
     59          6           0        7.935471    1.896509   -2.151188
     60          6           0        6.402225    1.760703   -2.147528
     61          6           0        8.431815    3.287832   -2.745481
     62          6           0        9.194897    4.096023   -1.686741
     63          6           0        8.557822    5.514427   -1.431360
     64          6           0        8.417501    5.759335    0.117436
     65          6           0        7.024291    6.141687    0.471936
     66          6           0        9.282875    6.850550    0.805329
     67          1           0       -2.128053    0.598658    4.041690
     68          1           0       -5.210513    5.049977    0.724675
     69          1           0       -6.566411    0.668940   -3.763659
     70          1           0       -2.214301   -3.776668    2.104901
     71          1           0       -0.756707   -1.421922    3.068952
     72          1           0       -1.285163   -2.330863    5.182621
     73          1           0       -2.201554   -3.454987    4.297458
     74          1           0       -2.872050   -1.832757    4.763015
     75          1           0        0.342189   -2.402153    1.301205
     76          1           0       -0.556745   -2.737631   -0.181100
     77          1           0        0.639340   -4.670939   -0.095857
     78          1           0       -0.423639   -5.239063    1.087415
     79          1           0       -1.647443    2.437320    5.016095
     80          1           0       -3.069564    3.121207    5.730041
     81          1           0       -1.844405    4.161792    4.989817
     82          1           0       -5.960606    6.322033    2.386573
     83          1           0       -4.311388    6.595527    1.689102
     84          1           0       -4.943148    7.446589    3.116227
     85          1           0       -5.111294    4.660811   -2.137962
     86          1           0       -7.630239    3.222737   -2.689426
     87          1           0       -7.248908    5.597802   -0.477787
     88          1           0       -7.922363    5.282636   -2.130685
     89          1           0       -6.569515    6.393659   -1.833416
     90          1           0       -5.332840    2.456558   -4.533533
     91          1           0       -5.702603    4.171446   -4.422505
     92          1           0       -7.482048    3.960866   -5.670847
     93          1           0       -8.180985    2.705803   -4.807989
     94          1           0       -6.985825    2.200807   -5.958491
     95          1           0       -5.900377   -3.146177   -4.686687
     96          1           0       -5.827431   -1.353068   -5.072766
     97          1           0       -7.162574   -2.115603   -4.231625
     98          1           0       -2.157084   -4.017651   -1.393418
     99          1           0       -1.621694   -7.607166    0.692974
    100          1           0       -3.130172   -8.145469    0.061545
    101          1           0       -3.171163   -7.031289    1.435578
    102          1           0        4.008930   -5.577621    2.340726
    103          1           0        3.747695   -3.904253    2.695530
    104          1           0        5.291554   -4.750383    0.293180
    105          1           0        3.192092   -1.844122    1.638955
    106          1           0        4.426853   -0.648207    1.232378
    107          1           0        4.559591   -1.669770    2.600732
    108          1           0        5.665749   -1.450680   -0.782650
    109          1           0        6.401070   -2.965810   -0.973511
    110          1           0        7.148307   -1.251992    1.396786
    111          1           0        7.573413   -0.662819   -0.265552
    112          1           0        8.427134   -3.299462   -0.396641
    113          1           0        8.665828   -2.709089    1.332993
    114          1           0       10.100671   -0.996677    0.283571
    115          1           0       10.864330   -3.482308    0.770829
    116          1           0       11.882167   -2.030831    0.487863
    117          1           0       11.639447   -3.080254   -0.868190
    118          1           0        8.945837   -1.950706   -2.216936
    119          1           0       10.658936   -1.812570   -2.339527
    120          1           0       10.689726    0.352784   -2.692121
    121          1           0       10.116010    0.670228   -1.133290
    122          1           0        7.815215   -0.047679   -3.005685
    123          1           0        8.999655    0.915392   -3.830102
    124          1           0        8.248868    1.861182   -1.107206
    125          1           0        5.959122    1.132507   -2.921154
    126          1           0        5.970094    2.747944   -2.311216
    127          1           0        6.185931    1.337380   -1.166723
    128          1           0        7.601055    3.918892   -3.063636
    129          1           0        9.107864    3.075306   -3.572939
    130          1           0       10.206437    4.341208   -2.011569
    131          1           0        9.407363    3.526436   -0.782369
    132          1           0        7.562525    5.648888   -1.855945
    133          1           0        9.220395    6.246697   -1.893879
    134          1           0        8.659125    4.845965    0.662025
    135          1           0        6.827566    5.703352    1.449970
    136          1           0        6.217580    5.844667   -0.198169
    137          1           0        6.948226    7.228815    0.454287
    138          1           0        9.489687    7.646978    0.089287
    139          1           0       10.292448    6.476164    0.976156
    140          1           0        8.963140    7.173080    1.795786
 ---------------------------------------------------------------------
 Rotational constants (GHZ):           0.0291694           0.0146324           0.0119772
 Leave Link  202 at Wed Apr 27 22:52:57 2022, MaxMem= 10066329600 cpu:               0.2 elap:               0.0
 (Enter /sw/apps/gaussian-16.0/g16/l301.exe)
 Standard basis: def2SVP (5D, 7F)
 Ernie: Thresh=  0.10000D-02 Tol=  0.10000D-05 Strict=F.
 There are  1364 symmetry adapted cartesian basis functions of A   symmetry.
 There are  1298 symmetry adapted basis functions of A   symmetry.
  1298 basis functions,  2180 primitive gaussians,  1364 cartesian basis functions
   246 alpha electrons      246 beta electrons
       nuclear repulsion energy      9742.2806452704 Hartrees.
 IExCor=20419 DFT=T Ex+Corr=CAM-B3LYP ExCW=0 ScaHFX=  1.000000
 ScaDFX=  1.000000  1.000000  1.000000  0.810000 ScalE2=  1.000000  1.000000
 IRadAn=      5 IRanWt=     -1 IRanGd=            0 ICorTp=0 IEmpDi=  4
 HFx  wShort=  0.000000 wLong=  0.330000 cFull=  0.190000 cShort=  0.000000 cLong=  0.460000
 DFx  wShort=  0.000000 wLong=  0.330000 cFull=  0.190000 cShort=  0.000000 cLong=  0.460000
 NAtoms=  140 NActive=  140 NUniq=  140 SFac= 1.00D+00 NAtFMM=   60 NAOKFM=T Big=T
 Integral buffers will be    131072 words long.
 Raffenetti 1 integral format.
 Two-electron integral symmetry is turned on.
 Leave Link  301 at Wed Apr 27 22:52:58 2022, MaxMem= 10066329600 cpu:               1.4 elap:               0.1
 (Enter /sw/apps/gaussian-16.0/g16/l302.exe)
 NPDir=0 NMtPBC=     1 NCelOv=     1 NCel=       1 NClECP=     1 NCelD=      1
         NCelK=      1 NCelE2=     1 NClLst=     1 CellRange=     0.0.
 One-electron integrals computed using PRISM.
 One-electron integral symmetry used in STVInt
   1 Symmetry operations used in ECPInt.
 ECPInt:  NShTT=  192510 NPrTT=  683786 LenC2=   98462 LenP2D=  212168.
 LDataN:  DoStor=T MaxTD1= 4 Len=   56
 NBasis=  1298 RedAO= T EigKep=  2.46D-04  NBF=  1298
 NBsUse=  1298 1.00D-06 EigRej= -1.00D+00 NBFU=  1298
 Precomputing XC quadrature grid using
 IXCGrd= 4 IRadAn=           5 IRanWt=          -1 IRanGd=           0 AccXCQ= 0.00D+00.
 Generated NRdTot=       0 NPtTot=           0 NUsed=           0 NTot=          32
 NSgBfM=  1047  1047  1047  1047  1047 MxSgAt=   140 MxSgA2=   140.
 Leave Link  302 at Wed Apr 27 22:53:02 2022, MaxMem= 10066329600 cpu:              96.9 elap:               4.1
 (Enter /sw/apps/gaussian-16.0/g16/l303.exe)
 DipDrv:  MaxL=1.
 Leave Link  303 at Wed Apr 27 22:53:02 2022, MaxMem= 10066329600 cpu:               6.7 elap:               0.3
 (Enter /sw/apps/gaussian-16.0/g16/l308.exe)
 Leave Link  308 at Wed Apr 27 22:53:03 2022, MaxMem= 10066329600 cpu:              12.4 elap:               0.6
 (Enter /sw/apps/gaussian-16.0/g16/l401.exe)
 ExpMin= 3.36D-02 ExpMax= 4.95D+03 ExpMxC= 7.45D+02 IAcc=3 IRadAn=         5 AccDes= 0.00D+00
 Harris functional with IExCor=20419 and IRadAn=       5 diagonalized for initial guess.
 HarFok:  IExCor=20419 AccDes= 0.00D+00 IRadAn=         5 IDoV= 1 UseB2=F ITyADJ=14
 ICtDFT=  3500011 ScaDFX=  1.000000  1.000000  1.000000  1.000000
 FoFCou: FMM=F IPFlag=           0 FMFlag=      100000 FMFlg1=        2001
         NFxFlg=           0 DoJE=T BraDBF=F KetDBF=T FulRan=T
         wScrn=  0.000000 ICntrl=       500 IOpCl=  0 I1Cent=   200000004 NGrid=           0
         NMat0=    1 NMatS0=      1 NMatT0=    0 NMatD0=    1 NMtDS0=    0 NMtDT0=    0
 Petite list used in FoFCou.
 Harris En= -2890.80309123410    
 JPrj=0 DoOrth=F DoCkMO=F.
 Leave Link  401 at Wed Apr 27 22:53:10 2022, MaxMem= 10066329600 cpu:             169.2 elap:               7.1
 (Enter /sw/apps/gaussian-16.0/g16/l502.exe)
 Integral symmetry usage will be decided dynamically.
 Closed shell SCF:
 Using DIIS extrapolation, IDIIS=  1040.
 NGot= 10066329600 LenX= 10062561258 LenY= 10060699398
 Requested convergence on RMS density matrix=1.00D-08 within 128 cycles.
 Requested convergence on MAX density matrix=1.00D-06.
 Requested convergence on             energy=1.00D-06.
 No special actions if energy rises.
 Fock matrices will be formed incrementally for  20 cycles.

 Cycle   1  Pass 1  IDiag  1:
 FoFJK:  IHMeth= 1 ICntrl=       0 DoSepK=T KAlg= 0 I1Cent=           0 FoldK=F
 IRaf=         1 NMat=       1 IRICut=       1 DoRegI=T DoRafI=F ISym2E= 0 IDoP0=0 IntGTp=1.
 FoFCou: FMM=T IPFlag=           0 FMFlag=      100000 FMFlg1=        2001
         NFxFlg=           0 DoJE=T BraDBF=F KetDBF=F FulRan=T
         wScrn=  0.000000 ICntrl=       500 IOpCl=  0 I1Cent=           0 NGrid=           0
         NMat0=    1 NMatS0=      1 NMatT0=    0 NMatD0=    1 NMtDS0=    0 NMtDT0=    0
 Symmetry not used in FoFCou.
 FMM levels:  10  Number of levels for PrismC:   9
 E= -3006.45174034546    
 DIIS: error= 2.19D-02 at cycle   1 NSaved=   1.
 NSaved= 1 IEnMin= 1 EnMin= -3006.45174034546     IErMin= 1 ErrMin= 2.19D-02
 ErrMax= 2.19D-02  0.00D+00 EMaxC= 1.00D-01 BMatC= 1.26D+00 BMatP= 1.26D+00
 IDIUse=3 WtCom= 7.81D-01 WtEn= 2.19D-01
 Coeff-Com:  0.100D+01
 Coeff-En:   0.100D+01
 Coeff:      0.100D+01
 Gap=     0.110 Goal=   None    Shift=    0.000
 GapD=    0.110 DampG=1.000 DampE=0.500 DampFc=0.5000 IDamp=-1.
 Damping current iteration by 5.00D-01
 RMSDP=1.65D-03 MaxDP=1.77D-01              OVMax= 3.20D-01

 Cycle   2  Pass 1  IDiag  1:
 RMSU=  8.07D-04    CP:  9.82D-01
 E= -3006.75319644554     Delta-E=       -0.301456100076 Rises=F Damp=T
 DIIS: error= 1.08D-02 at cycle   2 NSaved=   2.
 NSaved= 2 IEnMin= 2 EnMin= -3006.75319644554     IErMin= 2 ErrMin= 1.08D-02
 ErrMax= 1.08D-02  0.00D+00 EMaxC= 1.00D-01 BMatC= 2.34D-01 BMatP= 1.26D+00
 IDIUse=3 WtCom= 8.92D-01 WtEn= 1.08D-01
 Coeff-Com: -0.216D+00 0.122D+01
 Coeff-En:   0.000D+00 0.100D+01
 Coeff:     -0.193D+00 0.119D+01
 Gap=     0.186 Goal=   None    Shift=    0.000
 RMSDP=8.16D-04 MaxDP=8.06D-02 DE=-3.01D-01 OVMax= 3.78D-01

 Cycle   3  Pass 1  IDiag  1:
 RMSU=  8.06D-04    CP:  9.71D-01  1.09D+00
 E= -3006.95270321785     Delta-E=       -0.199506772309 Rises=F Damp=F
 DIIS: error= 1.54D-02 at cycle   3 NSaved=   3.
 NSaved= 3 IEnMin= 3 EnMin= -3006.95270321785     IErMin= 2 ErrMin= 1.08D-02
 ErrMax= 1.54D-02  0.00D+00 EMaxC= 1.00D-01 BMatC= 1.69D-01 BMatP= 2.34D-01
 IDIUse=3 WtCom= 8.46D-01 WtEn= 1.54D-01
 Coeff-Com: -0.271D+00 0.674D+00 0.598D+00
 Coeff-En:   0.000D+00 0.000D+00 0.100D+01
 Coeff:     -0.230D+00 0.570D+00 0.660D+00
 Gap=     0.121 Goal=   None    Shift=    0.000
 RMSDP=6.55D-04 MaxDP=6.19D-02 DE=-2.00D-01 OVMax= 3.22D-01

 Cycle   4  Pass 1  IDiag  1:
 RMSU=  3.30D-04    CP:  9.66D-01  1.51D+00  4.44D-01
 E= -3007.06894153591     Delta-E=       -0.116238318056 Rises=F Damp=F
 DIIS: error= 6.73D-03 at cycle   4 NSaved=   4.
 NSaved= 4 IEnMin= 4 EnMin= -3007.06894153591     IErMin= 4 ErrMin= 6.73D-03
 ErrMax= 6.73D-03  0.00D+00 EMaxC= 1.00D-01 BMatC= 4.91D-02 BMatP= 1.69D-01
 IDIUse=3 WtCom= 9.33D-01 WtEn= 6.73D-02
 Coeff-Com: -0.114D+00 0.237D+00 0.413D+00 0.464D+00
 Coeff-En:   0.000D+00 0.000D+00 0.269D+00 0.731D+00
 Coeff:     -0.107D+00 0.221D+00 0.404D+00 0.482D+00
 Gap=     0.125 Goal=   None    Shift=    0.000
 RMSDP=2.78D-04 MaxDP=2.25D-02 DE=-1.16D-01 OVMax= 1.50D-01

 Cycle   5  Pass 1  IDiag  1:
 RMSU=  9.94D-05    CP:  9.66D-01  1.41D+00  6.75D-01  5.18D-01
 E= -3007.12098287719     Delta-E=       -0.052041341280 Rises=F Damp=F
 DIIS: error= 6.60D-04 at cycle   5 NSaved=   5.
 NSaved= 5 IEnMin= 5 EnMin= -3007.12098287719     IErMin= 5 ErrMin= 6.60D-04
 ErrMax= 6.60D-04  0.00D+00 EMaxC= 1.00D-01 BMatC= 1.57D-03 BMatP= 4.91D-02
 IDIUse=3 WtCom= 9.93D-01 WtEn= 6.60D-03
 Coeff-Com: -0.423D-01 0.828D-01 0.183D+00 0.259D+00 0.517D+00
 Coeff-En:   0.000D+00 0.000D+00 0.000D+00 0.000D+00 0.100D+01
 Coeff:     -0.420D-01 0.823D-01 0.182D+00 0.257D+00 0.520D+00
 Gap=     0.124 Goal=   None    Shift=    0.000
 RMSDP=6.09D-05 MaxDP=9.57D-03 DE=-5.20D-02 OVMax= 3.06D-02

 Cycle   6  Pass 1  IDiag  1:
 RMSU=  4.06D-05    CP:  9.66D-01  1.42D+00  6.58D-01  6.08D-01  7.06D-01
 E= -3007.12257092049     Delta-E=       -0.001588043307 Rises=F Damp=F
 DIIS: error= 2.79D-04 at cycle   6 NSaved=   6.
 NSaved= 6 IEnMin= 6 EnMin= -3007.12257092049     IErMin= 6 ErrMin= 2.79D-04
 ErrMax= 2.79D-04  0.00D+00 EMaxC= 1.00D-01 BMatC= 1.96D-04 BMatP= 1.57D-03
 IDIUse=3 WtCom= 9.97D-01 WtEn= 2.79D-03
 Coeff-Com:  0.631D-02-0.147D-01-0.627D-02 0.165D-01 0.272D+00 0.726D+00
 Coeff-En:   0.000D+00 0.000D+00 0.000D+00 0.000D+00 0.815D-01 0.918D+00
 Coeff:      0.629D-02-0.147D-01-0.626D-02 0.164D-01 0.272D+00 0.726D+00
 Gap=     0.127 Goal=   None    Shift=    0.000
 RMSDP=2.10D-05 MaxDP=1.66D-03 DE=-1.59D-03 OVMax= 1.22D-02

 Cycle   7  Pass 1  IDiag  1:
 RMSU=  1.40D-05    CP:  9.66D-01  1.42D+00  6.66D-01  6.05D-01  8.29D-01
                    CP:  8.21D-01
 E= -3007.12280980554     Delta-E=       -0.000238885044 Rises=F Damp=F
 DIIS: error= 1.56D-04 at cycle   7 NSaved=   7.
 NSaved= 7 IEnMin= 7 EnMin= -3007.12280980554     IErMin= 7 ErrMin= 1.56D-04
 ErrMax= 1.56D-04  0.00D+00 EMaxC= 1.00D-01 BMatC= 2.52D-05 BMatP= 1.96D-04
 IDIUse=3 WtCom= 9.98D-01 WtEn= 1.56D-03
 Coeff-Com:  0.593D-02-0.126D-01-0.154D-01-0.113D-01 0.927D-01 0.373D+00
 Coeff-Com:  0.568D+00
 Coeff-En:   0.000D+00 0.000D+00 0.000D+00 0.000D+00 0.000D+00 0.000D+00
 Coeff-En:   0.100D+01
 Coeff:      0.592D-02-0.126D-01-0.154D-01-0.112D-01 0.926D-01 0.372D+00
 Coeff:      0.568D+00
 Gap=     0.127 Goal=   None    Shift=    0.000
 RMSDP=6.81D-06 MaxDP=1.25D-03 DE=-2.39D-04 OVMax= 1.82D-03

 Cycle   8  Pass 1  IDiag  1:
 RMSU=  5.30D-06    CP:  9.66D-01  1.42D+00  6.66D-01  6.10D-01  8.36D-01
                    CP:  9.03D-01  8.92D-01
 E= -3007.12283806851     Delta-E=       -0.000028262972 Rises=F Damp=F
 DIIS: error= 4.94D-05 at cycle   8 NSaved=   8.
 NSaved= 8 IEnMin= 8 EnMin= -3007.12283806851     IErMin= 8 ErrMin= 4.94D-05
 ErrMax= 4.94D-05  0.00D+00 EMaxC= 1.00D-01 BMatC= 3.18D-06 BMatP= 2.52D-05
 IDIUse=1 WtCom= 1.00D+00 WtEn= 0.00D+00
 Coeff-Com:  0.200D-02-0.385D-02-0.720D-02-0.102D-01-0.122D-01 0.449D-01
 Coeff-Com:  0.270D+00 0.717D+00
 Coeff:      0.200D-02-0.385D-02-0.720D-02-0.102D-01-0.122D-01 0.449D-01
 Coeff:      0.270D+00 0.717D+00
 Gap=     0.128 Goal=   None    Shift=    0.000
 RMSDP=3.32D-06 MaxDP=3.08D-04 DE=-2.83D-05 OVMax= 1.73D-03

 Cycle   9  Pass 1  IDiag  1:
 RMSU=  2.10D-06    CP:  9.66D-01  1.42D+00  6.67D-01  6.10D-01  8.47D-01
                    CP:  9.32D-01  1.03D+00  1.03D+00
 E= -3007.12284364169     Delta-E=       -0.000005573178 Rises=F Damp=F
 DIIS: error= 2.18D-05 at cycle   9 NSaved=   9.
 NSaved= 9 IEnMin= 9 EnMin= -3007.12284364169     IErMin= 9 ErrMin= 2.18D-05
 ErrMax= 2.18D-05  0.00D+00 EMaxC= 1.00D-01 BMatC= 6.00D-07 BMatP= 3.18D-06
 IDIUse=1 WtCom= 1.00D+00 WtEn= 0.00D+00
 Coeff-Com:  0.597D-04 0.549D-04-0.122D-02-0.341D-02-0.243D-01-0.379D-01
 Coeff-Com:  0.392D-01 0.346D+00 0.681D+00
 Coeff:      0.597D-04 0.549D-04-0.122D-02-0.341D-02-0.243D-01-0.379D-01
 Coeff:      0.392D-01 0.346D+00 0.681D+00
 Gap=     0.128 Goal=   None    Shift=    0.000
 RMSDP=1.63D-06 MaxDP=2.51D-04 DE=-5.57D-06 OVMax= 8.27D-04

 Cycle  10  Pass 1  IDiag  1:
 RMSU=  9.79D-07    CP:  9.66D-01  1.42D+00  6.67D-01  6.11D-01  8.50D-01
                    CP:  9.46D-01  1.08D+00  1.17D+00  1.08D+00
 E= -3007.12284493643     Delta-E=       -0.000001294744 Rises=F Damp=F
 DIIS: error= 1.62D-05 at cycle  10 NSaved=  10.
 NSaved=10 IEnMin=10 EnMin= -3007.12284493643     IErMin=10 ErrMin= 1.62D-05
 ErrMax= 1.62D-05  0.00D+00 EMaxC= 1.00D-01 BMatC= 1.30D-07 BMatP= 6.00D-07
 IDIUse=1 WtCom= 1.00D+00 WtEn= 0.00D+00
 Coeff-Com: -0.463D-03 0.968D-03 0.114D-02 0.104D-02-0.102D-01-0.274D-01
 Coeff-Com: -0.519D-01-0.190D-02 0.306D+00 0.783D+00
 Coeff:     -0.463D-03 0.968D-03 0.114D-02 0.104D-02-0.102D-01-0.274D-01
 Coeff:     -0.519D-01-0.190D-02 0.306D+00 0.783D+00
 Gap=     0.128 Goal=   None    Shift=    0.000
 RMSDP=1.00D-06 MaxDP=6.19D-05 DE=-1.29D-06 OVMax= 5.54D-04

 Cycle  11  Pass 1  IDiag  1:
 RMSU=  6.13D-07    CP:  9.66D-01  1.42D+00  6.67D-01  6.11D-01  8.51D-01
                    CP:  9.52D-01  1.11D+00  1.23D+00  1.30D+00  1.26D+00
 E= -3007.12284538338     Delta-E=       -0.000000446944 Rises=F Damp=F
 DIIS: error= 6.21D-06 at cycle  11 NSaved=  11.
 NSaved=11 IEnMin=11 EnMin= -3007.12284538338     IErMin=11 ErrMin= 6.21D-06
 ErrMax= 6.21D-06  0.00D+00 EMaxC= 1.00D-01 BMatC= 4.61D-08 BMatP= 1.30D-07
 IDIUse=1 WtCom= 1.00D+00 WtEn= 0.00D+00
 Coeff-Com: -0.242D-03 0.474D-03 0.747D-03 0.126D-02-0.119D-02-0.464D-02
 Coeff-Com: -0.345D-01-0.565D-01 0.152D-01 0.391D+00 0.689D+00
 Coeff:     -0.242D-03 0.474D-03 0.747D-03 0.126D-02-0.119D-02-0.464D-02
 Coeff:     -0.345D-01-0.565D-01 0.152D-01 0.391D+00 0.689D+00
 Gap=     0.128 Goal=   None    Shift=    0.000
 RMSDP=5.32D-07 MaxDP=4.14D-05 DE=-4.47D-07 OVMax= 3.47D-04

 Cycle  12  Pass 1  IDiag  1:
 RMSU=  2.67D-07    CP:  9.66D-01  1.42D+00  6.67D-01  6.11D-01  8.51D-01
                    CP:  9.53D-01  1.12D+00  1.26D+00  1.40D+00  1.58D+00
                    CP:  1.23D+00
 E= -3007.12284553345     Delta-E=       -0.000000150079 Rises=F Damp=F
 DIIS: error= 3.45D-06 at cycle  12 NSaved=  12.
 NSaved=12 IEnMin=12 EnMin= -3007.12284553345     IErMin=12 ErrMin= 3.45D-06
 ErrMax= 3.45D-06  0.00D+00 EMaxC= 1.00D-01 BMatC= 1.59D-08 BMatP= 4.61D-08
 IDIUse=1 WtCom= 1.00D+00 WtEn= 0.00D+00
 Coeff-Com:  0.326D-04-0.778D-04-0.790D-04 0.303D-03 0.190D-02 0.761D-02
 Coeff-Com: -0.144D-02-0.180D-01-0.854D-01-0.903D-01 0.259D+00 0.926D+00
 Coeff:      0.326D-04-0.778D-04-0.790D-04 0.303D-03 0.190D-02 0.761D-02
 Coeff:     -0.144D-02-0.180D-01-0.854D-01-0.903D-01 0.259D+00 0.926D+00
 Gap=     0.128 Goal=   None    Shift=    0.000
 RMSDP=4.89D-07 MaxDP=5.69D-05 DE=-1.50D-07 OVMax= 2.88D-04

 Cycle  13  Pass 1  IDiag  1:
 RMSU=  1.72D-07    CP:  9.66D-01  1.42D+00  6.67D-01  6.11D-01  8.51D-01
                    CP:  9.53D-01  1.12D+00  1.28D+00  1.49D+00  1.84D+00
                    CP:  1.71D+00  1.48D+00
 E= -3007.12284561782     Delta-E=       -0.000000084363 Rises=F Damp=F
 DIIS: error= 1.82D-06 at cycle  13 NSaved=  13.
 NSaved=13 IEnMin=13 EnMin= -3007.12284561782     IErMin=13 ErrMin= 1.82D-06
 ErrMax= 1.82D-06  0.00D+00 EMaxC= 1.00D-01 BMatC= 5.88D-09 BMatP= 1.59D-08
 IDIUse=1 WtCom= 1.00D+00 WtEn= 0.00D+00
 Coeff-Com:  0.122D-03-0.246D-03-0.412D-03-0.368D-03 0.925D-03 0.648D-02
 Coeff-Com:  0.130D-01 0.207D-01-0.431D-01-0.230D+00-0.181D+00 0.486D+00
 Coeff-Com:  0.928D+00
 Coeff:      0.122D-03-0.246D-03-0.412D-03-0.368D-03 0.925D-03 0.648D-02
 Coeff:      0.130D-01 0.207D-01-0.431D-01-0.230D+00-0.181D+00 0.486D+00
 Coeff:      0.928D+00
 Gap=     0.128 Goal=   None    Shift=    0.000
 RMSDP=3.99D-07 MaxDP=2.24D-05 DE=-8.44D-08 OVMax= 2.65D-04

 Cycle  14  Pass 1  IDiag  1:
 RMSU=  9.19D-08    CP:  9.66D-01  1.42D+00  6.67D-01  6.11D-01  8.51D-01
                    CP:  9.53D-01  1.13D+00  1.28D+00  1.55D+00  2.05D+00
                    CP:  2.08D+00  2.14D+00  1.34D+00
 E= -3007.12284565250     Delta-E=       -0.000000034679 Rises=F Damp=F
 DIIS: error= 8.37D-07 at cycle  14 NSaved=  14.
 NSaved=14 IEnMin=14 EnMin= -3007.12284565250     IErMin=14 ErrMin= 8.37D-07
 ErrMax= 8.37D-07  0.00D+00 EMaxC= 1.00D-01 BMatC= 1.43D-09 BMatP= 5.88D-09
 IDIUse=1 WtCom= 1.00D+00 WtEn= 0.00D+00
 Coeff-Com:  0.593D-04-0.116D-03-0.222D-03-0.287D-03-0.257D-03 0.143D-02
 Coeff-Com:  0.649D-02 0.171D-01 0.377D-02-0.960D-01-0.169D+00-0.167D-01
 Coeff-Com:  0.483D+00 0.770D+00
 Coeff:      0.593D-04-0.116D-03-0.222D-03-0.287D-03-0.257D-03 0.143D-02
 Coeff:      0.649D-02 0.171D-01 0.377D-02-0.960D-01-0.169D+00-0.167D-01
 Coeff:      0.483D+00 0.770D+00
 Gap=     0.128 Goal=   None    Shift=    0.000
 RMSDP=1.81D-07 MaxDP=1.88D-05 DE=-3.47D-08 OVMax= 1.06D-04

 Cycle  15  Pass 1  IDiag  1:
 RMSU=  4.00D-08    CP:  9.66D-01  1.42D+00  6.67D-01  6.11D-01  8.51D-01
                    CP:  9.52D-01  1.13D+00  1.28D+00  1.58D+00  2.13D+00
                    CP:  2.27D+00  2.41D+00  1.70D+00  1.09D+00
 E= -3007.12284565853     Delta-E=       -0.000000006035 Rises=F Damp=F
 DIIS: error= 3.06D-07 at cycle  15 NSaved=  15.
 NSaved=15 IEnMin=15 EnMin= -3007.12284565853     IErMin=15 ErrMin= 3.06D-07
 ErrMax= 3.06D-07  0.00D+00 EMaxC= 1.00D-01 BMatC= 1.79D-10 BMatP= 1.43D-09
 IDIUse=1 WtCom= 1.00D+00 WtEn= 0.00D+00
 Coeff-Com: -0.224D-05 0.637D-05-0.720D-05-0.383D-04-0.419D-03-0.837D-03
 Coeff-Com: -0.652D-03 0.243D-02 0.110D-01 0.988D-02-0.294D-01-0.110D+00
 Coeff-Com:  0.252D-02 0.312D+00 0.803D+00
 Coeff:     -0.224D-05 0.637D-05-0.720D-05-0.383D-04-0.419D-03-0.837D-03
 Coeff:     -0.652D-03 0.243D-02 0.110D-01 0.988D-02-0.294D-01-0.110D+00
 Coeff:      0.252D-02 0.312D+00 0.803D+00
 Gap=     0.128 Goal=   None    Shift=    0.000
 RMSDP=5.81D-08 MaxDP=3.77D-06 DE=-6.04D-09 OVMax= 3.84D-05

 Cycle  16  Pass 1  IDiag  1:
 RMSU=  1.77D-08    CP:  9.66D-01  1.42D+00  6.67D-01  6.11D-01  8.51D-01
                    CP:  9.53D-01  1.13D+00  1.28D+00  1.58D+00  2.16D+00
                    CP:  2.32D+00  2.50D+00  1.80D+00  1.27D+00  9.96D-01
 E= -3007.12284565943     Delta-E=       -0.000000000895 Rises=F Damp=F
 DIIS: error= 1.03D-07 at cycle  16 NSaved=  16.
 NSaved=16 IEnMin=16 EnMin= -3007.12284565943     IErMin=16 ErrMin= 1.03D-07
 ErrMax= 1.03D-07  0.00D+00 EMaxC= 1.00D-01 BMatC= 4.72D-11 BMatP= 1.79D-10
 IDIUse=1 WtCom= 1.00D+00 WtEn= 0.00D+00
 Coeff-Com: -0.985D-05 0.203D-04 0.272D-04 0.193D-04-0.215D-03-0.664D-03
 Coeff-Com: -0.135D-02-0.116D-02 0.557D-02 0.193D-01 0.883D-02-0.584D-01
 Coeff-Com: -0.704D-01 0.512D-01 0.454D+00 0.593D+00
 Coeff:     -0.985D-05 0.203D-04 0.272D-04 0.193D-04-0.215D-03-0.664D-03
 Coeff:     -0.135D-02-0.116D-02 0.557D-02 0.193D-01 0.883D-02-0.584D-01
 Coeff:     -0.704D-01 0.512D-01 0.454D+00 0.593D+00
 Gap=     0.128 Goal=   None    Shift=    0.000
 RMSDP=1.67D-08 MaxDP=1.26D-06 DE=-8.95D-10 OVMax= 7.88D-06

 Cycle  17  Pass 1  IDiag  1:
 RMSU=  7.40D-09    CP:  9.66D-01  1.42D+00  6.67D-01  6.11D-01  8.51D-01
                    CP:  9.53D-01  1.13D+00  1.28D+00  1.58D+00  2.16D+00
                    CP:  2.33D+00  2.53D+00  1.84D+00  1.30D+00  1.13D+00
                    CP:  8.62D-01
 E= -3007.12284565933     Delta-E=        0.000000000100 Rises=F Damp=F
 DIIS: error= 5.49D-08 at cycle  17 NSaved=  17.
 NSaved=17 IEnMin=16 EnMin= -3007.12284565943     IErMin=17 ErrMin= 5.49D-08
 ErrMax= 5.49D-08  0.00D+00 EMaxC= 1.00D-01 BMatC= 4.39D-12 BMatP= 4.72D-11
 IDIUse=1 WtCom= 1.00D+00 WtEn= 0.00D+00
 Coeff-Com: -0.407D-05 0.811D-05 0.133D-04 0.147D-04-0.320D-04-0.147D-03
 Coeff-Com: -0.487D-03-0.861D-03 0.874D-03 0.742D-02 0.892D-02-0.104D-01
 Coeff-Com: -0.327D-01-0.301D-01 0.853D-01 0.252D+00 0.721D+00
 Coeff:     -0.407D-05 0.811D-05 0.133D-04 0.147D-04-0.320D-04-0.147D-03
 Coeff:     -0.487D-03-0.861D-03 0.874D-03 0.742D-02 0.892D-02-0.104D-01
 Coeff:     -0.327D-01-0.301D-01 0.853D-01 0.252D+00 0.721D+00
 Gap=     0.128 Goal=   None    Shift=    0.000
 RMSDP=5.35D-09 MaxDP=8.90D-07 DE= 1.00D-10 OVMax= 2.59D-06

 SCF Done:  E(RCAM-B3LYP) =  -3007.12284566     A.U. after   17 cycles
            NFock= 17  Conv=0.53D-08     -V/T= 2.0105
 KE= 2.976009403066D+03 PE=-2.647591609729D+04 EE= 1.075050320330D+04
 Leave Link  502 at Wed Apr 27 23:02:14 2022, MaxMem= 10066329600 cpu:           12689.5 elap:             544.0
 (Enter /sw/apps/gaussian-16.0/g16/l801.exe)
 DoSCS=F DFT=T ScalE2(SS,OS)=  1.000000  1.000000
 ExpMin= 3.36D-02 ExpMax= 4.95D+03 ExpMxC= 7.45D+02 IAcc=3 IRadAn=         5 AccDes= 0.00D+00
 HarFok:  IExCor=  205 AccDes= 0.00D+00 IRadAn=         5 IDoV=-2 UseB2=F ITyADJ=14
 ICtDFT= 12500011 ScaDFX=  1.000000  1.000000  1.000000  1.000000
 GSVD:  LWork=       -5460 too small for GESVD, short by       25550 words or       25550 for optimal perf.
 Largest valence mixing into a core orbital is  1.68D-04
 Largest core mixing into a valence orbital is  5.35D-05
 Range of M.O.s used for correlation:    71  1298
 NBasis=  1298 NAE=   246 NBE=   246 NFC=    70 NFV=     0
 NROrb=   1228 NOA=   176 NOB=   176 NVA=  1052 NVB=  1052
 Leave Link  801 at Wed Apr 27 23:02:14 2022, MaxMem= 10066329600 cpu:               6.9 elap:               0.3
 (Enter /sw/apps/gaussian-16.0/g16/l914.exe)
 RHF ground state
 Two-electron integrals replicated using symmetry.
 MDV= 10066329600 DFT=T DoStab=F Mixed=T DoRPA=T DoScal=F NonHer=T
 Making orbital integer symmetry assigments:
 Orbital symmetries:
       Occupied  (A) (A) (A) (A) (A) (A) (A) (A) (A) (A) (A) (A)
                 (A) (A) (A) (A) (A) (A) (A) (A) (A) (A) (A) (A)
                 (A) (A) (A) (A) (A) (A) (A) (A) (A) (A) (A) (A)
                 (A) (A) (A) (A) (A) (A) (A) (A) (A) (A) (A) (A)
                 (A) (A) (A) (A) (A) (A) (A) (A) (A) (A) (A) (A)
                 (A) (A) (A) (A) (A) (A) (A) (A) (A) (A) (A) (A)
                 (A) (A) (A) (A) (A) (A) (A) (A) (A) (A) (A) (A)
                 (A) (A) (A) (A) (A) (A) (A) (A) (A) (A) (A) (A)
                 (A) (A) (A) (A) (A) (A) (A) (A) (A) (A) (A) (A)
                 (A) (A) (A) (A) (A) (A) (A) (A) (A) (A) (A) (A)
                 (A) (A) (A) (A) (A) (A) (A) (A) (A) (A) (A) (A)
                 (A) (A) (A) (A) (A) (A) (A) (A) (A) (A) (A) (A)
                 (A) (A) (A) (A) (A) (A) (A) (A) (A) (A) (A) (A)
                 (A) (A) (A) (A) (A) (A) (A) (A) (A) (A) (A) (A)
                 (A) (A) (A) (A) (A) (A) (A) (A) (A) (A) (A) (A)
                 (A) (A) (A) (A) (A) (A) (A) (A) (A) (A) (A) (A)
                 (A) (A) (A) (A) (A) (A) (A) (A) (A) (A) (A) (A)
                 (A) (A) (A) (A) (A) (A) (A) (A) (A) (A) (A) (A)
                 (A) (A) (A) (A) (A) (A) (A) (A) (A) (A) (A) (A)
                 (A) (A) (A) (A) (A) (A) (A) (A) (A) (A) (A) (A)
                 (A) (A) (A) (A) (A) (A)
       Virtual   (A) (A) (A) (A) (A) (A) (A) (A) (A) (A) (A) (A)
                 (A) (A) (A) (A) (A) (A) (A) (A) (A) (A) (A) (A)
                 (A) (A) (A) (A) (A) (A) (A) (A) (A) (A) (A) (A)
                 (A) (A) (A) (A) (A) (A) (A) (A) (A) (A) (A) (A)
                 (A) (A) (A) (A) (A) (A) (A) (A) (A) (A) (A) (A)
                 (A) (A) (A) (A) (A) (A) (A) (A) (A) (A) (A) (A)
                 (A) (A) (A) (A) (A) (A) (A) (A) (A) (A) (A) (A)
                 (A) (A) (A) (A) (A) (A) (A) (A) (A) (A) (A) (A)
                 (A) (A) (A) (A) (A) (A) (A) (A) (A) (A) (A) (A)
                 (A) (A) (A) (A) (A) (A) (A) (A) (A) (A) (A) (A)
                 (A) (A) (A) (A) (A) (A) (A) (A) (A) (A) (A) (A)
                 (A) (A) (A) (A) (A) (A) (A) (A) (A) (A) (A) (A)
                 (A) (A) (A) (A) (A) (A) (A) (A) (A) (A) (A) (A)
                 (A) (A) (A) (A) (A) (A) (A) (A) (A) (A) (A) (A)
                 (A) (A) (A) (A) (A) (A) (A) (A) (A) (A) (A) (A)
                 (A) (A) (A) (A) (A) (A) (A) (A) (A) (A) (A) (A)
                 (A) (A) (A) (A) (A) (A) (A) (A) (A) (A) (A) (A)
                 (A) (A) (A) (A) (A) (A) (A) (A) (A) (A) (A) (A)
                 (A) (A) (A) (A) (A) (A) (A) (A) (A) (A) (A) (A)
                 (A) (A) (A) (A) (A) (A) (A) (A) (A) (A) (A) (A)
                 (A) (A) (A) (A) (A) (A) (A) (A) (A) (A) (A) (A)
                 (A) (A) (A) (A) (A) (A) (A) (A) (A) (A) (A) (A)
                 (A) (A) (A) (A) (A) (A) (A) (A) (A) (A) (A) (A)
                 (A) (A) (A) (A) (A) (A) (A) (A) (A) (A) (A) (A)
                 (A) (A) (A) (A) (A) (A) (A) (A) (A) (A) (A) (A)
                 (A) (A) (A) (A) (A) (A) (A) (A) (A) (A) (A) (A)
                 (A) (A) (A) (A) (A) (A) (A) (A) (A) (A) (A) (A)
                 (A) (A) (A) (A) (A) (A) (A) (A) (A) (A) (A) (A)
                 (A) (A) (A) (A) (A) (A) (A) (A) (A) (A) (A) (A)
                 (A) (A) (A) (A) (A) (A) (A) (A) (A) (A) (A) (A)
                 (A) (A) (A) (A) (A) (A) (A) (A) (A) (A) (A) (A)
                 (A) (A) (A) (A) (A) (A) (A) (A) (A) (A) (A) (A)
                 (A) (A) (A) (A) (A) (A) (A) (A) (A) (A) (A) (A)
                 (A) (A) (A) (A) (A) (A) (A) (A) (A) (A) (A) (A)
                 (A) (A) (A) (A) (A) (A) (A) (A) (A) (A) (A) (A)
                 (A) (A) (A) (A) (A) (A) (A) (A) (A) (A) (A) (A)
                 (A) (A) (A) (A) (A) (A) (A) (A) (A) (A) (A) (A)
                 (A) (A) (A) (A) (A) (A) (A) (A) (A) (A) (A) (A)
                 (A) (A) (A) (A) (A) (A) (A) (A) (A) (A) (A) (A)
                 (A) (A) (A) (A) (A) (A) (A) (A) (A) (A) (A) (A)
                 (A) (A) (A) (A) (A) (A) (A) (A) (A) (A) (A) (A)
                 (A) (A) (A) (A) (A) (A) (A) (A) (A) (A) (A) (A)
                 (A) (A) (A) (A) (A) (A) (A) (A) (A) (A) (A) (A)
                 (A) (A) (A) (A) (A) (A) (A) (A) (A) (A) (A) (A)
                 (A) (A) (A) (A) (A) (A) (A) (A) (A) (A) (A) (A)
                 (A) (A) (A) (A) (A) (A) (A) (A) (A) (A) (A) (A)
                 (A) (A) (A) (A) (A) (A) (A) (A) (A) (A) (A) (A)
                 (A) (A) (A) (A) (A) (A) (A) (A) (A) (A) (A) (A)
                 (A) (A) (A) (A) (A) (A) (A) (A) (A) (A) (A) (A)
                 (A) (A) (A) (A) (A) (A) (A) (A) (A) (A) (A) (A)
                 (A) (A) (A) (A) (A) (A) (A) (A) (A) (A) (A) (A)
                 (A) (A) (A) (A) (A) (A) (A) (A) (A) (A) (A) (A)
                 (A) (A) (A) (A) (A) (A) (A) (A) (A) (A) (A) (A)
                 (A) (A) (A) (A) (A) (A) (A) (A) (A) (A) (A) (A)
                 (A) (A) (A) (A) (A) (A) (A) (A) (A) (A) (A) (A)
                 (A) (A) (A) (A) (A) (A) (A) (A) (A) (A) (A) (A)
                 (A) (A) (A) (A) (A) (A) (A) (A) (A) (A) (A) (A)
                 (A) (A) (A) (A) (A) (A) (A) (A) (A) (A) (A) (A)
                 (A) (A) (A) (A) (A) (A) (A) (A) (A) (A) (A) (A)
                 (A) (A) (A) (A) (A) (A) (A) (A) (A) (A) (A) (A)
                 (A) (A) (A) (A) (A) (A) (A) (A) (A) (A) (A) (A)
                 (A) (A) (A) (A) (A) (A) (A) (A) (A) (A) (A) (A)
                 (A) (A) (A) (A) (A) (A) (A) (A) (A) (A) (A) (A)
                 (A) (A) (A) (A) (A) (A) (A) (A) (A) (A) (A) (A)
                 (A) (A) (A) (A) (A) (A) (A) (A) (A) (A) (A) (A)
                 (A) (A) (A) (A) (A) (A) (A) (A) (A) (A) (A) (A)
                 (A) (A) (A) (A) (A) (A) (A) (A) (A) (A) (A) (A)
                 (A) (A) (A) (A) (A) (A) (A) (A) (A) (A) (A) (A)
                 (A) (A) (A) (A) (A) (A) (A) (A) (A) (A) (A) (A)
                 (A) (A) (A) (A) (A) (A) (A) (A) (A) (A) (A) (A)
                 (A) (A) (A) (A) (A) (A) (A) (A) (A) (A) (A) (A)
                 (A) (A) (A) (A) (A) (A) (A) (A) (A) (A) (A) (A)
                 (A) (A) (A) (A) (A) (A) (A) (A) (A) (A) (A) (A)
                 (A) (A) (A) (A) (A) (A) (A) (A) (A) (A) (A) (A)
                 (A) (A) (A) (A) (A) (A) (A) (A) (A) (A) (A) (A)
                 (A) (A) (A) (A) (A) (A) (A) (A) (A) (A) (A) (A)
                 (A) (A) (A) (A) (A) (A) (A) (A) (A) (A) (A) (A)
                 (A) (A) (A) (A) (A) (A) (A) (A) (A) (A) (A) (A)
                 (A) (A) (A) (A) (A) (A) (A) (A) (A) (A) (A) (A)
                 (A) (A) (A) (A) (A) (A) (A) (A) (A) (A) (A) (A)
                 (A) (A) (A) (A) (A) (A) (A) (A) (A) (A) (A) (A)
                 (A) (A) (A) (A) (A) (A) (A) (A) (A) (A) (A) (A)
                 (A) (A) (A) (A) (A) (A) (A) (A) (A) (A) (A) (A)
                 (A) (A) (A) (A) (A) (A) (A) (A) (A) (A) (A) (A)
                 (A) (A) (A) (A) (A) (A) (A) (A) (A) (A) (A) (A)
                 (A) (A) (A) (A) (A) (A) (A) (A) (A) (A) (A) (A)
                 (A) (A) (A) (A) (A) (A) (A) (A) (A) (A) (A) (A)
                 (A) (A) (A) (A) (A) (A) (A) (A)
    20 initial guesses have been made.
 Convergence on wavefunction:    0.001000000000000
 Davidson Disk Diagonalization:  ConvIn= 1.00D-03 SkipCon=T Conv= 1.00D-03.
 Max sub-space:  2000 roots to seek:    20 dimension of matrix:       370304
 Iteration     1 Dimension    20 NMult     0 NNew     20
 CISAX will form    20 AO SS matrices at one time.
 NMat=    20 NSing=    20 JSym2X= 0.
 FoFJK:  IHMeth= 1 ICntrl=       0 DoSepK=T KAlg= 0 I1Cent=           0 FoldK=F
 IRaf=         1 NMat=      40 IRICut=       1 DoRegI=T DoRafI=F ISym2E= 0 IDoP0=3 IntGTp=3.
 FoFCou: FMM=T IPFlag=           0 FMFlag=      100000 FMFlg1=        2001
         NFxFlg=           0 DoJE=F BraDBF=F KetDBF=F FulRan=T
         wScrn=  0.000000 ICntrl=       500 IOpCl=  0 I1Cent=           0 NGrid=           0
         NMat0=   20 NMatS0=     20 NMatT0=    0 NMatD0=   20 NMtDS0=    0 NMtDT0=    0
 Symmetry not used in FoFCou.
 FMM levels:  10  Number of levels for PrismC:   9
 New state      3 was old state      4
 New state      4 was old state      6
 New state      5 was old state      3
 Excitation Energies [eV] at current iteration:
 Root      1 :     2.256761402663960
 Root      2 :     2.675187086175703
 Root      3 :     3.469035258689667
 Root      4 :     4.059810437973657
 Root      5 :     4.103034974433645
 Root      6 :     4.287463439658050
 Root      7 :     4.417458463993869
 Root      8 :     4.484286348999211
 Root      9 :     4.570807172829407
 Root     10 :     4.634601470403735
 Root     11 :     4.754246616405202
 Root     12 :     4.810754716422990
 Root     13 :     4.876130786135666
 Root     14 :     5.042799572344209
 Root     15 :     5.076913963458730
 Root     16 :     5.159630366597125
 Root     17 :     5.316845548341965
 Root     18 :     5.486941647167552
 Root     19 :     5.772636015759632
 Root     20 :     6.328803992839938
 Iteration     2 Dimension    30 NMult    20 NNew     10
 CISAX will form    10 AO SS matrices at one time.
 NMat=    10 NSing=    10 JSym2X= 0.
 Root      1 not converged, maximum delta is    0.070975072030554
 Root      2 not converged, maximum delta is    0.065157316330165
 Root      3 not converged, maximum delta is    0.062657023163850
 Root      4 not converged, maximum delta is    0.462319402963798
 Root      5 not converged, maximum delta is    0.292880076201907
 Excitation Energies [eV] at current iteration:
 Root      1 :     1.810227906188684   Change is   -0.446533496475276
 Root      2 :     2.299797723651015   Change is   -0.375389362524688
 Root      3 :     3.164727339796563   Change is   -0.304307918893104
 Root      4 :     3.601925420798811   Change is   -0.457885017174846
 Root      5 :     3.753799176732982   Change is   -0.349235797700663
 Iteration     3 Dimension    40 NMult    30 NNew     10
 CISAX will form    10 AO SS matrices at one time.
 NMat=    10 NSing=    10 JSym2X= 0.
 Root      1 not converged, maximum delta is    0.016366173880649
 Root      2 not converged, maximum delta is    0.007522783024383
 Root      3 not converged, maximum delta is    0.005150524806054
 Root      4 not converged, maximum delta is    0.082967743883473
 Root      5 not converged, maximum delta is    0.101130650421750
 Excitation Energies [eV] at current iteration:
 Root      1 :     1.778214252318936   Change is   -0.032013653869749
 Root      2 :     2.281791981669533   Change is   -0.018005741981482
 Root      3 :     3.150819778483306   Change is   -0.013907561313257
 Root      4 :     3.517793276666874   Change is   -0.084132144131937
 Root      5 :     3.656433635480245   Change is   -0.097365541252737
 Iteration     4 Dimension    50 NMult    40 NNew     10
 CISAX will form    10 AO SS matrices at one time.
 NMat=    10 NSing=    10 JSym2X= 0.
 Root      1 not converged, maximum delta is    0.001814719699652
 Root      2 not converged, maximum delta is    0.003298164749459
 Root      3 not converged, maximum delta is    0.006637029913124
 Root      4 not converged, maximum delta is    0.017292396619145
 Root      5 not converged, maximum delta is    0.033088842652138
 Excitation Energies [eV] at current iteration:
 Root      1 :     1.775010002299233   Change is   -0.003204250019703
 Root      2 :     2.278859087830139   Change is   -0.002932893839395
 Root      3 :     3.147717774316491   Change is   -0.003102004166814
 Root      4 :     3.505789721966052   Change is   -0.012003554700822
 Root      5 :     3.638586103221422   Change is   -0.017847532258823
 Iteration     5 Dimension    60 NMult    50 NNew     10
 CISAX will form    10 AO SS matrices at one time.
 NMat=    10 NSing=    10 JSym2X= 0.
 Root      1 not converged, maximum delta is    0.001151121482854
 Root      2 has converged.
 Root      3 not converged, maximum delta is    0.001820468033834
 Root      4 not converged, maximum delta is    0.003642207432306
 Root      5 not converged, maximum delta is    0.010625812049653
 Excitation Energies [eV] at current iteration:
 Root      1 :     1.774714606522453   Change is   -0.000295395776780
 Root      2 :     2.278642399932841   Change is   -0.000216687897298
 Root      3 :     3.147395396950120   Change is   -0.000322377366371
 Root      4 :     3.504172846927155   Change is   -0.001616875038898
 Root      5 :     3.635905157907429   Change is   -0.002680945313993
 Iteration     6 Dimension    68 NMult    60 NNew      8
 CISAX will form     8 AO SS matrices at one time.
 NMat=     8 NSing=     8 JSym2X= 0.
 Root      1 has converged.
 Root      2 has converged.
 Root      3 has converged.
 Root      4 not converged, maximum delta is    0.001279880771384
 Root      5 not converged, maximum delta is    0.003304744097209
 Excitation Energies [eV] at current iteration:
 Root      1 :     1.774687355757272   Change is   -0.000027250765181
 Root      2 :     2.278639965399565   Change is   -0.000002434533276
 Root      3 :     3.147363974501823   Change is   -0.000031422448297
 Root      4 :     3.504016212781452   Change is   -0.000156634145702
 Root      5 :     3.635471936048542   Change is   -0.000433221858887
 Iteration     7 Dimension    72 NMult    68 NNew      4
 CISAX will form     4 AO SS matrices at one time.
 NMat=     4 NSing=     4 JSym2X= 0.
 Root      1 has converged.
 Root      2 has converged.
 Root      3 has converged.
 Root      4 has converged.
 Root      5 not converged, maximum delta is    0.002208468374283
 Excitation Energies [eV] at current iteration:
 Root      1 :     1.774687286296637   Change is   -0.000000069460636
 Root      2 :     2.278639394279090   Change is   -0.000000571120475
 Root      3 :     3.147363286391838   Change is   -0.000000688109986
 Root      4 :     3.503988748125384   Change is   -0.000027464656068
 Root      5 :     3.635395767102855   Change is   -0.000076168945688
 Iteration     8 Dimension    74 NMult    72 NNew      2
 CISAX will form     2 AO SS matrices at one time.
 NMat=     2 NSing=     2 JSym2X= 0.
 Root      1 has converged.
 Root      2 has converged.
 Root      3 has converged.
 Root      4 has converged.
 Root      5 has converged.
 Excitation Energies [eV] at current iteration:
 Root      1 :     1.774687237793205   Change is   -0.000000048503431
 Root      2 :     2.278638986933965   Change is   -0.000000407345125
 Root      3 :     3.147363213994181   Change is   -0.000000072397656
 Root      4 :     3.503988199280959   Change is   -0.000000548844426
 Root      5 :     3.635380928378456   Change is   -0.000014838724399
 Convergence achieved on expansion vectors.
 ***********************************************************************
 Excited states from <AA,BB:AA,BB> singles matrix:
 ***********************************************************************
 
 1PDM for each excited state written to RWF  633
 Ground to excited state transition densities written to RWF  633
 Ground to excited state transition electric dipole moments (Au):
       state          X           Y           Z        Dip. S.      Osc.
         1        -0.5437     -1.8772     -2.0923      8.1971      0.3564
         2        -0.6339      0.8741     -0.5245      1.4410      0.0804
         3         0.0656     -0.0928     -0.0182      0.0132      0.0010
         4        -1.4625      2.3980     -1.0541      9.0004      0.7727
         5         0.2288     -0.3033      0.1772      0.1758      0.0157
 Ground to excited state transition velocity dipole moments (Au):
       state          X           Y           Z        Dip. S.      Osc.
         1         0.0335      0.1191      0.1320      0.0327      0.3346
         2         0.0504     -0.0690      0.0407      0.0090      0.0713
         3        -0.0091      0.0110     -0.0016      0.0002      0.0012
         4         0.1829     -0.3011      0.1285      0.1406      0.7280
         5        -0.0263      0.0404     -0.0245      0.0029      0.0146
 Ground to excited state transition magnetic dipole moments (Au):
       state          X           Y           Z
         1        -0.0484      1.1071     -0.9955
         2         0.7429      0.5771      0.1675
         3         0.4943      0.2237     -0.3992
         4         0.0638      1.0508      2.6978
         5        -0.0339     -0.7601     -0.7743
 Ground to excited state transition velocity quadrupole moments (Au):
       state          XX          YY          ZZ          XY          XZ          YZ
         1        -0.5927      0.2491      0.1473     -0.9388     -1.1135      0.2346
         2        -0.7224     -0.0411     -0.1065      0.5460     -0.3916     -0.0643
         3         0.2127     -0.3427      0.2416      0.0928      0.1643      0.0999
         4        -2.4717     -0.3411      0.0992      2.6894     -1.0979      0.4355
         5         0.3402      0.1568     -0.0887     -0.4367      0.1745     -0.1688
 <0|del|b> * <b|rxdel|0> + <0|del|b> * <b|delr+rdel|0>
 Rotatory Strengths (R) in cgs (10**-40 erg-esu-cm/Gauss)
       state          XX          YY          ZZ    R(velocity)    E-M Angle
         1        49.1107     -6.7306    -55.5741     -4.3980       90.26
         2      -159.6990     79.4446    117.7998     12.5151       87.18
         3         3.4848    -14.1196      2.0645     -2.8568       98.34
         4       123.6467    253.7368   -147.7414     76.5474       87.79
         5       -21.2680     36.0590    -72.0236    -19.0775      100.61
 1/2[<0|r|b>*<b|rxdel|0> + (<0|rxdel|b>*<b|r|0>)*]
 Rotatory Strengths (R) in cgs (10**-40 erg-esu-cm/Gauss)
       state          XX          YY          ZZ     R(length)
         1       -18.6249   1469.6078  -1472.9732     -7.3301
         2       333.0432   -356.7575     62.1473     12.8110
         3       -22.9390     14.6755     -5.1515     -4.4717
         4        65.9701  -1781.9616   2011.0174     98.3420
         5         5.4850   -163.0496     97.0332    -20.1772
  1/2[<0|del|b>*<b|r|0> + (<0|r|b>*<b|del|0>)*] (Au)
       state          X           Y           Z        Dip. S.   Osc.(frdel)
         1        -0.0182     -0.2235     -0.2762      0.5180      0.3453
         2        -0.0320     -0.0603     -0.0213      0.1136      0.0757
         3        -0.0006     -0.0010      0.0000      0.0016      0.0011
         4        -0.2675     -0.7220     -0.1354      1.1249      0.7500
         5        -0.0060     -0.0123     -0.0044      0.0226      0.0151

 Excitation energies and oscillator strengths:
 
 Excited State   1:      Singlet-A      1.7747 eV  698.63 nm  f=0.3564  <S**2>=0.000
     245 -> 248        0.18221
     246 -> 247        0.68283
     245 <- 248        0.10391
 This state for optimization and/or second-order correction.
 Total Energy, E(TD-HF/TD-DFT) =  -3007.05762710    
 Copying the excited state density for this state as the 1-particle RhoCI density.
 
 Excited State   2:      Singlet-A      2.2786 eV  544.12 nm  f=0.0804  <S**2>=0.000
     245 -> 247        0.61926
     246 -> 248       -0.32031
 
 Excited State   3:      Singlet-A      3.1474 eV  393.93 nm  f=0.0010  <S**2>=0.000
     244 -> 247        0.68106
     246 -> 248        0.12112
 
 Excited State   4:      Singlet-A      3.5040 eV  353.84 nm  f=0.7727  <S**2>=0.000
     245 -> 247        0.32253
     246 -> 248        0.60401
     245 <- 247       -0.10647
 
 Excited State   5:      Singlet-A      3.6354 eV  341.05 nm  f=0.0157  <S**2>=0.000
     243 -> 247        0.59435
     243 -> 249       -0.19615
     243 -> 250       -0.24815
 SavETr:  write IOETrn=   770 NScale= 10 NData=  16 NLR=1 NState=    5 LETran=     100.
 Leave Link  914 at Wed Apr 27 23:22:05 2022, MaxMem= 10066329600 cpu:           28367.6 elap:            1191.3
 (Enter /sw/apps/gaussian-16.0/g16/l601.exe)
 Copying SCF densities to generalized density rwf, IOpCl= 0 IROHF=0.
 Hyperfine terms turned off by default for NAtoms > 100.

 **********************************************************************

            Population analysis using the SCF density.

 **********************************************************************

 Orbital symmetries:
       Occupied  (A) (A) (A) (A) (A) (A) (A) (A) (A) (A) (A) (A)
                 (A) (A) (A) (A) (A) (A) (A) (A) (A) (A) (A) (A)
                 (A) (A) (A) (A) (A) (A) (A) (A) (A) (A) (A) (A)
                 (A) (A) (A) (A) (A) (A) (A) (A) (A) (A) (A) (A)
                 (A) (A) (A) (A) (A) (A) (A) (A) (A) (A) (A) (A)
                 (A) (A) (A) (A) (A) (A) (A) (A) (A) (A) (A) (A)
                 (A) (A) (A) (A) (A) (A) (A) (A) (A) (A) (A) (A)
                 (A) (A) (A) (A) (A) (A) (A) (A) (A) (A) (A) (A)
                 (A) (A) (A) (A) (A) (A) (A) (A) (A) (A) (A) (A)
                 (A) (A) (A) (A) (A) (A) (A) (A) (A) (A) (A) (A)
                 (A) (A) (A) (A) (A) (A) (A) (A) (A) (A) (A) (A)
                 (A) (A) (A) (A) (A) (A) (A) (A) (A) (A) (A) (A)
                 (A) (A) (A) (A) (A) (A) (A) (A) (A) (A) (A) (A)
                 (A) (A) (A) (A) (A) (A) (A) (A) (A) (A) (A) (A)
                 (A) (A) (A) (A) (A) (A) (A) (A) (A) (A) (A) (A)
                 (A) (A) (A) (A) (A) (A) (A) (A) (A) (A) (A) (A)
                 (A) (A) (A) (A) (A) (A) (A) (A) (A) (A) (A) (A)
                 (A) (A) (A) (A) (A) (A) (A) (A) (A) (A) (A) (A)
                 (A) (A) (A) (A) (A) (A) (A) (A) (A) (A) (A) (A)
                 (A) (A) (A) (A) (A) (A) (A) (A) (A) (A) (A) (A)
                 (A) (A) (A) (A) (A) (A)
       Virtual   (A) (A) (A) (A) (A) (A) (A) (A) (A) (A) (A) (A)
                 (A) (A) (A) (A) (A) (A) (A) (A) (A) (A) (A) (A)
                 (A) (A) (A) (A) (A) (A) (A) (A) (A) (A) (A) (A)
                 (A) (A) (A) (A) (A) (A) (A) (A) (A) (A) (A) (A)
[...]
 Alpha virt. eigenvalues --    1.22121   1.22708   1.23044   1.23097   1.23993
 Alpha virt. eigenvalues --    1.24627   1.24664   1.26064   1.26118   1.26123
 Alpha virt. eigenvalues --    1.26622   1.26840   1.27248   1.27649   1.27794
 Alpha virt. eigenvalues --    1.28255   1.29776   1.30542   1.31050   1.31844
 Alpha virt. eigenvalues --    1.32341   1.32594   1.33165   1.33531   1.33667
 Alpha virt. eigenvalues --    1.33955   1.34483   1.35034   1.35344   1.35687
 Alpha virt. eigenvalues --    1.36339   1.36535   1.37122   1.37835   1.38054
 Alpha virt. eigenvalues --    1.38540   1.38855   1.39523   1.39626   1.40155
 Alpha virt. eigenvalues --    1.40439   1.40701   1.41263   1.41552   1.41737
 Alpha virt. eigenvalues --    1.42090   1.42561   1.42794   1.43443   1.43565
 Alpha virt. eigenvalues --    1.43801   1.44087   1.44553   1.45092   1.45477
 Alpha virt. eigenvalues --    1.45801   1.46423   1.46505   1.46634   1.48173
 Alpha virt. eigenvalues --    1.48341   1.48438   1.48746   1.49135   1.49814
 Alpha virt. eigenvalues --    1.49978   1.50541   1.50723   1.51095   1.51566
 Alpha virt. eigenvalues --    1.52127   1.52887   1.53248   1.53453   1.54470
 Alpha virt. eigenvalues --    1.54677   1.54807   1.55445   1.55725   1.56363
 Alpha virt. eigenvalues --    1.56501   1.57603   1.57645   1.57834   1.58625
 Alpha virt. eigenvalues --    1.58872   1.58949   1.59086   1.59331   1.59789
 Alpha virt. eigenvalues --    1.60154   1.60296   1.60572   1.60825   1.60956
 Alpha virt. eigenvalues --    1.61173   1.61475   1.61599   1.61734   1.61982
 Alpha virt. eigenvalues --    1.62109   1.62423   1.62537   1.62739   1.62788
 Alpha virt. eigenvalues --    1.63292   1.63559   1.63743   1.63957   1.64280
 Alpha virt. eigenvalues --    1.64637   1.65194   1.65365   1.65554   1.66658
 Alpha virt. eigenvalues --    1.66999   1.67501   1.67916   1.68058   1.68214
 Alpha virt. eigenvalues --    1.68985   1.69190   1.69604   1.69842   1.70683
 Alpha virt. eigenvalues --    1.71601   1.71983   1.72314   1.72345   1.72580
 Alpha virt. eigenvalues --    1.73272   1.73794   1.74312   1.74699   1.74904
 Alpha virt. eigenvalues --    1.75579   1.76020   1.76281   1.76376   1.76841
 Alpha virt. eigenvalues --    1.77095   1.77467   1.77904   1.78128   1.79045
 Alpha virt. eigenvalues --    1.79086   1.79339   1.79604   1.79942   1.80171
 Alpha virt. eigenvalues --    1.80307   1.80639   1.80682   1.80783   1.81076
 Alpha virt. eigenvalues --    1.81213   1.81343   1.81950   1.82274   1.82429
 Alpha virt. eigenvalues --    1.82544   1.82576   1.83243   1.83545   1.83800
 Alpha virt. eigenvalues --    1.84018   1.84205   1.84467   1.84645   1.84756
 Alpha virt. eigenvalues --    1.85029   1.85597   1.85693   1.85740   1.86070
 Alpha virt. eigenvalues --    1.86093   1.86196   1.86781   1.86791   1.87094
 Alpha virt. eigenvalues --    1.87123   1.87222   1.87417   1.87487   1.87933
 Alpha virt. eigenvalues --    1.87966   1.88110   1.88481   1.88645   1.88728
 Alpha virt. eigenvalues --    1.89161   1.89281   1.89364   1.89497   1.89767
 Alpha virt. eigenvalues --    1.89890   1.90006   1.90164   1.90224   1.90490
 Alpha virt. eigenvalues --    1.90674   1.90876   1.91066   1.91264   1.92012
 Alpha virt. eigenvalues --    1.92133   1.92215   1.92709   1.92812   1.92950
 Alpha virt. eigenvalues --    1.93087   1.93203   1.93330   1.93525   1.93957
 Alpha virt. eigenvalues --    1.94458   1.94626   1.94812   1.95023   1.95156
 Alpha virt. eigenvalues --    1.95278   1.95457   1.95675   1.96256   1.96418
 Alpha virt. eigenvalues --    1.96469   1.96977   1.97249   1.97428   1.97574
 Alpha virt. eigenvalues --    1.97681   1.97792   1.98261   1.98616   1.99073
 Alpha virt. eigenvalues --    1.99142   1.99409   1.99473   1.99572   1.99921
 Alpha virt. eigenvalues --    2.00046   2.00301   2.00544   2.00851   2.01056
 Alpha virt. eigenvalues --    2.01473   2.01889   2.02519   2.02887   2.02967
 Alpha virt. eigenvalues --    2.03011   2.03271   2.03640   2.03966   2.04430
 Alpha virt. eigenvalues --    2.04576   2.05286   2.05627   2.05774   2.06028
 Alpha virt. eigenvalues --    2.06190   2.06727   2.07159   2.07332   2.07644
 Alpha virt. eigenvalues --    2.07988   2.08143   2.08471   2.08998   2.09087
 Alpha virt. eigenvalues --    2.09510   2.09608   2.10026   2.10382   2.10660
 Alpha virt. eigenvalues --    2.10859   2.11093   2.11165   2.11514   2.11570
 Alpha virt. eigenvalues --    2.11719   2.12426   2.12584   2.13001   2.13484
 Alpha virt. eigenvalues --    2.13943   2.14512   2.14541   2.14816   2.15093
 Alpha virt. eigenvalues --    2.15462   2.15540   2.15747   2.16233   2.16463
 Alpha virt. eigenvalues --    2.16767   2.16895   2.17191   2.17395   2.17821
 Alpha virt. eigenvalues --    2.18128   2.18221   2.18547   2.18826   2.19144
 Alpha virt. eigenvalues --    2.19314   2.19551   2.19824   2.20103   2.20449
 Alpha virt. eigenvalues --    2.20826   2.21260   2.21782   2.22105   2.22994
 Alpha virt. eigenvalues --    2.23067   2.23420   2.23672   2.24065   2.24251
 Alpha virt. eigenvalues --    2.25260   2.25521   2.25816   2.26327   2.26705
 Alpha virt. eigenvalues --    2.26815   2.27507   2.27778   2.28703   2.28862
 Alpha virt. eigenvalues --    2.29162   2.29465   2.30074   2.30568   2.31781
 Alpha virt. eigenvalues --    2.31911   2.32545   2.32771   2.33030   2.33435
 Alpha virt. eigenvalues --    2.33707   2.34330   2.34598   2.34690   2.35242
 Alpha virt. eigenvalues --    2.35620   2.36150   2.36478   2.36638   2.36855
 Alpha virt. eigenvalues --    2.37353   2.37685   2.38493   2.38582   2.38901
 Alpha virt. eigenvalues --    2.39206   2.39720   2.39841   2.40168   2.40559
 Alpha virt. eigenvalues --    2.40756   2.41175   2.41485   2.41689   2.42214
 Alpha virt. eigenvalues --    2.42311   2.42772   2.43509   2.43674   2.44096
 Alpha virt. eigenvalues --    2.44290   2.44535   2.44829   2.45533   2.45761
 Alpha virt. eigenvalues --    2.45802   2.46473   2.46584   2.46878   2.47346
 Alpha virt. eigenvalues --    2.48041   2.48245   2.48745   2.48969   2.49865
 Alpha virt. eigenvalues --    2.49908   2.49979   2.51117   2.51608   2.51852
 Alpha virt. eigenvalues --    2.52241   2.52715   2.53002   2.53209   2.53452
 Alpha virt. eigenvalues --    2.53728   2.54047   2.54241   2.54602   2.55017
 Alpha virt. eigenvalues --    2.55531   2.56005   2.56499   2.56733   2.56947
 Alpha virt. eigenvalues --    2.56952   2.58295   2.58985   2.59204   2.59286
 Alpha virt. eigenvalues --    2.59522   2.59802   2.60028   2.60919   2.61286
 Alpha virt. eigenvalues --    2.61830   2.62340   2.62739   2.63529   2.63754
 Alpha virt. eigenvalues --    2.64527   2.64711   2.65044   2.65192   2.65421
 Alpha virt. eigenvalues --    2.65674   2.66208   2.66227   2.66496   2.66554
 Alpha virt. eigenvalues --    2.67603   2.69102   2.69250   2.69527   2.69891
 Alpha virt. eigenvalues --    2.70397   2.70770   2.71057   2.71626   2.71923
 Alpha virt. eigenvalues --    2.72440   2.73171   2.73341   2.73479   2.74006
 Alpha virt. eigenvalues --    2.74645   2.74820   2.75340   2.75423   2.75580
 Alpha virt. eigenvalues --    2.76110   2.76413   2.76493   2.77194   2.77758
 Alpha virt. eigenvalues --    2.78411   2.79004   2.79344   2.79662   2.80062
 Alpha virt. eigenvalues --    2.80349   2.81138   2.81193   2.81493   2.81523
 Alpha virt. eigenvalues --    2.82716   2.82902   2.83705   2.83927   2.84110
 Alpha virt. eigenvalues --    2.84466   2.84748   2.85216   2.85964   2.86120
 Alpha virt. eigenvalues --    2.86206   2.86657   2.87487   2.87821   2.89233
 Alpha virt. eigenvalues --    2.89912   2.90272   2.90704   2.91753   2.92719
 Alpha virt. eigenvalues --    2.93221   2.93687   2.94189   2.94352   2.94504
 Alpha virt. eigenvalues --    2.94935   2.95080   2.95999   2.96190   2.96426
 Alpha virt. eigenvalues --    2.97524   2.97591   2.97603   2.97883   2.98035
 Alpha virt. eigenvalues --    2.98300   2.99399   2.99544   2.99603   2.99710
 Alpha virt. eigenvalues --    3.00220   3.00297   3.00681   3.01011   3.01210
 Alpha virt. eigenvalues --    3.01349   3.01569   3.01924   3.02120   3.02222
 Alpha virt. eigenvalues --    3.02740   3.02954   3.03098   3.03339   3.04034
 Alpha virt. eigenvalues --    3.04064   3.04610   3.04702   3.04905   3.05149
 Alpha virt. eigenvalues --    3.06135   3.06262   3.06432   3.06834   3.07408
 Alpha virt. eigenvalues --    3.08200   3.08472   3.08910   3.08951   3.09242
 Alpha virt. eigenvalues --    3.09626   3.09829   3.10337   3.10586   3.10651
 Alpha virt. eigenvalues --    3.10706   3.11097   3.11711   3.12233   3.12854
 Alpha virt. eigenvalues --    3.13174   3.13224   3.13337   3.14151   3.14288
 Alpha virt. eigenvalues --    3.14591   3.15047   3.15411   3.16366   3.16647
 Alpha virt. eigenvalues --    3.17137   3.18533   3.19726   3.19828   3.21529
 Alpha virt. eigenvalues --    3.21630   3.23157   3.23438   3.24117   3.25446
 Alpha virt. eigenvalues --    3.26075   3.27005   3.27601   3.30063   3.32573
 Alpha virt. eigenvalues --    3.34367   3.40673   3.45965   3.46160   3.48106
 Alpha virt. eigenvalues --    3.49460   3.51652   3.52167   3.56059   3.57432
 Alpha virt. eigenvalues --    3.62879   3.66278   3.68375   3.69095   3.69466
 Alpha virt. eigenvalues --    3.70318   3.77595
          Condensed to atoms (all electrons):
 Mulliken charges:
               1
     1  Mg   0.839735
     2  C    0.001771
     3  C   -0.075204
     4  C   -0.093339
     5  C   -0.076784
     6  N   -0.190053
     7  C   -0.141966
     8  C    0.064927
     9  C   -0.073874
    10  C    0.034519
    11  C    0.051587
    12  C    0.076431
    13  C    0.052083
    14  C    0.124425
    15  O   -0.235705
    16  O   -0.355005
    17  N   -0.385627
    18  C    0.155923
    19  C   -0.161084
    20  C   -0.011039
    21  C    0.151744
    22  C    0.118345
    23  C    0.003958
    24  O   -0.177437
    25  C    0.029780
    26  N   -0.341447
    27  C    0.051040
    28  C   -0.040516
    29  C    0.006899
    30  C    0.053097
    31  C    0.070709
    32  C    0.024258
    33  C   -0.022160
    34  N   -0.348948
    35  C    0.127990
    36  C   -0.172130
    37  C    0.047135
    38  C    0.129463
    39  C    0.113718
    40  C   -0.053583
    41  O   -0.146339
    42  C    0.054130
    43  C    0.212854
    44  O   -0.260661
    45  O   -0.299487
    46  C    0.177429
    47  C    0.265694
    48  C   -0.119626
    49  C   -0.128381
    50  C    0.052519
    51  C    0.050948
    52  C    0.028137
    53  C    0.024523
    54  C   -0.143801
    55  C    0.100104
    56  C    0.074673
    57  C    0.009052
    58  C    0.046931
    59  C   -0.174243
    60  C    0.046033
    61  C    0.094136
    62  C   -0.016053
    63  C    0.061730
    64  C   -0.149442
    65  C    0.032037
    66  C    0.038040
    67  H   -0.026448
    68  H   -0.067663
    69  H   -0.039399
    70  H    0.019241
    71  H    0.017676
    72  H    0.022659
    73  H    0.014295
    74  H    0.015397
    75  H    0.024226
    76  H    0.026942
    77  H    0.026632
    78  H    0.026822
    79  H    0.000368
    80  H    0.040114
    81  H    0.037777
    82  H    0.057209
    83  H    0.046588
    84  H    0.019358
    85  H    0.020104
    86  H    0.014069
    87  H    0.021639
    88  H    0.020140
    89  H    0.013491
    90  H    0.030031
    91  H    0.002322
    92  H    0.016013
    93  H    0.007522
    94  H    0.026094
    95  H    0.024136
    96  H    0.019617
    97  H    0.008011
    98  H    0.035033
    99  H    0.027700
   100  H    0.036585
   101  H    0.029990
   102  H    0.015957
   103  H    0.014617
   104  H   -0.008783
   105  H    0.028829
   106  H    0.011910
   107  H    0.023641
   108  H   -0.005751
   109  H    0.002388
   110  H    0.005609
   111  H   -0.001485
   112  H    0.000930
   113  H   -0.000088
   114  H   -0.013847
   115  H    0.011956
   116  H    0.001631
   117  H   -0.001097
   118  H   -0.001093
   119  H   -0.011559
   120  H   -0.007109
   121  H    0.003013
   122  H   -0.007106
   123  H   -0.003145
   124  H    0.004258
   125  H    0.012091
   126  H    0.000027
   127  H    0.014470
   128  H   -0.003699
   129  H   -0.007408
   130  H   -0.011573
   131  H    0.002735
   132  H    0.000095
   133  H   -0.003125
   134  H   -0.002569
   135  H    0.007922
   136  H   -0.005417
   137  H    0.004817
   138  H    0.004339
   139  H   -0.014055
   140  H    0.018807
 Sum of Mulliken charges =  -0.00000
 Mulliken charges with hydrogens summed into heavy atoms:
               1
     1  Mg   0.839735
     2  C    0.001771
     3  C   -0.101653
     4  C   -0.161001
     5  C   -0.116183
     6  N   -0.190053
     7  C   -0.141966
     8  C    0.084168
     9  C   -0.056198
    10  C    0.034519
    11  C    0.103938
    12  C    0.127599
    13  C    0.105538
    14  C    0.124425
    15  O   -0.235705
    16  O   -0.355005
    17  N   -0.385627
    18  C    0.155923
    19  C   -0.161084
    20  C   -0.011039
    21  C    0.151744
    22  C    0.196604
    23  C    0.003958
    24  O   -0.177437
    25  C    0.152936
    26  N   -0.341447
    27  C    0.051040
    28  C   -0.020412
    29  C    0.020968
    30  C    0.053097
    31  C    0.125979
    32  C    0.056610
    33  C    0.027469
    34  N   -0.348948
    35  C    0.127990
    36  C   -0.172130
    37  C    0.047135
    38  C    0.129463
    39  C    0.165481
    40  C   -0.053583
    41  O   -0.146339
    42  C    0.089163
    43  C    0.212854
    44  O   -0.260661
    45  O   -0.299487
    46  C    0.271704
    47  C    0.296268
    48  C   -0.128409
    49  C   -0.128381
    50  C    0.116899
    51  C    0.047585
    52  C    0.032261
    53  C    0.025365
    54  C   -0.157648
    55  C    0.112594
    56  C    0.062021
    57  C    0.004956
    58  C    0.036679
    59  C   -0.169984
    60  C    0.072622
    61  C    0.083029
    62  C   -0.024890
    63  C    0.058700
    64  C   -0.152011
    65  C    0.039359
    66  C    0.047131
 Electronic spatial extent (au):  <R**2>=          94278.2672
 Charge=             -0.0000 electrons
 Dipole moment (field-independent basis, Debye):
    X=              2.9083    Y=              5.9034    Z=             -1.1007  Tot=              6.6723
 Quadrupole moment (field-independent basis, Debye-Ang):
   XX=           -389.7938   YY=           -416.1330   ZZ=           -416.3341
   XY=            -42.3884   XZ=              5.2492   YZ=            -32.9693
 Traceless Quadrupole moment (field-independent basis, Debye-Ang):
   XX=             17.6265   YY=             -8.7127   ZZ=             -8.9138
   XY=            -42.3884   XZ=              5.2492   YZ=            -32.9693
 Octapole moment (field-independent basis, Debye-Ang**2):
  XXX=             47.5557  YYY=            -52.3527  ZZZ=            -48.3865  XYY=             -4.7736
  XXY=            313.6239  XXZ=            -91.2613  XZZ=             13.3415  YZZ=            -28.8197
  YYZ=            -37.5465  XYZ=            147.2667
 Hexadecapole moment (field-independent basis, Debye-Ang**3):
 XXXX=         -81469.3714 YYYY=         -32755.1666 ZZZZ=         -13954.1595 XXXY=          -1516.6698
 XXXZ=            208.1789 YYYX=          -1063.8598 YYYZ=          -1227.1448 ZZZX=            343.9873
 ZZZY=           -542.0231 XXYY=         -19781.1974 XXZZ=         -15884.8144 YYZZ=          -8777.4471
 XXYZ=           -611.7016 YYXZ=            -12.1443 ZZXY=            105.4315
 N-N= 9.742280645270D+03 E-N=-2.647591610918D+04  KE= 2.976009403066D+03
 Leave Link  601 at Wed Apr 27 23:22:07 2022, MaxMem= 10066329600 cpu:              13.1 elap:               0.6
 (Enter /sw/apps/gaussian-16.0/g16/l9999.exe)
 1\1\GINC-BP1-COMPUTE137\SP\RCAM-B3LYP TD-FC\def2SVP\C55H74Mg1N4O6\OF15
 641\27-Apr-2022\0\\#p cam-b3lyp/Def2SVP td=(nstates=5)\\step_1351_chro
 mophore_23 TDDFT with cam-b3lyp functional\\0,1\Mg,0,-8.025,40.937,42.
 569\C,0,-6.872,37.567,41.758\C,0,-5.392,41.978,40.73\C,0,-9.312,43.96,
 42.71\C,0,-10.763,39.477,44.077\N,0,-6.169,39.779,41.561\C,0,-6.041,38
 .518,41.228\C,0,-4.94,38.271,40.227\C,0,-4.339,39.727,40.049\C,0,-5.34
 1,40.578,40.847\C,0,-2.821,39.975,40.387\C,0,-5.502,37.653,38.873\C,0,
 -4.801,36.357,38.324\C,0,-3.77,36.63,37.244\O,0,-2.798,37.382,37.267\O
 ,0,-4.141,35.897,36.098\N,0,-7.366,42.756,42.002\C,0,-6.278,42.946,41.
 235\C,0,-6.197,44.448,40.941\C,0,-7.266,45.11,41.602\C,0,-8.016,43.944
 ,42.136\C,0,-5.09,45.139,40.204\C,0,-7.526,46.59,41.659\O,0,-6.669,47.
 354,41.274\C,0,-8.815,47.08,42.341\N,0,-9.784,41.616,43.237\C,0,-10.14
 1,42.92,43.227\C,0,-11.62,43.099,43.632\C,0,-11.995,41.711,44.226\C,0,
 -10.759,40.885,43.87\C,0,-12.064,44.347,44.491\C,0,-13.25,40.996,43.74
 2\C,0,-14.144,40.424,44.879\N,0,-8.704,38.909,42.953\C,0,-9.854,38.526
 ,43.648\C,0,-9.777,37.124,43.651\C,0,-8.674,36.681,42.873\C,0,-8.058,3
 7.806,42.495\C,0,-10.829,36.308,44.268\C,0,-7.994,35.539,42.365\O,0,-8
 .24,34.38,42.584\C,0,-6.803,36.101,41.601\C,0,-5.627,35.376,42.153\O,0
 ,-5.228,35.468,43.36\O,0,-5.125,34.489,41.242\C,0,-3.889,33.891,41.447
 \C,0,-3.572,36.349,34.834\C,0,-4.668,36.335,33.736\C,0,-5.348,37.394,3
 3.274\C,0,-5.24,38.718,34.024\C,0,-6.402,37.24,32.142\C,0,-6.133,38.02
 9,30.822\C,0,-5.707,37.052,29.707\C,0,-6.425,37.161,28.326\C,0,-5.624,
 36.522,27.241\C,0,-7.886,36.855,28.44\C,0,-8.888,38.095,28.228\C,0,-9.
 925,38.268,29.372\C,0,-9.967,39.746,29.956\C,0,-9.994,39.753,31.495\C,
 0,-11.124,40.631,29.313\C,0,-10.538,41.786,28.489\C,0,-11.035,43.197,2
 8.984\C,0,-9.806,44.171,29.123\C,0,-9.766,44.788,30.476\C,0,-9.674,45.
 385,28.163\H,0,-4.551,42.422,40.194\H,0,-9.782,44.945,42.761\H,0,-11.6
 91,39.065,44.481\H,0,-4.151,37.679,40.69\H,0,-4.347,40.08,39.018\H,0,-
 2.094,40.353,39.668\H,0,-2.386,39.019,40.679\H,0,-2.799,40.712,41.19\H
 ,0,-5.355,38.282,37.996\H,0,-6.547,37.345,38.901\H,0,-5.47,35.605,37.9
 07\H,0,-4.228,35.768,39.04\H,0,-4.551,44.457,39.546\H,0,-4.343,45.513,
 40.903\H,0,-5.414,45.963,39.568\H,0,-8.985,46.918,43.405\H,0,-9.624,46
 .686,41.726\H,0,-8.823,48.169,42.291\H,0,-12.094,43.213,42.657\H,0,-12
 .043,41.896,45.299\H,0,-11.224,45.005,44.715\H,0,-12.561,43.985,45.391
 \H,0,-12.75,44.988,43.938\H,0,-13.146,40.151,43.062\H,0,-13.895,41.729
 ,43.259\H,0,-14.997,41.085,45.031\H,0,-13.683,40.465,45.866\H,0,-14.37
 3,39.372,44.71\H,0,-10.626,35.24,44.188\H,0,-11.82,36.61,43.929\H,0,-1
 0.801,36.46,45.347\H,0,-7.093,35.772,40.603\H,0,-3.511,33.61,40.464\H,
 0,-3.899,32.957,42.009\H,0,-3.234,34.596,41.959\H,0,-2.693,35.722,34.6
 84\H,0,-3.202,37.373,34.781\H,0,-4.802,35.349,33.293\H,0,-5.15,38.702,
 35.11\H,0,-6.003,39.448,33.755\H,0,-4.307,39.209,33.747\H,0,-7.304,37.
 674,32.572\H,0,-6.698,36.202,31.99\H,0,-5.4,38.782,31.111\H,0,-7.111,3
 8.457,30.603\H,0,-5.907,36.027,30.017\H,0,-4.662,37.359,29.747\H,0,-6.
 313,38.228,28.131\H,0,-4.646,36.236,27.629\H,0,-5.527,37.282,26.466\H,
 0,-6.225,35.731,26.792\H,0,-8.115,36.28,29.337\H,0,-8.182,36.203,27.61
 7\H,0,-9.528,37.917,27.363\H,0,-8.352,38.994,27.926\H,0,-9.789,37.648,
 30.258\H,0,-10.899,37.993,28.97\H,0,-9.017,40.195,29.664\H,0,-10.397,3
 8.867,31.987\H,0,-10.638,40.569,31.823\H,0,-8.946,39.876,31.768\H,0,-1
 1.757,41.094,30.071\H,0,-11.704,39.991,28.649\H,0,-10.877,41.761,27.45
 3\H,0,-9.46,41.71,28.349\H,0,-11.533,43.189,29.954\H,0,-11.75,43.558,2
 8.244\H,0,-8.876,43.619,28.983\H,0,-8.712,44.895,30.731\H,0,-10.26,44.
 27,31.298\H,0,-10.308,45.733,30.442\H,0,-10.67,45.716,27.866\H,0,-9.28
 2,45.06,27.199\H,0,-8.982,46.171,28.464\\Version=ES64L-G16RevA.03\Stat
 e=1-A\HF=-3007.1228457\RMSD=5.349e-09\PG=C01 [X(C55H74Mg1N4O6)]\\@


 The most important thing in communication is to hear what isn't being said.
 -- Peter F. Drucker
 Job cpu time:       0 days 11 hours 29 minutes 35.8 seconds.
 Elapsed time:       0 days  0 hours 29 minutes  8.9 seconds.
 File lengths (MBytes):  RWF=   8929 Int=      0 D2E=      0 Chk=    390 Scr=      1
 Normal termination of Gaussian 16 at Wed Apr 27 23:22:08 2022.
