 Entering Gaussian System, Link 0=g16
 Initial command:
 /sw/apps/gaussian-16.0/g16/l1.exe "/tmp/Gau-129842.inp" -scrdir="/tmp/"
 Entering Link 1 = /sw/apps/gaussian-16.0/g16/l1.exe PID=    129843.
  
 Copyright (c) 1988,1990,1992,1993,1995,1998,2003,2009,2016,
            Gaussian, Inc.  All Rights Reserved.
  
 This is part of the Gaussian(R) 16 program.  It is based on
 the Gaussian(R) 09 system (copyright 2009, Gaussian, Inc.),
 the Gaussian(R) 03 system (copyright 2003, Gaussian, Inc.),
 the Gaussian(R) 98 system (copyright 1998, Gaussian, Inc.),
 the Gaussian(R) 94 system (copyright 1995, Gaussian, Inc.),
 the Gaussian 92(TM) system (copyright 1992, Gaussian, Inc.),
 the Gaussian 90(TM) system (copyright 1990, Gaussian, Inc.),
 the Gaussian 88(TM) system (copyright 1988, Gaussian, Inc.),
 the Gaussian 86(TM) system (copyright 1986, Carnegie Mellon
 University), and the Gaussian 82(TM) system (copyright 1983,
 Carnegie Mellon University). Gaussian is a federally registered
 trademark of Gaussian, Inc.
  
 This software contains proprietary and confidential information,
 including trade secrets, belonging to Gaussian, Inc.
  
 This software is provided under written license and may be
 used, copied, transmitted, or stored only in accord with that
 written license.
  
 The following legend is applicable only to US Government
 contracts under FAR:
  
                    RESTRICTED RIGHTS LEGEND
  
 Use, reproduction and disclosure by the US Government is
 subject to restrictions as set forth in subparagraphs (a)
 and (c) of the Commercial Computer Software - Restricted
 Rights clause in FAR 52.227-19.
  
 Gaussian, Inc.
 340 Quinnipiac St., Bldg. 40, Wallingford CT 06492
  
  
 ---------------------------------------------------------------
 Warning -- This program may not be used in any manner that
 competes with the business of Gaussian, Inc. or will provide
 assistance to any competitor of Gaussian, Inc.  The licensee
 of this program is prohibited from giving any competitor of
 Gaussian, Inc. access to this program.  By using this program,
 the user acknowledges that Gaussian, Inc. is engaged in the
 business of creating and licensing software in the field of
 computational chemistry and represents and warrants to the
 licensee that it is not a competitor of Gaussian, Inc. and that
 it will not use this program in any manner prohibited above.
 ---------------------------------------------------------------
  

 Cite this work as:
 Gaussian 16, Revision A.03,
 M. J. Frisch, G. W. Trucks, H. B. Schlegel, G. E. Scuseria, 
 M. A. Robb, J. R. Cheeseman, G. Scalmani, V. Barone, 
 G. A. Petersson, H. Nakatsuji, X. Li, M. Caricato, A. V. Marenich, 
 J. Bloino, B. G. Janesko, R. Gomperts, B. Mennucci, H. P. Hratchian, 
 J. V. Ortiz, A. F. Izmaylov, J. L. Sonnenberg, D. Williams-Young, 
 F. Ding, F. Lipparini, F. Egidi, J. Goings, B. Peng, A. Petrone, 
 T. Henderson, D. Ranasinghe, V. G. Zakrzewski, J. Gao, N. Rega, 
 G. Zheng, W. Liang, M. Hada, M. Ehara, K. Toyota, R. Fukuda, 
 J. Hasegawa, M. Ishida, T. Nakajima, Y. Honda, O. Kitao, H. Nakai, 
 T. Vreven, K. Throssell, J. A. Montgomery, Jr., J. E. Peralta, 
 F. Ogliaro, M. J. Bearpark, J. J. Heyd, E. N. Brothers, K. N. Kudin, 
 V. N. Staroverov, T. A. Keith, R. Kobayashi, J. Normand, 
 K. Raghavachari, A. P. Rendell, J. C. Burant, S. S. Iyengar, 
 J. Tomasi, M. Cossi, J. M. Millam, M. Klene, C. Adamo, R. Cammi, 
 J. W. Ochterski, R. L. Martin, K. Morokuma, O. Farkas, 
 J. B. Foresman, and D. J. Fox, Gaussian, Inc., Wallingford CT, 2016.
 
 ******************************************
 Gaussian 16:  ES64L-G16RevA.03 25-Dec-2016
                 5-May-2022 
 ******************************************
 %nproc=24
 Will use up to   24 processors via shared memory.
 %mem=50gb
 --------------------
 #p ZINDO=(nstates=5)
 --------------------
 1/38=1,172=1/1;
 2/12=2,17=6,18=5,40=1/2;
 3/5=2,25=1,41=400000/1,2,3,8;
 4/5=3,35=1/1;
 5/5=2,35=1,38=5/2;
 8/6=1,108=5/1;
 9/41=5,42=1,49=10/14;
 6/7=2,8=2,9=2,10=2/1;
 99/5=1,9=1/99;
 Leave Link    1 at Thu May  5 15:14:55 2022, MaxMem=  6710886400 cpu:               0.5 elap:               0.0
 (Enter /sw/apps/gaussian-16.0/g16/l101.exe)
 -----------------------------
 step_951_chromophore_19 ZINDO
 -----------------------------
 Symbolic Z-matrix:
 Charge =  0 Multiplicity = 1
 Mg                    26.021    50.006    26.079 
 C                     23.912    51.415    28.664 
 C                     28.304    49.354    28.415 
 C                     28.254    49.653    23.589 
 C                     23.888    51.774    23.693 
 N                     25.974    50.188    28.308 
 C                     25.094    50.902    29.116 
 C                     25.562    50.844    30.618 
 C                     27.044    50.434    30.43 
 C                     27.148    49.95     28.941 
 C                     28.045    51.518    30.635 
 C                     24.646    49.882    31.516 
 C                     23.987    50.611    32.668 
 C                     24.813    51.125    33.888 
 O                     25.656    51.966    33.888 
 O                     24.369    50.596    35.031 
 N                     27.84     49.238    26.007 
 C                     28.638    49.023    27.071 
 C                     29.819    48.274    26.641 
 C                     29.876    48.56     25.195 
 C                     28.634    49.205    24.857 
 C                     30.873    47.683    27.639 
 C                     30.987    48.222    24.277 
 O                     31.037    48.558    23.13 
 C                     32.094    47.418    24.799 
 N                     25.977    50.523    23.918 
 C                     27.04     50.221    23.164 
 C                     26.795    50.607    21.661 
 C                     25.306    51.143    21.722 
 C                     25.125    51.216    23.223 
 C                     27.894    51.609    21.174 
 C                     24.301    50.159    21.076 
 C                     23.263    50.578    20.039 
 N                     24.245    51.219    26.114 
 C                     23.483    51.782    25.083 
 C                     22.365    52.399    25.683 
 C                     22.521    52.318    27.023 
 C                     23.612    51.524    27.244 
 C                     21.311    53.227    24.933 
 C                     21.863    52.667    28.242 
 O                     20.862    53.354    28.442 
 C                     22.775    52.023    29.41 
 C                     23.105    53.152    30.255 
 O                     24.091    53.898    30.185 
 O                     22.044    53.421    31.074 
 C                     22.375    54.439    32.108 
 C                     25.069    51.07     36.224 
 C                     24.84     50.291    37.498 
 C                     25.253    50.557    38.801 
 C                     26.09     51.787    39.128 
 C                     24.936    49.598    39.962 
 C                     26.096    48.581    40.243 
 C                     25.526    47.153    40.234 
 C                     26.213    46.213    41.217 
 C                     26.316    44.744    40.846 
 C                     25.641    46.276    42.607 
 C                     26.687    46.66     43.628 
 C                     25.952    47.125    44.911 
 C                     26.652    48.371    45.479 
 C                     26.298    48.508    46.995 
 C                     26.242    49.658    44.661 
 C                     27.36     50.21     43.747 
 C                     28.161    51.344    44.403 
 C                     27.746    52.783    43.84 
 C                     29.043    53.712    43.619 
 C                     26.585    53.546    44.521 
 H                     29.023    49.108    29.199 
 H                     28.94     49.627    22.74 
 H                     23.198    52.165    22.942 
 H                     25.507    51.865    30.998 
 H                     27.222    49.59     31.096 
 H                     28.501    51.854    29.704 
 H                     28.809    51.142    31.314 
 H                     27.591    52.415    31.057 
 H                     25.391    49.253    32.005 
 H                     24.041    49.12     31.025 
 H                     23.294    49.871    33.069 
 H                     23.545    51.552    32.342 
 H                     31.496    48.508    27.984 
 H                     31.597    46.925    27.337 
 H                     30.441    47.262    28.547 
 H                     32.503    47.973    25.643 
 H                     32.809    47.324    23.982 
 H                     31.749    46.407    25.012 
 H                     26.889    49.69     21.079 
 H                     25.187    52.175    21.39 
 H                     28.482    51.925    22.035 
 H                     27.421    52.486    20.731 
 H                     28.513    51.077    20.452 
 H                     23.671    49.761    21.871 
 H                     24.873    49.311    20.7 
 H                     23.58     50.275    19.041 
 H                     23.146    51.656    19.936 
 H                     22.289    50.191    20.34 
 H                     20.583    52.529    24.52 
 H                     21.84     53.714    24.114 
 H                     20.891    54.003    25.573 
 H                     22.144    51.279    29.896 
 H                     22.431    55.418    31.632 
 H                     23.282    54.233    32.676 
 H                     21.539    54.578    32.793 
 H                     24.6      52.027    36.451 
 H                     26.135    51.052    35.995 
 H                     24.443    49.285    37.368 
 H                     26.918    51.553    39.798 
 H                     25.456    52.479    39.682 
 H                     26.55     52.301    38.284 
 H                     23.948    49.148    39.867 
 H                     24.876    50.291    40.801 
 H                     26.575    48.754    41.207 
 H                     26.873    48.686    39.486 
 H                     25.641    46.822    39.202 
 H                     24.464    47.004    40.427 
 H                     27.249    46.551    41.193 
 H                     25.656    44.001    41.293 
 H                     27.369    44.537    41.037 
 H                     26.136    44.37     39.838 
 H                     25.331    45.272    42.897 
 H                     24.721    46.786    42.894 
 H                     27.48     47.329    43.294 
 H                     27.229    45.802    44.025 
 H                     25.84     46.215    45.5 
 H                     24.92     47.411    44.707 
 H                     27.735    48.249    45.52 
 H                     26.229    47.5      47.404 
 H                     25.37     49.024    47.242 
 H                     27.131    48.922    47.563 
 H                     25.977    50.46     45.35 
 H                     25.391    49.384    44.036 
 H                     26.936    50.321    42.749 
 H                     28.108    49.449    43.521 
 H                     29.191    51.082    44.16 
 H                     28.064    51.368    45.489 
 H                     27.365    52.699    42.822 
 H                     29.157    54.683    44.101 
 H                     29.007    53.929    42.552 
 H                     29.955    53.157    43.839 
 H                     26.522    53.444    45.605 
 H                     25.652    53.214    44.066 
 H                     26.68     54.611    44.308 
 
 ITRead=  0  0  0  0  0  0  0  0  0  0  0  0  0  0  0  0  0  0  0  0
 ITRead=  0  0  0  0  0  0  0  0  0  0  0  0  0  0  0  0  0  0  0  0
 ITRead=  0  0  0  0  0  0  0  0  0  0  0  0  0  0  0  0  0  0  0  0
 ITRead=  0  0  0  0  0  0  0  0  0  0  0  0  0  0  0  0  0  0  0  0
 ITRead=  0  0  0  0  0  0  0  0  0  0  0  0  0  0  0  0  0  0  0  0
 ITRead=  0  0  0  0  0  0  0  0  0  0  0  0  0  0  0  0  0  0  0  0
 ITRead=  0  0  0  0  0  0  0  0  0  0  0  0  0  0  0  0  0  0  0  0
 MicOpt= -1 -1 -1 -1 -1 -1 -1 -1 -1 -1 -1 -1 -1 -1 -1 -1 -1 -1 -1 -1
 MicOpt= -1 -1 -1 -1 -1 -1 -1 -1 -1 -1 -1 -1 -1 -1 -1 -1 -1 -1 -1 -1
 MicOpt= -1 -1 -1 -1 -1 -1 -1 -1 -1 -1 -1 -1 -1 -1 -1 -1 -1 -1 -1 -1
 MicOpt= -1 -1 -1 -1 -1 -1 -1 -1 -1 -1 -1 -1 -1 -1 -1 -1 -1 -1 -1 -1
 MicOpt= -1 -1 -1 -1 -1 -1 -1 -1 -1 -1 -1 -1 -1 -1 -1 -1 -1 -1 -1 -1
 MicOpt= -1 -1 -1 -1 -1 -1 -1 -1 -1 -1 -1 -1 -1 -1 -1 -1 -1 -1 -1 -1
 MicOpt= -1 -1 -1 -1 -1 -1 -1 -1 -1 -1 -1 -1 -1 -1 -1 -1 -1 -1 -1 -1
 NAtoms=    140 NQM=      140 NQMF=       0 NMMI=      0 NMMIF=      0
                NMic=       0 NMicF=      0.
                    Isotopes and Nuclear Properties:
 (Nuclear quadrupole moments (NQMom) in fm**2, nuclear magnetic moments (NMagM)
  in nuclear magnetons)

  Atom         1           2           3           4           5           6           7           8           9          10
 IAtWgt=          24          12          12          12          12          14          12          12          12          12
 AtmWgt=  23.9850450  12.0000000  12.0000000  12.0000000  12.0000000  14.0030740  12.0000000  12.0000000  12.0000000  12.0000000
 NucSpn=           0           0           0           0           0           2           0           0           0           0
 AtZEff=  -0.0000000  -0.0000000  -0.0000000  -0.0000000  -0.0000000  -0.0000000  -0.0000000  -0.0000000  -0.0000000  -0.0000000
 NQMom=    0.0000000   0.0000000   0.0000000   0.0000000   0.0000000   2.0440000   0.0000000   0.0000000   0.0000000   0.0000000
 NMagM=    0.0000000   0.0000000   0.0000000   0.0000000   0.0000000   0.4037610   0.0000000   0.0000000   0.0000000   0.0000000
 AtZNuc=  12.0000000   6.0000000   6.0000000   6.0000000   6.0000000   7.0000000   6.0000000   6.0000000   6.0000000   6.0000000

  Atom        11          12          13          14          15          16          17          18          19          20
 IAtWgt=          12          12          12          12          16          16          14          12          12          12
 AtmWgt=  12.0000000  12.0000000  12.0000000  12.0000000  15.9949146  15.9949146  14.0030740  12.0000000  12.0000000  12.0000000
 NucSpn=           0           0           0           0           0           0           2           0           0           0
 AtZEff=  -0.0000000  -0.0000000  -0.0000000  -0.0000000  -0.0000000  -0.0000000  -0.0000000  -0.0000000  -0.0000000  -0.0000000
 NQMom=    0.0000000   0.0000000   0.0000000   0.0000000   0.0000000   0.0000000   2.0440000   0.0000000   0.0000000   0.0000000
 NMagM=    0.0000000   0.0000000   0.0000000   0.0000000   0.0000000   0.0000000   0.4037610   0.0000000   0.0000000   0.0000000
 AtZNuc=   6.0000000   6.0000000   6.0000000   6.0000000   8.0000000   8.0000000   7.0000000   6.0000000   6.0000000   6.0000000

  Atom        21          22          23          24          25          26          27          28          29          30
 IAtWgt=          12          12          12          16          12          14          12          12          12          12
 AtmWgt=  12.0000000  12.0000000  12.0000000  15.9949146  12.0000000  14.0030740  12.0000000  12.0000000  12.0000000  12.0000000
 NucSpn=           0           0           0           0           0           2           0           0           0           0
 AtZEff=  -0.0000000  -0.0000000  -0.0000000  -0.0000000  -0.0000000  -0.0000000  -0.0000000  -0.0000000  -0.0000000  -0.0000000
 NQMom=    0.0000000   0.0000000   0.0000000   0.0000000   0.0000000   2.0440000   0.0000000   0.0000000   0.0000000   0.0000000
 NMagM=    0.0000000   0.0000000   0.0000000   0.0000000   0.0000000   0.4037610   0.0000000   0.0000000   0.0000000   0.0000000
 AtZNuc=   6.0000000   6.0000000   6.0000000   8.0000000   6.0000000   7.0000000   6.0000000   6.0000000   6.0000000   6.0000000

  Atom        31          32          33          34          35          36          37          38          39          40
 IAtWgt=          12          12          12          14          12          12          12          12          12          12
 AtmWgt=  12.0000000  12.0000000  12.0000000  14.0030740  12.0000000  12.0000000  12.0000000  12.0000000  12.0000000  12.0000000
 NucSpn=           0           0           0           2           0           0           0           0           0           0
 AtZEff=  -0.0000000  -0.0000000  -0.0000000  -0.0000000  -0.0000000  -0.0000000  -0.0000000  -0.0000000  -0.0000000  -0.0000000
 NQMom=    0.0000000   0.0000000   0.0000000   2.0440000   0.0000000   0.0000000   0.0000000   0.0000000   0.0000000   0.0000000
 NMagM=    0.0000000   0.0000000   0.0000000   0.4037610   0.0000000   0.0000000   0.0000000   0.0000000   0.0000000   0.0000000
 AtZNuc=   6.0000000   6.0000000   6.0000000   7.0000000   6.0000000   6.0000000   6.0000000   6.0000000   6.0000000   6.0000000

  Atom        41          42          43          44          45          46          47          48          49          50
 IAtWgt=          16          12          12          16          16          12          12          12          12          12
 AtmWgt=  15.9949146  12.0000000  12.0000000  15.9949146  15.9949146  12.0000000  12.0000000  12.0000000  12.0000000  12.0000000
 NucSpn=           0           0           0           0           0           0           0           0           0           0
 AtZEff=  -0.0000000  -0.0000000  -0.0000000  -0.0000000  -0.0000000  -0.0000000  -0.0000000  -0.0000000  -0.0000000  -0.0000000
 NQMom=    0.0000000   0.0000000   0.0000000   0.0000000   0.0000000   0.0000000   0.0000000   0.0000000   0.0000000   0.0000000
 NMagM=    0.0000000   0.0000000   0.0000000   0.0000000   0.0000000   0.0000000   0.0000000   0.0000000   0.0000000   0.0000000
 AtZNuc=   8.0000000   6.0000000   6.0000000   8.0000000   8.0000000   6.0000000   6.0000000   6.0000000   6.0000000   6.0000000

  Atom        51          52          53          54          55          56          57          58          59          60
 IAtWgt=          12          12          12          12          12          12          12          12          12          12
 AtmWgt=  12.0000000  12.0000000  12.0000000  12.0000000  12.0000000  12.0000000  12.0000000  12.0000000  12.0000000  12.0000000
 NucSpn=           0           0           0           0           0           0           0           0           0           0
 AtZEff=  -0.0000000  -0.0000000  -0.0000000  -0.0000000  -0.0000000  -0.0000000  -0.0000000  -0.0000000  -0.0000000  -0.0000000
 NQMom=    0.0000000   0.0000000   0.0000000   0.0000000   0.0000000   0.0000000   0.0000000   0.0000000   0.0000000   0.0000000
 NMagM=    0.0000000   0.0000000   0.0000000   0.0000000   0.0000000   0.0000000   0.0000000   0.0000000   0.0000000   0.0000000
 AtZNuc=   6.0000000   6.0000000   6.0000000   6.0000000   6.0000000   6.0000000   6.0000000   6.0000000   6.0000000   6.0000000

  Atom        61          62          63          64          65          66          67          68          69          70
 IAtWgt=          12          12          12          12          12          12           1           1           1           1
 AtmWgt=  12.0000000  12.0000000  12.0000000  12.0000000  12.0000000  12.0000000   1.0078250   1.0078250   1.0078250   1.0078250
 NucSpn=           0           0           0           0           0           0           1           1           1           1
 AtZEff=  -0.0000000  -0.0000000  -0.0000000  -0.0000000  -0.0000000  -0.0000000  -0.0000000  -0.0000000  -0.0000000  -0.0000000
 NQMom=    0.0000000   0.0000000   0.0000000   0.0000000   0.0000000   0.0000000   0.0000000   0.0000000   0.0000000   0.0000000
 NMagM=    0.0000000   0.0000000   0.0000000   0.0000000   0.0000000   0.0000000   2.7928460   2.7928460   2.7928460   2.7928460
 AtZNuc=   6.0000000   6.0000000   6.0000000   6.0000000   6.0000000   6.0000000   1.0000000   1.0000000   1.0000000   1.0000000

  Atom        71          72          73          74          75          76          77          78          79          80
 IAtWgt=           1           1           1           1           1           1           1           1           1           1
 AtmWgt=   1.0078250   1.0078250   1.0078250   1.0078250   1.0078250   1.0078250   1.0078250   1.0078250   1.0078250   1.0078250
 NucSpn=           1           1           1           1           1           1           1           1           1           1
 AtZEff=  -0.0000000  -0.0000000  -0.0000000  -0.0000000  -0.0000000  -0.0000000  -0.0000000  -0.0000000  -0.0000000  -0.0000000
 NQMom=    0.0000000   0.0000000   0.0000000   0.0000000   0.0000000   0.0000000   0.0000000   0.0000000   0.0000000   0.0000000
 NMagM=    2.7928460   2.7928460   2.7928460   2.7928460   2.7928460   2.7928460   2.7928460   2.7928460   2.7928460   2.7928460
 AtZNuc=   1.0000000   1.0000000   1.0000000   1.0000000   1.0000000   1.0000000   1.0000000   1.0000000   1.0000000   1.0000000

  Atom        81          82          83          84          85          86          87          88          89          90
 IAtWgt=           1           1           1           1           1           1           1           1           1           1
 AtmWgt=   1.0078250   1.0078250   1.0078250   1.0078250   1.0078250   1.0078250   1.0078250   1.0078250   1.0078250   1.0078250
 NucSpn=           1           1           1           1           1           1           1           1           1           1
 AtZEff=  -0.0000000  -0.0000000  -0.0000000  -0.0000000  -0.0000000  -0.0000000  -0.0000000  -0.0000000  -0.0000000  -0.0000000
 NQMom=    0.0000000   0.0000000   0.0000000   0.0000000   0.0000000   0.0000000   0.0000000   0.0000000   0.0000000   0.0000000
 NMagM=    2.7928460   2.7928460   2.7928460   2.7928460   2.7928460   2.7928460   2.7928460   2.7928460   2.7928460   2.7928460
 AtZNuc=   1.0000000   1.0000000   1.0000000   1.0000000   1.0000000   1.0000000   1.0000000   1.0000000   1.0000000   1.0000000

  Atom        91          92          93          94          95          96          97          98          99         100
 IAtWgt=           1           1           1           1           1           1           1           1           1           1
 AtmWgt=   1.0078250   1.0078250   1.0078250   1.0078250   1.0078250   1.0078250   1.0078250   1.0078250   1.0078250   1.0078250
 NucSpn=           1           1           1           1           1           1           1           1           1           1
 AtZEff=  -0.0000000  -0.0000000  -0.0000000  -0.0000000  -0.0000000  -0.0000000  -0.0000000  -0.0000000  -0.0000000  -0.0000000
 NQMom=    0.0000000   0.0000000   0.0000000   0.0000000   0.0000000   0.0000000   0.0000000   0.0000000   0.0000000   0.0000000
 NMagM=    2.7928460   2.7928460   2.7928460   2.7928460   2.7928460   2.7928460   2.7928460   2.7928460   2.7928460   2.7928460
 AtZNuc=   1.0000000   1.0000000   1.0000000   1.0000000   1.0000000   1.0000000   1.0000000   1.0000000   1.0000000   1.0000000

  Atom       101         102         103         104         105         106         107         108         109         110
 IAtWgt=           1           1           1           1           1           1           1           1           1           1
 AtmWgt=   1.0078250   1.0078250   1.0078250   1.0078250   1.0078250   1.0078250   1.0078250   1.0078250   1.0078250   1.0078250
 NucSpn=           1           1           1           1           1           1           1           1           1           1
 AtZEff=  -0.0000000  -0.0000000  -0.0000000  -0.0000000  -0.0000000  -0.0000000  -0.0000000  -0.0000000  -0.0000000  -0.0000000
 NQMom=    0.0000000   0.0000000   0.0000000   0.0000000   0.0000000   0.0000000   0.0000000   0.0000000   0.0000000   0.0000000
 NMagM=    2.7928460   2.7928460   2.7928460   2.7928460   2.7928460   2.7928460   2.7928460   2.7928460   2.7928460   2.7928460
 AtZNuc=   1.0000000   1.0000000   1.0000000   1.0000000   1.0000000   1.0000000   1.0000000   1.0000000   1.0000000   1.0000000

  Atom       111         112         113         114         115         116         117         118         119         120
 IAtWgt=           1           1           1           1           1           1           1           1           1           1
 AtmWgt=   1.0078250   1.0078250   1.0078250   1.0078250   1.0078250   1.0078250   1.0078250   1.0078250   1.0078250   1.0078250
 NucSpn=           1           1           1           1           1           1           1           1           1           1
 AtZEff=  -0.0000000  -0.0000000  -0.0000000  -0.0000000  -0.0000000  -0.0000000  -0.0000000  -0.0000000  -0.0000000  -0.0000000
 NQMom=    0.0000000   0.0000000   0.0000000   0.0000000   0.0000000   0.0000000   0.0000000   0.0000000   0.0000000   0.0000000
 NMagM=    2.7928460   2.7928460   2.7928460   2.7928460   2.7928460   2.7928460   2.7928460   2.7928460   2.7928460   2.7928460
 AtZNuc=   1.0000000   1.0000000   1.0000000   1.0000000   1.0000000   1.0000000   1.0000000   1.0000000   1.0000000   1.0000000

  Atom       121         122         123         124         125         126         127         128         129         130
 IAtWgt=           1           1           1           1           1           1           1           1           1           1
 AtmWgt=   1.0078250   1.0078250   1.0078250   1.0078250   1.0078250   1.0078250   1.0078250   1.0078250   1.0078250   1.0078250
 NucSpn=           1           1           1           1           1           1           1           1           1           1
 AtZEff=  -0.0000000  -0.0000000  -0.0000000  -0.0000000  -0.0000000  -0.0000000  -0.0000000  -0.0000000  -0.0000000  -0.0000000
 NQMom=    0.0000000   0.0000000   0.0000000   0.0000000   0.0000000   0.0000000   0.0000000   0.0000000   0.0000000   0.0000000
 NMagM=    2.7928460   2.7928460   2.7928460   2.7928460   2.7928460   2.7928460   2.7928460   2.7928460   2.7928460   2.7928460
 AtZNuc=   1.0000000   1.0000000   1.0000000   1.0000000   1.0000000   1.0000000   1.0000000   1.0000000   1.0000000   1.0000000

  Atom       131         132         133         134         135         136         137         138         139         140
 IAtWgt=           1           1           1           1           1           1           1           1           1           1
 AtmWgt=   1.0078250   1.0078250   1.0078250   1.0078250   1.0078250   1.0078250   1.0078250   1.0078250   1.0078250   1.0078250
 NucSpn=           1           1           1           1           1           1           1           1           1           1
 AtZEff=  -0.0000000  -0.0000000  -0.0000000  -0.0000000  -0.0000000  -0.0000000  -0.0000000  -0.0000000  -0.0000000  -0.0000000
 NQMom=    0.0000000   0.0000000   0.0000000   0.0000000   0.0000000   0.0000000   0.0000000   0.0000000   0.0000000   0.0000000
 NMagM=    2.7928460   2.7928460   2.7928460   2.7928460   2.7928460   2.7928460   2.7928460   2.7928460   2.7928460   2.7928460
 AtZNuc=   1.0000000   1.0000000   1.0000000   1.0000000   1.0000000   1.0000000   1.0000000   1.0000000   1.0000000   1.0000000
 Leave Link  101 at Thu May  5 15:14:55 2022, MaxMem=  6710886400 cpu:               2.9 elap:               0.1
 (Enter /sw/apps/gaussian-16.0/g16/l202.exe)
 Stoichiometry    C55H74MgN4O6
 Framework group  C1[X(C55H74MgN4O6)]
 Deg. of freedom   414
 Full point group                 C1      NOp   1
 Largest Abelian subgroup         C1      NOp   1
 Largest concise Abelian subgroup C1      NOp   1
                         Standard orientation:                         
 ---------------------------------------------------------------------
 Center     Atomic      Atomic             Coordinates (Angstroms)
 Number     Number       Type             X           Y           Z
 ---------------------------------------------------------------------
      1         12           0       -5.880023    0.582547   -0.474778
      2          6           0       -3.423007   -2.077962   -0.462479
      3          6           0       -3.467545    2.699957    0.414385
      4          6           0       -8.302885    2.725647    0.446014
      5          6           0       -8.406161   -2.058791   -0.372458
      6          7           0       -3.667086    0.327787   -0.270378
      7          6           0       -2.919477   -0.842117   -0.173097
      8          6           0       -1.408303   -0.502892    0.109168
      9          6           0       -1.544125    0.948685    0.632852
     10          6           0       -2.999449    1.388384    0.244408
     11          6           0       -1.385657    1.122065    2.103875
     12          6           0       -0.471624   -0.732936   -1.171697
     13          6           0        0.622502   -1.749109   -0.920486
     14          6           0        1.824738   -1.437274    0.024109
     15          8           0        1.790173   -1.240909    1.198066
     16          8           0        2.988845   -1.547551   -0.620965
     17          7           0       -5.872505    2.510114   -0.040961
     18          6           0       -4.783025    3.230433    0.289640
     19          6           0       -5.145725    4.646420    0.353601
     20          6           0       -6.604903    4.598504    0.564468
     21          6           0       -7.003632    3.231564    0.351578
     22          6           0       -4.094973    5.796428    0.525659
     23          6           0       -7.480445    5.743139    0.902884
     24          8           0       -8.644316    5.645621    1.161536
     25          6           0       -6.891089    7.083610    0.914969
     26          7           0       -8.068443    0.353943   -0.162201
     27          6           0       -8.783338    1.430511    0.183652
     28          6           0      -10.310943    1.081979    0.297565
     29          6           0      -10.309515   -0.442163   -0.132701
     30          6           0       -8.819135   -0.706269   -0.122321
     31          6           0      -10.836429    1.417026    1.733037
     32          6           0      -10.914158   -0.654951   -1.541504
     33          6           0      -11.993285   -1.690105   -1.845337
     34          7           0       -5.950202   -1.566745   -0.523686
     35          6           0       -7.026828   -2.461609   -0.549561
     36          6           0       -6.485426   -3.758187   -0.677557
     37          6           0       -5.140329   -3.651031   -0.601882
     38          6           0       -4.852277   -2.314399   -0.602352
     39          6           0       -7.302790   -5.058201   -0.647870
     40          6           0       -3.956662   -4.448982   -0.656043
     41          8           0       -3.816493   -5.671273   -0.674115
     42          6           0       -2.735705   -3.392010   -0.603347
     43          6           0       -1.953560   -3.821756    0.537325
     44          8           0       -2.049684   -3.450544    1.714854
     45          8           0       -1.171787   -4.880763    0.168300
     46          6           0       -0.194376   -5.254616    1.226572
     47          6           0        4.164191   -1.313507    0.216716
     48          6           0        5.477917   -1.110397   -0.501079
     49          6           0        6.770148   -0.994171    0.004653
     50          6           0        7.038645   -1.044912    1.503230
     51          6           0        7.980198   -0.752376   -0.914805
     52          6           0        8.342700    0.766872   -1.053834
     53          6           0        8.408318    1.133742   -2.545566
     54          6           0        9.458125    2.189058   -2.871250
     55          6           0        9.177322    3.144530   -4.017737
     56          6           0       10.831096    1.618611   -3.101020
     57          6           0       11.846533    2.194599   -2.141261
     58          6           0       13.085738    1.263522   -2.143711
     59          6           0       13.591281    1.080195   -0.702893
     60          6           0       15.089621    0.637610   -0.740805
     61          6           0       12.690582    0.040152    0.072120
     62          6           0       11.766106    0.673276    1.137259
     63          6           0       12.368020    0.632691    2.549331
     64          6           0       11.712670   -0.512392    3.454437
     65          6           0       11.460675    0.012699    4.956059
     66          6           0       12.325416   -1.932745    3.422959
     67          1           0       -2.657129    3.388024    0.663228
     68          1           0       -9.136011    3.340317    0.792649
     69          1           0       -9.191749   -2.809169   -0.485448
     70          1           0       -1.090924   -1.159572    0.920284
     71          1           0       -0.825823    1.550459    0.076538
     72          1           0       -2.326451    1.343662    2.607259
     73          1           0       -0.671456    1.927431    2.269449
     74          1           0       -1.026337    0.211158    2.583403
     75          1           0        0.067678    0.213410   -1.229742
     76          1           0       -0.927416   -0.757409   -2.161346
     77          1           0        1.054035   -1.902218   -1.909924
     78          1           0        0.232879   -2.638627   -0.426450
     79          1           0       -3.788320    5.806189    1.571435
     80          1           0       -4.337827    6.839985    0.320832
     81          1           0       -3.171625    5.644849   -0.033609
     82          1           0       -6.074266    7.051533    1.635671
     83          1           0       -7.687688    7.759750    1.224508
     84          1           0       -6.624608    7.380008   -0.098763
     85          1           0      -10.835408    1.719976   -0.414014
     86          1           0      -10.704586   -1.121821    0.623204
     87          1           0       -9.985085    1.668368    2.364672
     88          1           0      -11.339581    0.545318    2.152643
     89          1           0      -11.513875    2.264880    1.634653
     90          1           0      -10.108617   -0.975137   -2.201742
     91          1           0      -11.228309    0.321074   -1.910757
     92          1           0      -12.965422   -1.206913   -1.944213
     93          1           0      -12.162507   -2.406248   -1.042290
     94          1           0      -11.687790   -2.271598   -2.715730
     95          1           0       -7.686820   -5.223663   -1.654299
     96          1           0       -8.139455   -4.870580    0.024857
     97          1           0       -6.718054   -5.882037   -0.238537
     98          1           0       -2.217954   -3.496650   -1.556698
     99          1           0       -0.726774   -5.754146    2.036001
    100          1           0        0.401549   -4.426301    1.609296
    101          1           0        0.465563   -6.048639    0.878076
    102          1           0        4.325038   -2.261757    0.728858
    103          1           0        3.956398   -0.425585    0.814660
    104          1           0        5.400808   -0.842093   -1.553986
    105          1           0        7.736580   -0.269589    1.821034
    106          1           0        7.538604   -1.989542    1.716426
    107          1           0        6.174145   -0.927792    2.156724
    108          1           0        7.893962   -1.288953   -1.859430
    109          1           0        8.775143   -1.245410   -0.355564
    110          1           0        9.303355    1.007602   -0.597919
    111          1           0        7.595267    1.374802   -0.544356
    112          1           0        7.400185    1.470774   -2.786165
    113          1           0        8.590210    0.347870   -3.278105
    114          1           0        9.433157    2.835612   -1.994061
    115          1           0        9.655553    3.017687   -4.988646
    116          1           0        9.399737    4.110793   -3.564961
    117          1           0        8.190257    3.265673   -4.464244
    118          1           0       11.174657    1.935549   -4.085770
    119          1           0       11.070143    0.560621   -3.212298
    120          1           0       11.487949    2.466866   -1.148661
    121          1           0       12.303917    3.113618   -2.506969
    122          1           0       13.725769    1.671853   -2.925498
    123          1           0       12.846026    0.269076   -2.520608
    124          1           0       13.659476    2.028915   -0.169288
    125          1           0       15.556639    1.146756   -1.583877
    126          1           0       15.288241   -0.428376   -0.853382
    127          1           0       15.647219    1.045647    0.102107
    128          1           0       13.325536   -0.675294    0.594731
    129          1           0       12.067417   -0.461000   -0.669779
    130          1           0       10.755603    0.313946    0.942662
    131          1           0       11.599726    1.734295    0.946848
    132          1           0       12.160135    1.633800    2.927692
    133          1           0       13.448681    0.485933    2.553236
    134          1           0       10.694625   -0.722517    3.125843
    135          1           0       11.885957   -0.482704    5.828912
    136          1           0       10.382154   -0.089542    5.071009
    137          1           0       11.730175    1.065116    5.045260
    138          1           0       13.412220   -1.978587    3.344316
    139          1           0       11.873863   -2.475281    2.592602
    140          1           0       12.051098   -2.463626    4.334845
 ---------------------------------------------------------------------
 Rotational constants (GHZ):           0.0539283           0.0088531           0.0081244
 Leave Link  202 at Thu May  5 15:14:55 2022, MaxMem=  6710886400 cpu:               0.2 elap:               0.0
 (Enter /sw/apps/gaussian-16.0/g16/l301.exe)
 Standard basis: VSTO-6G (5D, 7F)
 Ernie: Thresh=  0.10000D-02 Tol=  0.10000D-05 Strict=F.
 There are   338 symmetry adapted cartesian basis functions of A   symmetry.
 There are   338 symmetry adapted basis functions of A   symmetry.
   338 basis functions,  2028 primitive gaussians,   338 cartesian basis functions
   176 alpha electrons      176 beta electrons
       nuclear repulsion energy      4777.9395138862 Hartrees.
 IExCor=    0 DFT=F Ex=HF Corr=None ExCW=0 ScaHFX=  1.000000
 ScaDFX=  1.000000  1.000000  1.000000  1.000000 ScalE2=  1.000000  1.000000
 IRadAn=      5 IRanWt=     -1 IRanGd=            0 ICorTp=0 IEmpDi=  4
 Integral buffers will be    131072 words long.
 Regular integral format.
 Two-electron integral symmetry is turned off.
 Leave Link  301 at Thu May  5 15:14:55 2022, MaxMem=  6710886400 cpu:               1.2 elap:               0.1
 (Enter /sw/apps/gaussian-16.0/g16/l302.exe)
 Do NDO integrals.
 NPDir=0 NMtPBC=     1 NCelOv=     1 NCel=       1 NClECP=     1 NCelD=      1
         NCelK=      1 NCelE2=     1 NClLst=     1 CellRange=     0.0.
 One-electron integrals computed using PRISM.
 Generate ZINDO/S integrals.
 NDO Nuclear repulsion=  4288.281051068384 Hartrees.
 NBasis=   338 RedAO= F EigKep=  0.00D+00  NBF=   338
 NBsUse=   338 1.00D-04 EigRej=  0.00D+00 NBFU=   338
 Leave Link  302 at Thu May  5 15:14:56 2022, MaxMem=  6710886400 cpu:               8.7 elap:               0.4
 (Enter /sw/apps/gaussian-16.0/g16/l303.exe)
 DipDrv:  MaxL=1.
 DipDrv:  will hold  3 matrices at once.
 Leave Link  303 at Thu May  5 15:14:56 2022, MaxMem=  6710886400 cpu:               0.5 elap:               0.0
 (Enter /sw/apps/gaussian-16.0/g16/l308.exe)
 Leave Link  308 at Thu May  5 15:14:56 2022, MaxMem=  6710886400 cpu:               4.4 elap:               0.2
 (Enter /sw/apps/gaussian-16.0/g16/l401.exe)
 Simple Huckel Guess.
 JPrj=0 DoOrth=F DoCkMO=F.
 Leave Link  401 at Thu May  5 15:14:56 2022, MaxMem=  6710886400 cpu:               2.4 elap:               0.1
 (Enter /sw/apps/gaussian-16.0/g16/l502.exe)
 Two-electron integral symmetry not used.
 Closed shell SCF:
 Using DIIS extrapolation, IDIIS=  1040.
 Overlap will be assumed to be unity.
 NGot=  6710886400 LenX=  6710643598 LenY=  6710528913
 Requested convergence on RMS density matrix=1.00D-08 within 128 cycles.
 Requested convergence on MAX density matrix=1.00D-06.
 Requested convergence on             energy=1.00D-06.
 No special actions if energy rises.
 Fock matrices will be formed incrementally for  20 cycles.

 Cycle   1  Pass 1  IDiag  1:
 E= -472.535057376932    
 DIIS: error= 6.15D-02 at cycle   1 NSaved=   1.
 NSaved= 1 IEnMin= 1 EnMin= -472.535057376932     IErMin= 1 ErrMin= 6.15D-02
 ErrMax= 6.15D-02  0.00D+00 EMaxC= 1.00D-01 BMatC= 8.35D-01 BMatP= 8.35D-01
 IDIUse=3 WtCom= 3.85D-01 WtEn= 6.15D-01
 Coeff-Com:  0.100D+01
 Coeff-En:   0.100D+01
 Coeff:      0.100D+01
 GapD=    2.000 DampG=2.000 DampE=0.500 DampFc=1.0000 IDamp=-1.
 RMSDP=3.99D-03 MaxDP=1.74D-01              OVMax= 0.00D+00

 Cycle   2  Pass 1  IDiag  1:
 RMSU=  3.98D-03    CP:  9.95D-01
 E= -474.377673538973     Delta-E=       -1.842616162041 Rises=F Damp=F
 DIIS: error= 2.15D-02 at cycle   2 NSaved=   2.
 NSaved= 2 IEnMin= 2 EnMin= -474.377673538973     IErMin= 2 ErrMin= 2.15D-02
 ErrMax= 2.15D-02  0.00D+00 EMaxC= 1.00D-01 BMatC= 5.09D-02 BMatP= 8.35D-01
 IDIUse=3 WtCom= 7.85D-01 WtEn= 2.15D-01
 Coeff-Com: -0.807D-01 0.108D+01
 Coeff-En:   0.000D+00 0.100D+01
 Coeff:     -0.634D-01 0.106D+01
 RMSDP=1.09D-03 MaxDP=6.02D-02 DE=-1.84D+00 OVMax= 0.00D+00

 Cycle   3  Pass 1  IDiag  1:
 RMSU=  1.01D-03    CP:  9.93D-01  1.11D+00
 E= -474.479451938289     Delta-E=       -0.101778399316 Rises=F Damp=F
 DIIS: error= 9.90D-03 at cycle   3 NSaved=   3.
 NSaved= 3 IEnMin= 3 EnMin= -474.479451938289     IErMin= 3 ErrMin= 9.90D-03
 ErrMax= 9.90D-03  0.00D+00 EMaxC= 1.00D-01 BMatC= 6.59D-03 BMatP= 5.09D-02
 IDIUse=3 WtCom= 9.01D-01 WtEn= 9.90D-02
 Coeff-Com: -0.665D-01 0.233D+00 0.834D+00
 Coeff-En:   0.000D+00 0.000D+00 0.100D+01
 Coeff:     -0.600D-01 0.210D+00 0.850D+00
 RMSDP=3.61D-04 MaxDP=2.27D-02 DE=-1.02D-01 OVMax= 0.00D+00

 Cycle   4  Pass 1  IDiag  1:
 RMSU=  2.39D-04    CP:  9.93D-01  1.17D+00  9.34D-01
 E= -474.491383823954     Delta-E=       -0.011931885666 Rises=F Damp=F
 DIIS: error= 1.56D-03 at cycle   4 NSaved=   4.
 NSaved= 4 IEnMin= 4 EnMin= -474.491383823954     IErMin= 4 ErrMin= 1.56D-03
 ErrMax= 1.56D-03  0.00D+00 EMaxC= 1.00D-01 BMatC= 3.11D-04 BMatP= 6.59D-03
 IDIUse=3 WtCom= 9.84D-01 WtEn= 1.56D-02
 Coeff-Com: -0.986D-04-0.346D-01 0.381D-01 0.997D+00
 Coeff-En:   0.000D+00 0.000D+00 0.000D+00 0.100D+01
 Coeff:     -0.970D-04-0.341D-01 0.375D-01 0.997D+00
 RMSDP=1.40D-04 MaxDP=6.82D-03 DE=-1.19D-02 OVMax= 0.00D+00

 Cycle   5  Pass 1  IDiag  1:
 RMSU=  9.77D-05    CP:  9.92D-01  1.18D+00  1.03D+00  1.06D+00
 E= -474.492431877619     Delta-E=       -0.001048053665 Rises=F Damp=F
 DIIS: error= 6.36D-04 at cycle   5 NSaved=   5.
 NSaved= 5 IEnMin= 5 EnMin= -474.492431877619     IErMin= 5 ErrMin= 6.36D-04
 ErrMax= 6.36D-04  0.00D+00 EMaxC= 1.00D-01 BMatC= 6.60D-05 BMatP= 3.11D-04
 IDIUse=3 WtCom= 9.94D-01 WtEn= 6.36D-03
 Coeff-Com:  0.629D-02-0.270D-01-0.949D-01 0.223D+00 0.893D+00
 Coeff-En:   0.000D+00 0.000D+00 0.000D+00 0.000D+00 0.100D+01
 Coeff:      0.625D-02-0.269D-01-0.943D-01 0.221D+00 0.894D+00
 RMSDP=6.52D-05 MaxDP=3.87D-03 DE=-1.05D-03 OVMax= 0.00D+00

 Cycle   6  Pass 1  IDiag  1:
 RMSU=  3.87D-05    CP:  9.92D-01  1.18D+00  1.05D+00  1.26D+00  1.10D+00
 E= -474.492669196766     Delta-E=       -0.000237319146 Rises=F Damp=F
 DIIS: error= 2.62D-04 at cycle   6 NSaved=   6.
 NSaved= 6 IEnMin= 6 EnMin= -474.492669196766     IErMin= 6 ErrMin= 2.62D-04
 ErrMax= 2.62D-04  0.00D+00 EMaxC= 1.00D-01 BMatC= 8.88D-06 BMatP= 6.60D-05
 IDIUse=3 WtCom= 9.97D-01 WtEn= 2.62D-03
 Coeff-Com: -0.397D-04 0.554D-02-0.170D-01-0.107D+00 0.478D-01 0.107D+01
 Coeff-En:   0.000D+00 0.000D+00 0.000D+00 0.000D+00 0.000D+00 0.100D+01
 Coeff:     -0.396D-04 0.553D-02-0.169D-01-0.106D+00 0.477D-01 0.107D+01
 RMSDP=4.58D-05 MaxDP=2.33D-03 DE=-2.37D-04 OVMax= 0.00D+00

 Cycle   7  Pass 1  IDiag  1:
 RMSU=  2.11D-05    CP:  9.92D-01  1.18D+00  1.06D+00  1.31D+00  1.43D+00
                    CP:  1.45D+00
 E= -474.492740035739     Delta-E=       -0.000070838973 Rises=F Damp=F
 DIIS: error= 1.29D-04 at cycle   7 NSaved=   7.
 NSaved= 7 IEnMin= 7 EnMin= -474.492740035739     IErMin= 7 ErrMin= 1.29D-04
 ErrMax= 1.29D-04  0.00D+00 EMaxC= 1.00D-01 BMatC= 2.90D-06 BMatP= 8.88D-06
 IDIUse=3 WtCom= 9.99D-01 WtEn= 1.29D-03
 Coeff-Com: -0.102D-02 0.510D-02 0.118D-01-0.427D-01-0.148D+00 0.146D+00
 Coeff-Com:  0.103D+01
 Coeff-En:   0.000D+00 0.000D+00 0.000D+00 0.000D+00 0.000D+00 0.000D+00
 Coeff-En:   0.100D+01
 Coeff:     -0.102D-02 0.509D-02 0.118D-01-0.427D-01-0.148D+00 0.146D+00
 Coeff:      0.103D+01
 RMSDP=3.09D-05 MaxDP=1.62D-03 DE=-7.08D-05 OVMax= 0.00D+00

 Cycle   8  Pass 1  IDiag  1:
 RMSU=  7.62D-06    CP:  9.92D-01  1.18D+00  1.06D+00  1.34D+00  1.60D+00
                    CP:  1.94D+00  1.68D+00
 E= -474.492773408180     Delta-E=       -0.000033372441 Rises=F Damp=F
 DIIS: error= 6.96D-05 at cycle   8 NSaved=   8.
 NSaved= 8 IEnMin= 8 EnMin= -474.492773408180     IErMin= 8 ErrMin= 6.96D-05
 ErrMax= 6.96D-05  0.00D+00 EMaxC= 1.00D-01 BMatC= 1.16D-06 BMatP= 2.90D-06
 IDIUse=1 WtCom= 1.00D+00 WtEn= 0.00D+00
 Coeff-Com:  0.251D-03-0.302D-02 0.387D-02 0.452D-01-0.172D-02-0.292D+00
 Coeff-Com: -0.465D+00 0.171D+01
 Coeff:      0.251D-03-0.302D-02 0.387D-02 0.452D-01-0.172D-02-0.292D+00
 Coeff:     -0.465D+00 0.171D+01
 RMSDP=4.21D-05 MaxDP=1.86D-03 DE=-3.34D-05 OVMax= 0.00D+00

 Cycle   9  Pass 1  IDiag  1:
 RMSU=  5.77D-06    CP:  9.92D-01  1.18D+00  1.07D+00  1.36D+00  1.82D+00
                    CP:  2.49D+00  2.92D+00  2.16D+00
 E= -474.492802393266     Delta-E=       -0.000028985086 Rises=F Damp=F
 DIIS: error= 5.30D-05 at cycle   9 NSaved=   9.
 NSaved= 9 IEnMin= 9 EnMin= -474.492802393266     IErMin= 9 ErrMin= 5.30D-05
 ErrMax= 5.30D-05  0.00D+00 EMaxC= 1.00D-01 BMatC= 6.13D-07 BMatP= 1.16D-06
 IDIUse=1 WtCom= 1.00D+00 WtEn= 0.00D+00
 Coeff-Com:  0.426D-03-0.178D-02-0.566D-02 0.804D-02 0.605D-01 0.713D-01
 Coeff-Com: -0.777D+00 0.148D+00 0.150D+01
 Coeff:      0.426D-03-0.178D-02-0.566D-02 0.804D-02 0.605D-01 0.713D-01
 Coeff:     -0.777D+00 0.148D+00 0.150D+01
 RMSDP=3.89D-05 MaxDP=1.76D-03 DE=-2.90D-05 OVMax= 0.00D+00

 Cycle  10  Pass 1  IDiag  1:
 RMSU=  2.35D-05    CP:  9.92D-01  1.18D+00  1.07D+00  1.38D+00  2.02D+00
                    CP:  2.96D+00  3.00D+00  3.00D+00  2.22D+00
 E= -474.492817415821     Delta-E=       -0.000015022555 Rises=F Damp=F
 DIIS: error= 3.12D-05 at cycle  10 NSaved=  10.
 NSaved=10 IEnMin=10 EnMin= -474.492817415821     IErMin=10 ErrMin= 3.12D-05
 ErrMax= 3.12D-05  0.00D+00 EMaxC= 1.00D-01 BMatC= 1.52D-07 BMatP= 6.13D-07
 IDIUse=1 WtCom= 1.00D+00 WtEn= 0.00D+00
 Coeff-Com: -0.110D-03 0.109D-02-0.881D-03-0.154D-01-0.540D-02 0.147D+00
 Coeff-Com:  0.110D-01-0.232D+00-0.321D+00 0.142D+01
 Coeff:     -0.110D-03 0.109D-02-0.881D-03-0.154D-01-0.540D-02 0.147D+00
 Coeff:      0.110D-01-0.232D+00-0.321D+00 0.142D+01
 RMSDP=1.67D-05 MaxDP=7.90D-04 DE=-1.50D-05 OVMax= 0.00D+00

 Cycle  11  Pass 1  IDiag  1:
 RMSU=  5.62D-06    CP:  9.92D-01  1.18D+00  1.07D+00  1.39D+00  2.09D+00
                    CP:  3.00D+00  3.00D+00  3.00D+00  3.00D+00  1.50D+00
 E= -474.492820875814     Delta-E=       -0.000003459993 Rises=F Damp=F
 DIIS: error= 2.15D-05 at cycle  11 NSaved=  11.
 NSaved=11 IEnMin=11 EnMin= -474.492820875814     IErMin=11 ErrMin= 2.15D-05
 ErrMax= 2.15D-05  0.00D+00 EMaxC= 1.00D-01 BMatC= 6.94D-08 BMatP= 1.52D-07
 IDIUse=1 WtCom= 1.00D+00 WtEn= 0.00D+00
 Coeff-Com: -0.965D-04 0.398D-03 0.143D-02-0.112D-02-0.221D-01 0.121D-01
 Coeff-Com:  0.801D-01 0.106D+00-0.498D+00-0.244D-01 0.135D+01
 Coeff:     -0.965D-04 0.398D-03 0.143D-02-0.112D-02-0.221D-01 0.121D-01
 Coeff:      0.801D-01 0.106D+00-0.498D+00-0.244D-01 0.135D+01
 RMSDP=1.20D-05 MaxDP=5.34D-04 DE=-3.46D-06 OVMax= 0.00D+00

 Cycle  12  Pass 1  IDiag  1:
 RMSU=  3.56D-06    CP:  9.92D-01  1.18D+00  1.07D+00  1.39D+00  2.15D+00
                    CP:  3.00D+00  3.00D+00  3.00D+00  3.00D+00  1.85D+00
                    CP:  2.07D+00
 E= -474.492822372869     Delta-E=       -0.000001497056 Rises=F Damp=F
 DIIS: error= 1.33D-05 at cycle  12 NSaved=  12.
 NSaved=12 IEnMin=12 EnMin= -474.492822372869     IErMin=12 ErrMin= 1.33D-05
 ErrMax= 1.33D-05  0.00D+00 EMaxC= 1.00D-01 BMatC= 2.95D-08 BMatP= 6.94D-08
 IDIUse=1 WtCom= 1.00D+00 WtEn= 0.00D+00
 Coeff-Com:  0.692D-04-0.502D-03-0.149D-03 0.740D-02-0.174D-02-0.212D-01
 Coeff-Com: -0.110D+00 0.155D+00 0.236D+00-0.531D+00-0.481D+00 0.175D+01
 Coeff:      0.692D-04-0.502D-03-0.149D-03 0.740D-02-0.174D-02-0.212D-01
 Coeff:     -0.110D+00 0.155D+00 0.236D+00-0.531D+00-0.481D+00 0.175D+01
 RMSDP=7.95D-06 MaxDP=3.66D-04 DE=-1.50D-06 OVMax= 0.00D+00

 Cycle  13  Pass 1  IDiag  1:
 RMSU=  2.56D-06    CP:  9.92D-01  1.18D+00  1.07D+00  1.39D+00  2.18D+00
                    CP:  3.00D+00  3.00D+00  3.00D+00  3.00D+00  2.04D+00
                    CP:  2.74D+00  2.08D+00
 E= -474.492823048360     Delta-E=       -0.000000675491 Rises=F Damp=F
 DIIS: error= 8.36D-06 at cycle  13 NSaved=  13.
 NSaved=13 IEnMin=13 EnMin= -474.492823048360     IErMin=13 ErrMin= 8.36D-06
 ErrMax= 8.36D-06  0.00D+00 EMaxC= 1.00D-01 BMatC= 1.26D-08 BMatP= 2.95D-08
 IDIUse=1 WtCom= 1.00D+00 WtEn= 0.00D+00
 Coeff-Com:  0.231D-04-0.424D-04-0.734D-03 0.493D-03 0.187D-02 0.222D-01
 Coeff-Com: -0.561D-01-0.448D-01 0.175D+00 0.125D+00-0.576D+00-0.173D+00
 Coeff-Com:  0.153D+01
 Coeff:      0.231D-04-0.424D-04-0.734D-03 0.493D-03 0.187D-02 0.222D-01
 Coeff:     -0.561D-01-0.448D-01 0.175D+00 0.125D+00-0.576D+00-0.173D+00
 Coeff:      0.153D+01
 RMSDP=5.22D-06 MaxDP=2.45D-04 DE=-6.75D-07 OVMax= 0.00D+00

 Cycle  14  Pass 1  IDiag  1:
 RMSU=  1.03D-06    CP:  9.92D-01  1.18D+00  1.07D+00  1.38D+00  2.19D+00
                    CP:  3.00D+00  3.00D+00  3.00D+00  3.00D+00  2.14D+00
                    CP:  3.00D+00  2.83D+00  1.94D+00
 E= -474.492823310356     Delta-E=       -0.000000261996 Rises=F Damp=F
 DIIS: error= 4.53D-06 at cycle  14 NSaved=  14.
 NSaved=14 IEnMin=14 EnMin= -474.492823310356     IErMin=14 ErrMin= 4.53D-06
 ErrMax= 4.53D-06  0.00D+00 EMaxC= 1.00D-01 BMatC= 3.71D-09 BMatP= 1.26D-08
 IDIUse=1 WtCom= 1.00D+00 WtEn= 0.00D+00
 Coeff-Com: -0.376D-04 0.267D-03 0.105D-04-0.293D-02-0.398D-02 0.210D-01
 Coeff-Com:  0.422D-01-0.777D-01-0.110D+00 0.261D+00 0.206D+00-0.732D+00
 Coeff-Com: -0.227D+00 0.162D+01
 Coeff:     -0.376D-04 0.267D-03 0.105D-04-0.293D-02-0.398D-02 0.210D-01
 Coeff:      0.422D-01-0.777D-01-0.110D+00 0.261D+00 0.206D+00-0.732D+00
 Coeff:     -0.227D+00 0.162D+01
 RMSDP=4.07D-06 MaxDP=1.93D-04 DE=-2.62D-07 OVMax= 0.00D+00

 Cycle  15  Pass 1  IDiag  1:
 RMSU=  1.37D-06    CP:  9.92D-01  1.18D+00  1.07D+00  1.38D+00  2.21D+00
                    CP:  3.00D+00  3.00D+00  3.00D+00  3.00D+00  2.21D+00
                    CP:  3.00D+00  3.00D+00  2.68D+00  2.77D+00
 E= -474.492823395752     Delta-E=       -0.000000085395 Rises=F Damp=F
 DIIS: error= 2.07D-06 at cycle  15 NSaved=  15.
 NSaved=15 IEnMin=15 EnMin= -474.492823395752     IErMin=15 ErrMin= 2.07D-06
 ErrMax= 2.07D-06  0.00D+00 EMaxC= 1.00D-01 BMatC= 4.26D-10 BMatP= 3.71D-09
 IDIUse=1 WtCom= 1.00D+00 WtEn= 0.00D+00
 Coeff-Com: -0.987D-05 0.493D-04 0.143D-03-0.367D-03-0.210D-02 0.130D-02
 Coeff-Com:  0.177D-01-0.552D-02-0.417D-01 0.987D-02 0.123D+00-0.480D-01
 Coeff-Com: -0.358D+00 0.283D+00 0.102D+01
 Coeff:     -0.987D-05 0.493D-04 0.143D-03-0.367D-03-0.210D-02 0.130D-02
 Coeff:      0.177D-01-0.552D-02-0.417D-01 0.987D-02 0.123D+00-0.480D-01
 Coeff:     -0.358D+00 0.283D+00 0.102D+01
 RMSDP=8.43D-07 MaxDP=4.56D-05 DE=-8.54D-08 OVMax= 0.00D+00

 Cycle  16  Pass 1  IDiag  1:
 RMSU=  2.19D-07    CP:  9.92D-01  1.18D+00  1.07D+00  1.38D+00  2.21D+00
                    CP:  3.00D+00  3.00D+00  3.00D+00  3.00D+00  2.22D+00
                    CP:  3.00D+00  3.00D+00  2.90D+00  3.00D+00  1.29D+00
 E= -474.492823400729     Delta-E=       -0.000000004978 Rises=F Damp=F
 DIIS: error= 4.47D-07 at cycle  16 NSaved=  16.
 NSaved=16 IEnMin=16 EnMin= -474.492823400729     IErMin=16 ErrMin= 4.47D-07
 ErrMax= 4.47D-07  0.00D+00 EMaxC= 1.00D-01 BMatC= 3.73D-11 BMatP= 4.26D-10
 IDIUse=1 WtCom= 1.00D+00 WtEn= 0.00D+00
 Coeff-Com:  0.656D-05-0.445D-04-0.324D-05 0.524D-03 0.345D-03-0.279D-02
 Coeff-Com: -0.713D-02 0.989D-02 0.215D-01-0.434D-01-0.359D-01 0.124D+00
 Coeff-Com:  0.246D-01-0.241D+00-0.276D-01 0.118D+01
 Coeff:      0.656D-05-0.445D-04-0.324D-05 0.524D-03 0.345D-03-0.279D-02
 Coeff:     -0.713D-02 0.989D-02 0.215D-01-0.434D-01-0.359D-01 0.124D+00
 Coeff:      0.246D-01-0.241D+00-0.276D-01 0.118D+01
 RMSDP=2.20D-07 MaxDP=1.19D-05 DE=-4.98D-09 OVMax= 0.00D+00

 Cycle  17  Pass 1  IDiag  1:
 RMSU=  9.47D-08    CP:  9.92D-01  1.18D+00  1.07D+00  1.38D+00  2.21D+00
                    CP:  3.00D+00  3.00D+00  3.00D+00  3.00D+00  2.23D+00
                    CP:  3.00D+00  3.00D+00  2.93D+00  3.00D+00  1.35D+00
                    CP:  1.36D+00
 E= -474.492823401030     Delta-E=       -0.000000000301 Rises=F Damp=F
 DIIS: error= 2.08D-07 at cycle  17 NSaved=  17.
 NSaved=17 IEnMin=17 EnMin= -474.492823401030     IErMin=17 ErrMin= 2.08D-07
 ErrMax= 2.08D-07  0.00D+00 EMaxC= 1.00D-01 BMatC= 3.29D-12 BMatP= 3.73D-11
 IDIUse=1 WtCom= 1.00D+00 WtEn= 0.00D+00
 Coeff-Com:  0.127D-05-0.707D-05-0.173D-04 0.739D-04 0.185D-03-0.221D-03
 Coeff-Com: -0.215D-02 0.868D-03 0.591D-02-0.448D-02-0.117D-01 0.121D-01
 Coeff-Com:  0.285D-01-0.328D-01-0.874D-01 0.626D-01 0.103D+01
 Coeff:      0.127D-05-0.707D-05-0.173D-04 0.739D-04 0.185D-03-0.221D-03
 Coeff:     -0.215D-02 0.868D-03 0.591D-02-0.448D-02-0.117D-01 0.121D-01
 Coeff:      0.285D-01-0.328D-01-0.874D-01 0.626D-01 0.103D+01
 RMSDP=2.65D-08 MaxDP=1.35D-06 DE=-3.01D-10 OVMax= 0.00D+00

 Cycle  18  Pass 1  IDiag  1:
 RMSU=  2.10D-08    CP:  9.92D-01  1.18D+00  1.07D+00  1.38D+00  2.21D+00
                    CP:  3.00D+00  3.00D+00  3.00D+00  3.00D+00  2.23D+00
                    CP:  3.00D+00  3.00D+00  2.94D+00  3.00D+00  1.35D+00
                    CP:  1.42D+00  1.08D+00
 E= -474.492823401090     Delta-E=       -0.000000000060 Rises=F Damp=F
 DIIS: error= 1.25D-07 at cycle  18 NSaved=  18.
 NSaved=18 IEnMin=18 EnMin= -474.492823401090     IErMin=18 ErrMin= 1.25D-07
 ErrMax= 1.25D-07  0.00D+00 EMaxC= 1.00D-01 BMatC= 7.15D-13 BMatP= 3.29D-12
 IDIUse=1 WtCom= 1.00D+00 WtEn= 0.00D+00
 Coeff-Com: -0.147D-05 0.994D-05-0.560D-06-0.111D-03-0.754D-04 0.595D-03
 Coeff-Com:  0.154D-02-0.214D-02-0.430D-02 0.820D-02 0.816D-02-0.254D-01
 Coeff-Com: -0.672D-02 0.507D-01 0.841D-02-0.251D+00-0.378D-01 0.125D+01
 Coeff:     -0.147D-05 0.994D-05-0.560D-06-0.111D-03-0.754D-04 0.595D-03
 Coeff:      0.154D-02-0.214D-02-0.430D-02 0.820D-02 0.816D-02-0.254D-01
 Coeff:     -0.672D-02 0.507D-01 0.841D-02-0.251D+00-0.378D-01 0.125D+01
 RMSDP=1.78D-08 MaxDP=1.08D-06 DE=-6.00D-11 OVMax= 0.00D+00

 Cycle  19  Pass 1  IDiag  1:
 RMSU=  6.16D-09    CP:  9.92D-01  1.18D+00  1.07D+00  1.38D+00  2.21D+00
                    CP:  3.00D+00  3.00D+00  3.00D+00  3.00D+00  2.23D+00
                    CP:  3.00D+00  3.00D+00  2.94D+00  3.00D+00  1.36D+00
                    CP:  1.45D+00  1.15D+00  1.45D+00
 E= -474.492823401090     Delta-E=        0.000000000000 Rises=F Damp=F
 DIIS: error= 5.62D-08 at cycle  19 NSaved=  19.
 NSaved=19 IEnMin=18 EnMin= -474.492823401090     IErMin=19 ErrMin= 5.62D-08
 ErrMax= 5.62D-08  0.00D+00 EMaxC= 1.00D-01 BMatC= 6.62D-14 BMatP= 7.15D-13
 IDIUse=1 WtCom= 1.00D+00 WtEn= 0.00D+00
 Coeff-Com: -0.121D-06 0.750D-06 0.206D-05-0.831D-05-0.177D-04 0.188D-04
 Coeff-Com:  0.206D-03-0.981D-04-0.532D-03 0.412D-03 0.134D-02-0.124D-02
 Coeff-Com: -0.290D-02 0.209D-02 0.108D-01-0.878D-03-0.113D+00 0.682D-02
 Coeff-Com:  0.110D+01
 Coeff:     -0.121D-06 0.750D-06 0.206D-05-0.831D-05-0.177D-04 0.188D-04
 Coeff:      0.206D-03-0.981D-04-0.532D-03 0.412D-03 0.134D-02-0.124D-02
 Coeff:     -0.290D-02 0.209D-02 0.108D-01-0.878D-03-0.113D+00 0.682D-02
 Coeff:      0.110D+01
 RMSDP=4.07D-09 MaxDP=4.13D-07 DE= 0.00D+00 OVMax= 0.00D+00

 SCF Done:  E(RZINDO/S) =  -474.492823401     A.U. after   19 cycles
            NFock= 19  Conv=0.41D-08     -V/T= 0.9487
 KE=-9.251436625421D+03 PE=-6.652990123257D-07 EE= 4.488662751617D+03
 Leave Link  502 at Thu May  5 15:14:57 2022, MaxMem=  6710886400 cpu:              18.3 elap:               0.8
 (Enter /sw/apps/gaussian-16.0/g16/l801.exe)
 Range of M.O.s used for correlation:     1   338
 NBasis=   338 NAE=   176 NBE=   176 NFC=     0 NFV=     0
 NROrb=    338 NOA=   176 NOB=   176 NVA=   162 NVB=   162
 Leave Link  801 at Thu May  5 15:14:57 2022, MaxMem=  6710886400 cpu:               0.5 elap:               0.0
 (Enter /sw/apps/gaussian-16.0/g16/l914.exe)
 RHF ground state
 Two-electron integral symmetry not used.
 MDV=  6710886400 DFT=F DoStab=F Mixed=F DoRPA=F DoScal=F NonHer=F
 Making orbital integer symmetry assigments:
 Orbital symmetries:
       Occupied  (A) (A) (A) (A) (A) (A) (A) (A) (A) (A) (A) (A)
                 (A) (A) (A) (A) (A) (A) (A) (A) (A) (A) (A) (A)
                 (A) (A) (A) (A) (A) (A) (A) (A) (A) (A) (A) (A)
                 (A) (A) (A) (A) (A) (A) (A) (A) (A) (A) (A) (A)
                 (A) (A) (A) (A) (A) (A) (A) (A) (A) (A) (A) (A)
                 (A) (A) (A) (A) (A) (A) (A) (A) (A) (A) (A) (A)
                 (A) (A) (A) (A) (A) (A) (A) (A) (A) (A) (A) (A)
                 (A) (A) (A) (A) (A) (A) (A) (A) (A) (A) (A) (A)
                 (A) (A) (A) (A) (A) (A) (A) (A) (A) (A) (A) (A)
                 (A) (A) (A) (A) (A) (A) (A) (A) (A) (A) (A) (A)
                 (A) (A) (A) (A) (A) (A) (A) (A) (A) (A) (A) (A)
                 (A) (A) (A) (A) (A) (A) (A) (A) (A) (A) (A) (A)
                 (A) (A) (A) (A) (A) (A) (A) (A) (A) (A) (A) (A)
                 (A) (A) (A) (A) (A) (A) (A) (A) (A) (A) (A) (A)
                 (A) (A) (A) (A) (A) (A) (A) (A)
       Virtual   (A) (A) (A) (A) (A) (A) (A) (A) (A) (A) (A) (A)
                 (A) (A) (A) (A) (A) (A) (A) (A) (A) (A) (A) (A)
                 (A) (A) (A) (A) (A) (A) (A) (A) (A) (A) (A) (A)
                 (A) (A) (A) (A) (A) (A) (A) (A) (A) (A) (A) (A)
                 (A) (A) (A) (A) (A) (A) (A) (A) (A) (A) (A) (A)
                 (A) (A) (A) (A) (A) (A) (A) (A) (A) (A) (A) (A)
                 (A) (A) (A) (A) (A) (A) (A) (A) (A) (A) (A) (A)
                 (A) (A) (A) (A) (A) (A) (A) (A) (A) (A) (A) (A)
                 (A) (A) (A) (A) (A) (A) (A) (A) (A) (A) (A) (A)
                 (A) (A) (A) (A) (A) (A) (A) (A) (A) (A) (A) (A)
                 (A) (A) (A) (A) (A) (A) (A) (A) (A) (A) (A) (A)
                 (A) (A) (A) (A) (A) (A) (A) (A) (A) (A) (A) (A)
                 (A) (A) (A) (A) (A) (A) (A) (A) (A) (A) (A) (A)
                 (A) (A) (A) (A) (A) (A)
    20 initial guesses have been made.
 Convergence on wavefunction:    0.001000000000000
 Davidson Disk Diagonalization:  ConvIn= 1.00D-03 SkipCon=T Conv= 1.00D-03.
 Max sub-space:  2000 roots to seek:    20 dimension of matrix:        57024
 Iteration     1 Dimension    20 NMult     0 NNew     20
 CISAX will form    20 AO SS matrices at one time.
 NMat=    20 NSing=    20 JSym2X= 0.
 New state      3 was old state      7
 New state      5 was old state      3
 Excitation Energies [eV] at current iteration:
 Root      1 :     1.604303951451856
 Root      2 :     2.209784113367567
 Root      3 :     3.190312957619367
 Root      4 :     3.288256458913601
 Root      5 :     3.360201940019891
 Root      6 :     3.430705435049595
 Root      7 :     3.668659856840255
 Root      8 :     3.803869395532790
 Root      9 :     3.858199174649625
 Root     10 :     3.988521287195050
 Root     11 :     4.196751151367327
 Root     12 :     4.273302474661805
 Root     13 :     4.305406217655925
 Root     14 :     4.377848517885540
 Root     15 :     4.491964600404764
 Root     16 :     4.661178672942607
 Root     17 :     4.710359106279643
 Root     18 :     4.892869668326401
 Root     19 :     4.955057084565249
 Root     20 :     5.780550667106644
 Iteration     2 Dimension    40 NMult    20 NNew     20
 CISAX will form    20 AO SS matrices at one time.
 NMat=    20 NSing=    20 JSym2X= 0.
 Root      1 not converged, maximum delta is    0.049138644970770
 Root      2 not converged, maximum delta is    0.033246852053979
 Root      3 not converged, maximum delta is    0.400048450600222
 Root      4 not converged, maximum delta is    0.289395954918305
 New state      5 was old state      6
 Root      5 not converged, maximum delta is    0.149959823369326
 Excitation Energies [eV] at current iteration:
 Root      1 :     1.243249700790951   Change is   -0.361054250660905
 Root      2 :     2.010576804633630   Change is   -0.199207308733937
 Root      3 :     2.962658382304866   Change is   -0.227654575314501
 Root      4 :     3.072956128856628   Change is   -0.215300330056973
 Root      5 :     3.203208683888566   Change is   -0.227496751161028
 Root      6 :     3.214887313027736   Change is   -0.145314626992155
 Root      7 :     3.462404282944479   Change is   -0.206255573895776
 Root      8 :     3.535128890043465   Change is   -0.323070284606161
 Root      9 :     3.554543674664619   Change is   -0.718758799997186
 Root     10 :     3.581832569113251   Change is   -0.222036826419539
 Root     11 :     3.708110377818352   Change is   -0.280410909376698
 Root     12 :     3.839113910546659   Change is   -0.357637240820668
 Root     13 :     3.920607864941702   Change is   -0.740570808000905
 Root     14 :     4.071359244991474   Change is   -0.306489272894066
 Root     15 :     4.114512916792848   Change is   -0.190893300863077
 Root     16 :     4.197837559727525   Change is   -0.294127040677239
 Root     17 :     4.498083752069664   Change is   -0.212275354209980
 Root     18 :     4.845688448783571   Change is   -0.047181219542830
 Root     19 :     4.949635119443045   Change is   -0.005421965122204
 Root     20 :     5.722393687629205
 Iteration     3 Dimension    45 NMult    40 NNew      5
 CISAX will form     5 AO SS matrices at one time.
 NMat=     5 NSing=     5 JSym2X= 0.
 Root      1 not converged, maximum delta is    0.008540036202984
 Root      2 not converged, maximum delta is    0.019703777691599
 Root      3 not converged, maximum delta is    0.045682687825852
 Root      4 not converged, maximum delta is    0.035902019631011
 Root      5 not converged, maximum delta is    0.107408317887296
 Excitation Energies [eV] at current iteration:
 Root      1 :     1.227338070358087   Change is   -0.015911630432865
 Root      2 :     1.983440693896608   Change is   -0.027136110737022
 Root      3 :     2.942278752162967   Change is   -0.020379630141900
 Root      4 :     3.042053778820379   Change is   -0.030902350036248
 Root      5 :     3.169302505168455   Change is   -0.033906178720111
 Iteration     4 Dimension    50 NMult    45 NNew      5
 CISAX will form     5 AO SS matrices at one time.
 NMat=     5 NSing=     5 JSym2X= 0.
 Root      1 not converged, maximum delta is    0.002644898613162
 Root      2 not converged, maximum delta is    0.002718204394693
 Root      3 not converged, maximum delta is    0.009708996987614
 Root      4 not converged, maximum delta is    0.021166125480615
 Root      5 not converged, maximum delta is    0.011950391863830
 Excitation Energies [eV] at current iteration:
 Root      1 :     1.226475361260546   Change is   -0.000862709097540
 Root      2 :     1.982631301469889   Change is   -0.000809392426719
 Root      3 :     2.939497590793299   Change is   -0.002781161369667
 Root      4 :     3.036037230056320   Change is   -0.006016548764059
 Root      5 :     3.165993833994668   Change is   -0.003308671173787
 Iteration     5 Dimension    55 NMult    50 NNew      5
 CISAX will form     5 AO SS matrices at one time.
 NMat=     5 NSing=     5 JSym2X= 0.
 Root      1 has converged.
 Root      2 has converged.
 Root      3 not converged, maximum delta is    0.021090833268503
 Root      4 not converged, maximum delta is    0.079870129026740
 Root      5 not converged, maximum delta is    0.029559915756666
 Excitation Energies [eV] at current iteration:
 Root      1 :     1.226426189734246   Change is   -0.000049171526300
 Root      2 :     1.982564761208063   Change is   -0.000066540261826
 Root      3 :     2.938243528670298   Change is   -0.001254062123002
 Root      4 :     3.024971441192637   Change is   -0.011065788863683
 Root      5 :     3.164624235307720   Change is   -0.001369598686948
 Iteration     6 Dimension    58 NMult    55 NNew      3
 CISAX will form     3 AO SS matrices at one time.
 NMat=     3 NSing=     3 JSym2X= 0.
 Root      1 has converged.
 Root      2 has converged.
 Root      3 not converged, maximum delta is    0.037550999084407
 Root      4 not converged, maximum delta is    0.224047191154872
 No map to state      5
 Excitation Energies [eV] at current iteration:
 Root      1 :     1.226425982521339   Change is   -0.000000207212908
 Root      2 :     1.982558871635356   Change is   -0.000005889572708
 Root      3 :     2.936759707242504   Change is   -0.001483821427794
 Root      4 :     2.994106151980199   Change is   -0.030865289212438
 Root      5 :     3.063551331458564
 Iteration     7 Dimension    61 NMult    58 NNew      3
 CISAX will form     3 AO SS matrices at one time.
 NMat=     3 NSing=     3 JSym2X= 0.
 Root      1 has converged.
 Root      2 has converged.
 New state      3 was old state      5
 Root      3 not converged, maximum delta is    0.448711272537605
 New state      4 was old state      3
 Root      4 not converged, maximum delta is    0.016932695653244
 New state      5 was old state      4
 Root      5 not converged, maximum delta is    0.227777546410453
 Excitation Energies [eV] at current iteration:
 Root      1 :     1.226425759058310   Change is   -0.000000223463029
 Root      2 :     1.982556539429180   Change is   -0.000002332206175
 Root      3 :     2.916183940003087   Change is   -0.147367391455478
 Root      4 :     2.936180995866347   Change is   -0.000578711376157
 Root      5 :     3.003619353084406   Change is    0.009513201104207
 Iteration     8 Dimension    64 NMult    61 NNew      3
 CISAX will form     3 AO SS matrices at one time.
 NMat=     3 NSing=     3 JSym2X= 0.
 Root      1 has converged.
 Root      2 has converged.
 Root      3 not converged, maximum delta is    0.023758050271519
 Root      4 not converged, maximum delta is    0.002592234635197
 Root      5 not converged, maximum delta is    0.024770804486936
 Excitation Energies [eV] at current iteration:
 Root      1 :     1.226425667289592   Change is   -0.000000091768718
 Root      2 :     1.982556177616663   Change is   -0.000000361812517
 Root      3 :     2.899390140555638   Change is   -0.016793799447449
 Root      4 :     2.936076646610692   Change is   -0.000104349255655
 Root      5 :     3.000424704470680   Change is   -0.003194648613726
 Iteration     9 Dimension    67 NMult    64 NNew      3
 CISAX will form     3 AO SS matrices at one time.
 NMat=     3 NSing=     3 JSym2X= 0.
 Root      1 has converged.
 Root      2 has converged.
 Root      3 not converged, maximum delta is    0.003830570047987
 Root      4 has converged.
 Root      5 not converged, maximum delta is    0.004099520137244
 Excitation Energies [eV] at current iteration:
 Root      1 :     1.226425602683543   Change is   -0.000000064606048
 Root      2 :     1.982556147000596   Change is   -0.000000030616067
 Root      3 :     2.897340032502014   Change is   -0.002050108053624
 Root      4 :     2.936049767829839   Change is   -0.000026878780852
 Root      5 :     2.999860704821429   Change is   -0.000563999649251
 Iteration    10 Dimension    69 NMult    67 NNew      2
 CISAX will form     2 AO SS matrices at one time.
 NMat=     2 NSing=     2 JSym2X= 0.
 Root      1 has converged.
 Root      2 has converged.
 Root      3 not converged, maximum delta is    0.001502683346484
 Root      4 has converged.
 Root      5 not converged, maximum delta is    0.003235733267309
 Excitation Energies [eV] at current iteration:
 Root      1 :     1.226425467277744   Change is   -0.000000135405799
 Root      2 :     1.982556105263092   Change is   -0.000000041737504
 Root      3 :     2.897049513864501   Change is   -0.000290518637513
 Root      4 :     2.936038476804985   Change is   -0.000011291024854
 Root      5 :     2.999681675379656   Change is   -0.000179029441772
 Iteration    11 Dimension    71 NMult    69 NNew      2
 CISAX will form     2 AO SS matrices at one time.
 NMat=     2 NSing=     2 JSym2X= 0.
 Root      1 has converged.
 Root      2 has converged.
 Root      3 not converged, maximum delta is    0.001008360367356
 Root      4 has converged.
 Root      5 not converged, maximum delta is    0.001783607226399
 Excitation Energies [eV] at current iteration:
 Root      1 :     1.226425288547678   Change is   -0.000000178730066
 Root      2 :     1.982556080650181   Change is   -0.000000024612910
 Root      3 :     2.897006140588270   Change is   -0.000043373276231
 Root      4 :     2.936034807789477   Change is   -0.000003669015508
 Root      5 :     2.999630106940289   Change is   -0.000051568439367
 Iteration    12 Dimension    73 NMult    71 NNew      2
 CISAX will form     2 AO SS matrices at one time.
 NMat=     2 NSing=     2 JSym2X= 0.
 Root      1 has converged.
 Root      2 has converged.
 Root      3 has converged.
 Root      4 has converged.
 Root      5 has converged.
 Excitation Energies [eV] at current iteration:
 Root      1 :     1.226425252947418   Change is   -0.000000035600260
 Root      2 :     1.982556076227727   Change is   -0.000000004422455
 Root      3 :     2.896997739077956   Change is   -0.000008401510313
 Root      4 :     2.936034138803315   Change is   -0.000000668986162
 Root      5 :     2.999620007702436   Change is   -0.000010099237853
 Convergence achieved on expansion vectors.
 ***********************************************************************
 Excited states from <AA,BB:AA,BB> singles matrix:
 ***********************************************************************
 
 1PDM for each excited state written to RWF  633
 Ground to excited state transition densities written to RWF  633
 Ground to excited state transition electric dipole moments (Au):
       state          X           Y           Z        Dip. S.      Osc.
         1         0.4636      4.3898      0.6636     19.9254      0.5987
         2         0.9056     -0.1795     -0.0295      0.8531      0.0414
         3         0.3362     -0.1227     -0.0373      0.1295      0.0092
         4        -3.1967      1.1438      0.1620     11.5537      0.8311
         5         1.7978      0.0990     -0.0583      3.2453      0.2385
 Ground to excited state transition velocity dipole moments (Au):
       state          X           Y           Z        Dip. S.      Osc.
         1         0.0332      0.0564      0.0058      0.0043      0.0638
         2        -0.0133      0.0131     -0.0012      0.0003      0.0032
         3        -0.0119      0.0061     -0.0055      0.0002      0.0013
         4         0.1175     -0.0400      0.0032      0.0154      0.0952
         5        -0.0519     -0.0011     -0.0073      0.0027      0.0166
 Ground to excited state transition magnetic dipole moments (Au):
       state          X           Y           Z
         1        -0.0832     -0.1096      0.0853
         2         0.0332     -0.1071      0.4368
         3         0.6484     -0.1025     -0.2481
         4         0.0776     -0.2154      0.5886
         5         0.0804     -0.6527      0.3270
 Ground to excited state transition velocity quadrupole moments (Au):
       state          XX          YY          ZZ          XY          XZ          YZ
         1        -0.5354     -0.0514     -0.0117     -0.7092      0.0068     -0.1047
         2         0.1333      0.0971     -0.0130     -0.1325      0.0030      0.0358
         3         0.2401      0.0529     -0.0138     -0.0873      0.0493     -0.0908
         4        -2.4917      0.3857     -0.0099      0.0671     -0.0084      0.0201
         5         0.6220      0.2467      0.0052     -0.0627     -0.0071      0.0694
 <0|del|b> * <b|rxdel|0> + <0|del|b> * <b|delr+rdel|0>
 Rotatory Strengths (R) in cgs (10**-40 erg-esu-cm/Gauss)
       state          XX          YY          ZZ    R(velocity)    E-M Angle
         1       -79.6981    -12.9513    -39.8555    -44.1683      142.59
         2        -8.7862     -7.8141     -6.4404     -7.6802      106.36
         3         3.0120    -19.1998    -30.3864    -15.5247      133.68
         4        33.8965     43.0223     51.4644     42.7944       75.53
         5        -3.7898    -34.0226      0.5870    -12.4085       98.67
 1/2[<0|r|b>*<b|rxdel|0> + (<0|rxdel|b>*<b|r|0>)*]
 Rotatory Strengths (R) in cgs (10**-40 erg-esu-cm/Gauss)
       state          XX          YY          ZZ     R(length)
         1        27.2678    340.1646    -40.0486    109.1279
         2       -21.2626    -13.5885      9.1194     -8.5772
         3      -154.1558     -8.8980     -6.5392    -56.5310
         4       175.5146    174.2471    -67.4351     94.1089
         5      -102.2608     45.6884     13.4909    -14.3605
  1/2[<0|del|b>*<b|r|0> + (<0|r|b>*<b|del|0>)*] (Au)
       state          X           Y           Z        Dip. S.   Osc.(frdel)
         1         0.0154      0.2474      0.0038     -0.2667     -0.1778
         2        -0.0120     -0.0023      0.0000      0.0143      0.0096
         3        -0.0040     -0.0007      0.0002      0.0046      0.0030
         4        -0.3756     -0.0457      0.0005      0.4208      0.2805
         5        -0.0933     -0.0001      0.0004      0.0930      0.0620

 Excitation energies and oscillator strengths:
 
 Excited State   1:      Singlet-A      1.2264 eV 1010.94 nm  f=0.5987  <S**2>=0.000
     175 ->178        -0.17935
     176 ->177         0.66479
 This state for optimization and/or second-order correction.
 Total Energy, E(CIS/TDA) =  -474.447753102    
 Copying the excited state density for this state as the 1-particle RhoCI density.
 
 Excited State   2:      Singlet-A      1.9826 eV  625.38 nm  f=0.0414  <S**2>=0.000
     175 ->177         0.53691
     176 ->178         0.43370
 
 Excited State   3:      Singlet-A      2.8970 eV  427.97 nm  f=0.0092  <S**2>=0.000
     168 ->177         0.35178
     168 ->178        -0.21635
     168 ->179        -0.28850
     168 ->180        -0.29269
     168 ->184         0.14326
     168 ->186        -0.22606
     168 ->187         0.12365
     168 ->194        -0.11496
 
 Excited State   4:      Singlet-A      2.9360 eV  422.28 nm  f=0.8311  <S**2>=0.000
     169 ->179        -0.10139
     175 ->177        -0.33527
     176 ->178         0.45845
     176 ->179         0.30527
     176 ->181         0.13219
 
 Excited State   5:      Singlet-A      2.9996 eV  413.33 nm  f=0.2385  <S**2>=0.000
     169 ->177        -0.18166
     169 ->179        -0.29123
     169 ->180         0.19738
     169 ->186        -0.11561
     169 ->187        -0.10008
     175 ->177         0.20721
     176 ->178        -0.23298
     176 ->179         0.35179
 SavETr:  write IOETrn=   770 NScale= 10 NData=  16 NLR=1 NState=    5 LETran=     100.
 Leave Link  914 at Thu May  5 15:15:02 2022, MaxMem=  6710886400 cpu:             125.4 elap:               5.2
 (Enter /sw/apps/gaussian-16.0/g16/l601.exe)
 Copying SCF densities to generalized density rwf, IOpCl= 0 IROHF=0.

 **********************************************************************

            Population analysis using the SCF density.

 **********************************************************************

 Orbital symmetries:
       Occupied  (A) (A) (A) (A) (A) (A) (A) (A) (A) (A) (A) (A)
                 (A) (A) (A) (A) (A) (A) (A) (A) (A) (A) (A) (A)
                 (A) (A) (A) (A) (A) (A) (A) (A) (A) (A) (A) (A)
                 (A) (A) (A) (A) (A) (A) (A) (A) (A) (A) (A) (A)
                 (A) (A) (A) (A) (A) (A) (A) (A) (A) (A) (A) (A)
                 (A) (A) (A) (A) (A) (A) (A) (A) (A) (A) (A) (A)
                 (A) (A) (A) (A) (A) (A) (A) (A) (A) (A) (A) (A)
                 (A) (A) (A) (A) (A) (A) (A) (A) (A) (A) (A) (A)
                 (A) (A) (A) (A) (A) (A) (A) (A) (A) (A) (A) (A)
                 (A) (A) (A) (A) (A) (A) (A) (A) (A) (A) (A) (A)
                 (A) (A) (A) (A) (A) (A) (A) (A) (A) (A) (A) (A)
                 (A) (A) (A) (A) (A) (A) (A) (A) (A) (A) (A) (A)
                 (A) (A) (A) (A) (A) (A) (A) (A) (A) (A) (A) (A)
                 (A) (A) (A) (A) (A) (A) (A) (A) (A) (A) (A) (A)
                 (A) (A) (A) (A) (A) (A) (A) (A)
       Virtual   (A) (A) (A) (A) (A) (A) (A) (A) (A) (A) (A) (A)
                 (A) (A) (A) (A) (A) (A) (A) (A) (A) (A) (A) (A)
                 (A) (A) (A) (A) (A) (A) (A) (A) (A) (A) (A) (A)
                 (A) (A) (A) (A) (A) (A) (A) (A) (A) (A) (A) (A)
                 (A) (A) (A) (A) (A) (A) (A) (A) (A) (A) (A) (A)
                 (A) (A) (A) (A) (A) (A) (A) (A) (A) (A) (A) (A)
                 (A) (A) (A) (A) (A) (A) (A) (A) (A) (A) (A) (A)
                 (A) (A) (A) (A) (A) (A) (A) (A) (A) (A) (A) (A)
                 (A) (A) (A) (A) (A) (A) (A) (A) (A) (A) (A) (A)
                 (A) (A) (A) (A) (A) (A) (A) (A) (A) (A) (A) (A)
                 (A) (A) (A) (A) (A) (A) (A) (A) (A) (A) (A) (A)
                 (A) (A) (A) (A) (A) (A) (A) (A) (A) (A) (A) (A)
                 (A) (A) (A) (A) (A) (A) (A) (A) (A) (A) (A) (A)
                 (A) (A) (A) (A) (A) (A)
 The electronic state is 1-A.
 Alpha  occ. eigenvalues --   -1.85467  -1.82569  -1.80357  -1.76699  -1.72920
 Alpha  occ. eigenvalues --   -1.71914  -1.67734  -1.63067  -1.59526  -1.57239
 Alpha  occ. eigenvalues --   -1.53673  -1.50473  -1.48721  -1.48115  -1.46405
 Alpha  occ. eigenvalues --   -1.43495  -1.41666  -1.40222  -1.38545  -1.38136
 Alpha  occ. eigenvalues --   -1.36632  -1.33490  -1.32816  -1.32330  -1.29803
 Alpha  occ. eigenvalues --   -1.28560  -1.25198  -1.22265  -1.21172  -1.18422
 Alpha  occ. eigenvalues --   -1.17309  -1.16166  -1.14994  -1.14071  -1.13404
 Alpha  occ. eigenvalues --   -1.12344  -1.11463  -1.09206  -1.05033  -1.03399
 Alpha  occ. eigenvalues --   -1.02432  -1.01339  -0.99594  -0.97394  -0.97222
 Alpha  occ. eigenvalues --   -0.96107  -0.94921  -0.94442  -0.92983  -0.92214
 Alpha  occ. eigenvalues --   -0.91254  -0.90534  -0.89457  -0.88383  -0.87205
 Alpha  occ. eigenvalues --   -0.86228  -0.83885  -0.82432  -0.81803  -0.80394
 Alpha  occ. eigenvalues --   -0.79452  -0.78781  -0.78200  -0.76788  -0.75697
 Alpha  occ. eigenvalues --   -0.75263  -0.74870  -0.74616  -0.74089  -0.72824
 Alpha  occ. eigenvalues --   -0.72274  -0.71623  -0.71402  -0.70895  -0.70217
 Alpha  occ. eigenvalues --   -0.69902  -0.69114  -0.68876  -0.68318  -0.68130
 Alpha  occ. eigenvalues --   -0.67431  -0.67309  -0.66811  -0.66295  -0.65515
 Alpha  occ. eigenvalues --   -0.65164  -0.64807  -0.64308  -0.63986  -0.63408
 Alpha  occ. eigenvalues --   -0.63027  -0.62927  -0.62507  -0.61944  -0.61673
 Alpha  occ. eigenvalues --   -0.61352  -0.61217  -0.60911  -0.60135  -0.60016
 Alpha  occ. eigenvalues --   -0.59584  -0.59304  -0.58916  -0.58314  -0.58200
 Alpha  occ. eigenvalues --   -0.57857  -0.57614  -0.57460  -0.56613  -0.56013
 Alpha  occ. eigenvalues --   -0.55755  -0.55644  -0.55388  -0.55295  -0.55098
 Alpha  occ. eigenvalues --   -0.54686  -0.54348  -0.53956  -0.53440  -0.53128
 Alpha  occ. eigenvalues --   -0.52936  -0.52556  -0.52229  -0.51784  -0.51465
 Alpha  occ. eigenvalues --   -0.51302  -0.51092  -0.50857  -0.50620  -0.50109
 Alpha  occ. eigenvalues --   -0.49824  -0.49654  -0.49454  -0.49004  -0.48515
 Alpha  occ. eigenvalues --   -0.48397  -0.48330  -0.48192  -0.47924  -0.47512
 Alpha  occ. eigenvalues --   -0.47240  -0.47116  -0.46871  -0.46462  -0.46054
 Alpha  occ. eigenvalues --   -0.45818  -0.45721  -0.45661  -0.45326  -0.45204
 Alpha  occ. eigenvalues --   -0.45137  -0.44608  -0.44517  -0.44182  -0.43490
 Alpha  occ. eigenvalues --   -0.43374  -0.43002  -0.42331  -0.41949  -0.41814
 Alpha  occ. eigenvalues --   -0.41168  -0.40758  -0.40253  -0.38250  -0.38222
 Alpha  occ. eigenvalues --   -0.37822  -0.36580  -0.35173  -0.34413  -0.34228
 Alpha  occ. eigenvalues --   -0.33127  -0.32459  -0.32225  -0.31136  -0.26644
 Alpha  occ. eigenvalues --   -0.21534
 Alpha virt. eigenvalues --   -0.08390  -0.01847  -0.00379   0.01116   0.01818
 Alpha virt. eigenvalues --    0.02874   0.03054   0.03474   0.04208   0.05407
 Alpha virt. eigenvalues --    0.06711   0.06958   0.07643   0.08110   0.08323
 Alpha virt. eigenvalues --    0.08792   0.09045   0.09287   0.09391   0.09657
 Alpha virt. eigenvalues --    0.09959   0.10055   0.10380   0.10633   0.10816
 Alpha virt. eigenvalues --    0.11329   0.11396   0.11457   0.12032   0.12334
 Alpha virt. eigenvalues --    0.12566   0.13132   0.13262   0.13762   0.13777
 Alpha virt. eigenvalues --    0.13899   0.14205   0.14212   0.14621   0.14740
 Alpha virt. eigenvalues --    0.15190   0.15406   0.15490   0.15542   0.15793
 Alpha virt. eigenvalues --    0.15877   0.16553   0.16591   0.16633   0.17155
 Alpha virt. eigenvalues --    0.17452   0.17717   0.17771   0.17982   0.18263
 Alpha virt. eigenvalues --    0.18395   0.18843   0.19365   0.19532   0.19658
 Alpha virt. eigenvalues --    0.19799   0.20346   0.20478   0.20627   0.21061
 Alpha virt. eigenvalues --    0.21446   0.21672   0.23022   0.23210   0.23270
 Alpha virt. eigenvalues --    0.23743   0.23881   0.23952   0.24135   0.24252
 Alpha virt. eigenvalues --    0.24517   0.24645   0.24658   0.24697   0.24745
 Alpha virt. eigenvalues --    0.24906   0.24941   0.24992   0.25060   0.25168
 Alpha virt. eigenvalues --    0.25203   0.25229   0.25326   0.25331   0.25375
 Alpha virt. eigenvalues --    0.25548   0.25585   0.25626   0.25642   0.25850
 Alpha virt. eigenvalues --    0.25903   0.25973   0.25995   0.26079   0.26140
 Alpha virt. eigenvalues --    0.26335   0.26375   0.26392   0.26495   0.26535
 Alpha virt. eigenvalues --    0.26572   0.26673   0.26815   0.26868   0.27169
 Alpha virt. eigenvalues --    0.27340   0.27630   0.27825   0.27838   0.28021
 Alpha virt. eigenvalues --    0.28293   0.28507   0.28747   0.29081   0.29867
 Alpha virt. eigenvalues --    0.30186   0.30572   0.31286   0.31704   0.31794
 Alpha virt. eigenvalues --    0.31920   0.32172   0.32741   0.33627   0.34234
 Alpha virt. eigenvalues --    0.35189   0.35269   0.36095   0.36216   0.36469
 Alpha virt. eigenvalues --    0.37077   0.37229   0.37633   0.37960   0.38618
 Alpha virt. eigenvalues --    0.39043   0.39471   0.40002   0.40307   0.40609
 Alpha virt. eigenvalues --    0.40815   0.41282   0.41948   0.42348   0.43110
 Alpha virt. eigenvalues --    0.44402   0.45172   0.45632   0.45958   0.47299
 Alpha virt. eigenvalues --    0.47983   0.48380   0.48503   0.51214   0.53676
 Alpha virt. eigenvalues --    0.54778   0.57227
          Condensed to atoms (all electrons):
 Mulliken charges:
               1
     1  Mg   0.430014
     2  C   -0.047579
     3  C   -0.115543
     4  C   -0.053453
     5  C   -0.064694
     6  N   -0.305615
     7  C    0.104649
     8  C   -0.005360
     9  C    0.015177
    10  C    0.171215
    11  C   -0.041528
    12  C   -0.026611
    13  C    0.006901
    14  C    0.469040
    15  O   -0.517219
    16  O   -0.268272
    17  N   -0.329855
    18  C    0.159362
    19  C   -0.010971
    20  C   -0.032232
    21  C    0.134148
    22  C   -0.043832
    23  C    0.337174
    24  O   -0.518796
    25  C   -0.032467
    26  N   -0.232219
    27  C    0.130852
    28  C   -0.006625
    29  C    0.003039
    30  C    0.108590
    31  C   -0.052040
    32  C   -0.028234
    33  C   -0.054524
    34  N   -0.323842
    35  C    0.056055
    36  C    0.029201
    37  C   -0.047490
    38  C    0.120020
    39  C   -0.048641
    40  C    0.327761
    41  O   -0.524638
    42  C    0.062332
    43  C    0.494697
    44  O   -0.540302
    45  O   -0.265203
    46  C    0.072805
    47  C    0.110050
    48  C   -0.103067
    49  C   -0.017396
    50  C   -0.042185
    51  C   -0.020088
    52  C   -0.025268
    53  C   -0.032883
    54  C    0.004444
    55  C   -0.065025
    56  C   -0.033149
    57  C   -0.045630
    58  C   -0.038097
    59  C   -0.009076
    60  C   -0.067199
    61  C   -0.034512
    62  C   -0.041265
    63  C   -0.024902
    64  C   -0.017812
    65  C   -0.069627
    66  C   -0.051623
    67  H    0.020612
    68  H    0.048655
    69  H    0.037072
    70  H    0.049172
    71  H    0.026728
    72  H    0.024009
    73  H    0.018213
    74  H    0.029921
    75  H    0.011330
    76  H    0.040262
    77  H    0.029087
    78  H    0.052010
    79  H    0.028633
    80  H    0.029879
    81  H    0.024143
    82  H    0.041902
    83  H    0.032514
    84  H    0.041119
    85  H    0.035183
    86  H    0.033890
    87  H    0.029243
    88  H    0.021916
    89  H    0.026775
    90  H    0.018372
    91  H    0.019048
    92  H    0.019644
    93  H    0.015813
    94  H    0.024681
    95  H    0.032339
    96  H    0.019134
    97  H    0.039560
    98  H    0.058075
    99  H    0.044972
   100  H    0.049108
   101  H    0.025542
   102  H    0.051725
   103  H    0.061512
   104  H    0.024095
   105  H    0.021732
   106  H    0.027108
   107  H    0.025492
   108  H    0.032715
   109  H    0.014454
   110  H    0.023745
   111  H    0.026794
   112  H    0.009921
   113  H    0.020703
   114  H    0.016564
   115  H    0.021300
   116  H    0.013751
   117  H    0.009565
   118  H    0.009466
   119  H    0.030173
   120  H    0.026514
   121  H    0.011472
   122  H    0.020603
   123  H    0.015271
   124  H    0.024011
   125  H    0.008370
   126  H    0.023610
   127  H    0.013098
   128  H    0.022911
   129  H    0.018595
   130  H    0.023996
   131  H    0.008193
   132  H    0.019365
   133  H    0.027356
   134  H    0.016664
   135  H    0.025719
   136  H    0.012779
   137  H    0.016365
   138  H    0.021281
   139  H    0.015737
   140  H    0.017781
 Sum of Mulliken charges =  -0.00000
 Mulliken charges with hydrogens summed into heavy atoms:
               1
     1  Mg   0.430014
     2  C   -0.047579
     3  C   -0.094931
     4  C   -0.004798
     5  C   -0.027622
     6  N   -0.305615
     7  C    0.104649
     8  C    0.043812
     9  C    0.041905
    10  C    0.171215
    11  C    0.030615
    12  C    0.024981
    13  C    0.087997
    14  C    0.469040
    15  O   -0.517219
    16  O   -0.268272
    17  N   -0.329855
    18  C    0.159362
    19  C   -0.010971
    20  C   -0.032232
    21  C    0.134148
    22  C    0.038823
    23  C    0.337174
    24  O   -0.518796
    25  C    0.083069
    26  N   -0.232219
    27  C    0.130852
    28  C    0.028558
    29  C    0.036929
    30  C    0.108590
    31  C    0.025895
    32  C    0.009185
    33  C    0.005614
    34  N   -0.323842
    35  C    0.056055
    36  C    0.029201
    37  C   -0.047490
    38  C    0.120020
    39  C    0.042392
    40  C    0.327761
    41  O   -0.524638
    42  C    0.120406
    43  C    0.494697
    44  O   -0.540302
    45  O   -0.265203
    46  C    0.192427
    47  C    0.223288
    48  C   -0.078973
    49  C   -0.017396
    50  C    0.032147
    51  C    0.027081
    52  C    0.025271
    53  C   -0.002259
    54  C    0.021008
    55  C   -0.020408
    56  C    0.006489
    57  C   -0.007645
    58  C   -0.002223
    59  C    0.014935
    60  C   -0.022121
    61  C    0.006994
    62  C   -0.009075
    63  C    0.021819
    64  C   -0.001147
    65  C   -0.014765
    66  C    0.003177
 Charge=             -0.0000 electrons
 Dipole moment (field-independent basis, Debye):
    X=              3.5621    Y=              7.3384    Z=             -3.3750  Tot=              8.8279
 N-N= 4.288281051068D+03 E-N= 0.000000000000D+00  KE=-9.251436625421D+03
 Leave Link  601 at Thu May  5 15:15:02 2022, MaxMem=  6710886400 cpu:               0.8 elap:               0.0
 (Enter /sw/apps/gaussian-16.0/g16/l9999.exe)
 1\1\GINC-BP1-COMPUTE168\SP\RZINDO CIS\STO-3G\C55H74Mg1N4O6\OF15641\05-
 May-2022\0\\#p ZINDO=(nstates=5)\\step_951_chromophore_19 ZINDO\\0,1\M
 g,0,26.021,50.006,26.079\C,0,23.912,51.415,28.664\C,0,28.304,49.354,28
 .415\C,0,28.254,49.653,23.589\C,0,23.888,51.774,23.693\N,0,25.974,50.1
 88,28.308\C,0,25.094,50.902,29.116\C,0,25.562,50.844,30.618\C,0,27.044
 ,50.434,30.43\C,0,27.148,49.95,28.941\C,0,28.045,51.518,30.635\C,0,24.
 646,49.882,31.516\C,0,23.987,50.611,32.668\C,0,24.813,51.125,33.888\O,
 0,25.656,51.966,33.888\O,0,24.369,50.596,35.031\N,0,27.84,49.238,26.00
 7\C,0,28.638,49.023,27.071\C,0,29.819,48.274,26.641\C,0,29.876,48.56,2
 5.195\C,0,28.634,49.205,24.857\C,0,30.873,47.683,27.639\C,0,30.987,48.
 222,24.277\O,0,31.037,48.558,23.13\C,0,32.094,47.418,24.799\N,0,25.977
 ,50.523,23.918\C,0,27.04,50.221,23.164\C,0,26.795,50.607,21.661\C,0,25
 .306,51.143,21.722\C,0,25.125,51.216,23.223\C,0,27.894,51.609,21.174\C
 ,0,24.301,50.159,21.076\C,0,23.263,50.578,20.039\N,0,24.245,51.219,26.
 114\C,0,23.483,51.782,25.083\C,0,22.365,52.399,25.683\C,0,22.521,52.31
 8,27.023\C,0,23.612,51.524,27.244\C,0,21.311,53.227,24.933\C,0,21.863,
 52.667,28.242\O,0,20.862,53.354,28.442\C,0,22.775,52.023,29.41\C,0,23.
 105,53.152,30.255\O,0,24.091,53.898,30.185\O,0,22.044,53.421,31.074\C,
 0,22.375,54.439,32.108\C,0,25.069,51.07,36.224\C,0,24.84,50.291,37.498
 \C,0,25.253,50.557,38.801\C,0,26.09,51.787,39.128\C,0,24.936,49.598,39
 .962\C,0,26.096,48.581,40.243\C,0,25.526,47.153,40.234\C,0,26.213,46.2
 13,41.217\C,0,26.316,44.744,40.846\C,0,25.641,46.276,42.607\C,0,26.687
 ,46.66,43.628\C,0,25.952,47.125,44.911\C,0,26.652,48.371,45.479\C,0,26
 .298,48.508,46.995\C,0,26.242,49.658,44.661\C,0,27.36,50.21,43.747\C,0
 ,28.161,51.344,44.403\C,0,27.746,52.783,43.84\C,0,29.043,53.712,43.619
 \C,0,26.585,53.546,44.521\H,0,29.023,49.108,29.199\H,0,28.94,49.627,22
 .74\H,0,23.198,52.165,22.942\H,0,25.507,51.865,30.998\H,0,27.222,49.59
 ,31.096\H,0,28.501,51.854,29.704\H,0,28.809,51.142,31.314\H,0,27.591,5
 2.415,31.057\H,0,25.391,49.253,32.005\H,0,24.041,49.12,31.025\H,0,23.2
 94,49.871,33.069\H,0,23.545,51.552,32.342\H,0,31.496,48.508,27.984\H,0
 ,31.597,46.925,27.337\H,0,30.441,47.262,28.547\H,0,32.503,47.973,25.64
 3\H,0,32.809,47.324,23.982\H,0,31.749,46.407,25.012\H,0,26.889,49.69,2
 1.079\H,0,25.187,52.175,21.39\H,0,28.482,51.925,22.035\H,0,27.421,52.4
 86,20.731\H,0,28.513,51.077,20.452\H,0,23.671,49.761,21.871\H,0,24.873
 ,49.311,20.7\H,0,23.58,50.275,19.041\H,0,23.146,51.656,19.936\H,0,22.2
 89,50.191,20.34\H,0,20.583,52.529,24.52\H,0,21.84,53.714,24.114\H,0,20
 .891,54.003,25.573\H,0,22.144,51.279,29.896\H,0,22.431,55.418,31.632\H
 ,0,23.282,54.233,32.676\H,0,21.539,54.578,32.793\H,0,24.6,52.027,36.45
 1\H,0,26.135,51.052,35.995\H,0,24.443,49.285,37.368\H,0,26.918,51.553,
 39.798\H,0,25.456,52.479,39.682\H,0,26.55,52.301,38.284\H,0,23.948,49.
 148,39.867\H,0,24.876,50.291,40.801\H,0,26.575,48.754,41.207\H,0,26.87
 3,48.686,39.486\H,0,25.641,46.822,39.202\H,0,24.464,47.004,40.427\H,0,
 27.249,46.551,41.193\H,0,25.656,44.001,41.293\H,0,27.369,44.537,41.037
 \H,0,26.136,44.37,39.838\H,0,25.331,45.272,42.897\H,0,24.721,46.786,42
 .894\H,0,27.48,47.329,43.294\H,0,27.229,45.802,44.025\H,0,25.84,46.215
 ,45.5\H,0,24.92,47.411,44.707\H,0,27.735,48.249,45.52\H,0,26.229,47.5,
 47.404\H,0,25.37,49.024,47.242\H,0,27.131,48.922,47.563\H,0,25.977,50.
 46,45.35\H,0,25.391,49.384,44.036\H,0,26.936,50.321,42.749\H,0,28.108,
 49.449,43.521\H,0,29.191,51.082,44.16\H,0,28.064,51.368,45.489\H,0,27.
 365,52.699,42.822\H,0,29.157,54.683,44.101\H,0,29.007,53.929,42.552\H,
 0,29.955,53.157,43.839\H,0,26.522,53.444,45.605\H,0,25.652,53.214,44.0
 66\H,0,26.68,54.611,44.308\\Version=ES64L-G16RevA.03\State=1-A\HF=-474
 .4928234\RMSD=4.068e-09\PG=C01 [X(C55H74Mg1N4O6)]\\@


 EVERYTHING'S GOT A MORAL, IF ONLY YOU CAN FIND IT.

                                    -- LEWIS CARROL, ALICE IN WONDERLAND
 Job cpu time:       0 days  0 hours  2 minutes 47.4 seconds.
 Elapsed time:       0 days  0 hours  0 minutes  7.2 seconds.
 File lengths (MBytes):  RWF=   1263 Int=      0 D2E=      0 Chk=     38 Scr=      1
 Normal termination of Gaussian 16 at Thu May  5 15:15:02 2022.
