 Entering Gaussian System, Link 0=g16
 Initial command:
 /sw/apps/gaussian-16.0/g16/l1.exe "/tmp/Gau-144067.inp" -scrdir="/tmp/"
 Entering Link 1 = /sw/apps/gaussian-16.0/g16/l1.exe PID=    144068.
  
 Copyright (c) 1988,1990,1992,1993,1995,1998,2003,2009,2016,
            Gaussian, Inc.  All Rights Reserved.
  
 This is part of the Gaussian(R) 16 program.  It is based on
 the Gaussian(R) 09 system (copyright 2009, Gaussian, Inc.),
 the Gaussian(R) 03 system (copyright 2003, Gaussian, Inc.),
 the Gaussian(R) 98 system (copyright 1998, Gaussian, Inc.),
 the Gaussian(R) 94 system (copyright 1995, Gaussian, Inc.),
 the Gaussian 92(TM) system (copyright 1992, Gaussian, Inc.),
 the Gaussian 90(TM) system (copyright 1990, Gaussian, Inc.),
 the Gaussian 88(TM) system (copyright 1988, Gaussian, Inc.),
 the Gaussian 86(TM) system (copyright 1986, Carnegie Mellon
 University), and the Gaussian 82(TM) system (copyright 1983,
 Carnegie Mellon University). Gaussian is a federally registered
 trademark of Gaussian, Inc.
  
 This software contains proprietary and confidential information,
 including trade secrets, belonging to Gaussian, Inc.
  
 This software is provided under written license and may be
 used, copied, transmitted, or stored only in accord with that
 written license.
  
 The following legend is applicable only to US Government
 contracts under FAR:
  
                    RESTRICTED RIGHTS LEGEND
  
 Use, reproduction and disclosure by the US Government is
 subject to restrictions as set forth in subparagraphs (a)
 and (c) of the Commercial Computer Software - Restricted
 Rights clause in FAR 52.227-19.
  
 Gaussian, Inc.
 340 Quinnipiac St., Bldg. 40, Wallingford CT 06492
  
  
 ---------------------------------------------------------------
 Warning -- This program may not be used in any manner that
 competes with the business of Gaussian, Inc. or will provide
 assistance to any competitor of Gaussian, Inc.  The licensee
 of this program is prohibited from giving any competitor of
 Gaussian, Inc. access to this program.  By using this program,
 the user acknowledges that Gaussian, Inc. is engaged in the
 business of creating and licensing software in the field of
 computational chemistry and represents and warrants to the
 licensee that it is not a competitor of Gaussian, Inc. and that
 it will not use this program in any manner prohibited above.
 ---------------------------------------------------------------
  

 Cite this work as:
 Gaussian 16, Revision A.03,
 M. J. Frisch, G. W. Trucks, H. B. Schlegel, G. E. Scuseria, 
 M. A. Robb, J. R. Cheeseman, G. Scalmani, V. Barone, 
 G. A. Petersson, H. Nakatsuji, X. Li, M. Caricato, A. V. Marenich, 
 J. Bloino, B. G. Janesko, R. Gomperts, B. Mennucci, H. P. Hratchian, 
 J. V. Ortiz, A. F. Izmaylov, J. L. Sonnenberg, D. Williams-Young, 
 F. Ding, F. Lipparini, F. Egidi, J. Goings, B. Peng, A. Petrone, 
 T. Henderson, D. Ranasinghe, V. G. Zakrzewski, J. Gao, N. Rega, 
 G. Zheng, W. Liang, M. Hada, M. Ehara, K. Toyota, R. Fukuda, 
 J. Hasegawa, M. Ishida, T. Nakajima, Y. Honda, O. Kitao, H. Nakai, 
 T. Vreven, K. Throssell, J. A. Montgomery, Jr., J. E. Peralta, 
 F. Ogliaro, M. J. Bearpark, J. J. Heyd, E. N. Brothers, K. N. Kudin, 
 V. N. Staroverov, T. A. Keith, R. Kobayashi, J. Normand, 
 K. Raghavachari, A. P. Rendell, J. C. Burant, S. S. Iyengar, 
 J. Tomasi, M. Cossi, J. M. Millam, M. Klene, C. Adamo, R. Cammi, 
 J. W. Ochterski, R. L. Martin, K. Morokuma, O. Farkas, 
 J. B. Foresman, and D. J. Fox, Gaussian, Inc., Wallingford CT, 2016.
 
 ******************************************
 Gaussian 16:  ES64L-G16RevA.03 25-Dec-2016
                 4-May-2022 
 ******************************************
 %nproc=24
 Will use up to   24 processors via shared memory.
 %mem=75GB
 -----------------------------------
 #p cam-b3lyp/Def2SVP td=(nstates=5)
 -----------------------------------
 1/38=1,172=1/1;
 2/12=2,17=6,18=5,40=1/2;
 3/5=43,7=101,11=9,25=1,30=1,74=-40/1,2,3,8;
 4//1;
 5/5=2,38=5/2;
 8/6=1,10=1,108=5/1;
 9/41=5,42=1,70=2/14;
 6/7=2,8=2,9=2,10=2/1;
 99/5=1,9=1/99;
 Leave Link    1 at Wed May  4 09:13:47 2022, MaxMem= 10066329600 cpu:               1.0 elap:               0.0
 (Enter /sw/apps/gaussian-16.0/g16/l101.exe)
 --------------------------------------------------------
 step_1601_chromophore_10 TDDFT with cam-b3lyp functional
 --------------------------------------------------------
 Symbolic Z-matrix:
 Charge =  0 Multiplicity = 1
 Mg                    42.225    7.88      29.516 
 C                     43.817    9.588     32.15 
 C                     40.205    6.37      31.773 
 C                     40.814    6.379     26.809 
 C                     44.695    9.139     27.325 
 N                     42.075    7.983     31.705 
 C                     42.768    8.809     32.637 
 C                     42.051    8.925     33.963 
 C                     41.135    7.545     33.86 
 C                     41.047    7.364     32.306 
 C                     41.81     6.237     34.547 
 C                     41.385    10.32     34.333 
 C                     40.694    10.313    35.691 
 C                     41.256    11.213    36.784 
 O                     42.12     12.13     36.671 
 O                     40.651    10.941    38.031 
 N                     40.694    6.581     29.26 
 C                     39.979    6.028     30.386 
 C                     39.011    5.038     29.844 
 C                     39.051    5.264     28.432 
 C                     40.189    6.155     28.06 
 C                     38.188    4.252     30.75 
 C                     38.158    4.626     27.312 
 O                     38.352    4.919     26.095 
 C                     36.934    3.76      27.583 
 N                     42.673    7.75      27.381 
 C                     41.981    7.018     26.492 
 C                     42.588    7.2       25.076 
 C                     43.527    8.333     25.259 
 C                     43.687    8.419     26.78 
 C                     43.346    5.874     24.739 
 C                     42.963    9.757     24.752 
 C                     41.684    10.411    25.363 
 N                     43.925    9.087     29.621 
 C                     44.848    9.498     28.674 
 C                     45.802    10.421    29.241 
 C                     45.431    10.479    30.596 
 C                     44.277    9.733     30.799 
 C                     46.965    11.175    28.616 
 C                     45.712    11.072    31.908 
 O                     46.488    11.976    32.166 
 C                     44.683    10.53     32.959 
 C                     45.302    9.982     34.195 
 O                     46.089    9.032     34.262 
 O                     44.57     10.421    35.261 
 C                     44.613    9.725     36.567 
 C                     41.073    11.635    39.243 
 C                     40.464    10.858    40.415 
 C                     40.573    11.171    41.725 
 C                     41.452    12.335    42.178 
 C                     40.125    10.176    42.841 
 C                     39.278    10.987    43.872 
 C                     37.789    10.598    43.851 
 C                     37.195    10.712    45.303 
 C                     36.539    9.367     45.643 
 C                     36.306    11.904    45.562 
 C                     36.3      12.386    47.068 
 C                     34.983    11.863    47.823 
 C                     33.968    12.988    48.262 
 C                     33.715    12.942    49.771 
 C                     32.686    12.864    47.404 
 C                     32.857    13.61     46.036 
 C                     31.859    14.752    45.993 
 C                     32.5      16.092    45.579 
 C                     33.38     16.561    46.795 
 C                     31.44     17.137    45.184 
 H                     39.664    5.763     32.503 
 H                     40.395    5.738     26.031 
 H                     45.401    9.604     26.634 
 H                     42.815    8.615     34.676 
 H                     40.155    7.764     34.283 
 H                     41.966    5.308     33.997 
 H                     41.035    5.994     35.275 
 H                     42.723    6.424     35.112 
 H                     40.589    10.538    33.622 
 H                     42.21     11.026    34.238 
 H                     40.654    9.286     36.053 
 H                     39.667    10.661    35.571 
 H                     37.166    4.509     30.473 
 H                     38.448    4.307     31.808 
 H                     38.387    3.192     30.59 
 H                     36.418    3.459     26.671 
 H                     36.35     4.475     28.163 
 H                     37.326    2.913     28.145 
 H                     41.799    7.584     24.43 
 H                     44.523    8.277     24.819 
 H                     43.118    5.017     25.373 
 H                     44.415    6.072     24.659 
 H                     43.097    5.645     23.703 
 H                     42.757    9.817     23.683 
 H                     43.767    10.491    24.8 
 H                     41.378    9.829     26.233 
 H                     40.865    10.273    24.658 
 H                     41.787    11.458    25.647 
 H                     46.917    12.221    28.921 
 H                     47.06     10.927    27.559 
 H                     47.804    10.688    29.112 
 H                     44.226    11.473    33.258 
 H                     45.015    8.724     36.412 
 H                     43.635    9.657     37.044 
 H                     45.35     10.26     37.165 
 H                     40.711    12.663    39.26 
 H                     42.151    11.791    39.28 
 H                     40.016    9.942     40.027 
 H                     40.909    13.268    42.327 
 H                     42.188    12.54     41.401 
 H                     41.892    12.01     43.121 
 H                     41.028    9.817     43.335 
 H                     39.529    9.413     42.341 
 H                     39.318    12.052    43.643 
 H                     39.697    10.808    44.862 
 H                     37.54     9.624     43.43 
 H                     37.186    11.251    43.22 
 H                     37.954    10.853    46.072 
 H                     37.137    8.555     45.228 
 H                     35.563    9.382     45.159 
 H                     36.256    9.433     46.693 
 H                     35.283    11.724    45.23 
 H                     36.693    12.782    45.045 
 H                     36.28     13.474    47.126 
 H                     37.088    12.005    47.717 
 H                     35.346    11.298    48.681 
 H                     34.496    11.097    47.219 
 H                     34.437    13.971    48.262 
 H                     33.707    13.964    50.151 
 H                     34.448    12.309    50.271 
 H                     32.708    12.666    50.085 
 H                     31.811    13.15     47.988 
 H                     32.453    11.854    47.068 
 H                     32.583    12.938    45.223 
 H                     33.859    13.994    45.845 
 H                     31.419    14.972    46.966 
 H                     30.949    14.556    45.425 
 H                     33.186    15.921    44.749 
 H                     33.324    17.635    46.968 
 H                     34.411    16.436    46.462 
 H                     33.209    16.106    47.771 
 H                     31.648    17.356    44.137 
 H                     31.362    18.087    45.713 
 H                     30.478    16.626    45.218 
 
 ITRead=  0  0  0  0  0  0  0  0  0  0  0  0  0  0  0  0  0  0  0  0
 ITRead=  0  0  0  0  0  0  0  0  0  0  0  0  0  0  0  0  0  0  0  0
 ITRead=  0  0  0  0  0  0  0  0  0  0  0  0  0  0  0  0  0  0  0  0
 ITRead=  0  0  0  0  0  0  0  0  0  0  0  0  0  0  0  0  0  0  0  0
 ITRead=  0  0  0  0  0  0  0  0  0  0  0  0  0  0  0  0  0  0  0  0
 ITRead=  0  0  0  0  0  0  0  0  0  0  0  0  0  0  0  0  0  0  0  0
 ITRead=  0  0  0  0  0  0  0  0  0  0  0  0  0  0  0  0  0  0  0  0
 MicOpt= -1 -1 -1 -1 -1 -1 -1 -1 -1 -1 -1 -1 -1 -1 -1 -1 -1 -1 -1 -1
 MicOpt= -1 -1 -1 -1 -1 -1 -1 -1 -1 -1 -1 -1 -1 -1 -1 -1 -1 -1 -1 -1
 MicOpt= -1 -1 -1 -1 -1 -1 -1 -1 -1 -1 -1 -1 -1 -1 -1 -1 -1 -1 -1 -1
 MicOpt= -1 -1 -1 -1 -1 -1 -1 -1 -1 -1 -1 -1 -1 -1 -1 -1 -1 -1 -1 -1
 MicOpt= -1 -1 -1 -1 -1 -1 -1 -1 -1 -1 -1 -1 -1 -1 -1 -1 -1 -1 -1 -1
 MicOpt= -1 -1 -1 -1 -1 -1 -1 -1 -1 -1 -1 -1 -1 -1 -1 -1 -1 -1 -1 -1
 MicOpt= -1 -1 -1 -1 -1 -1 -1 -1 -1 -1 -1 -1 -1 -1 -1 -1 -1 -1 -1 -1
 NAtoms=    140 NQM=      140 NQMF=       0 NMMI=      0 NMMIF=      0
                NMic=       0 NMicF=      0.
                    Isotopes and Nuclear Properties:
 (Nuclear quadrupole moments (NQMom) in fm**2, nuclear magnetic moments (NMagM)
  in nuclear magnetons)

  Atom         1           2           3           4           5           6           7           8           9          10
 IAtWgt=          24          12          12          12          12          14          12          12          12          12
 AtmWgt=  23.9850450  12.0000000  12.0000000  12.0000000  12.0000000  14.0030740  12.0000000  12.0000000  12.0000000  12.0000000
 NucSpn=           0           0           0           0           0           2           0           0           0           0
 AtZEff=  -0.0000000  -0.0000000  -0.0000000  -0.0000000  -0.0000000  -0.0000000  -0.0000000  -0.0000000  -0.0000000  -0.0000000
 NQMom=    0.0000000   0.0000000   0.0000000   0.0000000   0.0000000   2.0440000   0.0000000   0.0000000   0.0000000   0.0000000
 NMagM=    0.0000000   0.0000000   0.0000000   0.0000000   0.0000000   0.4037610   0.0000000   0.0000000   0.0000000   0.0000000
 AtZNuc=  12.0000000   6.0000000   6.0000000   6.0000000   6.0000000   7.0000000   6.0000000   6.0000000   6.0000000   6.0000000

  Atom        11          12          13          14          15          16          17          18          19          20
 IAtWgt=          12          12          12          12          16          16          14          12          12          12
 AtmWgt=  12.0000000  12.0000000  12.0000000  12.0000000  15.9949146  15.9949146  14.0030740  12.0000000  12.0000000  12.0000000
 NucSpn=           0           0           0           0           0           0           2           0           0           0
 AtZEff=  -0.0000000  -0.0000000  -0.0000000  -0.0000000  -0.0000000  -0.0000000  -0.0000000  -0.0000000  -0.0000000  -0.0000000
 NQMom=    0.0000000   0.0000000   0.0000000   0.0000000   0.0000000   0.0000000   2.0440000   0.0000000   0.0000000   0.0000000
 NMagM=    0.0000000   0.0000000   0.0000000   0.0000000   0.0000000   0.0000000   0.4037610   0.0000000   0.0000000   0.0000000
 AtZNuc=   6.0000000   6.0000000   6.0000000   6.0000000   8.0000000   8.0000000   7.0000000   6.0000000   6.0000000   6.0000000

  Atom        21          22          23          24          25          26          27          28          29          30
 IAtWgt=          12          12          12          16          12          14          12          12          12          12
 AtmWgt=  12.0000000  12.0000000  12.0000000  15.9949146  12.0000000  14.0030740  12.0000000  12.0000000  12.0000000  12.0000000
 NucSpn=           0           0           0           0           0           2           0           0           0           0
 AtZEff=  -0.0000000  -0.0000000  -0.0000000  -0.0000000  -0.0000000  -0.0000000  -0.0000000  -0.0000000  -0.0000000  -0.0000000
 NQMom=    0.0000000   0.0000000   0.0000000   0.0000000   0.0000000   2.0440000   0.0000000   0.0000000   0.0000000   0.0000000
 NMagM=    0.0000000   0.0000000   0.0000000   0.0000000   0.0000000   0.4037610   0.0000000   0.0000000   0.0000000   0.0000000
 AtZNuc=   6.0000000   6.0000000   6.0000000   8.0000000   6.0000000   7.0000000   6.0000000   6.0000000   6.0000000   6.0000000

  Atom        31          32          33          34          35          36          37          38          39          40
 IAtWgt=          12          12          12          14          12          12          12          12          12          12
 AtmWgt=  12.0000000  12.0000000  12.0000000  14.0030740  12.0000000  12.0000000  12.0000000  12.0000000  12.0000000  12.0000000
 NucSpn=           0           0           0           2           0           0           0           0           0           0
 AtZEff=  -0.0000000  -0.0000000  -0.0000000  -0.0000000  -0.0000000  -0.0000000  -0.0000000  -0.0000000  -0.0000000  -0.0000000
 NQMom=    0.0000000   0.0000000   0.0000000   2.0440000   0.0000000   0.0000000   0.0000000   0.0000000   0.0000000   0.0000000
 NMagM=    0.0000000   0.0000000   0.0000000   0.4037610   0.0000000   0.0000000   0.0000000   0.0000000   0.0000000   0.0000000
 AtZNuc=   6.0000000   6.0000000   6.0000000   7.0000000   6.0000000   6.0000000   6.0000000   6.0000000   6.0000000   6.0000000

  Atom        41          42          43          44          45          46          47          48          49          50
 IAtWgt=          16          12          12          16          16          12          12          12          12          12
 AtmWgt=  15.9949146  12.0000000  12.0000000  15.9949146  15.9949146  12.0000000  12.0000000  12.0000000  12.0000000  12.0000000
 NucSpn=           0           0           0           0           0           0           0           0           0           0
 AtZEff=  -0.0000000  -0.0000000  -0.0000000  -0.0000000  -0.0000000  -0.0000000  -0.0000000  -0.0000000  -0.0000000  -0.0000000
 NQMom=    0.0000000   0.0000000   0.0000000   0.0000000   0.0000000   0.0000000   0.0000000   0.0000000   0.0000000   0.0000000
 NMagM=    0.0000000   0.0000000   0.0000000   0.0000000   0.0000000   0.0000000   0.0000000   0.0000000   0.0000000   0.0000000
 AtZNuc=   8.0000000   6.0000000   6.0000000   8.0000000   8.0000000   6.0000000   6.0000000   6.0000000   6.0000000   6.0000000

  Atom        51          52          53          54          55          56          57          58          59          60
 IAtWgt=          12          12          12          12          12          12          12          12          12          12
 AtmWgt=  12.0000000  12.0000000  12.0000000  12.0000000  12.0000000  12.0000000  12.0000000  12.0000000  12.0000000  12.0000000
 NucSpn=           0           0           0           0           0           0           0           0           0           0
 AtZEff=  -0.0000000  -0.0000000  -0.0000000  -0.0000000  -0.0000000  -0.0000000  -0.0000000  -0.0000000  -0.0000000  -0.0000000
 NQMom=    0.0000000   0.0000000   0.0000000   0.0000000   0.0000000   0.0000000   0.0000000   0.0000000   0.0000000   0.0000000
 NMagM=    0.0000000   0.0000000   0.0000000   0.0000000   0.0000000   0.0000000   0.0000000   0.0000000   0.0000000   0.0000000
 AtZNuc=   6.0000000   6.0000000   6.0000000   6.0000000   6.0000000   6.0000000   6.0000000   6.0000000   6.0000000   6.0000000

  Atom        61          62          63          64          65          66          67          68          69          70
 IAtWgt=          12          12          12          12          12          12           1           1           1           1
 AtmWgt=  12.0000000  12.0000000  12.0000000  12.0000000  12.0000000  12.0000000   1.0078250   1.0078250   1.0078250   1.0078250
 NucSpn=           0           0           0           0           0           0           1           1           1           1
 AtZEff=  -0.0000000  -0.0000000  -0.0000000  -0.0000000  -0.0000000  -0.0000000  -0.0000000  -0.0000000  -0.0000000  -0.0000000
 NQMom=    0.0000000   0.0000000   0.0000000   0.0000000   0.0000000   0.0000000   0.0000000   0.0000000   0.0000000   0.0000000
 NMagM=    0.0000000   0.0000000   0.0000000   0.0000000   0.0000000   0.0000000   2.7928460   2.7928460   2.7928460   2.7928460
 AtZNuc=   6.0000000   6.0000000   6.0000000   6.0000000   6.0000000   6.0000000   1.0000000   1.0000000   1.0000000   1.0000000

  Atom        71          72          73          74          75          76          77          78          79          80
 IAtWgt=           1           1           1           1           1           1           1           1           1           1
 AtmWgt=   1.0078250   1.0078250   1.0078250   1.0078250   1.0078250   1.0078250   1.0078250   1.0078250   1.0078250   1.0078250
 NucSpn=           1           1           1           1           1           1           1           1           1           1
 AtZEff=  -0.0000000  -0.0000000  -0.0000000  -0.0000000  -0.0000000  -0.0000000  -0.0000000  -0.0000000  -0.0000000  -0.0000000
 NQMom=    0.0000000   0.0000000   0.0000000   0.0000000   0.0000000   0.0000000   0.0000000   0.0000000   0.0000000   0.0000000
 NMagM=    2.7928460   2.7928460   2.7928460   2.7928460   2.7928460   2.7928460   2.7928460   2.7928460   2.7928460   2.7928460
 AtZNuc=   1.0000000   1.0000000   1.0000000   1.0000000   1.0000000   1.0000000   1.0000000   1.0000000   1.0000000   1.0000000

  Atom        81          82          83          84          85          86          87          88          89          90
 IAtWgt=           1           1           1           1           1           1           1           1           1           1
 AtmWgt=   1.0078250   1.0078250   1.0078250   1.0078250   1.0078250   1.0078250   1.0078250   1.0078250   1.0078250   1.0078250
 NucSpn=           1           1           1           1           1           1           1           1           1           1
 AtZEff=  -0.0000000  -0.0000000  -0.0000000  -0.0000000  -0.0000000  -0.0000000  -0.0000000  -0.0000000  -0.0000000  -0.0000000
 NQMom=    0.0000000   0.0000000   0.0000000   0.0000000   0.0000000   0.0000000   0.0000000   0.0000000   0.0000000   0.0000000
 NMagM=    2.7928460   2.7928460   2.7928460   2.7928460   2.7928460   2.7928460   2.7928460   2.7928460   2.7928460   2.7928460
 AtZNuc=   1.0000000   1.0000000   1.0000000   1.0000000   1.0000000   1.0000000   1.0000000   1.0000000   1.0000000   1.0000000

  Atom        91          92          93          94          95          96          97          98          99         100
 IAtWgt=           1           1           1           1           1           1           1           1           1           1
 AtmWgt=   1.0078250   1.0078250   1.0078250   1.0078250   1.0078250   1.0078250   1.0078250   1.0078250   1.0078250   1.0078250
 NucSpn=           1           1           1           1           1           1           1           1           1           1
 AtZEff=  -0.0000000  -0.0000000  -0.0000000  -0.0000000  -0.0000000  -0.0000000  -0.0000000  -0.0000000  -0.0000000  -0.0000000
 NQMom=    0.0000000   0.0000000   0.0000000   0.0000000   0.0000000   0.0000000   0.0000000   0.0000000   0.0000000   0.0000000
 NMagM=    2.7928460   2.7928460   2.7928460   2.7928460   2.7928460   2.7928460   2.7928460   2.7928460   2.7928460   2.7928460
 AtZNuc=   1.0000000   1.0000000   1.0000000   1.0000000   1.0000000   1.0000000   1.0000000   1.0000000   1.0000000   1.0000000

  Atom       101         102         103         104         105         106         107         108         109         110
 IAtWgt=           1           1           1           1           1           1           1           1           1           1
 AtmWgt=   1.0078250   1.0078250   1.0078250   1.0078250   1.0078250   1.0078250   1.0078250   1.0078250   1.0078250   1.0078250
 NucSpn=           1           1           1           1           1           1           1           1           1           1
 AtZEff=  -0.0000000  -0.0000000  -0.0000000  -0.0000000  -0.0000000  -0.0000000  -0.0000000  -0.0000000  -0.0000000  -0.0000000
 NQMom=    0.0000000   0.0000000   0.0000000   0.0000000   0.0000000   0.0000000   0.0000000   0.0000000   0.0000000   0.0000000
 NMagM=    2.7928460   2.7928460   2.7928460   2.7928460   2.7928460   2.7928460   2.7928460   2.7928460   2.7928460   2.7928460
 AtZNuc=   1.0000000   1.0000000   1.0000000   1.0000000   1.0000000   1.0000000   1.0000000   1.0000000   1.0000000   1.0000000

  Atom       111         112         113         114         115         116         117         118         119         120
 IAtWgt=           1           1           1           1           1           1           1           1           1           1
 AtmWgt=   1.0078250   1.0078250   1.0078250   1.0078250   1.0078250   1.0078250   1.0078250   1.0078250   1.0078250   1.0078250
 NucSpn=           1           1           1           1           1           1           1           1           1           1
 AtZEff=  -0.0000000  -0.0000000  -0.0000000  -0.0000000  -0.0000000  -0.0000000  -0.0000000  -0.0000000  -0.0000000  -0.0000000
 NQMom=    0.0000000   0.0000000   0.0000000   0.0000000   0.0000000   0.0000000   0.0000000   0.0000000   0.0000000   0.0000000
 NMagM=    2.7928460   2.7928460   2.7928460   2.7928460   2.7928460   2.7928460   2.7928460   2.7928460   2.7928460   2.7928460
 AtZNuc=   1.0000000   1.0000000   1.0000000   1.0000000   1.0000000   1.0000000   1.0000000   1.0000000   1.0000000   1.0000000

  Atom       121         122         123         124         125         126         127         128         129         130
 IAtWgt=           1           1           1           1           1           1           1           1           1           1
 AtmWgt=   1.0078250   1.0078250   1.0078250   1.0078250   1.0078250   1.0078250   1.0078250   1.0078250   1.0078250   1.0078250
 NucSpn=           1           1           1           1           1           1           1           1           1           1
 AtZEff=  -0.0000000  -0.0000000  -0.0000000  -0.0000000  -0.0000000  -0.0000000  -0.0000000  -0.0000000  -0.0000000  -0.0000000
 NQMom=    0.0000000   0.0000000   0.0000000   0.0000000   0.0000000   0.0000000   0.0000000   0.0000000   0.0000000   0.0000000
 NMagM=    2.7928460   2.7928460   2.7928460   2.7928460   2.7928460   2.7928460   2.7928460   2.7928460   2.7928460   2.7928460
 AtZNuc=   1.0000000   1.0000000   1.0000000   1.0000000   1.0000000   1.0000000   1.0000000   1.0000000   1.0000000   1.0000000

  Atom       131         132         133         134         135         136         137         138         139         140
 IAtWgt=           1           1           1           1           1           1           1           1           1           1
 AtmWgt=   1.0078250   1.0078250   1.0078250   1.0078250   1.0078250   1.0078250   1.0078250   1.0078250   1.0078250   1.0078250
 NucSpn=           1           1           1           1           1           1           1           1           1           1
 AtZEff=  -0.0000000  -0.0000000  -0.0000000  -0.0000000  -0.0000000  -0.0000000  -0.0000000  -0.0000000  -0.0000000  -0.0000000
 NQMom=    0.0000000   0.0000000   0.0000000   0.0000000   0.0000000   0.0000000   0.0000000   0.0000000   0.0000000   0.0000000
 NMagM=    2.7928460   2.7928460   2.7928460   2.7928460   2.7928460   2.7928460   2.7928460   2.7928460   2.7928460   2.7928460
 AtZNuc=   1.0000000   1.0000000   1.0000000   1.0000000   1.0000000   1.0000000   1.0000000   1.0000000   1.0000000   1.0000000
 Leave Link  101 at Wed May  4 09:13:47 2022, MaxMem= 10066329600 cpu:               2.8 elap:               0.1
 (Enter /sw/apps/gaussian-16.0/g16/l202.exe)
 Stoichiometry    C55H74MgN4O6
 Framework group  C1[X(C55H74MgN4O6)]
 Deg. of freedom   414
 Full point group                 C1      NOp   1
 Largest Abelian subgroup         C1      NOp   1
 Largest concise Abelian subgroup C1      NOp   1
                         Standard orientation:                         
 ---------------------------------------------------------------------
 Center     Atomic      Atomic             Coordinates (Angstroms)
 Number     Number       Type             X           Y           Z
 ---------------------------------------------------------------------
      1         12           0        6.325930    0.508177    0.030138
      2          6           0        4.107650   -2.223757   -0.043704
      3          6           0        3.970308    2.406979   -1.486484
      4          6           0        8.621042    3.009233    0.251394
      5          6           0        8.853555   -1.688711    1.157638
      6          7           0        4.290269    0.092856   -0.682898
      7          6           0        3.494403   -1.083063   -0.560575
      8          6           0        2.017949   -0.812488   -0.741389
      9          6           0        2.138394    0.608521   -1.590089
     10          6           0        3.540785    1.119648   -1.113150
     11          6           0        2.117221    0.431391   -3.204597
     12          6           0        1.076149   -0.923028    0.534257
     13          6           0       -0.386918   -0.628999    0.226559
     14          6           0       -1.393933   -1.759812    0.392914
     15          8           0       -1.218572   -2.884935    0.943824
     16          8           0       -2.656588   -1.400168   -0.128025
     17          7           0        6.336436    2.464778   -0.488032
     18          6           0        5.215588    3.070020   -1.167952
     19          6           0        5.605964    4.467437   -1.493101
     20          6           0        6.821176    4.657744   -0.762716
     21          6           0        7.334841    3.364534   -0.223212
     22          6           0        4.703352    5.318352   -2.252836
     23          6           0        7.662044    5.969270   -0.584583
     24          8           0        8.741936    5.951667    0.077307
     25          6           0        7.200445    7.349665   -1.035148
     26          7           0        8.429604    0.663267    0.601392
     27          6           0        9.162677    1.787634    0.542988
     28          6           0       10.600617    1.504042    1.051447
     29          6           0       10.482317    0.151975    1.648789
     30          6           0        9.160781   -0.373050    1.079290
     31          6           0       11.528453    1.496908   -0.207712
     32          6           0       10.352897    0.140802    3.256908
     33          6           0        9.166980    0.830968    4.001321
     34          7           0        6.536306   -1.521103    0.472449
     35          6           0        7.610984   -2.286843    0.892412
     36          6           0        7.210836   -3.648683    1.154721
     37          6           0        5.850450   -3.660964    0.799432
     38          6           0        5.443525   -2.378105    0.455738
     39          6           0        7.995564   -4.846226    1.666386
     40          6           0        4.626062   -4.463778    0.708228
     41          8           0        4.441534   -5.591548    1.132540
     42          6           0        3.454304   -3.572606    0.169710
     43          6           0        2.722297   -4.156809   -0.985294
     44          8           0        3.201062   -4.445049   -2.087138
     45          8           0        1.387232   -3.953942   -0.781948
     46          6           0        0.420920   -3.988113   -1.903097
     47          6           0       -3.766743   -2.346786   -0.139522
     48          6           0       -4.830785   -1.747111   -1.064941
     49          6           0       -6.042529   -2.278001   -1.340225
     50          6           0       -6.431931   -3.653093   -0.801491
     51          6           0       -6.940180   -1.711056   -2.484332
     52          6           0       -8.384184   -1.561591   -1.909348
     53          6           0       -8.807952   -0.090692   -1.748852
     54          6           0      -10.351303    0.044750   -2.020623
     55          6           0      -10.540269    1.122622   -3.096470
     56          6           0      -11.222152    0.242072   -0.803679
     57          6           0      -12.695473   -0.306932   -0.971951
     58          6           0      -13.713499    0.894650   -1.284787
     59          6           0      -14.773450    1.189622   -0.154271
     60          6           0      -16.200660    1.084461   -0.697614
     61          6           0      -14.444322    2.556742    0.492042
     62          6           0      -13.357521    2.396969    1.610308
     63          6           0      -13.985566    2.780117    2.937249
     64          6           0      -13.734731    1.734429    4.042462
     65          6           0      -14.621477    0.485658    3.685716
     66          6           0      -14.045751    2.294327    5.442973
     67          1           0        3.280806    2.974781   -2.115943
     68          1           0        9.330994    3.830836    0.138865
     69          1           0        9.606090   -2.347494    1.595632
     70          1           0        1.743030   -1.506632   -1.535586
     71          1           0        1.344401    1.270232   -1.245121
     72          1           0        2.910111    0.824993   -3.841997
     73          1           0        1.247877    1.045373   -3.443185
     74          1           0        1.897896   -0.574558   -3.561985
     75          1           0        1.361825   -0.161501    1.258914
     76          1           0        1.276799   -1.926641    0.909207
     77          1           0       -0.453863   -0.230919   -0.785579
     78          1           0       -0.747521    0.141956    0.909074
     79          1           0        4.508688    6.160433   -1.589309
     80          1           0        3.839805    4.825701   -2.701801
     81          1           0        5.198462    5.642098   -3.168727
     82          1           0        7.904839    8.138756   -0.771012
     83          1           0        6.280527    7.414998   -0.453630
     84          1           0        7.065691    7.247430   -2.111394
     85          1           0       10.787081    2.172476    1.891518
     86          1           0       11.254364   -0.590589    1.445579
     87          1           0       11.105118    1.922628   -1.117623
     88          1           0       11.938970    0.497980   -0.355981
     89          1           0       12.422268    2.050524    0.079242
     90          1           0       11.215708    0.538975    3.791521
     91          1           0       10.410855   -0.889425    3.607265
     92          1           0        8.431968    1.151136    3.262059
     93          1           0        9.532741    1.765803    4.424561
     94          1           0        8.675184    0.221394    4.758970
     95          1           0        7.430015   -5.328634    2.464435
     96          1           0        9.039056   -4.579216    1.832543
     97          1           0        7.988430   -5.479127    0.779542
     98          1           0        2.771545   -3.652605    1.015251
     99          1           0        0.970323   -3.867981   -2.836560
    100          1           0       -0.344867   -3.215837   -1.826957
    101          1           0        0.015966   -4.999471   -1.915983
    102          1           0       -4.185463   -2.481892    0.857743
    103          1           0       -3.446276   -3.362100   -0.372388
    104          1           0       -4.407004   -0.870091   -1.556417
    105          1           0       -7.009666   -3.619483    0.121890
    106          1           0       -5.523114   -4.205373   -0.563819
    107          1           0       -7.026767   -4.111142   -1.591956
    108          1           0       -6.955849   -2.454854   -3.281104
    109          1           0       -6.510960   -0.745925   -2.752058
    110          1           0       -8.445954   -2.006634   -0.916178
    111          1           0       -9.067145   -2.075532   -2.585463
    112          1           0       -8.266582    0.645726   -2.342590
    113          1           0       -8.637710    0.295425   -0.743810
    114          1           0      -10.796937   -0.853775   -2.446517
    115          1           0       -9.736908    1.049448   -3.830247
    116          1           0      -10.469552    2.077155   -2.575968
    117          1           0      -11.598350    1.100046   -3.355122
    118          1           0      -11.252882    1.287451   -0.494823
    119          1           0      -10.850568   -0.358071    0.026799
    120          1           0      -13.041408   -0.775417   -0.050887
    121          1           0      -12.885771   -0.976486   -1.810277
    122          1           0      -14.197386    0.627397   -2.223716
    123          1           0      -13.150771    1.789946   -1.550350
    124          1           0      -14.860934    0.354049    0.538848
    125          1           0      -16.812173    0.560461    0.037520
    126          1           0      -16.211674    0.606407   -1.677063
    127          1           0      -16.776752    2.009680   -0.727770
    128          1           0      -15.361229    3.061014    0.797768
    129          1           0      -13.963462    3.275396   -0.170978
    130          1           0      -12.555080    3.113738    1.437223
    131          1           0      -12.921506    1.401026    1.687309
    132          1           0      -15.073001    2.845043    2.892550
    133          1           0      -13.760092    3.788049    3.287071
    134          1           0      -12.697784    1.401175    3.993262
    135          1           0      -15.079532    0.028283    4.561806
    136          1           0      -13.913919   -0.281923    3.370032
    137          1           0      -15.435155    0.608784    2.970446
    138          1           0      -13.092943    2.257746    5.970470
    139          1           0      -14.796883    1.828463    6.081093
    140          1           0      -14.293524    3.346544    5.304523
 ---------------------------------------------------------------------
 Rotational constants (GHZ):           0.0492839           0.0077161           0.0071902
 Leave Link  202 at Wed May  4 09:13:48 2022, MaxMem= 10066329600 cpu:               0.2 elap:               0.0
 (Enter /sw/apps/gaussian-16.0/g16/l301.exe)
 Standard basis: def2SVP (5D, 7F)
 Ernie: Thresh=  0.10000D-02 Tol=  0.10000D-05 Strict=F.
 There are  1364 symmetry adapted cartesian basis functions of A   symmetry.
 There are  1298 symmetry adapted basis functions of A   symmetry.
  1298 basis functions,  2180 primitive gaussians,  1364 cartesian basis functions
   246 alpha electrons      246 beta electrons
       nuclear repulsion energy      9317.3232665226 Hartrees.
 IExCor=20419 DFT=T Ex+Corr=CAM-B3LYP ExCW=0 ScaHFX=  1.000000
 ScaDFX=  1.000000  1.000000  1.000000  0.810000 ScalE2=  1.000000  1.000000
 IRadAn=      5 IRanWt=     -1 IRanGd=            0 ICorTp=0 IEmpDi=  4
 HFx  wShort=  0.000000 wLong=  0.330000 cFull=  0.190000 cShort=  0.000000 cLong=  0.460000
 DFx  wShort=  0.000000 wLong=  0.330000 cFull=  0.190000 cShort=  0.000000 cLong=  0.460000
 NAtoms=  140 NActive=  140 NUniq=  140 SFac= 1.00D+00 NAtFMM=   60 NAOKFM=T Big=T
 Integral buffers will be    131072 words long.
 Raffenetti 1 integral format.
 Two-electron integral symmetry is turned on.
 Leave Link  301 at Wed May  4 09:13:48 2022, MaxMem= 10066329600 cpu:               1.3 elap:               0.1
 (Enter /sw/apps/gaussian-16.0/g16/l302.exe)
 NPDir=0 NMtPBC=     1 NCelOv=     1 NCel=       1 NClECP=     1 NCelD=      1
         NCelK=      1 NCelE2=     1 NClLst=     1 CellRange=     0.0.
 One-electron integrals computed using PRISM.
 One-electron integral symmetry used in STVInt
   1 Symmetry operations used in ECPInt.
 ECPInt:  NShTT=  192510 NPrTT=  683786 LenC2=   88825 LenP2D=  198608.
 LDataN:  DoStor=T MaxTD1= 4 Len=   56
 NBasis=  1298 RedAO= T EigKep=  3.65D-04  NBF=  1298
 NBsUse=  1298 1.00D-06 EigRej= -1.00D+00 NBFU=  1298
 Precomputing XC quadrature grid using
 IXCGrd= 4 IRadAn=           5 IRanWt=          -1 IRanGd=           0 AccXCQ= 0.00D+00.
 Generated NRdTot=       0 NPtTot=           0 NUsed=           0 NTot=          32
 NSgBfM=  1007   970   983   994  1007 MxSgAt=   140 MxSgA2=   140.
 Leave Link  302 at Wed May  4 09:13:51 2022, MaxMem= 10066329600 cpu:              85.2 elap:               3.6
 (Enter /sw/apps/gaussian-16.0/g16/l303.exe)
 DipDrv:  MaxL=1.
 Leave Link  303 at Wed May  4 09:13:52 2022, MaxMem= 10066329600 cpu:               7.5 elap:               0.4
 (Enter /sw/apps/gaussian-16.0/g16/l308.exe)
 Leave Link  308 at Wed May  4 09:13:52 2022, MaxMem= 10066329600 cpu:              11.0 elap:               0.5
 (Enter /sw/apps/gaussian-16.0/g16/l401.exe)
 ExpMin= 3.36D-02 ExpMax= 4.95D+03 ExpMxC= 7.45D+02 IAcc=3 IRadAn=         5 AccDes= 0.00D+00
 Harris functional with IExCor=20419 and IRadAn=       5 diagonalized for initial guess.
 HarFok:  IExCor=20419 AccDes= 0.00D+00 IRadAn=         5 IDoV= 1 UseB2=F ITyADJ=14
 ICtDFT=  3500011 ScaDFX=  1.000000  1.000000  1.000000  1.000000
 FoFCou: FMM=F IPFlag=           0 FMFlag=      100000 FMFlg1=        2001
         NFxFlg=           0 DoJE=T BraDBF=F KetDBF=T FulRan=T
         wScrn=  0.000000 ICntrl=       500 IOpCl=  0 I1Cent=   200000004 NGrid=           0
         NMat0=    1 NMatS0=      1 NMatT0=    0 NMatD0=    1 NMtDS0=    0 NMtDT0=    0
 Petite list used in FoFCou.
 Harris En= -2890.87337163945    
 JPrj=0 DoOrth=F DoCkMO=F.
 Leave Link  401 at Wed May  4 09:13:58 2022, MaxMem= 10066329600 cpu:             130.8 elap:               5.5
 (Enter /sw/apps/gaussian-16.0/g16/l502.exe)
 Integral symmetry usage will be decided dynamically.
 Closed shell SCF:
 Using DIIS extrapolation, IDIIS=  1040.
 NGot= 10066329600 LenX= 10062561258 LenY= 10060699398
 Requested convergence on RMS density matrix=1.00D-08 within 128 cycles.
 Requested convergence on MAX density matrix=1.00D-06.
 Requested convergence on             energy=1.00D-06.
 No special actions if energy rises.
 Fock matrices will be formed incrementally for  20 cycles.

 Cycle   1  Pass 1  IDiag  1:
 FoFJK:  IHMeth= 1 ICntrl=       0 DoSepK=T KAlg= 0 I1Cent=           0 FoldK=F
 IRaf=         1 NMat=       1 IRICut=       1 DoRegI=T DoRafI=F ISym2E= 0 IDoP0=0 IntGTp=1.
 FoFCou: FMM=T IPFlag=           0 FMFlag=      100000 FMFlg1=        2001
         NFxFlg=           0 DoJE=T BraDBF=F KetDBF=F FulRan=T
         wScrn=  0.000000 ICntrl=       500 IOpCl=  0 I1Cent=           0 NGrid=           0
         NMat0=    1 NMatS0=      1 NMatT0=    0 NMatD0=    1 NMtDS0=    0 NMtDT0=    0
 Symmetry not used in FoFCou.
 FMM levels:  10  Number of levels for PrismC:   9
 E= -3006.46563819469    
 DIIS: error= 3.04D-02 at cycle   1 NSaved=   1.
 NSaved= 1 IEnMin= 1 EnMin= -3006.46563819469     IErMin= 1 ErrMin= 3.04D-02
 ErrMax= 3.04D-02  0.00D+00 EMaxC= 1.00D-01 BMatC= 1.26D+00 BMatP= 1.26D+00
 IDIUse=3 WtCom= 6.96D-01 WtEn= 3.04D-01
 Coeff-Com:  0.100D+01
 Coeff-En:   0.100D+01
 Coeff:      0.100D+01
 Gap=     0.112 Goal=   None    Shift=    0.000
 GapD=    0.112 DampG=1.000 DampE=0.500 DampFc=0.5000 IDamp=-1.
 Damping current iteration by 5.00D-01
 RMSDP=1.51D-03 MaxDP=1.27D-01              OVMax= 2.77D-01

 Cycle   2  Pass 1  IDiag  1:
 RMSU=  7.43D-04    CP:  9.86D-01
 E= -3006.77050944024     Delta-E=       -0.304871245551 Rises=F Damp=T
 DIIS: error= 1.21D-02 at cycle   2 NSaved=   2.
 NSaved= 2 IEnMin= 2 EnMin= -3006.77050944024     IErMin= 2 ErrMin= 1.21D-02
 ErrMax= 1.21D-02  0.00D+00 EMaxC= 1.00D-01 BMatC= 2.31D-01 BMatP= 1.26D+00
 IDIUse=3 WtCom= 8.79D-01 WtEn= 1.21D-01
 Coeff-Com: -0.233D+00 0.123D+01
 Coeff-En:   0.000D+00 0.100D+01
 Coeff:     -0.205D+00 0.120D+01
 Gap=     0.146 Goal=   None    Shift=    0.000
 RMSDP=7.17D-04 MaxDP=7.77D-02 DE=-3.05D-01 OVMax= 2.73D-01

 Cycle   3  Pass 1  IDiag  1:
 RMSU=  7.05D-04    CP:  9.77D-01  1.14D+00
 E= -3006.98776477476     Delta-E=       -0.217255334517 Rises=F Damp=F
 DIIS: error= 1.37D-02 at cycle   3 NSaved=   3.
 NSaved= 3 IEnMin= 3 EnMin= -3006.98776477476     IErMin= 2 ErrMin= 1.21D-02
 ErrMax= 1.37D-02  0.00D+00 EMaxC= 1.00D-01 BMatC= 1.51D-01 BMatP= 2.31D-01
 IDIUse=3 WtCom= 8.63D-01 WtEn= 1.37D-01
 Coeff-Com: -0.269D+00 0.663D+00 0.607D+00
 Coeff-En:   0.000D+00 0.000D+00 0.100D+01
 Coeff:     -0.232D+00 0.572D+00 0.661D+00
 Gap=     0.123 Goal=   None    Shift=    0.000
 RMSDP=5.39D-04 MaxDP=5.53D-02 DE=-2.17D-01 OVMax= 2.25D-01

 Cycle   4  Pass 1  IDiag  1:
 RMSU=  2.89D-04    CP:  9.74D-01  1.49D+00  4.74D-01
 E= -3007.08855970830     Delta-E=       -0.100794933544 Rises=F Damp=F
 DIIS: error= 5.48D-03 at cycle   4 NSaved=   4.
 NSaved= 4 IEnMin= 4 EnMin= -3007.08855970830     IErMin= 4 ErrMin= 5.48D-03
 ErrMax= 5.48D-03  0.00D+00 EMaxC= 1.00D-01 BMatC= 4.01D-02 BMatP= 1.51D-01
 IDIUse=3 WtCom= 9.45D-01 WtEn= 5.48D-02
 Coeff-Com: -0.115D+00 0.236D+00 0.408D+00 0.471D+00
 Coeff-En:   0.000D+00 0.000D+00 0.243D+00 0.757D+00
 Coeff:     -0.108D+00 0.223D+00 0.399D+00 0.487D+00
 Gap=     0.124 Goal=   None    Shift=    0.000
 RMSDP=2.24D-04 MaxDP=1.93D-02 DE=-1.01D-01 OVMax= 1.10D-01

 Cycle   5  Pass 1  IDiag  1:
 RMSU=  8.32D-05    CP:  9.74D-01  1.42D+00  6.80D-01  5.17D-01
 E= -3007.12733369527     Delta-E=       -0.038773986967 Rises=F Damp=F
 DIIS: error= 8.06D-04 at cycle   5 NSaved=   5.
 NSaved= 5 IEnMin= 5 EnMin= -3007.12733369527     IErMin= 5 ErrMin= 8.06D-04
 ErrMax= 8.06D-04  0.00D+00 EMaxC= 1.00D-01 BMatC= 1.09D-03 BMatP= 4.01D-02
 IDIUse=3 WtCom= 9.92D-01 WtEn= 8.06D-03
 Coeff-Com: -0.437D-01 0.861D-01 0.181D+00 0.257D+00 0.520D+00
 Coeff-En:   0.000D+00 0.000D+00 0.000D+00 0.000D+00 0.100D+01
 Coeff:     -0.434D-01 0.854D-01 0.179D+00 0.255D+00 0.524D+00
 Gap=     0.123 Goal=   None    Shift=    0.000
 RMSDP=4.82D-05 MaxDP=4.34D-03 DE=-3.88D-02 OVMax= 2.34D-02

 Cycle   6  Pass 1  IDiag  1:
 RMSU=  3.31D-05    CP:  9.74D-01  1.43D+00  6.67D-01  5.94D-01  7.04D-01
 E= -3007.12841202011     Delta-E=       -0.001078324844 Rises=F Damp=F
 DIIS: error= 2.58D-04 at cycle   6 NSaved=   6.
 NSaved= 6 IEnMin= 6 EnMin= -3007.12841202011     IErMin= 6 ErrMin= 2.58D-04
 ErrMax= 2.58D-04  0.00D+00 EMaxC= 1.00D-01 BMatC= 1.35D-04 BMatP= 1.09D-03
 IDIUse=3 WtCom= 9.97D-01 WtEn= 2.58D-03
 Coeff-Com:  0.300D-02-0.805D-02 0.431D-02 0.270D-01 0.273D+00 0.701D+00
 Coeff-En:   0.000D+00 0.000D+00 0.000D+00 0.000D+00 0.876D-01 0.912D+00
 Coeff:      0.299D-02-0.803D-02 0.430D-02 0.269D-01 0.272D+00 0.702D+00
 Gap=     0.125 Goal=   None    Shift=    0.000
 RMSDP=1.92D-05 MaxDP=1.53D-03 DE=-1.08D-03 OVMax= 1.22D-02

 Cycle   7  Pass 1  IDiag  1:
 RMSU=  1.20D-05    CP:  9.74D-01  1.43D+00  6.75D-01  5.88D-01  8.39D-01
                    CP:  7.69D-01
 E= -3007.12858241780     Delta-E=       -0.000170397685 Rises=F Damp=F
 DIIS: error= 1.03D-04 at cycle   7 NSaved=   7.
 NSaved= 7 IEnMin= 7 EnMin= -3007.12858241780     IErMin= 7 ErrMin= 1.03D-04
 ErrMax= 1.03D-04  0.00D+00 EMaxC= 1.00D-01 BMatC= 2.29D-05 BMatP= 1.35D-04
 IDIUse=3 WtCom= 9.99D-01 WtEn= 1.03D-03
 Coeff-Com:  0.533D-02-0.115D-01-0.132D-01-0.910D-02 0.923D-01 0.386D+00
 Coeff-Com:  0.550D+00
 Coeff-En:   0.000D+00 0.000D+00 0.000D+00 0.000D+00 0.000D+00 0.000D+00
 Coeff-En:   0.100D+01
 Coeff:      0.532D-02-0.115D-01-0.132D-01-0.909D-02 0.922D-01 0.385D+00
 Coeff:      0.551D+00
 Gap=     0.125 Goal=   None    Shift=    0.000
 RMSDP=6.21D-06 MaxDP=7.93D-04 DE=-1.70D-04 OVMax= 2.48D-03

 Cycle   8  Pass 1  IDiag  1:
 RMSU=  4.65D-06    CP:  9.74D-01  1.43D+00  6.75D-01  5.93D-01  8.41D-01
                    CP:  8.79D-01  9.16D-01
 E= -3007.12861078688     Delta-E=       -0.000028369086 Rises=F Damp=F
 DIIS: error= 3.67D-05 at cycle   8 NSaved=   8.
 NSaved= 8 IEnMin= 8 EnMin= -3007.12861078688     IErMin= 8 ErrMin= 3.67D-05
 ErrMax= 3.67D-05  0.00D+00 EMaxC= 1.00D-01 BMatC= 2.31D-06 BMatP= 2.29D-05
 IDIUse=1 WtCom= 1.00D+00 WtEn= 0.00D+00
 Coeff-Com:  0.218D-02-0.423D-02-0.812D-02-0.114D-01-0.190D-01 0.457D-01
 Coeff-Com:  0.234D+00 0.761D+00
 Coeff:      0.218D-02-0.423D-02-0.812D-02-0.114D-01-0.190D-01 0.457D-01
 Coeff:      0.234D+00 0.761D+00
 Gap=     0.125 Goal=   None    Shift=    0.000
 RMSDP=3.76D-06 MaxDP=2.18D-04 DE=-2.84D-05 OVMax= 2.57D-03

 Cycle   9  Pass 1  IDiag  1:
 RMSU=  2.26D-06    CP:  9.74D-01  1.43D+00  6.76D-01  5.93D-01  8.58D-01
                    CP:  9.07D-01  1.11D+00  1.11D+00
 E= -3007.12861751045     Delta-E=       -0.000006723572 Rises=F Damp=F
 DIIS: error= 2.41D-05 at cycle   9 NSaved=   9.
 NSaved= 9 IEnMin= 9 EnMin= -3007.12861751045     IErMin= 9 ErrMin= 2.41D-05
 ErrMax= 2.41D-05  0.00D+00 EMaxC= 1.00D-01 BMatC= 7.46D-07 BMatP= 2.31D-06
 IDIUse=1 WtCom= 1.00D+00 WtEn= 0.00D+00
 Coeff-Com:  0.142D-03-0.115D-03-0.174D-02-0.369D-02-0.267D-01-0.352D-01
 Coeff-Com: -0.315D-02 0.368D+00 0.702D+00
 Coeff:      0.142D-03-0.115D-03-0.174D-02-0.369D-02-0.267D-01-0.352D-01
 Coeff:     -0.315D-02 0.368D+00 0.702D+00
 Gap=     0.125 Goal=   None    Shift=    0.000
 RMSDP=2.15D-06 MaxDP=1.47D-04 DE=-6.72D-06 OVMax= 1.23D-03

 Cycle  10  Pass 1  IDiag  1:
 RMSU=  1.15D-06    CP:  9.74D-01  1.43D+00  6.76D-01  5.93D-01  8.63D-01
                    CP:  9.21D-01  1.20D+00  1.37D+00  1.28D+00
 E= -3007.12862002668     Delta-E=       -0.000002516226 Rises=F Damp=F
 DIIS: error= 1.15D-05 at cycle  10 NSaved=  10.
 NSaved=10 IEnMin=10 EnMin= -3007.12862002668     IErMin=10 ErrMin= 1.15D-05
 ErrMax= 1.15D-05  0.00D+00 EMaxC= 1.00D-01 BMatC= 2.40D-07 BMatP= 7.46D-07
 IDIUse=1 WtCom= 1.00D+00 WtEn= 0.00D+00
 Coeff-Com: -0.721D-03 0.147D-02 0.193D-02 0.248D-02-0.901D-02-0.290D-01
 Coeff-Com: -0.107D+00-0.674D-01 0.301D+00 0.907D+00
 Coeff:     -0.721D-03 0.147D-02 0.193D-02 0.248D-02-0.901D-02-0.290D-01
 Coeff:     -0.107D+00-0.674D-01 0.301D+00 0.907D+00
 Gap=     0.125 Goal=   None    Shift=    0.000
 RMSDP=2.03D-06 MaxDP=1.55D-04 DE=-2.52D-06 OVMax= 1.30D-03

 Cycle  11  Pass 1  IDiag  1:
 RMSU=  7.56D-07    CP:  9.74D-01  1.43D+00  6.76D-01  5.93D-01  8.66D-01
                    CP:  9.34D-01  1.28D+00  1.56D+00  1.79D+00  1.44D+00
 E= -3007.12862148670     Delta-E=       -0.000001460021 Rises=F Damp=F
 DIIS: error= 8.37D-06 at cycle  11 NSaved=  11.
 NSaved=11 IEnMin=11 EnMin= -3007.12862148670     IErMin=11 ErrMin= 8.37D-06
 ErrMax= 8.37D-06  0.00D+00 EMaxC= 1.00D-01 BMatC= 9.04D-08 BMatP= 2.40D-07
 IDIUse=1 WtCom= 1.00D+00 WtEn= 0.00D+00
 Coeff-Com: -0.400D-03 0.767D-03 0.140D-02 0.250D-02 0.280D-02 0.629D-03
 Coeff-Com: -0.598D-01-0.133D+00-0.949D-01 0.443D+00 0.838D+00
 Coeff:     -0.400D-03 0.767D-03 0.140D-02 0.250D-02 0.280D-02 0.629D-03
 Coeff:     -0.598D-01-0.133D+00-0.949D-01 0.443D+00 0.838D+00
 Gap=     0.125 Goal=   None    Shift=    0.000
 RMSDP=1.33D-06 MaxDP=9.04D-05 DE=-1.46D-06 OVMax= 8.65D-04

 Cycle  12  Pass 1  IDiag  1:
 RMSU=  3.62D-07    CP:  9.74D-01  1.43D+00  6.76D-01  5.93D-01  8.68D-01
                    CP:  9.37D-01  1.32D+00  1.70D+00  2.10D+00  1.99D+00
                    CP:  1.32D+00
 E= -3007.12862199175     Delta-E=       -0.000000505053 Rises=F Damp=F
 DIIS: error= 4.82D-06 at cycle  12 NSaved=  12.
 NSaved=12 IEnMin=12 EnMin= -3007.12862199175     IErMin=12 ErrMin= 4.82D-06
 ErrMax= 4.82D-06  0.00D+00 EMaxC= 1.00D-01 BMatC= 2.44D-08 BMatP= 9.04D-08
 IDIUse=1 WtCom= 1.00D+00 WtEn= 0.00D+00
 Coeff-Com:  0.554D-04-0.132D-03-0.667D-04 0.382D-03 0.336D-02 0.120D-01
 Coeff-Com:  0.549D-02-0.246D-01-0.133D+00-0.112D+00 0.354D+00 0.895D+00
 Coeff:      0.554D-04-0.132D-03-0.667D-04 0.382D-03 0.336D-02 0.120D-01
 Coeff:      0.549D-02-0.246D-01-0.133D+00-0.112D+00 0.354D+00 0.895D+00
 Gap=     0.125 Goal=   None    Shift=    0.000
 RMSDP=7.74D-07 MaxDP=9.03D-05 DE=-5.05D-07 OVMax= 4.73D-04

 Cycle  13  Pass 1  IDiag  1:
 RMSU=  2.15D-07    CP:  9.74D-01  1.43D+00  6.76D-01  5.93D-01  8.68D-01
                    CP:  9.38D-01  1.34D+00  1.75D+00  2.30D+00  2.27D+00
                    CP:  1.80D+00  1.18D+00
 E= -3007.12862213266     Delta-E=       -0.000000140910 Rises=F Damp=F
 DIIS: error= 2.07D-06 at cycle  13 NSaved=  13.
 NSaved=13 IEnMin=13 EnMin= -3007.12862213266     IErMin=13 ErrMin= 2.07D-06
 ErrMax= 2.07D-06  0.00D+00 EMaxC= 1.00D-01 BMatC= 8.53D-09 BMatP= 2.44D-08
 IDIUse=1 WtCom= 1.00D+00 WtEn= 0.00D+00
 Coeff-Com:  0.157D-03-0.317D-03-0.503D-03-0.540D-03 0.711D-03 0.725D-02
 Coeff-Com:  0.203D-01 0.289D-01-0.464D-01-0.219D+00-0.597D-01 0.532D+00
 Coeff-Com:  0.737D+00
 Coeff:      0.157D-03-0.317D-03-0.503D-03-0.540D-03 0.711D-03 0.725D-02
 Coeff:      0.203D-01 0.289D-01-0.464D-01-0.219D+00-0.597D-01 0.532D+00
 Coeff:      0.737D+00
 Gap=     0.125 Goal=   None    Shift=    0.000
 RMSDP=4.10D-07 MaxDP=2.75D-05 DE=-1.41D-07 OVMax= 2.59D-04

 Cycle  14  Pass 1  IDiag  1:
 RMSU=  8.90D-08    CP:  9.74D-01  1.43D+00  6.76D-01  5.93D-01  8.68D-01
                    CP:  9.39D-01  1.35D+00  1.78D+00  2.40D+00  2.44D+00
                    CP:  2.01D+00  1.55D+00  9.90D-01
 E= -3007.12862216391     Delta-E=       -0.000000031250 Rises=F Damp=F
 DIIS: error= 7.64D-07 at cycle  14 NSaved=  14.
 NSaved=14 IEnMin=14 EnMin= -3007.12862216391     IErMin=14 ErrMin= 7.64D-07
 ErrMax= 7.64D-07  0.00D+00 EMaxC= 1.00D-01 BMatC= 1.28D-09 BMatP= 8.53D-09
 IDIUse=1 WtCom= 1.00D+00 WtEn= 0.00D+00
 Coeff-Com:  0.750D-04-0.148D-03-0.268D-03-0.358D-03-0.415D-03 0.174D-02
 Coeff-Com:  0.887D-02 0.206D-01 0.233D-02-0.937D-01-0.908D-01 0.107D+00
 Coeff-Com:  0.382D+00 0.663D+00
 Coeff:      0.750D-04-0.148D-03-0.268D-03-0.358D-03-0.415D-03 0.174D-02
 Coeff:      0.887D-02 0.206D-01 0.233D-02-0.937D-01-0.908D-01 0.107D+00
 Coeff:      0.382D+00 0.663D+00
 Gap=     0.125 Goal=   None    Shift=    0.000
 RMSDP=1.09D-07 MaxDP=1.35D-05 DE=-3.13D-08 OVMax= 6.15D-05

 Cycle  15  Pass 1  IDiag  1:
 RMSU=  3.81D-08    CP:  9.74D-01  1.43D+00  6.76D-01  5.93D-01  8.68D-01
                    CP:  9.39D-01  1.35D+00  1.78D+00  2.42D+00  2.47D+00
                    CP:  2.10D+00  1.62D+00  1.16D+00  9.58D-01
 E= -3007.12862216693     Delta-E=       -0.000000003014 Rises=F Damp=F
 DIIS: error= 3.47D-07 at cycle  15 NSaved=  15.
 NSaved=15 IEnMin=15 EnMin= -3007.12862216693     IErMin=15 ErrMin= 3.47D-07
 ErrMax= 3.47D-07  0.00D+00 EMaxC= 1.00D-01 BMatC= 1.70D-10 BMatP= 1.28D-09
 IDIUse=1 WtCom= 1.00D+00 WtEn= 0.00D+00
 Coeff-Com:  0.366D-05-0.554D-05-0.262D-04-0.546D-04-0.378D-03-0.503D-03
 Coeff-Com: -0.274D-03 0.335D-02 0.890D-02-0.377D-02-0.247D-01-0.502D-01
 Coeff-Com:  0.359D-01 0.263D+00 0.769D+00
 Coeff:      0.366D-05-0.554D-05-0.262D-04-0.546D-04-0.378D-03-0.503D-03
 Coeff:     -0.274D-03 0.335D-02 0.890D-02-0.377D-02-0.247D-01-0.502D-01
 Coeff:      0.359D-01 0.263D+00 0.769D+00
 Gap=     0.125 Goal=   None    Shift=    0.000
 RMSDP=4.46D-08 MaxDP=2.88D-06 DE=-3.01D-09 OVMax= 2.47D-05

 Cycle  16  Pass 1  IDiag  1:
 RMSU=  1.76D-08    CP:  9.74D-01  1.43D+00  6.76D-01  5.93D-01  8.68D-01
                    CP:  9.39D-01  1.35D+00  1.79D+00  2.43D+00  2.49D+00
                    CP:  2.12D+00  1.66D+00  1.21D+00  1.12D+00  1.05D+00
 E= -3007.12862216733     Delta-E=       -0.000000000398 Rises=F Damp=F
 DIIS: error= 1.74D-07 at cycle  16 NSaved=  16.
 NSaved=16 IEnMin=16 EnMin= -3007.12862216733     IErMin=16 ErrMin= 1.74D-07
 ErrMax= 1.74D-07  0.00D+00 EMaxC= 1.00D-01 BMatC= 4.77D-11 BMatP= 1.70D-10
 IDIUse=1 WtCom= 1.00D+00 WtEn= 0.00D+00
 Coeff-Com: -0.110D-04 0.225D-04 0.317D-04 0.337D-04-0.152D-03-0.503D-03
 Coeff-Com: -0.177D-02-0.172D-02 0.462D-02 0.140D-01 0.473D-02-0.457D-01
 Coeff-Com: -0.459D-01 0.169D-03 0.397D+00 0.675D+00
 Coeff:     -0.110D-04 0.225D-04 0.317D-04 0.337D-04-0.152D-03-0.503D-03
 Coeff:     -0.177D-02-0.172D-02 0.462D-02 0.140D-01 0.473D-02-0.457D-01
 Coeff:     -0.459D-01 0.169D-03 0.397D+00 0.675D+00
 Gap=     0.125 Goal=   None    Shift=    0.000
 RMSDP=1.62D-08 MaxDP=1.02D-06 DE=-3.98D-10 OVMax= 9.13D-06

 Cycle  17  Pass 1  IDiag  1:
 RMSU=  8.79D-09    CP:  9.74D-01  1.43D+00  6.76D-01  5.93D-01  8.68D-01
                    CP:  9.39D-01  1.35D+00  1.79D+00  2.43D+00  2.49D+00
                    CP:  2.13D+00  1.67D+00  1.24D+00  1.17D+00  1.25D+00
                    CP:  1.09D+00
 E= -3007.12862216754     Delta-E=       -0.000000000209 Rises=F Damp=F
 DIIS: error= 6.15D-08 at cycle  17 NSaved=  17.
 NSaved=17 IEnMin=17 EnMin= -3007.12862216754     IErMin=17 ErrMin= 6.15D-08
 ErrMax= 6.15D-08  0.00D+00 EMaxC= 1.00D-01 BMatC= 9.97D-12 BMatP= 4.77D-11
 IDIUse=1 WtCom= 1.00D+00 WtEn= 0.00D+00
 Coeff-Com: -0.570D-05 0.112D-04 0.192D-04 0.266D-04-0.161D-05-0.800D-04
 Coeff-Com: -0.772D-03-0.144D-02 0.316D-03 0.641D-02 0.732D-02-0.111D-01
 Coeff-Com: -0.251D-01-0.633D-01 0.243D-01 0.302D+00 0.762D+00
 Coeff:     -0.570D-05 0.112D-04 0.192D-04 0.266D-04-0.161D-05-0.800D-04
 Coeff:     -0.772D-03-0.144D-02 0.316D-03 0.641D-02 0.732D-02-0.111D-01
 Coeff:     -0.251D-01-0.633D-01 0.243D-01 0.302D+00 0.762D+00
 Gap=     0.125 Goal=   None    Shift=    0.000
 RMSDP=9.40D-09 MaxDP=6.72D-07 DE=-2.09D-10 OVMax= 5.06D-06

 SCF Done:  E(RCAM-B3LYP) =  -3007.12862217     A.U. after   17 cycles
            NFock= 17  Conv=0.94D-08     -V/T= 2.0110
 KE= 2.974468010608D+03 PE=-2.562596418590D+04 EE= 1.032704428660D+04
 Leave Link  502 at Wed May  4 09:20:09 2022, MaxMem= 10066329600 cpu:            8507.8 elap:             371.1
 (Enter /sw/apps/gaussian-16.0/g16/l801.exe)
 DoSCS=F DFT=T ScalE2(SS,OS)=  1.000000  1.000000
 ExpMin= 3.36D-02 ExpMax= 4.95D+03 ExpMxC= 7.45D+02 IAcc=3 IRadAn=         5 AccDes= 0.00D+00
 HarFok:  IExCor=  205 AccDes= 0.00D+00 IRadAn=         5 IDoV=-2 UseB2=F ITyADJ=14
 ICtDFT= 12500011 ScaDFX=  1.000000  1.000000  1.000000  1.000000
 GSVD:  LWork=       -5460 too small for GESVD, short by       25550 words or       25550 for optimal perf.
 Largest valence mixing into a core orbital is  1.87D-04
 Largest core mixing into a valence orbital is  6.25D-05
 Range of M.O.s used for correlation:    71  1298
 NBasis=  1298 NAE=   246 NBE=   246 NFC=    70 NFV=     0
 NROrb=   1228 NOA=   176 NOB=   176 NVA=  1052 NVB=  1052
 Leave Link  801 at Wed May  4 09:20:09 2022, MaxMem= 10066329600 cpu:               7.4 elap:               0.3
 (Enter /sw/apps/gaussian-16.0/g16/l914.exe)
 RHF ground state
 Two-electron integrals replicated using symmetry.
 MDV= 10066329600 DFT=T DoStab=F Mixed=T DoRPA=T DoScal=F NonHer=T
 Making orbital integer symmetry assigments:
 Orbital symmetries:
       Occupied  (A) (A) (A) (A) (A) (A) (A) (A) (A) (A) (A) (A)
                 (A) (A) (A) (A) (A) (A) (A) (A) (A) (A) (A) (A)
                 (A) (A) (A) (A) (A) (A) (A) (A) (A) (A) (A) (A)
                 (A) (A) (A) (A) (A) (A) (A) (A) (A) (A) (A) (A)
                 (A) (A) (A) (A) (A) (A) (A) (A) (A) (A) (A) (A)
                 (A) (A) (A) (A) (A) (A) (A) (A) (A) (A) (A) (A)
                 (A) (A) (A) (A) (A) (A) (A) (A) (A) (A) (A) (A)
                 (A) (A) (A) (A) (A) (A) (A) (A) (A) (A) (A) (A)
                 (A) (A) (A) (A) (A) (A) (A) (A) (A) (A) (A) (A)
                 (A) (A) (A) (A) (A) (A) (A) (A) (A) (A) (A) (A)
                 (A) (A) (A) (A) (A) (A) (A) (A) (A) (A) (A) (A)
                 (A) (A) (A) (A) (A) (A) (A) (A) (A) (A) (A) (A)
                 (A) (A) (A) (A) (A) (A) (A) (A) (A) (A) (A) (A)
                 (A) (A) (A) (A) (A) (A) (A) (A) (A) (A) (A) (A)
                 (A) (A) (A) (A) (A) (A) (A) (A) (A) (A) (A) (A)
                 (A) (A) (A) (A) (A) (A) (A) (A) (A) (A) (A) (A)
                 (A) (A) (A) (A) (A) (A) (A) (A) (A) (A) (A) (A)
                 (A) (A) (A) (A) (A) (A) (A) (A) (A) (A) (A) (A)
                 (A) (A) (A) (A) (A) (A) (A) (A) (A) (A) (A) (A)
                 (A) (A) (A) (A) (A) (A) (A) (A) (A) (A) (A) (A)
                 (A) (A) (A) (A) (A) (A)
       Virtual   (A) (A) (A) (A) (A) (A) (A) (A) (A) (A) (A) (A)
                 (A) (A) (A) (A) (A) (A) (A) (A) (A) (A) (A) (A)
                 (A) (A) (A) (A) (A) (A) (A) (A) (A) (A) (A) (A)
                 (A) (A) (A) (A) (A) (A) (A) (A) (A) (A) (A) (A)
                 (A) (A) (A) (A) (A) (A) (A) (A) (A) (A) (A) (A)
                 (A) (A) (A) (A) (A) (A) (A) (A) (A) (A) (A) (A)
                 (A) (A) (A) (A) (A) (A) (A) (A) (A) (A) (A) (A)
                 (A) (A) (A) (A) (A) (A) (A) (A) (A) (A) (A) (A)
                 (A) (A) (A) (A) (A) (A) (A) (A) (A) (A) (A) (A)
                 (A) (A) (A) (A) (A) (A) (A) (A) (A) (A) (A) (A)
                 (A) (A) (A) (A) (A) (A) (A) (A) (A) (A) (A) (A)
                 (A) (A) (A) (A) (A) (A) (A) (A) (A) (A) (A) (A)
                 (A) (A) (A) (A) (A) (A) (A) (A) (A) (A) (A) (A)
                 (A) (A) (A) (A) (A) (A) (A) (A) (A) (A) (A) (A)
                 (A) (A) (A) (A) (A) (A) (A) (A) (A) (A) (A) (A)
                 (A) (A) (A) (A) (A) (A) (A) (A) (A) (A) (A) (A)
                 (A) (A) (A) (A) (A) (A) (A) (A) (A) (A) (A) (A)
                 (A) (A) (A) (A) (A) (A) (A) (A) (A) (A) (A) (A)
                 (A) (A) (A) (A) (A) (A) (A) (A) (A) (A) (A) (A)
                 (A) (A) (A) (A) (A) (A) (A) (A) (A) (A) (A) (A)
                 (A) (A) (A) (A) (A) (A) (A) (A) (A) (A) (A) (A)
                 (A) (A) (A) (A) (A) (A) (A) (A) (A) (A) (A) (A)
                 (A) (A) (A) (A) (A) (A) (A) (A) (A) (A) (A) (A)
                 (A) (A) (A) (A) (A) (A) (A) (A) (A) (A) (A) (A)
                 (A) (A) (A) (A) (A) (A) (A) (A) (A) (A) (A) (A)
                 (A) (A) (A) (A) (A) (A) (A) (A) (A) (A) (A) (A)
                 (A) (A) (A) (A) (A) (A) (A) (A) (A) (A) (A) (A)
                 (A) (A) (A) (A) (A) (A) (A) (A) (A) (A) (A) (A)
                 (A) (A) (A) (A) (A) (A) (A) (A) (A) (A) (A) (A)
                 (A) (A) (A) (A) (A) (A) (A) (A) (A) (A) (A) (A)
                 (A) (A) (A) (A) (A) (A) (A) (A) (A) (A) (A) (A)
                 (A) (A) (A) (A) (A) (A) (A) (A) (A) (A) (A) (A)
                 (A) (A) (A) (A) (A) (A) (A) (A) (A) (A) (A) (A)
                 (A) (A) (A) (A) (A) (A) (A) (A) (A) (A) (A) (A)
                 (A) (A) (A) (A) (A) (A) (A) (A) (A) (A) (A) (A)
                 (A) (A) (A) (A) (A) (A) (A) (A) (A) (A) (A) (A)
                 (A) (A) (A) (A) (A) (A) (A) (A) (A) (A) (A) (A)
                 (A) (A) (A) (A) (A) (A) (A) (A) (A) (A) (A) (A)
                 (A) (A) (A) (A) (A) (A) (A) (A) (A) (A) (A) (A)
                 (A) (A) (A) (A) (A) (A) (A) (A) (A) (A) (A) (A)
                 (A) (A) (A) (A) (A) (A) (A) (A) (A) (A) (A) (A)
                 (A) (A) (A) (A) (A) (A) (A) (A) (A) (A) (A) (A)
                 (A) (A) (A) (A) (A) (A) (A) (A) (A) (A) (A) (A)
                 (A) (A) (A) (A) (A) (A) (A) (A) (A) (A) (A) (A)
                 (A) (A) (A) (A) (A) (A) (A) (A) (A) (A) (A) (A)
                 (A) (A) (A) (A) (A) (A) (A) (A) (A) (A) (A) (A)
                 (A) (A) (A) (A) (A) (A) (A) (A) (A) (A) (A) (A)
                 (A) (A) (A) (A) (A) (A) (A) (A) (A) (A) (A) (A)
                 (A) (A) (A) (A) (A) (A) (A) (A) (A) (A) (A) (A)
                 (A) (A) (A) (A) (A) (A) (A) (A) (A) (A) (A) (A)
                 (A) (A) (A) (A) (A) (A) (A) (A) (A) (A) (A) (A)
                 (A) (A) (A) (A) (A) (A) (A) (A) (A) (A) (A) (A)
                 (A) (A) (A) (A) (A) (A) (A) (A) (A) (A) (A) (A)
                 (A) (A) (A) (A) (A) (A) (A) (A) (A) (A) (A) (A)
                 (A) (A) (A) (A) (A) (A) (A) (A) (A) (A) (A) (A)
                 (A) (A) (A) (A) (A) (A) (A) (A) (A) (A) (A) (A)
                 (A) (A) (A) (A) (A) (A) (A) (A) (A) (A) (A) (A)
                 (A) (A) (A) (A) (A) (A) (A) (A) (A) (A) (A) (A)
                 (A) (A) (A) (A) (A) (A) (A) (A) (A) (A) (A) (A)
                 (A) (A) (A) (A) (A) (A) (A) (A) (A) (A) (A) (A)
                 (A) (A) (A) (A) (A) (A) (A) (A) (A) (A) (A) (A)
                 (A) (A) (A) (A) (A) (A) (A) (A) (A) (A) (A) (A)
                 (A) (A) (A) (A) (A) (A) (A) (A) (A) (A) (A) (A)
                 (A) (A) (A) (A) (A) (A) (A) (A) (A) (A) (A) (A)
                 (A) (A) (A) (A) (A) (A) (A) (A) (A) (A) (A) (A)
                 (A) (A) (A) (A) (A) (A) (A) (A) (A) (A) (A) (A)
                 (A) (A) (A) (A) (A) (A) (A) (A) (A) (A) (A) (A)
                 (A) (A) (A) (A) (A) (A) (A) (A) (A) (A) (A) (A)
                 (A) (A) (A) (A) (A) (A) (A) (A) (A) (A) (A) (A)
                 (A) (A) (A) (A) (A) (A) (A) (A) (A) (A) (A) (A)
                 (A) (A) (A) (A) (A) (A) (A) (A) (A) (A) (A) (A)
                 (A) (A) (A) (A) (A) (A) (A) (A) (A) (A) (A) (A)
                 (A) (A) (A) (A) (A) (A) (A) (A) (A) (A) (A) (A)
                 (A) (A) (A) (A) (A) (A) (A) (A) (A) (A) (A) (A)
                 (A) (A) (A) (A) (A) (A) (A) (A) (A) (A) (A) (A)
                 (A) (A) (A) (A) (A) (A) (A) (A) (A) (A) (A) (A)
                 (A) (A) (A) (A) (A) (A) (A) (A) (A) (A) (A) (A)
                 (A) (A) (A) (A) (A) (A) (A) (A) (A) (A) (A) (A)
                 (A) (A) (A) (A) (A) (A) (A) (A) (A) (A) (A) (A)
                 (A) (A) (A) (A) (A) (A) (A) (A) (A) (A) (A) (A)
                 (A) (A) (A) (A) (A) (A) (A) (A) (A) (A) (A) (A)
                 (A) (A) (A) (A) (A) (A) (A) (A) (A) (A) (A) (A)
                 (A) (A) (A) (A) (A) (A) (A) (A) (A) (A) (A) (A)
                 (A) (A) (A) (A) (A) (A) (A) (A) (A) (A) (A) (A)
                 (A) (A) (A) (A) (A) (A) (A) (A) (A) (A) (A) (A)
                 (A) (A) (A) (A) (A) (A) (A) (A) (A) (A) (A) (A)
                 (A) (A) (A) (A) (A) (A) (A) (A) (A) (A) (A) (A)
                 (A) (A) (A) (A) (A) (A) (A) (A)
    20 initial guesses have been made.
 Convergence on wavefunction:    0.001000000000000
 Davidson Disk Diagonalization:  ConvIn= 1.00D-03 SkipCon=T Conv= 1.00D-03.
 Max sub-space:  2000 roots to seek:    20 dimension of matrix:       370304
 Iteration     1 Dimension    20 NMult     0 NNew     20
 CISAX will form    20 AO SS matrices at one time.
 NMat=    20 NSing=    20 JSym2X= 0.
 FoFJK:  IHMeth= 1 ICntrl=       0 DoSepK=T KAlg= 0 I1Cent=           0 FoldK=F
 IRaf=         1 NMat=      40 IRICut=       1 DoRegI=T DoRafI=F ISym2E= 0 IDoP0=3 IntGTp=3.
 FoFCou: FMM=T IPFlag=           0 FMFlag=      100000 FMFlg1=        2001
         NFxFlg=           0 DoJE=F BraDBF=F KetDBF=F FulRan=T
         wScrn=  0.000000 ICntrl=       500 IOpCl=  0 I1Cent=           0 NGrid=           0
         NMat0=   20 NMatS0=     20 NMatT0=    0 NMatD0=   20 NMtDS0=    0 NMtDT0=    0
 Symmetry not used in FoFCou.
 FMM levels:  10  Number of levels for PrismC:   9
 New state      3 was old state      4
 New state      4 was old state      7
 New state      5 was old state      9
 Excitation Energies [eV] at current iteration:
 Root      1 :     2.234612188539595
 Root      2 :     2.625808975896843
 Root      3 :     3.541838576574739
 Root      4 :     3.798186865283964
 Root      5 :     3.929878686344282
 Root      6 :     3.984793660673110
 Root      7 :     4.308022247088108
 Root      8 :     4.422059989271127
 Root      9 :     4.482490735795929
 Root     10 :     4.588161360331414
 Root     11 :     4.710910858477551
 Root     12 :     4.790104456397429
 Root     13 :     4.891037913879504
 Root     14 :     4.986239780812587
 Root     15 :     5.123279258807091
 Root     16 :     5.165634098446026
 Root     17 :     5.382145979425839
 Root     18 :     5.518775905929499
 Root     19 :     6.350170819962390
 Root     20 :     6.398273088020202
 Iteration     2 Dimension    30 NMult    20 NNew     10
 CISAX will form    10 AO SS matrices at one time.
 NMat=    10 NSing=    10 JSym2X= 0.
 Root      1 not converged, maximum delta is    0.071959482698237
 Root      2 not converged, maximum delta is    0.058002310846222
 Root      3 not converged, maximum delta is    0.061909403236694
 Root      4 not converged, maximum delta is    0.066190683685555
 Root      5 not converged, maximum delta is    0.220099745232979
 Excitation Energies [eV] at current iteration:
 Root      1 :     1.769901056010595   Change is   -0.464711132529000
 Root      2 :     2.255596189156277   Change is   -0.370212786740566
 Root      3 :     3.275962458279842   Change is   -0.265876118294897
 Root      4 :     3.439467073635986   Change is   -0.358719791647978
 Root      5 :     3.570438422523716   Change is   -0.359440263820567
 Iteration     3 Dimension    40 NMult    30 NNew     10
 CISAX will form    10 AO SS matrices at one time.
 NMat=    10 NSing=    10 JSym2X= 0.
 Root      1 not converged, maximum delta is    0.018010848943675
 Root      2 not converged, maximum delta is    0.022003367909336
 Root      3 not converged, maximum delta is    0.011942438327606
 New state      4 was old state      5
 Root      4 not converged, maximum delta is    0.253133488984846
 New state      5 was old state      4
 Root      5 not converged, maximum delta is    0.304123167590467
 Excitation Energies [eV] at current iteration:
 Root      1 :     1.732262569031898   Change is   -0.037638486978697
 Root      2 :     2.233512661982080   Change is   -0.022083527174197
 Root      3 :     3.265047920382851   Change is   -0.010914537896991
 Root      4 :     3.393318931536891   Change is   -0.177119490986825
 Root      5 :     3.427876213180526   Change is   -0.011590860455460
 Iteration     4 Dimension    50 NMult    40 NNew     10
 CISAX will form    10 AO SS matrices at one time.
 NMat=    10 NSing=    10 JSym2X= 0.
 Root      1 not converged, maximum delta is    0.003938156059475
 Root      2 not converged, maximum delta is    0.002471216682934
 Root      3 not converged, maximum delta is    0.006482063404437
 Root      4 not converged, maximum delta is    0.060886463379620
 Root      5 not converged, maximum delta is    0.058530105809364
 Excitation Energies [eV] at current iteration:
 Root      1 :     1.727965261629608   Change is   -0.004297307402290
 Root      2 :     2.230866403267460   Change is   -0.002646258714620
 Root      3 :     3.262490552327503   Change is   -0.002557368055349
 Root      4 :     3.374551753000258   Change is   -0.018767178536633
 Root      5 :     3.421404942127801   Change is   -0.006471271052726
 Iteration     5 Dimension    60 NMult    50 NNew     10
 CISAX will form    10 AO SS matrices at one time.
 NMat=    10 NSing=    10 JSym2X= 0.
 Root      1 not converged, maximum delta is    0.001342297844989
 Root      2 has converged.
 Root      3 not converged, maximum delta is    0.003379892418186
 Root      4 not converged, maximum delta is    0.024382087348922
 Root      5 not converged, maximum delta is    0.007893101764649
 Excitation Energies [eV] at current iteration:
 Root      1 :     1.727600367098286   Change is   -0.000364894531322
 Root      2 :     2.230688229491478   Change is   -0.000178173775981
 Root      3 :     3.262175360182385   Change is   -0.000315192145117
 Root      4 :     3.370904957583150   Change is   -0.003646795417108
 Root      5 :     3.420407495636933   Change is   -0.000997446490868
 Iteration     6 Dimension    68 NMult    60 NNew      8
 CISAX will form     8 AO SS matrices at one time.
 NMat=     8 NSing=     8 JSym2X= 0.
 Root      1 has converged.
 Root      2 has converged.
 Root      3 not converged, maximum delta is    0.002481896701280
 Root      4 not converged, maximum delta is    0.020273658976487
 Root      5 not converged, maximum delta is    0.005489562821550
 Excitation Energies [eV] at current iteration:
 Root      1 :     1.727567293190002   Change is   -0.000033073908284
 Root      2 :     2.230687116314744   Change is   -0.000001113176734
 Root      3 :     3.262110192610586   Change is   -0.000065167571799
 Root      4 :     3.369571263985326   Change is   -0.001333693597824
 Root      5 :     3.420136154004707   Change is   -0.000271341632225
 Iteration     7 Dimension    74 NMult    68 NNew      6
 CISAX will form     6 AO SS matrices at one time.
 NMat=     6 NSing=     6 JSym2X= 0.
 Root      1 has converged.
 Root      2 has converged.
 Root      3 has converged.
 Root      4 not converged, maximum delta is    0.007705933812079
 Root      5 not converged, maximum delta is    0.002147681550952
 Excitation Energies [eV] at current iteration:
 Root      1 :     1.727566905328117   Change is   -0.000000387861884
 Root      2 :     2.230686131261987   Change is   -0.000000985052757
 Root      3 :     3.262099414523951   Change is   -0.000010778086635
 Root      4 :     3.369270025737986   Change is   -0.000301238247340
 Root      5 :     3.420080054011128   Change is   -0.000056099993579
 Iteration     8 Dimension    78 NMult    74 NNew      4
 CISAX will form     4 AO SS matrices at one time.
 NMat=     4 NSing=     4 JSym2X= 0.
 Root      1 has converged.
 Root      2 has converged.
 Root      3 has converged.
 Root      4 not converged, maximum delta is    0.001639874136936
 Root      5 has converged.
 Excitation Energies [eV] at current iteration:
 Root      1 :     1.727566752774191   Change is   -0.000000152553926
 Root      2 :     2.230684939909922   Change is   -0.000001191352065
 Root      3 :     3.262098924832775   Change is   -0.000000489691177
 Root      4 :     3.369227127203041   Change is   -0.000042898534945
 Root      5 :     3.420072318606682   Change is   -0.000007735404447
 Iteration     9 Dimension    80 NMult    78 NNew      2
 CISAX will form     2 AO SS matrices at one time.
 NMat=     2 NSing=     2 JSym2X= 0.
 Root      1 has converged.
 Root      2 has converged.
 Root      3 has converged.
 Root      4 has converged.
 Root      5 has converged.
 Excitation Energies [eV] at current iteration:
 Root      1 :     1.727566682856246   Change is   -0.000000069917945
 Root      2 :     2.230684633275713   Change is   -0.000000306634209
 Root      3 :     3.262098802364072   Change is   -0.000000122468703
 Root      4 :     3.369220897228494   Change is   -0.000006229974547
 Root      5 :     3.420072278363276   Change is   -0.000000040243406
 Convergence achieved on expansion vectors.
 ***********************************************************************
 Excited states from <AA,BB:AA,BB> singles matrix:
 ***********************************************************************
 
 1PDM for each excited state written to RWF  633
 Ground to excited state transition densities written to RWF  633
 Ground to excited state transition electric dipole moments (Au):
       state          X           Y           Z        Dip. S.      Osc.
         1         0.2734     -2.7787      0.8415      8.5042      0.3599
         2         1.3883      0.5274      0.3706      2.3429      0.1280
         3        -0.2155      0.0368     -0.0081      0.0478      0.0038
         4         0.1018      0.1568      0.0565      0.0381      0.0031
         5         0.4252      0.0530      0.0576      0.1869      0.0157
 Ground to excited state transition velocity dipole moments (Au):
       state          X           Y           Z        Dip. S.      Osc.
         1        -0.0163      0.1712     -0.0524      0.0323      0.3393
         2        -0.1089     -0.0409     -0.0280      0.0143      0.1165
         3         0.0272     -0.0038      0.0022      0.0008      0.0042
         4        -0.0144     -0.0150     -0.0059      0.0005      0.0025
         5        -0.0520     -0.0078     -0.0066      0.0028      0.0149
 Ground to excited state transition magnetic dipole moments (Au):
       state          X           Y           Z
         1        -0.0062      0.6087      2.1177
         2        -0.2586      0.4754      0.2017
         3        -0.2671      0.2176      0.7218
         4        -0.7184      0.0480     -0.2990
         5         0.2335      0.0644     -0.8287
 Ground to excited state transition velocity quadrupole moments (Au):
       state          XX          YY          ZZ          XY          XZ          YZ
         1        -0.4998      0.3757      0.0041      2.0835     -0.6519     -0.0838
         2        -2.4232     -0.0099      0.0055     -0.5081     -0.3306     -0.0310
         3         0.5810     -0.0924      0.0378     -0.3589      0.0471     -0.1077
         4        -0.2947     -0.1880      0.0488     -0.2719     -0.0432     -0.0803
         5        -1.1885      0.3515     -0.0849     -0.1003     -0.1124      0.0653
 <0|del|b> * <b|rxdel|0> + <0|del|b> * <b|delr+rdel|0>
 Rotatory Strengths (R) in cgs (10**-40 erg-esu-cm/Gauss)
       state          XX          YY          ZZ    R(velocity)    E-M Angle
         1       -25.1697     -1.8377    -48.1723    -25.0599       90.98
         2      -105.1539     50.3599     81.4001      8.8687       87.44
         3         0.4139    -23.1053    -15.8071    -12.8328      107.20
         4         5.6977     33.3218     26.0540     21.6912       47.40
         5        13.2681    -30.2809    -23.5573    -13.5234       99.06
 1/2[<0|r|b>*<b|rxdel|0> + (<0|rxdel|b>*<b|r|0>)*]
 Rotatory Strengths (R) in cgs (10**-40 erg-esu-cm/Gauss)
       state          XX          YY          ZZ     R(length)
         1         1.1972   1196.1783  -1260.2104    -20.9449
         2       253.8589   -177.3247    -52.8439      7.8968
         3       -40.6958     -5.6634      4.1564    -14.0676
         4        51.7150     -5.3234     11.9428     19.4448
         5       -70.1983     -2.4131     33.7320    -12.9598
  1/2[<0|del|b>*<b|r|0> + (<0|r|b>*<b|del|0>)*] (Au)
       state          X           Y           Z        Dip. S.   Osc.(frdel)
         1        -0.0044     -0.4756     -0.0441      0.5242      0.3495
         2        -0.1512     -0.0216     -0.0104      0.1832      0.1221
         3        -0.0059     -0.0001     -0.0000      0.0060      0.0040
         4        -0.0015     -0.0023     -0.0003      0.0041      0.0028
         5        -0.0221     -0.0004     -0.0004      0.0229      0.0153

 Excitation energies and oscillator strengths:
 
 Excited State   1:      Singlet-A      1.7276 eV  717.68 nm  f=0.3599  <S**2>=0.000
     245 -> 248       -0.17611
     246 -> 247        0.68657
     245 <- 248       -0.10652
 This state for optimization and/or second-order correction.
 Total Energy, E(TD-HF/TD-DFT) =  -3007.06513526    
 Copying the excited state density for this state as the 1-particle RhoCI density.
 
 Excited State   2:      Singlet-A      2.2307 eV  555.81 nm  f=0.1280  <S**2>=0.000
     245 -> 247        0.64096
     246 -> 248        0.28455
 
 Excited State   3:      Singlet-A      3.2621 eV  380.07 nm  f=0.0038  <S**2>=0.000
     241 -> 247       -0.21912
     243 -> 247        0.18347
     244 -> 247        0.63458
 
 Excited State   4:      Singlet-A      3.3692 eV  367.99 nm  f=0.0031  <S**2>=0.000
     240 -> 247        0.50653
     240 -> 249        0.32909
     240 -> 250       -0.12533
     241 -> 247       -0.24458
 
 Excited State   5:      Singlet-A      3.4201 eV  362.52 nm  f=0.0157  <S**2>=0.000
     239 -> 247        0.15398
     240 -> 247        0.17124
     240 -> 249        0.11311
     241 -> 247        0.43754
     243 -> 247       -0.31638
     244 -> 247        0.24547
     246 -> 248       -0.23927
 SavETr:  write IOETrn=   770 NScale= 10 NData=  16 NLR=1 NState=    5 LETran=     100.
 Leave Link  914 at Wed May  4 09:38:23 2022, MaxMem= 10066329600 cpu:           26004.4 elap:            1093.8
 (Enter /sw/apps/gaussian-16.0/g16/l601.exe)
 Copying SCF densities to generalized density rwf, IOpCl= 0 IROHF=0.
 Hyperfine terms turned off by default for NAtoms > 100.

 **********************************************************************

            Population analysis using the SCF density.

 **********************************************************************

 Orbital symmetries:
       Occupied  (A) (A) (A) (A) (A) (A) (A) (A) (A) (A) (A) (A)
                 (A) (A) (A) (A) (A) (A) (A) (A) (A) (A) (A) (A)
                 (A) (A) (A) (A) (A) (A) (A) (A) (A) (A) (A) (A)
                 (A) (A) (A) (A) (A) (A) (A) (A) (A) (A) (A) (A)
                 (A) (A) (A) (A) (A) (A) (A) (A) (A) (A) (A) (A)
                 (A) (A) (A) (A) (A) (A) (A) (A) (A) (A) (A) (A)
                 (A) (A) (A) (A) (A) (A) (A) (A) (A) (A) (A) (A)
                 (A) (A) (A) (A) (A) (A) (A) (A) (A) (A) (A) (A)
[...]
 Alpha virt. eigenvalues --    1.20002   1.20288   1.20955   1.21105   1.21657
 Alpha virt. eigenvalues --    1.22004   1.22495   1.22797   1.23315   1.23661
 Alpha virt. eigenvalues --    1.24153   1.24918   1.25161   1.25640   1.26230
 Alpha virt. eigenvalues --    1.26562   1.27390   1.27617   1.28111   1.28612
 Alpha virt. eigenvalues --    1.29012   1.29684   1.30128   1.30630   1.31535
 Alpha virt. eigenvalues --    1.32003   1.32365   1.33372   1.33950   1.34469
 Alpha virt. eigenvalues --    1.34620   1.34767   1.35098   1.35637   1.36391
 Alpha virt. eigenvalues --    1.36645   1.37222   1.37412   1.37628   1.37884
 Alpha virt. eigenvalues --    1.38349   1.38847   1.39633   1.39854   1.40147
 Alpha virt. eigenvalues --    1.40621   1.40629   1.41244   1.41256   1.41985
 Alpha virt. eigenvalues --    1.43149   1.43481   1.43809   1.44098   1.44575
 Alpha virt. eigenvalues --    1.45108   1.45144   1.46020   1.46235   1.46546
 Alpha virt. eigenvalues --    1.46953   1.47239   1.47375   1.47441   1.48419
 Alpha virt. eigenvalues --    1.48876   1.49496   1.50045   1.50567   1.50747
 Alpha virt. eigenvalues --    1.51173   1.51218   1.52062   1.52389   1.52487
 Alpha virt. eigenvalues --    1.52941   1.53247   1.53801   1.54124   1.54840
 Alpha virt. eigenvalues --    1.54983   1.55431   1.55623   1.56302   1.56975
 Alpha virt. eigenvalues --    1.57336   1.57724   1.58272   1.58488   1.58557
 Alpha virt. eigenvalues --    1.58637   1.59118   1.59441   1.59780   1.60039
 Alpha virt. eigenvalues --    1.60237   1.60657   1.60794   1.61168   1.61486
 Alpha virt. eigenvalues --    1.61734   1.61925   1.61982   1.62185   1.62416
 Alpha virt. eigenvalues --    1.62547   1.62615   1.62787   1.63042   1.63254
 Alpha virt. eigenvalues --    1.63458   1.63901   1.64163   1.64704   1.64940
 Alpha virt. eigenvalues --    1.65398   1.65672   1.65777   1.65973   1.66842
 Alpha virt. eigenvalues --    1.66862   1.67203   1.67639   1.68232   1.68712
 Alpha virt. eigenvalues --    1.69007   1.69282   1.69617   1.70081   1.70190
 Alpha virt. eigenvalues --    1.70986   1.71824   1.71973   1.72389   1.72731
 Alpha virt. eigenvalues --    1.73498   1.73597   1.74608   1.74903   1.75208
 Alpha virt. eigenvalues --    1.75462   1.76056   1.76102   1.76360   1.76568
 Alpha virt. eigenvalues --    1.77150   1.77252   1.78109   1.78335   1.78436
 Alpha virt. eigenvalues --    1.78890   1.79155   1.79443   1.79643   1.79959
 Alpha virt. eigenvalues --    1.80023   1.80349   1.80420   1.80525   1.81307
 Alpha virt. eigenvalues --    1.81604   1.81887   1.81944   1.82065   1.82252
 Alpha virt. eigenvalues --    1.82417   1.82815   1.83057   1.83163   1.83354
 Alpha virt. eigenvalues --    1.83467   1.83736   1.83797   1.84073   1.84204
 Alpha virt. eigenvalues --    1.84412   1.84440   1.84547   1.84896   1.85201
 Alpha virt. eigenvalues --    1.85384   1.85458   1.86049   1.86171   1.86403
 Alpha virt. eigenvalues --    1.86538   1.86675   1.86805   1.87173   1.87235
 Alpha virt. eigenvalues --    1.87350   1.87470   1.87992   1.88208   1.88289
 Alpha virt. eigenvalues --    1.88609   1.88726   1.88891   1.89022   1.89248
 Alpha virt. eigenvalues --    1.89567   1.89619   1.89782   1.90102   1.90229
 Alpha virt. eigenvalues --    1.90302   1.90593   1.90840   1.91388   1.91760
 Alpha virt. eigenvalues --    1.92002   1.92182   1.92435   1.92482   1.92660
 Alpha virt. eigenvalues --    1.92742   1.92957   1.93435   1.93528   1.93690
 Alpha virt. eigenvalues --    1.94140   1.94281   1.94602   1.95020   1.95267
 Alpha virt. eigenvalues --    1.95505   1.95755   1.96103   1.96177   1.96190
 Alpha virt. eigenvalues --    1.96442   1.96514   1.96765   1.97307   1.97415
 Alpha virt. eigenvalues --    1.97820   1.97926   1.98070   1.98402   1.98431
 Alpha virt. eigenvalues --    1.98594   1.98900   1.99155   1.99395   1.99623
 Alpha virt. eigenvalues --    1.99811   1.99939   2.00337   2.00758   2.01055
 Alpha virt. eigenvalues --    2.01309   2.01542   2.02111   2.02305   2.02620
 Alpha virt. eigenvalues --    2.02781   2.02812   2.03477   2.04065   2.04304
 Alpha virt. eigenvalues --    2.04556   2.04606   2.05036   2.05246   2.05311
 Alpha virt. eigenvalues --    2.05469   2.05694   2.05853   2.06356   2.06440
 Alpha virt. eigenvalues --    2.06795   2.07372   2.07994   2.08152   2.08191
 Alpha virt. eigenvalues --    2.08667   2.08832   2.09135   2.09256   2.09850
 Alpha virt. eigenvalues --    2.10039   2.10784   2.10894   2.11099   2.11511
 Alpha virt. eigenvalues --    2.11666   2.12165   2.12278   2.12551   2.13306
 Alpha virt. eigenvalues --    2.13478   2.13784   2.14568   2.14673   2.15101
 Alpha virt. eigenvalues --    2.15295   2.15381   2.15644   2.15849   2.16092
 Alpha virt. eigenvalues --    2.16351   2.16725   2.16959   2.17019   2.17818
 Alpha virt. eigenvalues --    2.17881   2.18322   2.18511   2.18681   2.18753
 Alpha virt. eigenvalues --    2.19259   2.19893   2.20143   2.20303   2.20893
 Alpha virt. eigenvalues --    2.20941   2.21017   2.21983   2.22275   2.23202
 Alpha virt. eigenvalues --    2.23509   2.23770   2.24239   2.24576   2.24848
 Alpha virt. eigenvalues --    2.25374   2.25835   2.26206   2.26359   2.26467
 Alpha virt. eigenvalues --    2.26583   2.27745   2.27809   2.28102   2.28381
 Alpha virt. eigenvalues --    2.29130   2.29347   2.30245   2.30426   2.30907
 Alpha virt. eigenvalues --    2.31323   2.31722   2.32255   2.32406   2.32485
 Alpha virt. eigenvalues --    2.33021   2.33199   2.33798   2.34231   2.34342
 Alpha virt. eigenvalues --    2.34451   2.35190   2.35559   2.36116   2.36535
 Alpha virt. eigenvalues --    2.36945   2.37253   2.37548   2.37706   2.38150
 Alpha virt. eigenvalues --    2.38831   2.39054   2.39256   2.39707   2.39790
 Alpha virt. eigenvalues --    2.40339   2.40507   2.40941   2.41325   2.41755
 Alpha virt. eigenvalues --    2.41936   2.42120   2.42705   2.42812   2.43315
 Alpha virt. eigenvalues --    2.43726   2.44623   2.45019   2.45211   2.45849
 Alpha virt. eigenvalues --    2.46292   2.46727   2.47198   2.47391   2.47574
 Alpha virt. eigenvalues --    2.47815   2.48294   2.48697   2.49052   2.49531
 Alpha virt. eigenvalues --    2.49611   2.50091   2.50608   2.51394   2.51490
 Alpha virt. eigenvalues --    2.51546   2.52459   2.52604   2.53284   2.53696
 Alpha virt. eigenvalues --    2.53796   2.54138   2.54161   2.54579   2.54942
 Alpha virt. eigenvalues --    2.55108   2.55803   2.56083   2.56154   2.57429
 Alpha virt. eigenvalues --    2.57548   2.58006   2.58460   2.59082   2.59482
 Alpha virt. eigenvalues --    2.60038   2.60045   2.60267   2.60403   2.61119
 Alpha virt. eigenvalues --    2.61640   2.61791   2.62466   2.62586   2.63010
 Alpha virt. eigenvalues --    2.63632   2.64065   2.64681   2.64757   2.64924
 Alpha virt. eigenvalues --    2.65273   2.66170   2.66500   2.67180   2.67249
 Alpha virt. eigenvalues --    2.67423   2.67861   2.68313   2.68572   2.68633
 Alpha virt. eigenvalues --    2.69400   2.69888   2.70343   2.70863   2.71042
 Alpha virt. eigenvalues --    2.71303   2.71992   2.72041   2.72625   2.73511
 Alpha virt. eigenvalues --    2.73689   2.73876   2.73992   2.74526   2.75338
 Alpha virt. eigenvalues --    2.75956   2.76316   2.77023   2.77149   2.77328
 Alpha virt. eigenvalues --    2.77873   2.78281   2.78628   2.79539   2.80078
 Alpha virt. eigenvalues --    2.80378   2.80632   2.80926   2.81382   2.81577
 Alpha virt. eigenvalues --    2.82453   2.82608   2.82655   2.82852   2.83380
 Alpha virt. eigenvalues --    2.83737   2.84167   2.84498   2.85023   2.85893
 Alpha virt. eigenvalues --    2.86814   2.87873   2.88311   2.88925   2.89163
 Alpha virt. eigenvalues --    2.89450   2.90263   2.90554   2.90985   2.91767
 Alpha virt. eigenvalues --    2.92237   2.92994   2.93033   2.93607   2.93880
 Alpha virt. eigenvalues --    2.94202   2.94305   2.95020   2.95094   2.95468
 Alpha virt. eigenvalues --    2.95828   2.96913   2.97195   2.97488   2.97935
 Alpha virt. eigenvalues --    2.98017   2.98174   2.98668   2.98978   2.99234
 Alpha virt. eigenvalues --    2.99675   2.99820   3.00274   3.00529   3.00966
 Alpha virt. eigenvalues --    3.01057   3.01167   3.01398   3.01778   3.02367
 Alpha virt. eigenvalues --    3.02502   3.02819   3.02911   3.03405   3.03553
 Alpha virt. eigenvalues --    3.03947   3.04046   3.04145   3.04906   3.05039
 Alpha virt. eigenvalues --    3.05410   3.05454   3.05557   3.05826   3.06124
 Alpha virt. eigenvalues --    3.06131   3.06429   3.06659   3.06737   3.07145
 Alpha virt. eigenvalues --    3.07323   3.08263   3.08620   3.09012   3.09500
 Alpha virt. eigenvalues --    3.09814   3.10728   3.10871   3.11502   3.11824
 Alpha virt. eigenvalues --    3.12522   3.12940   3.13049   3.13391   3.13672
 Alpha virt. eigenvalues --    3.14584   3.15307   3.15946   3.16335   3.16445
 Alpha virt. eigenvalues --    3.16678   3.16830   3.18604   3.19670   3.20560
 Alpha virt. eigenvalues --    3.20883   3.22062   3.22496   3.22703   3.22984
 Alpha virt. eigenvalues --    3.23600   3.25373   3.26130   3.26177   3.28193
 Alpha virt. eigenvalues --    3.30441   3.30908   3.39731   3.44766   3.44917
 Alpha virt. eigenvalues --    3.46554   3.47874   3.48952   3.54098   3.58635
 Alpha virt. eigenvalues --    3.59928   3.61955   3.65087   3.65291   3.65408
 Alpha virt. eigenvalues --    3.71428   3.75167
          Condensed to atoms (all electrons):
 Mulliken charges:
               1
     1  Mg   0.809630
     2  C    0.044160
     3  C   -0.063304
     4  C   -0.053331
     5  C   -0.089805
     6  N   -0.297992
     7  C   -0.069351
     8  C   -0.005334
     9  C   -0.107110
    10  C    0.079184
    11  C    0.044067
    12  C    0.145093
    13  C    0.027222
    14  C    0.190854
    15  O   -0.254947
    16  O   -0.371497
    17  N   -0.451595
    18  C    0.149592
    19  C   -0.131351
    20  C   -0.065786
    21  C    0.149098
    22  C    0.119116
    23  C    0.003933
    24  O   -0.250811
    25  C    0.072613
    26  N   -0.249739
    27  C    0.011818
    28  C    0.040771
    29  C   -0.037325
    30  C    0.058195
    31  C    0.083317
    32  C   -0.006193
    33  C   -0.008855
    34  N   -0.366497
    35  C    0.117339
    36  C   -0.211563
    37  C    0.014470
    38  C    0.075568
    39  C    0.151767
    40  C    0.030663
    41  O   -0.170571
    42  C   -0.012042
    43  C    0.200102
    44  O   -0.226535
    45  O   -0.345732
    46  C    0.179386
    47  C    0.264047
    48  C   -0.135916
    49  C   -0.183908
    50  C    0.083122
    51  C    0.105109
    52  C    0.005922
    53  C    0.070991
    54  C   -0.143756
    55  C    0.063538
    56  C    0.042925
    57  C   -0.003135
    58  C    0.018007
    59  C   -0.110717
    60  C    0.039515
    61  C    0.054768
    62  C    0.034634
    63  C    0.024895
    64  C   -0.174760
    65  C    0.027993
    66  C    0.065969
    67  H   -0.024534
    68  H    0.003199
    69  H   -0.034981
    70  H   -0.009144
    71  H    0.008387
    72  H    0.035767
    73  H    0.012181
    74  H    0.031876
    75  H    0.001362
    76  H    0.046487
    77  H    0.038307
    78  H    0.049316
    79  H    0.043421
    80  H    0.016323
    81  H    0.028321
    82  H    0.040120
    83  H    0.039971
    84  H    0.033701
    85  H    0.013168
    86  H   -0.004926
    87  H    0.037688
    88  H    0.013293
    89  H    0.016159
    90  H    0.000557
    91  H   -0.004978
    92  H    0.020062
    93  H    0.012506
    94  H    0.027756
    95  H    0.047766
    96  H    0.003076
    97  H    0.034191
    98  H    0.060314
    99  H    0.037445
   100  H    0.042785
   101  H    0.047006
   102  H    0.023512
   103  H    0.033910
   104  H    0.003711
   105  H    0.034404
   106  H    0.013300
   107  H    0.017362
   108  H    0.016378
   109  H    0.005240
   110  H    0.010237
   111  H    0.002741
   112  H   -0.014769
   113  H   -0.012676
   114  H   -0.008790
   115  H    0.022295
   116  H   -0.011025
   117  H    0.003045
   118  H    0.003224
   119  H   -0.011758
   120  H    0.001737
   121  H    0.004885
   122  H   -0.013952
   123  H   -0.005254
   124  H    0.002285
   125  H   -0.004276
   126  H    0.010139
   127  H   -0.006218
   128  H   -0.002789
   129  H   -0.007640
   130  H   -0.000932
   131  H    0.015356
   132  H   -0.011243
   133  H   -0.012182
   134  H    0.000149
   135  H   -0.004108
   136  H    0.002680
   137  H    0.021805
   138  H    0.003479
   139  H    0.014581
   140  H   -0.002724
 Sum of Mulliken charges =  -0.00000
 Mulliken charges with hydrogens summed into heavy atoms:
               1
     1  Mg   0.809630
     2  C    0.044160
     3  C   -0.087838
     4  C   -0.050132
     5  C   -0.124787
     6  N   -0.297992
     7  C   -0.069351
     8  C   -0.014478
     9  C   -0.098723
    10  C    0.079184
    11  C    0.123891
    12  C    0.192942
    13  C    0.114845
    14  C    0.190854
    15  O   -0.254947
    16  O   -0.371497
    17  N   -0.451595
    18  C    0.149592
    19  C   -0.131351
    20  C   -0.065786
    21  C    0.149098
    22  C    0.207181
    23  C    0.003933
    24  O   -0.250811
    25  C    0.186404
    26  N   -0.249739
    27  C    0.011818
    28  C    0.053939
    29  C   -0.042251
    30  C    0.058195
    31  C    0.150457
    32  C   -0.010614
    33  C    0.051469
    34  N   -0.366497
    35  C    0.117339
    36  C   -0.211563
    37  C    0.014470
    38  C    0.075568
    39  C    0.236801
    40  C    0.030663
    41  O   -0.170571
    42  C    0.048272
    43  C    0.200102
    44  O   -0.226535
    45  O   -0.345732
    46  C    0.306622
    47  C    0.321469
    48  C   -0.132205
    49  C   -0.183908
    50  C    0.148188
    51  C    0.126726
    52  C    0.018899
    53  C    0.043546
    54  C   -0.152546
    55  C    0.077852
    56  C    0.034391
    57  C    0.003488
    58  C   -0.001199
    59  C   -0.108432
    60  C    0.039159
    61  C    0.044339
    62  C    0.049058
    63  C    0.001469
    64  C   -0.174610
    65  C    0.048370
    66  C    0.081304
 Electronic spatial extent (au):  <R**2>=         146450.8195
 Charge=             -0.0000 electrons
 Dipole moment (field-independent basis, Debye):
    X=             -4.0904    Y=              6.1985    Z=             -2.2323  Tot=              7.7547
 Quadrupole moment (field-independent basis, Debye-Ang):
   XX=           -390.0037   YY=           -433.6357   ZZ=           -400.1249
   XY=             19.4892   XZ=              4.0024   YZ=             -7.8100
 Traceless Quadrupole moment (field-independent basis, Debye-Ang):
   XX=             17.9177   YY=            -25.7143   ZZ=              7.7965
   XY=             19.4892   XZ=              4.0024   YZ=             -7.8100
 Octapole moment (field-independent basis, Debye-Ang**2):
  XXX=            169.6738  YYY=            218.9159  ZZZ=            -14.0548  XYY=           -192.4380
  XXY=           -230.0192  XXZ=             97.7853  XZZ=             57.8725  YZZ=             17.5509
  YYZ=            -97.3174  XYZ=           -114.8456
 Hexadecapole moment (field-independent basis, Debye-Ang**3):
 XXXX=        -172232.5008 YYYY=         -20732.6591 ZZZZ=          -8345.9968 XXXY=          -1683.3812
 XXXZ=            233.1884 YYYX=            903.7684 YYYZ=           -227.3008 ZZZX=             93.6057
 ZZZY=            -94.0570 XXYY=         -33953.0461 XXZZ=         -30636.4128 YYZZ=          -4761.0358
 XXYZ=           -536.2230 YYXZ=           -336.7843 ZZXY=            425.9565
 N-N= 9.317323266523D+03 E-N=-2.562596420629D+04  KE= 2.974468010608D+03
 Leave Link  601 at Wed May  4 09:38:24 2022, MaxMem= 10066329600 cpu:              12.8 elap:               0.6
 (Enter /sw/apps/gaussian-16.0/g16/l9999.exe)
 1\1\GINC-BP1-COMPUTE067\SP\RCAM-B3LYP TD-FC\def2SVP\C55H74Mg1N4O6\OF15
 641\04-May-2022\0\\#p cam-b3lyp/Def2SVP td=(nstates=5)\\step_1601_chro
 mophore_10 TDDFT with cam-b3lyp functional\\0,1\Mg,0,42.225,7.88,29.51
 6\C,0,43.817,9.588,32.15\C,0,40.205,6.37,31.773\C,0,40.814,6.379,26.80
 9\C,0,44.695,9.139,27.325\N,0,42.075,7.983,31.705\C,0,42.768,8.809,32.
 637\C,0,42.051,8.925,33.963\C,0,41.135,7.545,33.86\C,0,41.047,7.364,32
 .306\C,0,41.81,6.237,34.547\C,0,41.385,10.32,34.333\C,0,40.694,10.313,
 35.691\C,0,41.256,11.213,36.784\O,0,42.12,12.13,36.671\O,0,40.651,10.9
 41,38.031\N,0,40.694,6.581,29.26\C,0,39.979,6.028,30.386\C,0,39.011,5.
 038,29.844\C,0,39.051,5.264,28.432\C,0,40.189,6.155,28.06\C,0,38.188,4
 .252,30.75\C,0,38.158,4.626,27.312\O,0,38.352,4.919,26.095\C,0,36.934,
 3.76,27.583\N,0,42.673,7.75,27.381\C,0,41.981,7.018,26.492\C,0,42.588,
 7.2,25.076\C,0,43.527,8.333,25.259\C,0,43.687,8.419,26.78\C,0,43.346,5
 .874,24.739\C,0,42.963,9.757,24.752\C,0,41.684,10.411,25.363\N,0,43.92
 5,9.087,29.621\C,0,44.848,9.498,28.674\C,0,45.802,10.421,29.241\C,0,45
 .431,10.479,30.596\C,0,44.277,9.733,30.799\C,0,46.965,11.175,28.616\C,
 0,45.712,11.072,31.908\O,0,46.488,11.976,32.166\C,0,44.683,10.53,32.95
 9\C,0,45.302,9.982,34.195\O,0,46.089,9.032,34.262\O,0,44.57,10.421,35.
 261\C,0,44.613,9.725,36.567\C,0,41.073,11.635,39.243\C,0,40.464,10.858
 ,40.415\C,0,40.573,11.171,41.725\C,0,41.452,12.335,42.178\C,0,40.125,1
 0.176,42.841\C,0,39.278,10.987,43.872\C,0,37.789,10.598,43.851\C,0,37.
 195,10.712,45.303\C,0,36.539,9.367,45.643\C,0,36.306,11.904,45.562\C,0
 ,36.3,12.386,47.068\C,0,34.983,11.863,47.823\C,0,33.968,12.988,48.262\
 C,0,33.715,12.942,49.771\C,0,32.686,12.864,47.404\C,0,32.857,13.61,46.
 036\C,0,31.859,14.752,45.993\C,0,32.5,16.092,45.579\C,0,33.38,16.561,4
 6.795\C,0,31.44,17.137,45.184\H,0,39.664,5.763,32.503\H,0,40.395,5.738
 ,26.031\H,0,45.401,9.604,26.634\H,0,42.815,8.615,34.676\H,0,40.155,7.7
 64,34.283\H,0,41.966,5.308,33.997\H,0,41.035,5.994,35.275\H,0,42.723,6
 .424,35.112\H,0,40.589,10.538,33.622\H,0,42.21,11.026,34.238\H,0,40.65
 4,9.286,36.053\H,0,39.667,10.661,35.571\H,0,37.166,4.509,30.473\H,0,38
 .448,4.307,31.808\H,0,38.387,3.192,30.59\H,0,36.418,3.459,26.671\H,0,3
 6.35,4.475,28.163\H,0,37.326,2.913,28.145\H,0,41.799,7.584,24.43\H,0,4
 4.523,8.277,24.819\H,0,43.118,5.017,25.373\H,0,44.415,6.072,24.659\H,0
 ,43.097,5.645,23.703\H,0,42.757,9.817,23.683\H,0,43.767,10.491,24.8\H,
 0,41.378,9.829,26.233\H,0,40.865,10.273,24.658\H,0,41.787,11.458,25.64
 7\H,0,46.917,12.221,28.921\H,0,47.06,10.927,27.559\H,0,47.804,10.688,2
 9.112\H,0,44.226,11.473,33.258\H,0,45.015,8.724,36.412\H,0,43.635,9.65
 7,37.044\H,0,45.35,10.26,37.165\H,0,40.711,12.663,39.26\H,0,42.151,11.
 791,39.28\H,0,40.016,9.942,40.027\H,0,40.909,13.268,42.327\H,0,42.188,
 12.54,41.401\H,0,41.892,12.01,43.121\H,0,41.028,9.817,43.335\H,0,39.52
 9,9.413,42.341\H,0,39.318,12.052,43.643\H,0,39.697,10.808,44.862\H,0,3
 7.54,9.624,43.43\H,0,37.186,11.251,43.22\H,0,37.954,10.853,46.072\H,0,
 37.137,8.555,45.228\H,0,35.563,9.382,45.159\H,0,36.256,9.433,46.693\H,
 0,35.283,11.724,45.23\H,0,36.693,12.782,45.045\H,0,36.28,13.474,47.126
 \H,0,37.088,12.005,47.717\H,0,35.346,11.298,48.681\H,0,34.496,11.097,4
 7.219\H,0,34.437,13.971,48.262\H,0,33.707,13.964,50.151\H,0,34.448,12.
 309,50.271\H,0,32.708,12.666,50.085\H,0,31.811,13.15,47.988\H,0,32.453
 ,11.854,47.068\H,0,32.583,12.938,45.223\H,0,33.859,13.994,45.845\H,0,3
 1.419,14.972,46.966\H,0,30.949,14.556,45.425\H,0,33.186,15.921,44.749\
 H,0,33.324,17.635,46.968\H,0,34.411,16.436,46.462\H,0,33.209,16.106,47
 .771\H,0,31.648,17.356,44.137\H,0,31.362,18.087,45.713\H,0,30.478,16.6
 26,45.218\\Version=ES64L-G16RevA.03\State=1-A\HF=-3007.1286222\RMSD=9.
 402e-09\PG=C01 [X(C55H74Mg1N4O6)]\\@


 Not by the face shall a man be known, but by the mask.
                               -- Karen Blixen
 Job cpu time:       0 days  9 hours 39 minutes 39.7 seconds.
 Elapsed time:       0 days  0 hours 24 minutes 36.4 seconds.
 File lengths (MBytes):  RWF=   8929 Int=      0 D2E=      0 Chk=    390 Scr=      1
 Normal termination of Gaussian 16 at Wed May  4 09:38:25 2022.
