 Entering Gaussian System, Link 0=g16
 Initial command:
 /sw/apps/gaussian-16.0/g16/l1.exe "/tmp/Gau-68360.inp" -scrdir="/tmp/"
 Entering Link 1 = /sw/apps/gaussian-16.0/g16/l1.exe PID=     68361.
  
 Copyright (c) 1988,1990,1992,1993,1995,1998,2003,2009,2016,
            Gaussian, Inc.  All Rights Reserved.
  
 This is part of the Gaussian(R) 16 program.  It is based on
 the Gaussian(R) 09 system (copyright 2009, Gaussian, Inc.),
 the Gaussian(R) 03 system (copyright 2003, Gaussian, Inc.),
 the Gaussian(R) 98 system (copyright 1998, Gaussian, Inc.),
 the Gaussian(R) 94 system (copyright 1995, Gaussian, Inc.),
 the Gaussian 92(TM) system (copyright 1992, Gaussian, Inc.),
 the Gaussian 90(TM) system (copyright 1990, Gaussian, Inc.),
 the Gaussian 88(TM) system (copyright 1988, Gaussian, Inc.),
 the Gaussian 86(TM) system (copyright 1986, Carnegie Mellon
 University), and the Gaussian 82(TM) system (copyright 1983,
 Carnegie Mellon University). Gaussian is a federally registered
 trademark of Gaussian, Inc.
  
 This software contains proprietary and confidential information,
 including trade secrets, belonging to Gaussian, Inc.
  
 This software is provided under written license and may be
 used, copied, transmitted, or stored only in accord with that
 written license.
  
 The following legend is applicable only to US Government
 contracts under FAR:
  
                    RESTRICTED RIGHTS LEGEND
  
 Use, reproduction and disclosure by the US Government is
 subject to restrictions as set forth in subparagraphs (a)
 and (c) of the Commercial Computer Software - Restricted
 Rights clause in FAR 52.227-19.
  
 Gaussian, Inc.
 340 Quinnipiac St., Bldg. 40, Wallingford CT 06492
  
  
 ---------------------------------------------------------------
 Warning -- This program may not be used in any manner that
 competes with the business of Gaussian, Inc. or will provide
 assistance to any competitor of Gaussian, Inc.  The licensee
 of this program is prohibited from giving any competitor of
 Gaussian, Inc. access to this program.  By using this program,
 the user acknowledges that Gaussian, Inc. is engaged in the
 business of creating and licensing software in the field of
 computational chemistry and represents and warrants to the
 licensee that it is not a competitor of Gaussian, Inc. and that
 it will not use this program in any manner prohibited above.
 ---------------------------------------------------------------
  

 Cite this work as:
 Gaussian 16, Revision A.03,
 M. J. Frisch, G. W. Trucks, H. B. Schlegel, G. E. Scuseria, 
 M. A. Robb, J. R. Cheeseman, G. Scalmani, V. Barone, 
 G. A. Petersson, H. Nakatsuji, X. Li, M. Caricato, A. V. Marenich, 
 J. Bloino, B. G. Janesko, R. Gomperts, B. Mennucci, H. P. Hratchian, 
 J. V. Ortiz, A. F. Izmaylov, J. L. Sonnenberg, D. Williams-Young, 
 F. Ding, F. Lipparini, F. Egidi, J. Goings, B. Peng, A. Petrone, 
 T. Henderson, D. Ranasinghe, V. G. Zakrzewski, J. Gao, N. Rega, 
 G. Zheng, W. Liang, M. Hada, M. Ehara, K. Toyota, R. Fukuda, 
 J. Hasegawa, M. Ishida, T. Nakajima, Y. Honda, O. Kitao, H. Nakai, 
 T. Vreven, K. Throssell, J. A. Montgomery, Jr., J. E. Peralta, 
 F. Ogliaro, M. J. Bearpark, J. J. Heyd, E. N. Brothers, K. N. Kudin, 
 V. N. Staroverov, T. A. Keith, R. Kobayashi, J. Normand, 
 K. Raghavachari, A. P. Rendell, J. C. Burant, S. S. Iyengar, 
 J. Tomasi, M. Cossi, J. M. Millam, M. Klene, C. Adamo, R. Cammi, 
 J. W. Ochterski, R. L. Martin, K. Morokuma, O. Farkas, 
 J. B. Foresman, and D. J. Fox, Gaussian, Inc., Wallingford CT, 2016.
 
 ******************************************
 Gaussian 16:  ES64L-G16RevA.03 25-Dec-2016
                29-Apr-2022 
 ******************************************
 %nproc=24
 Will use up to   24 processors via shared memory.
 %mem=75GB
 -----------------------------------
 #p cam-b3lyp/Def2SVP td=(nstates=5)
 -----------------------------------
 1/38=1,172=1/1;
 2/12=2,17=6,18=5,40=1/2;
 3/5=43,7=101,11=9,25=1,30=1,74=-40/1,2,3,8;
 4//1;
 5/5=2,38=5/2;
 8/6=1,10=1,108=5/1;
 9/41=5,42=1,70=2/14;
 6/7=2,8=2,9=2,10=2/1;
 99/5=1,9=1/99;
 Leave Link    1 at Fri Apr 29 07:22:51 2022, MaxMem= 10066329600 cpu:               0.9 elap:               0.0
 (Enter /sw/apps/gaussian-16.0/g16/l101.exe)
 -------------------------------------------------------
 step_201_chromophore_20 TDDFT with cam-b3lyp functional
 -------------------------------------------------------
 Symbolic Z-matrix:
 Charge =  0 Multiplicity = 1
 Mg                    7.066     57.131    41.377 
 C                     6.326     53.8      41.126 
 C                     10.232    56.482    40.316 
 C                     7.749     60.518    41.098 
 C                     3.773     57.83     42.098 
 N                     8.069     55.369    40.65 
 C                     7.569     54.082    40.608 
 C                     8.543     53.114    39.913 
 C                     9.89      53.851    40.073 
 C                     9.377     55.358    40.394 
 C                     10.841    53.24     41.064 
 C                     8.118     52.861    38.44 
 C                     8.396     51.453    37.782 
 C                     9.41      51.145    36.718 
 O                     10.206    50.252    36.731 
 O                     9.036     51.886    35.619 
 N                     8.783     58.321    40.849 
 C                     10.02     57.84     40.552 
 C                     10.967    58.965    40.362 
 C                     10.239    60.189    40.613 
 C                     8.901     59.721    40.859 
 C                     12.417    58.839    40.11 
 C                     10.804    61.606    40.564 
 O                     12.012    61.867    40.364 
 C                     9.906     62.897    40.717 
 N                     5.9       58.937    41.391 
 C                     6.409     60.176    41.384 
 C                     5.347     61.246    41.72 
 C                     4.071     60.393    42.076 
 C                     4.586     58.962    41.81 
 C                     5.736     62.282    42.83 
 C                     2.854     60.826    41.219 
 C                     1.401     60.771    41.856 
 N                     5.295     56.045    41.577 
 C                     4.026     56.462    41.931 
 C                     3.311     55.225    42.334 
 C                     4.191     54.165    42.021 
 C                     5.289     54.738    41.545 
 C                     1.999     55.105    43.117 
 C                     4.352     52.722    41.971 
 O                     3.734     51.742    42.404 
 C                     5.728     52.445    41.244 
 C                     5.409     51.764    39.988 
 O                     4.697     52.22     39.114 
 O                     6.024     50.519    39.874 
 C                     5.548     49.731    38.745 
 C                     9.691     51.459    34.367 
 C                     9.263     52.401    33.219 
 C                     8.045     52.675    32.636 
 C                     6.769     51.85     32.873 
 C                     8.009     53.706    31.501 
 C                     7.39      55.07     31.799 
 C                     7.994     56.183    30.86 
 C                     9.1       57.081    31.417 
 C                     8.604     58.521    31.802 
 C                     10.325    57.192    30.462 
 C                     11.755    57.25     31.13 
 C                     12.687    58.304    30.528 
 C                     13.65     57.82     29.451 
 C                     15.154    57.885    29.938 
 C                     13.365    58.496    28.049 
 C                     14.141    57.884    26.826 
 C                     13.366    57.565    25.534 
 C                     13.855    58.564    24.502 
 C                     12.99     59.874    24.437 
 C                     13.775    57.877    23.104 
 H                     11.266    56.288    40.023 
 H                     7.834     61.601    40.984 
 H                     2.773     57.998    42.501 
 H                     8.506     52.172    40.459 
 H                     10.543    53.777    39.203 
 H                     10.231    52.784    41.844 
 H                     11.431    53.987    41.593 
 H                     11.537    52.498    40.673 
 H                     8.579     53.653    37.851 
 H                     7.035     52.851    38.319 
 H                     7.429     51.177    37.361 
 H                     8.519     50.633    38.491 
 H                     12.581    59.064    39.056 
 H                     12.961    57.95     40.432 
 H                     12.796    59.634    40.753 
 H                     9.448     62.829    41.704 
 H                     9.161     63.095    39.947 
 H                     10.518    63.795    40.629 
 H                     5.299     61.704    40.732 
 H                     3.788     60.464    43.126 
 H                     5.808     63.318    42.499 
 H                     6.706     61.974    43.22 
 H                     4.985     62.149    43.608 
 H                     2.797     60.218    40.316 
 H                     2.895     61.861    40.878 
 H                     0.941     61.667    41.44 
 H                     1.402     60.776    42.946 
 H                     0.835     59.896    41.536 
 H                     1.96      55.704    44.027 
 H                     1.721     54.083    43.378 
 H                     1.209     55.513    42.487 
 H                     6.331     51.772    41.853 
 H                     4.642     49.199    39.036 
 H                     6.227     48.956    38.388 
 H                     5.224     50.144    37.791 
 H                     9.593     50.392    34.17 
 H                     10.75     51.537    34.614 
 H                     10.034    53.137    32.992 
 H                     6.428     51.259    32.023 
 H                     5.942     52.493    33.174 
 H                     6.948     51.209    33.736 
 H                     7.389     53.227    30.743 
 H                     9.028     53.823    31.132 
 H                     7.545     55.259    32.861 
 H                     6.316     55.006    31.629 
 H                     7.186     56.853    30.565 
 H                     8.287     55.741    29.907 
 H                     9.47      56.563    32.302 
 H                     9.21      59.045    32.541 
 H                     7.677     58.518    32.376 
 H                     8.478     59.163    30.93 
 H                     10.15     57.9      29.652 
 H                     10.341    56.233    29.945 
 H                     12.288    56.304    31.029 
 H                     11.644    57.447    32.196 
 H                     13.134    58.875    31.342 
 H                     12.083    59.07     30.043 
 H                     13.387    56.768    29.342 
 H                     15.47     56.908    30.305 
 H                     15.265    58.575    30.776 
 H                     15.805    58.132    29.1 
 H                     13.637    59.527    28.274 
 H                     12.309    58.35     27.819 
 H                     14.678    57.004    27.181 
 H                     14.974    58.541    26.578 
 H                     12.295    57.613    25.731 
 H                     13.666    56.539    25.325 
 H                     14.816    59.063    24.631 
 H                     13.624    60.7      24.114 
 H                     12.494    60.014    25.397 
 H                     12.26     59.788    23.632 
 H                     12.774    57.494    22.906 
 H                     14.443    57.023    23.218 
 H                     14.105    58.662    22.424 
 
 ITRead=  0  0  0  0  0  0  0  0  0  0  0  0  0  0  0  0  0  0  0  0
 ITRead=  0  0  0  0  0  0  0  0  0  0  0  0  0  0  0  0  0  0  0  0
 ITRead=  0  0  0  0  0  0  0  0  0  0  0  0  0  0  0  0  0  0  0  0
 ITRead=  0  0  0  0  0  0  0  0  0  0  0  0  0  0  0  0  0  0  0  0
 ITRead=  0  0  0  0  0  0  0  0  0  0  0  0  0  0  0  0  0  0  0  0
 ITRead=  0  0  0  0  0  0  0  0  0  0  0  0  0  0  0  0  0  0  0  0
 ITRead=  0  0  0  0  0  0  0  0  0  0  0  0  0  0  0  0  0  0  0  0
 MicOpt= -1 -1 -1 -1 -1 -1 -1 -1 -1 -1 -1 -1 -1 -1 -1 -1 -1 -1 -1 -1
 MicOpt= -1 -1 -1 -1 -1 -1 -1 -1 -1 -1 -1 -1 -1 -1 -1 -1 -1 -1 -1 -1
 MicOpt= -1 -1 -1 -1 -1 -1 -1 -1 -1 -1 -1 -1 -1 -1 -1 -1 -1 -1 -1 -1
 MicOpt= -1 -1 -1 -1 -1 -1 -1 -1 -1 -1 -1 -1 -1 -1 -1 -1 -1 -1 -1 -1
 MicOpt= -1 -1 -1 -1 -1 -1 -1 -1 -1 -1 -1 -1 -1 -1 -1 -1 -1 -1 -1 -1
 MicOpt= -1 -1 -1 -1 -1 -1 -1 -1 -1 -1 -1 -1 -1 -1 -1 -1 -1 -1 -1 -1
 MicOpt= -1 -1 -1 -1 -1 -1 -1 -1 -1 -1 -1 -1 -1 -1 -1 -1 -1 -1 -1 -1
 NAtoms=    140 NQM=      140 NQMF=       0 NMMI=      0 NMMIF=      0
                NMic=       0 NMicF=      0.
                    Isotopes and Nuclear Properties:
 (Nuclear quadrupole moments (NQMom) in fm**2, nuclear magnetic moments (NMagM)
  in nuclear magnetons)

  Atom         1           2           3           4           5           6           7           8           9          10
 IAtWgt=          24          12          12          12          12          14          12          12          12          12
 AtmWgt=  23.9850450  12.0000000  12.0000000  12.0000000  12.0000000  14.0030740  12.0000000  12.0000000  12.0000000  12.0000000
 NucSpn=           0           0           0           0           0           2           0           0           0           0
 AtZEff=  -0.0000000  -0.0000000  -0.0000000  -0.0000000  -0.0000000  -0.0000000  -0.0000000  -0.0000000  -0.0000000  -0.0000000
 NQMom=    0.0000000   0.0000000   0.0000000   0.0000000   0.0000000   2.0440000   0.0000000   0.0000000   0.0000000   0.0000000
 NMagM=    0.0000000   0.0000000   0.0000000   0.0000000   0.0000000   0.4037610   0.0000000   0.0000000   0.0000000   0.0000000
 AtZNuc=  12.0000000   6.0000000   6.0000000   6.0000000   6.0000000   7.0000000   6.0000000   6.0000000   6.0000000   6.0000000

  Atom        11          12          13          14          15          16          17          18          19          20
 IAtWgt=          12          12          12          12          16          16          14          12          12          12
 AtmWgt=  12.0000000  12.0000000  12.0000000  12.0000000  15.9949146  15.9949146  14.0030740  12.0000000  12.0000000  12.0000000
 NucSpn=           0           0           0           0           0           0           2           0           0           0
 AtZEff=  -0.0000000  -0.0000000  -0.0000000  -0.0000000  -0.0000000  -0.0000000  -0.0000000  -0.0000000  -0.0000000  -0.0000000
 NQMom=    0.0000000   0.0000000   0.0000000   0.0000000   0.0000000   0.0000000   2.0440000   0.0000000   0.0000000   0.0000000
 NMagM=    0.0000000   0.0000000   0.0000000   0.0000000   0.0000000   0.0000000   0.4037610   0.0000000   0.0000000   0.0000000
 AtZNuc=   6.0000000   6.0000000   6.0000000   6.0000000   8.0000000   8.0000000   7.0000000   6.0000000   6.0000000   6.0000000

  Atom        21          22          23          24          25          26          27          28          29          30
 IAtWgt=          12          12          12          16          12          14          12          12          12          12
 AtmWgt=  12.0000000  12.0000000  12.0000000  15.9949146  12.0000000  14.0030740  12.0000000  12.0000000  12.0000000  12.0000000
 NucSpn=           0           0           0           0           0           2           0           0           0           0
 AtZEff=  -0.0000000  -0.0000000  -0.0000000  -0.0000000  -0.0000000  -0.0000000  -0.0000000  -0.0000000  -0.0000000  -0.0000000
 NQMom=    0.0000000   0.0000000   0.0000000   0.0000000   0.0000000   2.0440000   0.0000000   0.0000000   0.0000000   0.0000000
 NMagM=    0.0000000   0.0000000   0.0000000   0.0000000   0.0000000   0.4037610   0.0000000   0.0000000   0.0000000   0.0000000
 AtZNuc=   6.0000000   6.0000000   6.0000000   8.0000000   6.0000000   7.0000000   6.0000000   6.0000000   6.0000000   6.0000000

  Atom        31          32          33          34          35          36          37          38          39          40
 IAtWgt=          12          12          12          14          12          12          12          12          12          12
 AtmWgt=  12.0000000  12.0000000  12.0000000  14.0030740  12.0000000  12.0000000  12.0000000  12.0000000  12.0000000  12.0000000
 NucSpn=           0           0           0           2           0           0           0           0           0           0
 AtZEff=  -0.0000000  -0.0000000  -0.0000000  -0.0000000  -0.0000000  -0.0000000  -0.0000000  -0.0000000  -0.0000000  -0.0000000
 NQMom=    0.0000000   0.0000000   0.0000000   2.0440000   0.0000000   0.0000000   0.0000000   0.0000000   0.0000000   0.0000000
 NMagM=    0.0000000   0.0000000   0.0000000   0.4037610   0.0000000   0.0000000   0.0000000   0.0000000   0.0000000   0.0000000
 AtZNuc=   6.0000000   6.0000000   6.0000000   7.0000000   6.0000000   6.0000000   6.0000000   6.0000000   6.0000000   6.0000000

  Atom        41          42          43          44          45          46          47          48          49          50
 IAtWgt=          16          12          12          16          16          12          12          12          12          12
 AtmWgt=  15.9949146  12.0000000  12.0000000  15.9949146  15.9949146  12.0000000  12.0000000  12.0000000  12.0000000  12.0000000
 NucSpn=           0           0           0           0           0           0           0           0           0           0
 AtZEff=  -0.0000000  -0.0000000  -0.0000000  -0.0000000  -0.0000000  -0.0000000  -0.0000000  -0.0000000  -0.0000000  -0.0000000
 NQMom=    0.0000000   0.0000000   0.0000000   0.0000000   0.0000000   0.0000000   0.0000000   0.0000000   0.0000000   0.0000000
 NMagM=    0.0000000   0.0000000   0.0000000   0.0000000   0.0000000   0.0000000   0.0000000   0.0000000   0.0000000   0.0000000
 AtZNuc=   8.0000000   6.0000000   6.0000000   8.0000000   8.0000000   6.0000000   6.0000000   6.0000000   6.0000000   6.0000000

  Atom        51          52          53          54          55          56          57          58          59          60
 IAtWgt=          12          12          12          12          12          12          12          12          12          12
 AtmWgt=  12.0000000  12.0000000  12.0000000  12.0000000  12.0000000  12.0000000  12.0000000  12.0000000  12.0000000  12.0000000
 NucSpn=           0           0           0           0           0           0           0           0           0           0
 AtZEff=  -0.0000000  -0.0000000  -0.0000000  -0.0000000  -0.0000000  -0.0000000  -0.0000000  -0.0000000  -0.0000000  -0.0000000
 NQMom=    0.0000000   0.0000000   0.0000000   0.0000000   0.0000000   0.0000000   0.0000000   0.0000000   0.0000000   0.0000000
 NMagM=    0.0000000   0.0000000   0.0000000   0.0000000   0.0000000   0.0000000   0.0000000   0.0000000   0.0000000   0.0000000
 AtZNuc=   6.0000000   6.0000000   6.0000000   6.0000000   6.0000000   6.0000000   6.0000000   6.0000000   6.0000000   6.0000000

  Atom        61          62          63          64          65          66          67          68          69          70
 IAtWgt=          12          12          12          12          12          12           1           1           1           1
 AtmWgt=  12.0000000  12.0000000  12.0000000  12.0000000  12.0000000  12.0000000   1.0078250   1.0078250   1.0078250   1.0078250
 NucSpn=           0           0           0           0           0           0           1           1           1           1
 AtZEff=  -0.0000000  -0.0000000  -0.0000000  -0.0000000  -0.0000000  -0.0000000  -0.0000000  -0.0000000  -0.0000000  -0.0000000
 NQMom=    0.0000000   0.0000000   0.0000000   0.0000000   0.0000000   0.0000000   0.0000000   0.0000000   0.0000000   0.0000000
 NMagM=    0.0000000   0.0000000   0.0000000   0.0000000   0.0000000   0.0000000   2.7928460   2.7928460   2.7928460   2.7928460
 AtZNuc=   6.0000000   6.0000000   6.0000000   6.0000000   6.0000000   6.0000000   1.0000000   1.0000000   1.0000000   1.0000000

  Atom        71          72          73          74          75          76          77          78          79          80
 IAtWgt=           1           1           1           1           1           1           1           1           1           1
 AtmWgt=   1.0078250   1.0078250   1.0078250   1.0078250   1.0078250   1.0078250   1.0078250   1.0078250   1.0078250   1.0078250
 NucSpn=           1           1           1           1           1           1           1           1           1           1
 AtZEff=  -0.0000000  -0.0000000  -0.0000000  -0.0000000  -0.0000000  -0.0000000  -0.0000000  -0.0000000  -0.0000000  -0.0000000
 NQMom=    0.0000000   0.0000000   0.0000000   0.0000000   0.0000000   0.0000000   0.0000000   0.0000000   0.0000000   0.0000000
 NMagM=    2.7928460   2.7928460   2.7928460   2.7928460   2.7928460   2.7928460   2.7928460   2.7928460   2.7928460   2.7928460
 AtZNuc=   1.0000000   1.0000000   1.0000000   1.0000000   1.0000000   1.0000000   1.0000000   1.0000000   1.0000000   1.0000000

  Atom        81          82          83          84          85          86          87          88          89          90
 IAtWgt=           1           1           1           1           1           1           1           1           1           1
 AtmWgt=   1.0078250   1.0078250   1.0078250   1.0078250   1.0078250   1.0078250   1.0078250   1.0078250   1.0078250   1.0078250
 NucSpn=           1           1           1           1           1           1           1           1           1           1
 AtZEff=  -0.0000000  -0.0000000  -0.0000000  -0.0000000  -0.0000000  -0.0000000  -0.0000000  -0.0000000  -0.0000000  -0.0000000
 NQMom=    0.0000000   0.0000000   0.0000000   0.0000000   0.0000000   0.0000000   0.0000000   0.0000000   0.0000000   0.0000000
 NMagM=    2.7928460   2.7928460   2.7928460   2.7928460   2.7928460   2.7928460   2.7928460   2.7928460   2.7928460   2.7928460
 AtZNuc=   1.0000000   1.0000000   1.0000000   1.0000000   1.0000000   1.0000000   1.0000000   1.0000000   1.0000000   1.0000000

  Atom        91          92          93          94          95          96          97          98          99         100
 IAtWgt=           1           1           1           1           1           1           1           1           1           1
 AtmWgt=   1.0078250   1.0078250   1.0078250   1.0078250   1.0078250   1.0078250   1.0078250   1.0078250   1.0078250   1.0078250
 NucSpn=           1           1           1           1           1           1           1           1           1           1
 AtZEff=  -0.0000000  -0.0000000  -0.0000000  -0.0000000  -0.0000000  -0.0000000  -0.0000000  -0.0000000  -0.0000000  -0.0000000
 NQMom=    0.0000000   0.0000000   0.0000000   0.0000000   0.0000000   0.0000000   0.0000000   0.0000000   0.0000000   0.0000000
 NMagM=    2.7928460   2.7928460   2.7928460   2.7928460   2.7928460   2.7928460   2.7928460   2.7928460   2.7928460   2.7928460
 AtZNuc=   1.0000000   1.0000000   1.0000000   1.0000000   1.0000000   1.0000000   1.0000000   1.0000000   1.0000000   1.0000000

  Atom       101         102         103         104         105         106         107         108         109         110
 IAtWgt=           1           1           1           1           1           1           1           1           1           1
 AtmWgt=   1.0078250   1.0078250   1.0078250   1.0078250   1.0078250   1.0078250   1.0078250   1.0078250   1.0078250   1.0078250
 NucSpn=           1           1           1           1           1           1           1           1           1           1
 AtZEff=  -0.0000000  -0.0000000  -0.0000000  -0.0000000  -0.0000000  -0.0000000  -0.0000000  -0.0000000  -0.0000000  -0.0000000
 NQMom=    0.0000000   0.0000000   0.0000000   0.0000000   0.0000000   0.0000000   0.0000000   0.0000000   0.0000000   0.0000000
 NMagM=    2.7928460   2.7928460   2.7928460   2.7928460   2.7928460   2.7928460   2.7928460   2.7928460   2.7928460   2.7928460
 AtZNuc=   1.0000000   1.0000000   1.0000000   1.0000000   1.0000000   1.0000000   1.0000000   1.0000000   1.0000000   1.0000000

  Atom       111         112         113         114         115         116         117         118         119         120
 IAtWgt=           1           1           1           1           1           1           1           1           1           1
 AtmWgt=   1.0078250   1.0078250   1.0078250   1.0078250   1.0078250   1.0078250   1.0078250   1.0078250   1.0078250   1.0078250
 NucSpn=           1           1           1           1           1           1           1           1           1           1
 AtZEff=  -0.0000000  -0.0000000  -0.0000000  -0.0000000  -0.0000000  -0.0000000  -0.0000000  -0.0000000  -0.0000000  -0.0000000
 NQMom=    0.0000000   0.0000000   0.0000000   0.0000000   0.0000000   0.0000000   0.0000000   0.0000000   0.0000000   0.0000000
 NMagM=    2.7928460   2.7928460   2.7928460   2.7928460   2.7928460   2.7928460   2.7928460   2.7928460   2.7928460   2.7928460
 AtZNuc=   1.0000000   1.0000000   1.0000000   1.0000000   1.0000000   1.0000000   1.0000000   1.0000000   1.0000000   1.0000000

  Atom       121         122         123         124         125         126         127         128         129         130
 IAtWgt=           1           1           1           1           1           1           1           1           1           1
 AtmWgt=   1.0078250   1.0078250   1.0078250   1.0078250   1.0078250   1.0078250   1.0078250   1.0078250   1.0078250   1.0078250
 NucSpn=           1           1           1           1           1           1           1           1           1           1
 AtZEff=  -0.0000000  -0.0000000  -0.0000000  -0.0000000  -0.0000000  -0.0000000  -0.0000000  -0.0000000  -0.0000000  -0.0000000
 NQMom=    0.0000000   0.0000000   0.0000000   0.0000000   0.0000000   0.0000000   0.0000000   0.0000000   0.0000000   0.0000000
 NMagM=    2.7928460   2.7928460   2.7928460   2.7928460   2.7928460   2.7928460   2.7928460   2.7928460   2.7928460   2.7928460
 AtZNuc=   1.0000000   1.0000000   1.0000000   1.0000000   1.0000000   1.0000000   1.0000000   1.0000000   1.0000000   1.0000000

  Atom       131         132         133         134         135         136         137         138         139         140
 IAtWgt=           1           1           1           1           1           1           1           1           1           1
 AtmWgt=   1.0078250   1.0078250   1.0078250   1.0078250   1.0078250   1.0078250   1.0078250   1.0078250   1.0078250   1.0078250
 NucSpn=           1           1           1           1           1           1           1           1           1           1
 AtZEff=  -0.0000000  -0.0000000  -0.0000000  -0.0000000  -0.0000000  -0.0000000  -0.0000000  -0.0000000  -0.0000000  -0.0000000
 NQMom=    0.0000000   0.0000000   0.0000000   0.0000000   0.0000000   0.0000000   0.0000000   0.0000000   0.0000000   0.0000000
 NMagM=    2.7928460   2.7928460   2.7928460   2.7928460   2.7928460   2.7928460   2.7928460   2.7928460   2.7928460   2.7928460
 AtZNuc=   1.0000000   1.0000000   1.0000000   1.0000000   1.0000000   1.0000000   1.0000000   1.0000000   1.0000000   1.0000000
 Leave Link  101 at Fri Apr 29 07:22:52 2022, MaxMem= 10066329600 cpu:               2.9 elap:               0.1
 (Enter /sw/apps/gaussian-16.0/g16/l202.exe)
 Stoichiometry    C55H74MgN4O6
 Framework group  C1[X(C55H74MgN4O6)]
 Deg. of freedom   414
 Full point group                 C1      NOp   1
 Largest Abelian subgroup         C1      NOp   1
 Largest concise Abelian subgroup C1      NOp   1
                         Standard orientation:                         
 ---------------------------------------------------------------------
 Center     Atomic      Atomic             Coordinates (Angstroms)
 Number     Number       Type             X           Y           Z
 ---------------------------------------------------------------------
      1         12           0       -4.375152    1.210450    0.529908
      2          6           0       -4.638619   -2.200817    0.530049
      3          6           0       -2.044061    1.005509    2.998611
      4          6           0       -3.660926    4.590212    0.241482
      5          6           0       -6.456794    1.392371   -2.206141
      6          7           0       -3.360904   -0.424298    1.498454
      7          6           0       -3.607421   -1.773536    1.334385
      8          6           0       -2.597217   -2.636599    2.111133
      9          6           0       -2.103899   -1.651023    3.192083
     10          6           0       -2.548621   -0.232827    2.537711
     11          6           0       -2.593584   -1.930552    4.585595
     12          6           0       -1.482784   -3.170335    1.169046
     13          6           0       -0.837205   -4.583163    1.451636
     14          6           0        0.551738   -4.849493    1.956673
     15          8           0        0.853388   -5.571110    2.861941
     16          8           0        1.401710   -4.353611    0.993134
     17          7           0       -3.080482    2.606113    1.539327
     18          6           0       -2.285464    2.321560    2.605495
     19          6           0       -1.639702    3.561684    3.099070
     20          6           0       -2.131246    4.655359    2.290725
     21          6           0       -2.970611    3.991010    1.329533
     22          6           0       -0.773017    3.667764    4.290491
     23          6           0       -1.768255    6.129947    2.443512
     24          8           0       -1.037816    6.575761    3.357347
     25          6           0       -2.244979    7.243803    1.429337
     26          7           0       -4.823026    2.756579   -0.894971
     27          6           0       -4.530975    4.053777   -0.732999
     28          6           0       -5.254881    4.948813   -1.762810
     29          6           0       -6.183031    3.936931   -2.535568
     30          6           0       -5.782971    2.600878   -1.873258
     31          6           0       -6.024064    6.185925   -1.184340
     32          6           0       -5.940261    4.013870   -4.064676
     33          6           0       -7.160840    3.786068   -5.053764
     34          7           0       -5.395948   -0.140670   -0.690046
     35          6           0       -6.259208    0.083914   -1.745465
     36          6           0       -6.996985   -1.192456   -1.919734
     37          6           0       -6.374425   -2.107695   -1.041823
     38          6           0       -5.431759   -1.417795   -0.412596
     39          6           0       -8.288127   -1.436941   -2.708411
     40          6           0       -6.326004   -3.489216   -0.594916
     41          8           0       -7.035136   -4.493594   -0.729711
     42          6           0       -5.075071   -3.611273    0.363677
     43          6           0       -4.127411   -4.511084   -0.296126
     44          8           0       -3.642868   -4.322044   -1.395325
     45          8           0       -3.809730   -5.626270    0.476327
     46          6           0       -3.050706   -6.640710   -0.242670
     47          6           0        2.792711   -4.828025    1.130635
     48          6           0        3.671845   -4.153448    0.053360
     49          6           0        3.661834   -4.192295   -1.323913
     50          6           0        2.841336   -5.193908   -2.153686
     51          6           0        4.708596   -3.357753   -2.072453
     52          6           0        4.230340   -2.101292   -2.797049
     53          6           0        5.391623   -1.042244   -2.920112
     54          6           0        5.430203    0.112594   -1.917740
     55          6           0        4.932723    1.477840   -2.514781
     56          6           0        6.835757    0.307920   -1.276464
     57          6           0        6.880162    0.720547    0.247431
     58          6           0        7.884004    1.830110    0.568546
     59          6           0        9.253477    1.381405    1.063277
     60          6           0        9.492983    1.788533    2.573341
     61          6           0       10.410858    1.787085    0.063428
     62          6           0       11.821240    1.158916    0.361212
     63          6           0       12.614544    0.522920   -0.795433
     64          6           0       13.802190    1.436820   -1.032983
     65          6           0       13.535886    2.544093   -2.115378
     66          6           0       14.983166    0.554533   -1.542530
     67          1           0       -1.329709    0.963680    3.823591
     68          1           0       -3.469964    5.643022    0.021857
     69          1           0       -7.255479    1.430797   -2.948608
     70          1           0       -3.146088   -3.481877    2.524769
     71          1           0       -1.038446   -1.727922    3.410443
     72          1           0       -3.584449   -2.374231    4.486747
     73          1           0       -2.767527   -1.020760    5.158284
     74          1           0       -1.968474   -2.581135    5.197019
     75          1           0       -0.713246   -2.399741    1.142519
     76          1           0       -1.858732   -3.394941    0.171126
     77          1           0       -0.905861   -5.088153    0.487904
     78          1           0       -1.454513   -5.257316    2.047167
     79          1           0        0.252612    3.766265    3.934371
     80          1           0       -0.859802    2.948120    5.105673
     81          1           0       -1.140772    4.602006    4.716006
     82          1           0       -3.334607    7.234831    1.463800
     83          1           0       -1.880282    7.190667    0.404007
     84          1           0       -1.850664    8.216516    1.724359
     85          1           0       -4.371886    5.244706   -2.329360
     86          1           0       -7.244244    4.104098   -2.352502
     87          1           0       -5.647233    7.159695   -1.497089
     88          1           0       -5.953949    6.118918   -0.098772
     89          1           0       -7.060849    6.030450   -1.480783
     90          1           0       -5.187577    3.283224   -4.361229
     91          1           0       -5.568384    4.979584   -4.408611
     92          1           0       -6.952225    4.514444   -5.836975
     93          1           0       -8.134096    3.946557   -4.589930
     94          1           0       -7.168972    2.785940   -5.487422
     95          1           0       -9.090358   -0.731570   -2.490929
     96          1           0       -8.693736   -2.444664   -2.609089
     97          1           0       -8.058699   -1.274033   -3.761164
     98          1           0       -5.381750   -4.069094    1.303765
     99          1           0       -3.740401   -7.282072   -0.791775
    100          1           0       -2.465125   -7.321649    0.375821
    101          1           0       -2.323458   -6.434108   -1.026307
    102          1           0        2.874585   -5.911993    1.202830
    103          1           0        3.048570   -4.523678    2.145762
    104          1           0        4.253707   -3.329140    0.465208
    105          1           0        3.420652   -5.952281   -2.680302
    106          1           0        2.233472   -4.676372   -2.895735
    107          1           0        2.119885   -5.661747   -1.484116
    108          1           0        5.086416   -4.044963   -2.829685
    109          1           0        5.498845   -3.110613   -1.363483
    110          1           0        3.359558   -1.737697   -2.251955
    111          1           0        3.899643   -2.383776   -3.795705
    112          1           0        5.326057   -0.579970   -3.905401
    113          1           0        6.353109   -1.554667   -2.969004
    114          1           0        4.780189   -0.197599   -1.099381
    115          1           0        4.567754    2.203562   -1.788105
    116          1           0        4.005767    1.387623   -3.081726
    117          1           0        5.685930    1.955040   -3.141984
    118          1           0        7.514803    0.849226   -1.935155
    119          1           0        7.259563   -0.695817   -1.265143
    120          1           0        7.163733   -0.116878    0.885799
    121          1           0        5.887407    1.043956    0.559408
    122          1           0        7.383242    2.583236    1.177220
    123          1           0        8.083832    2.395904   -0.340708
    124          1           0        9.183753    0.294470    1.025005
    125          1           0        9.260025    0.948094    3.227915
    126          1           0        8.826363    2.599534    2.870930
    127          1           0       10.544110    2.028105    2.730795
    128          1           0       10.379962    2.871775    0.163735
    129          1           0       10.137937    1.419559   -0.926416
    130          1           0       11.702268    0.451456    1.182272
    131          1           0       12.445820    1.914690    0.836340
    132          1           0       11.962553    0.402276   -1.660596
    133          1           0       12.886796   -0.450249   -0.389010
    134          1           0       14.139607    2.116010   -0.249393
    135          1           0       14.146602    3.417264   -1.884816
    136          1           0       12.463238    2.726682   -2.172856
    137          1           0       13.925142    2.212424   -3.078080
    138          1           0       14.695020   -0.028950   -2.416837
    139          1           0       15.139256   -0.138097   -0.715224
    140          1           0       15.775188    1.281436   -1.720967
 ---------------------------------------------------------------------
 Rotational constants (GHZ):           0.0331292           0.0135295           0.0112943
 Leave Link  202 at Fri Apr 29 07:22:52 2022, MaxMem= 10066329600 cpu:               1.3 elap:               0.1
 (Enter /sw/apps/gaussian-16.0/g16/l301.exe)
 Standard basis: def2SVP (5D, 7F)
 Ernie: Thresh=  0.10000D-02 Tol=  0.10000D-05 Strict=F.
 There are  1364 symmetry adapted cartesian basis functions of A   symmetry.
 There are  1298 symmetry adapted basis functions of A   symmetry.
  1298 basis functions,  2180 primitive gaussians,  1364 cartesian basis functions
   246 alpha electrons      246 beta electrons
       nuclear repulsion energy      9737.4341607828 Hartrees.
 IExCor=20419 DFT=T Ex+Corr=CAM-B3LYP ExCW=0 ScaHFX=  1.000000
 ScaDFX=  1.000000  1.000000  1.000000  0.810000 ScalE2=  1.000000  1.000000
 IRadAn=      5 IRanWt=     -1 IRanGd=            0 ICorTp=0 IEmpDi=  4
 HFx  wShort=  0.000000 wLong=  0.330000 cFull=  0.190000 cShort=  0.000000 cLong=  0.460000
 DFx  wShort=  0.000000 wLong=  0.330000 cFull=  0.190000 cShort=  0.000000 cLong=  0.460000
 NAtoms=  140 NActive=  140 NUniq=  140 SFac= 1.00D+00 NAtFMM=   60 NAOKFM=T Big=T
 Integral buffers will be    131072 words long.
 Raffenetti 1 integral format.
 Two-electron integral symmetry is turned on.
 Leave Link  301 at Fri Apr 29 07:22:52 2022, MaxMem= 10066329600 cpu:               1.9 elap:               0.1
 (Enter /sw/apps/gaussian-16.0/g16/l302.exe)
 NPDir=0 NMtPBC=     1 NCelOv=     1 NCel=       1 NClECP=     1 NCelD=      1
         NCelK=      1 NCelE2=     1 NClLst=     1 CellRange=     0.0.
 One-electron integrals computed using PRISM.
 One-electron integral symmetry used in STVInt
   1 Symmetry operations used in ECPInt.
 ECPInt:  NShTT=  192510 NPrTT=  683786 LenC2=  101195 LenP2D=  216957.
 LDataN:  DoStor=T MaxTD1= 4 Len=   56
 NBasis=  1298 RedAO= T EigKep=  2.69D-04  NBF=  1298
 NBsUse=  1298 1.00D-06 EigRej= -1.00D+00 NBFU=  1298
 Precomputing XC quadrature grid using
 IXCGrd= 4 IRadAn=           5 IRanWt=          -1 IRanGd=           0 AccXCQ= 0.00D+00.
 Generated NRdTot=       0 NPtTot=           0 NUsed=           0 NTot=          32
 NSgBfM=  1051  1051  1051  1051  1051 MxSgAt=   140 MxSgA2=   139.
 Leave Link  302 at Fri Apr 29 07:22:56 2022, MaxMem= 10066329600 cpu:             101.0 elap:               4.2
 (Enter /sw/apps/gaussian-16.0/g16/l303.exe)
 DipDrv:  MaxL=1.
 Leave Link  303 at Fri Apr 29 07:22:56 2022, MaxMem= 10066329600 cpu:               5.8 elap:               0.3
 (Enter /sw/apps/gaussian-16.0/g16/l308.exe)
 Leave Link  308 at Fri Apr 29 07:22:57 2022, MaxMem= 10066329600 cpu:              11.0 elap:               0.5
 (Enter /sw/apps/gaussian-16.0/g16/l401.exe)
 ExpMin= 3.36D-02 ExpMax= 4.95D+03 ExpMxC= 7.45D+02 IAcc=3 IRadAn=         5 AccDes= 0.00D+00
 Harris functional with IExCor=20419 and IRadAn=       5 diagonalized for initial guess.
 HarFok:  IExCor=20419 AccDes= 0.00D+00 IRadAn=         5 IDoV= 1 UseB2=F ITyADJ=14
 ICtDFT=  3500011 ScaDFX=  1.000000  1.000000  1.000000  1.000000
 FoFCou: FMM=F IPFlag=           0 FMFlag=      100000 FMFlg1=        2001
         NFxFlg=           0 DoJE=T BraDBF=F KetDBF=T FulRan=T
         wScrn=  0.000000 ICntrl=       500 IOpCl=  0 I1Cent=   200000004 NGrid=           0
         NMat0=    1 NMatS0=      1 NMatT0=    0 NMatD0=    1 NMtDS0=    0 NMtDT0=    0
 Petite list used in FoFCou.
 Harris En= -2890.88031493232    
 JPrj=0 DoOrth=F DoCkMO=F.
 Leave Link  401 at Fri Apr 29 07:23:02 2022, MaxMem= 10066329600 cpu:             128.2 elap:               5.4
 (Enter /sw/apps/gaussian-16.0/g16/l502.exe)
 Integral symmetry usage will be decided dynamically.
 Closed shell SCF:
 Using DIIS extrapolation, IDIIS=  1040.
 NGot= 10066329600 LenX= 10062561258 LenY= 10060699398
 Requested convergence on RMS density matrix=1.00D-08 within 128 cycles.
 Requested convergence on MAX density matrix=1.00D-06.
 Requested convergence on             energy=1.00D-06.
 No special actions if energy rises.
 Fock matrices will be formed incrementally for  20 cycles.

 Cycle   1  Pass 1  IDiag  1:
 FoFJK:  IHMeth= 1 ICntrl=       0 DoSepK=T KAlg= 0 I1Cent=           0 FoldK=F
 IRaf=         1 NMat=       1 IRICut=       1 DoRegI=T DoRafI=F ISym2E= 0 IDoP0=0 IntGTp=1.
 FoFCou: FMM=T IPFlag=           0 FMFlag=      100000 FMFlg1=        2001
         NFxFlg=           0 DoJE=T BraDBF=F KetDBF=F FulRan=T
         wScrn=  0.000000 ICntrl=       500 IOpCl=  0 I1Cent=           0 NGrid=           0
         NMat0=    1 NMatS0=      1 NMatT0=    0 NMatD0=    1 NMtDS0=    0 NMtDT0=    0
 Symmetry not used in FoFCou.
 FMM levels:  10  Number of levels for PrismC:   9
 E= -3006.50247968356    
 DIIS: error= 2.30D-02 at cycle   1 NSaved=   1.
 NSaved= 1 IEnMin= 1 EnMin= -3006.50247968356     IErMin= 1 ErrMin= 2.30D-02
 ErrMax= 2.30D-02  0.00D+00 EMaxC= 1.00D-01 BMatC= 1.26D+00 BMatP= 1.26D+00
 IDIUse=3 WtCom= 7.70D-01 WtEn= 2.30D-01
 Coeff-Com:  0.100D+01
 Coeff-En:   0.100D+01
 Coeff:      0.100D+01
 Gap=     0.119 Goal=   None    Shift=    0.000
 GapD=    0.119 DampG=1.000 DampE=0.500 DampFc=0.5000 IDamp=-1.
 Damping current iteration by 5.00D-01
 RMSDP=1.52D-03 MaxDP=1.32D-01              OVMax= 2.03D-01

 Cycle   2  Pass 1  IDiag  1:
 RMSU=  7.49D-04    CP:  9.85D-01
 E= -3006.80992305588     Delta-E=       -0.307443372318 Rises=F Damp=T
 DIIS: error= 1.29D-02 at cycle   2 NSaved=   2.
 NSaved= 2 IEnMin= 2 EnMin= -3006.80992305588     IErMin= 2 ErrMin= 1.29D-02
 ErrMax= 1.29D-02  0.00D+00 EMaxC= 1.00D-01 BMatC= 2.29D-01 BMatP= 1.26D+00
 IDIUse=3 WtCom= 8.71D-01 WtEn= 1.29D-01
 Coeff-Com: -0.235D+00 0.124D+01
 Coeff-En:   0.000D+00 0.100D+01
 Coeff:     -0.205D+00 0.120D+01
 Gap=     0.145 Goal=   None    Shift=    0.000
 RMSDP=7.02D-04 MaxDP=5.95D-02 DE=-3.07D-01 OVMax= 2.03D-01

 Cycle   3  Pass 1  IDiag  1:
 RMSU=  6.80D-04    CP:  9.76D-01  1.20D+00
 E= -3007.04245593525     Delta-E=       -0.232532879370 Rises=F Damp=F
 DIIS: error= 9.53D-03 at cycle   3 NSaved=   3.
 NSaved= 3 IEnMin= 3 EnMin= -3007.04245593525     IErMin= 3 ErrMin= 9.53D-03
 ErrMax= 9.53D-03  0.00D+00 EMaxC= 1.00D-01 BMatC= 1.36D-01 BMatP= 2.29D-01
 IDIUse=3 WtCom= 9.05D-01 WtEn= 9.53D-02
 Coeff-Com: -0.265D+00 0.643D+00 0.622D+00
 Coeff-En:   0.000D+00 0.000D+00 0.100D+01
 Coeff:     -0.240D+00 0.582D+00 0.658D+00
 Gap=     0.124 Goal=   None    Shift=    0.000
 RMSDP=4.70D-04 MaxDP=5.47D-02 DE=-2.33D-01 OVMax= 1.46D-01

 Cycle   4  Pass 1  IDiag  1:
 RMSU=  2.69D-04    CP:  9.72D-01  1.50D+00  5.41D-01
 E= -3007.13799964274     Delta-E=       -0.095543707488 Rises=F Damp=F
 DIIS: error= 3.46D-03 at cycle   4 NSaved=   4.
 NSaved= 4 IEnMin= 4 EnMin= -3007.13799964274     IErMin= 4 ErrMin= 3.46D-03
 ErrMax= 3.46D-03  0.00D+00 EMaxC= 1.00D-01 BMatC= 2.79D-02 BMatP= 1.36D-01
 IDIUse=3 WtCom= 9.65D-01 WtEn= 3.46D-02
 Coeff-Com: -0.115D+00 0.235D+00 0.391D+00 0.489D+00
 Coeff-En:   0.000D+00 0.000D+00 0.179D+00 0.821D+00
 Coeff:     -0.111D+00 0.227D+00 0.384D+00 0.500D+00
 Gap=     0.126 Goal=   None    Shift=    0.000
 RMSDP=1.77D-04 MaxDP=1.64D-02 DE=-9.55D-02 OVMax= 6.24D-02

 Cycle   5  Pass 1  IDiag  1:
 RMSU=  6.81D-05    CP:  9.72D-01  1.46D+00  6.98D-01  5.53D-01
 E= -3007.16336893496     Delta-E=       -0.025369292223 Rises=F Damp=F
 DIIS: error= 6.99D-04 at cycle   5 NSaved=   5.
 NSaved= 5 IEnMin= 5 EnMin= -3007.16336893496     IErMin= 5 ErrMin= 6.99D-04
 ErrMax= 6.99D-04  0.00D+00 EMaxC= 1.00D-01 BMatC= 6.75D-04 BMatP= 2.79D-02
 IDIUse=3 WtCom= 9.93D-01 WtEn= 6.99D-03
 Coeff-Com: -0.441D-01 0.867D-01 0.168D+00 0.250D+00 0.540D+00
 Coeff-En:   0.000D+00 0.000D+00 0.000D+00 0.000D+00 0.100D+01
 Coeff:     -0.438D-01 0.861D-01 0.167D+00 0.248D+00 0.543D+00
 Gap=     0.125 Goal=   None    Shift=    0.000
 RMSDP=3.82D-05 MaxDP=7.28D-03 DE=-2.54D-02 OVMax= 1.31D-02

 Cycle   6  Pass 1  IDiag  1:
 RMSU=  2.86D-05    CP:  9.72D-01  1.47D+00  6.91D-01  6.17D-01  7.47D-01
 E= -3007.16393094308     Delta-E=       -0.000562008121 Rises=F Damp=F
 DIIS: error= 3.19D-04 at cycle   6 NSaved=   6.
 NSaved= 6 IEnMin= 6 EnMin= -3007.16393094308     IErMin= 6 ErrMin= 3.19D-04
 ErrMax= 3.19D-04  0.00D+00 EMaxC= 1.00D-01 BMatC= 9.81D-05 BMatP= 6.75D-04
 IDIUse=3 WtCom= 9.97D-01 WtEn= 3.19D-03
 Coeff-Com:  0.120D-02-0.424D-02 0.786D-02 0.279D-01 0.282D+00 0.685D+00
 Coeff-En:   0.000D+00 0.000D+00 0.000D+00 0.000D+00 0.921D-01 0.908D+00
 Coeff:      0.119D-02-0.423D-02 0.784D-02 0.278D-01 0.282D+00 0.686D+00
 Gap=     0.126 Goal=   None    Shift=    0.000
 RMSDP=1.61D-05 MaxDP=1.56D-03 DE=-5.62D-04 OVMax= 1.08D-02

 Cycle   7  Pass 1  IDiag  1:
 RMSU=  1.12D-05    CP:  9.72D-01  1.47D+00  6.98D-01  6.13D-01  8.70D-01
                    CP:  7.74D-01
 E= -3007.16405294071     Delta-E=       -0.000121997631 Rises=F Damp=F
 DIIS: error= 1.09D-04 at cycle   7 NSaved=   7.
 NSaved= 7 IEnMin= 7 EnMin= -3007.16405294071     IErMin= 7 ErrMin= 1.09D-04
 ErrMax= 1.09D-04  0.00D+00 EMaxC= 1.00D-01 BMatC= 2.00D-05 BMatP= 9.81D-05
 IDIUse=3 WtCom= 9.99D-01 WtEn= 1.09D-03
 Coeff-Com:  0.487D-02-0.105D-01-0.115D-01-0.103D-01 0.865D-01 0.389D+00
 Coeff-Com:  0.552D+00
 Coeff-En:   0.000D+00 0.000D+00 0.000D+00 0.000D+00 0.000D+00 0.000D+00
 Coeff-En:   0.100D+01
 Coeff:      0.486D-02-0.105D-01-0.115D-01-0.103D-01 0.864D-01 0.388D+00
 Coeff:      0.553D+00
 Gap=     0.126 Goal=   None    Shift=    0.000
 RMSDP=6.40D-06 MaxDP=1.31D-03 DE=-1.22D-04 OVMax= 2.73D-03

 Cycle   8  Pass 1  IDiag  1:
 RMSU=  4.59D-06    CP:  9.72D-01  1.47D+00  6.98D-01  6.19D-01  8.79D-01
                    CP:  9.14D-01  9.51D-01
 E= -3007.16408154444     Delta-E=       -0.000028603723 Rises=F Damp=F
 DIIS: error= 4.76D-05 at cycle   8 NSaved=   8.
 NSaved= 8 IEnMin= 8 EnMin= -3007.16408154444     IErMin= 8 ErrMin= 4.76D-05
 ErrMax= 4.76D-05  0.00D+00 EMaxC= 1.00D-01 BMatC= 2.19D-06 BMatP= 2.00D-05
 IDIUse=1 WtCom= 1.00D+00 WtEn= 0.00D+00
 Coeff-Com:  0.227D-02-0.436D-02-0.821D-02-0.135D-01-0.410D-01 0.261D-01
 Coeff-Com:  0.201D+00 0.838D+00
 Coeff:      0.227D-02-0.436D-02-0.821D-02-0.135D-01-0.410D-01 0.261D-01
 Coeff:      0.201D+00 0.838D+00
 Gap=     0.126 Goal=   None    Shift=    0.000
 RMSDP=4.71D-06 MaxDP=2.90D-04 DE=-2.86D-05 OVMax= 3.46D-03

 Cycle   9  Pass 1  IDiag  1:
 RMSU=  2.49D-06    CP:  9.72D-01  1.47D+00  6.99D-01  6.20D-01  9.03D-01
                    CP:  9.66D-01  1.23D+00  1.24D+00
 E= -3007.16409182130     Delta-E=       -0.000010276864 Rises=F Damp=F
 DIIS: error= 3.37D-05 at cycle   9 NSaved=   9.
 NSaved= 9 IEnMin= 9 EnMin= -3007.16409182130     IErMin= 9 ErrMin= 3.37D-05
 ErrMax= 3.37D-05  0.00D+00 EMaxC= 1.00D-01 BMatC= 9.71D-07 BMatP= 2.19D-06
 IDIUse=1 WtCom= 1.00D+00 WtEn= 0.00D+00
 Coeff-Com: -0.797D-04 0.361D-03-0.979D-03-0.308D-02-0.363D-01-0.529D-01
 Coeff-Com: -0.726D-01 0.386D+00 0.779D+00
 Coeff:     -0.797D-04 0.361D-03-0.979D-03-0.308D-02-0.363D-01-0.529D-01
 Coeff:     -0.726D-01 0.386D+00 0.779D+00
 Gap=     0.126 Goal=   None    Shift=    0.000
 RMSDP=2.88D-06 MaxDP=1.47D-04 DE=-1.03D-05 OVMax= 1.71D-03

 Cycle  10  Pass 1  IDiag  1:
 RMSU=  1.29D-06    CP:  9.72D-01  1.47D+00  6.99D-01  6.21D-01  9.09D-01
                    CP:  9.96D-01  1.36D+00  1.61D+00  1.32D+00
 E= -3007.16409613916     Delta-E=       -0.000004317859 Rises=F Damp=F
 DIIS: error= 1.43D-05 at cycle  10 NSaved=  10.
 NSaved=10 IEnMin=10 EnMin= -3007.16409613916     IErMin=10 ErrMin= 1.43D-05
 ErrMax= 1.43D-05  0.00D+00 EMaxC= 1.00D-01 BMatC= 2.91D-07 BMatP= 9.71D-07
 IDIUse=1 WtCom= 1.00D+00 WtEn= 0.00D+00
 Coeff-Com: -0.113D-02 0.227D-02 0.328D-02 0.486D-02-0.281D-02-0.334D-01
 Coeff-Com: -0.162D+00-0.127D+00 0.341D+00 0.974D+00
 Coeff:     -0.113D-02 0.227D-02 0.328D-02 0.486D-02-0.281D-02-0.334D-01
 Coeff:     -0.162D+00-0.127D+00 0.341D+00 0.974D+00
 Gap=     0.126 Goal=   None    Shift=    0.000
 RMSDP=2.82D-06 MaxDP=1.49D-04 DE=-4.32D-06 OVMax= 1.98D-03

 Cycle  11  Pass 1  IDiag  1:
 RMSU=  6.92D-07    CP:  9.72D-01  1.47D+00  6.99D-01  6.21D-01  9.16D-01
                    CP:  1.02D+00  1.50D+00  1.93D+00  1.88D+00  1.44D+00
 E= -3007.16409829359     Delta-E=       -0.000002154427 Rises=F Damp=F
 DIIS: error= 8.22D-06 at cycle  11 NSaved=  11.
 NSaved=11 IEnMin=11 EnMin= -3007.16409829359     IErMin=11 ErrMin= 8.22D-06
 ErrMax= 8.22D-06  0.00D+00 EMaxC= 1.00D-01 BMatC= 1.00D-07 BMatP= 2.91D-07
 IDIUse=1 WtCom= 1.00D+00 WtEn= 0.00D+00
 Coeff-Com: -0.570D-03 0.110D-02 0.193D-02 0.349D-02 0.774D-02 0.111D-03
 Coeff-Com: -0.765D-01-0.155D+00-0.456D-01 0.541D+00 0.722D+00
 Coeff:     -0.570D-03 0.110D-02 0.193D-02 0.349D-02 0.774D-02 0.111D-03
 Coeff:     -0.765D-01-0.155D+00-0.456D-01 0.541D+00 0.722D+00
 Gap=     0.126 Goal=   None    Shift=    0.000
 RMSDP=1.23D-06 MaxDP=7.50D-05 DE=-2.15D-06 OVMax= 8.02D-04

 Cycle  12  Pass 1  IDiag  1:
 RMSU=  3.31D-07    CP:  9.72D-01  1.47D+00  6.99D-01  6.21D-01  9.18D-01
                    CP:  1.03D+00  1.55D+00  2.07D+00  2.12D+00  1.83D+00
                    CP:  1.16D+00
 E= -3007.16409872095     Delta-E=       -0.000000427359 Rises=F Damp=F
 DIIS: error= 2.98D-06 at cycle  12 NSaved=  12.
 NSaved=12 IEnMin=12 EnMin= -3007.16409872095     IErMin=12 ErrMin= 2.98D-06
 ErrMax= 2.98D-06  0.00D+00 EMaxC= 1.00D-01 BMatC= 1.40D-08 BMatP= 1.00D-07
 IDIUse=1 WtCom= 1.00D+00 WtEn= 0.00D+00
 Coeff-Com:  0.553D-04-0.129D-03-0.875D-04 0.216D-03 0.329D-02 0.981D-02
 Coeff-Com:  0.845D-02-0.195D-01-0.112D+00-0.430D-01 0.237D+00 0.916D+00
 Coeff:      0.553D-04-0.129D-03-0.875D-04 0.216D-03 0.329D-02 0.981D-02
 Coeff:      0.845D-02-0.195D-01-0.112D+00-0.430D-01 0.237D+00 0.916D+00
 Gap=     0.126 Goal=   None    Shift=    0.000
 RMSDP=6.13D-07 MaxDP=4.45D-05 DE=-4.27D-07 OVMax= 3.95D-04

 Cycle  13  Pass 1  IDiag  1:
 RMSU=  1.68D-07    CP:  9.72D-01  1.47D+00  6.99D-01  6.21D-01  9.19D-01
                    CP:  1.03D+00  1.57D+00  2.13D+00  2.25D+00  2.04D+00
                    CP:  1.44D+00  1.23D+00
 E= -3007.16409880067     Delta-E=       -0.000000079724 Rises=F Damp=F
 DIIS: error= 1.78D-06 at cycle  13 NSaved=  13.
 NSaved=13 IEnMin=13 EnMin= -3007.16409880067     IErMin=13 ErrMin= 1.78D-06
 ErrMax= 1.78D-06  0.00D+00 EMaxC= 1.00D-01 BMatC= 5.13D-09 BMatP= 1.40D-08
 IDIUse=1 WtCom= 1.00D+00 WtEn= 0.00D+00
 Coeff-Com:  0.156D-03-0.313D-03-0.486D-03-0.634D-03-0.492D-04 0.548D-02
 Coeff-Com:  0.200D-01 0.256D-01-0.489D-01-0.136D+00-0.507D-01 0.513D+00
 Coeff-Com:  0.673D+00
 Coeff:      0.156D-03-0.313D-03-0.486D-03-0.634D-03-0.492D-04 0.548D-02
 Coeff:      0.200D-01 0.256D-01-0.489D-01-0.136D+00-0.507D-01 0.513D+00
 Coeff:      0.673D+00
 Gap=     0.126 Goal=   None    Shift=    0.000
 RMSDP=2.08D-07 MaxDP=2.67D-05 DE=-7.97D-08 OVMax= 1.26D-04

 Cycle  14  Pass 1  IDiag  1:
 RMSU=  7.43D-08    CP:  9.72D-01  1.47D+00  6.99D-01  6.21D-01  9.19D-01
                    CP:  1.03D+00  1.57D+00  2.14D+00  2.29D+00  2.11D+00
                    CP:  1.55D+00  1.47D+00  9.38D-01
 E= -3007.16409881171     Delta-E=       -0.000000011039 Rises=F Damp=F
 DIIS: error= 4.82D-07 at cycle  14 NSaved=  14.
 NSaved=14 IEnMin=14 EnMin= -3007.16409881171     IErMin=14 ErrMin= 4.82D-07
 ErrMax= 4.82D-07  0.00D+00 EMaxC= 1.00D-01 BMatC= 6.60D-10 BMatP= 5.13D-09
 IDIUse=1 WtCom= 1.00D+00 WtEn= 0.00D+00
 Coeff-Com:  0.702D-04-0.138D-03-0.238D-03-0.357D-03-0.614D-03 0.118D-02
 Coeff-Com:  0.820D-02 0.167D-01-0.682D-02-0.612D-01-0.695D-01 0.118D+00
 Coeff-Com:  0.324D+00 0.670D+00
 Coeff:      0.702D-04-0.138D-03-0.238D-03-0.357D-03-0.614D-03 0.118D-02
 Coeff:      0.820D-02 0.167D-01-0.682D-02-0.612D-01-0.695D-01 0.118D+00
 Coeff:      0.324D+00 0.670D+00
 Gap=     0.126 Goal=   None    Shift=    0.000
 RMSDP=6.83D-08 MaxDP=9.72D-06 DE=-1.10D-08 OVMax= 3.52D-05

 Cycle  15  Pass 1  IDiag  1:
 RMSU=  3.22D-08    CP:  9.72D-01  1.47D+00  6.99D-01  6.21D-01  9.19D-01
                    CP:  1.03D+00  1.57D+00  2.15D+00  2.29D+00  2.13D+00
                    CP:  1.59D+00  1.54D+00  1.08D+00  1.01D+00
 E= -3007.16409881335     Delta-E=       -0.000000001637 Rises=F Damp=F
 DIIS: error= 2.67D-07 at cycle  15 NSaved=  15.
 NSaved=15 IEnMin=15 EnMin= -3007.16409881335     IErMin=15 ErrMin= 2.67D-07
 ErrMax= 2.67D-07  0.00D+00 EMaxC= 1.00D-01 BMatC= 8.93D-11 BMatP= 6.60D-10
 IDIUse=1 WtCom= 1.00D+00 WtEn= 0.00D+00
 Coeff-Com: -0.377D-05 0.892D-05 0.274D-05-0.114D-04-0.249D-03-0.540D-03
 Coeff-Com: -0.111D-02 0.161D-02 0.639D-02 0.301D-02-0.157D-01-0.451D-01
 Coeff-Com: -0.103D-01 0.245D+00 0.817D+00
 Coeff:     -0.377D-05 0.892D-05 0.274D-05-0.114D-04-0.249D-03-0.540D-03
 Coeff:     -0.111D-02 0.161D-02 0.639D-02 0.301D-02-0.157D-01-0.451D-01
 Coeff:     -0.103D-01 0.245D+00 0.817D+00
 Gap=     0.126 Goal=   None    Shift=    0.000
 RMSDP=2.92D-08 MaxDP=4.15D-06 DE=-1.64D-09 OVMax= 1.73D-05

 Cycle  16  Pass 1  IDiag  1:
 RMSU=  1.67D-08    CP:  9.72D-01  1.47D+00  6.99D-01  6.21D-01  9.19D-01
                    CP:  1.03D+00  1.57D+00  2.15D+00  2.30D+00  2.14D+00
                    CP:  1.60D+00  1.57D+00  1.13D+00  1.20D+00  1.14D+00
 E= -3007.16409881359     Delta-E=       -0.000000000238 Rises=F Damp=F
 DIIS: error= 1.67D-07 at cycle  16 NSaved=  16.
 NSaved=16 IEnMin=16 EnMin= -3007.16409881359     IErMin=16 ErrMin= 1.67D-07
 ErrMax= 1.67D-07  0.00D+00 EMaxC= 1.00D-01 BMatC= 3.67D-11 BMatP= 8.93D-11
 IDIUse=1 WtCom= 1.00D+00 WtEn= 0.00D+00
 Coeff-Com: -0.154D-04 0.311D-04 0.469D-04 0.625D-04-0.231D-04-0.454D-03
 Coeff-Com: -0.226D-02-0.232D-02 0.463D-02 0.131D-01 0.592D-02-0.449D-01
 Coeff-Com: -0.731D-01-0.259D-01 0.427D+00 0.698D+00
 Coeff:     -0.154D-04 0.311D-04 0.469D-04 0.625D-04-0.231D-04-0.454D-03
 Coeff:     -0.226D-02-0.232D-02 0.463D-02 0.131D-01 0.592D-02-0.449D-01
 Coeff:     -0.731D-01-0.259D-01 0.427D+00 0.698D+00
 Gap=     0.126 Goal=   None    Shift=    0.000
 RMSDP=1.62D-08 MaxDP=2.41D-06 DE=-2.38D-10 OVMax= 8.74D-06

 Cycle  17  Pass 1  IDiag  1:
 RMSU=  7.63D-09    CP:  9.72D-01  1.47D+00  6.99D-01  6.21D-01  9.19D-01
                    CP:  1.03D+00  1.57D+00  2.15D+00  2.30D+00  2.14D+00
                    CP:  1.61D+00  1.58D+00  1.16D+00  1.28D+00  1.42D+00
                    CP:  1.20D+00
 E= -3007.16409881359     Delta-E=       -0.000000000005 Rises=F Damp=F
 DIIS: error= 1.08D-07 at cycle  17 NSaved=  17.
 NSaved=17 IEnMin=17 EnMin= -3007.16409881359     IErMin=17 ErrMin= 1.08D-07
 ErrMax= 1.08D-07  0.00D+00 EMaxC= 1.00D-01 BMatC= 6.64D-12 BMatP= 3.67D-11
 IDIUse=1 WtCom= 1.00D+00 WtEn= 0.00D+00
 Coeff-Com: -0.614D-05 0.120D-04 0.208D-04 0.322D-04 0.517D-04-0.192D-04
 Coeff-Com: -0.827D-03-0.145D-02 0.437D-03 0.523D-02 0.714D-02-0.737D-02
 Coeff-Com: -0.334D-01-0.849D-01 0.120D-01 0.243D+00 0.860D+00
 Coeff:     -0.614D-05 0.120D-04 0.208D-04 0.322D-04 0.517D-04-0.192D-04
 Coeff:     -0.827D-03-0.145D-02 0.437D-03 0.523D-02 0.714D-02-0.737D-02
 Coeff:     -0.334D-01-0.849D-01 0.120D-01 0.243D+00 0.860D+00
 Gap=     0.126 Goal=   None    Shift=    0.000
 RMSDP=1.04D-08 MaxDP=8.98D-07 DE=-5.46D-12 OVMax= 7.09D-06

 Cycle  18  Pass 1  IDiag  1:
 RMSU=  4.20D-09    CP:  9.72D-01  1.47D+00  6.99D-01  6.21D-01  9.19D-01
                    CP:  1.03D+00  1.57D+00  2.15D+00  2.30D+00  2.14D+00
                    CP:  1.61D+00  1.59D+00  1.17D+00  1.34D+00  1.57D+00
                    CP:  1.56D+00  1.23D+00
 E= -3007.16409881359     Delta-E=        0.000000000004 Rises=F Damp=F
 DIIS: error= 5.52D-08 at cycle  18 NSaved=  18.
 NSaved=18 IEnMin=17 EnMin= -3007.16409881359     IErMin=18 ErrMin= 5.52D-08
 ErrMax= 5.52D-08  0.00D+00 EMaxC= 1.00D-01 BMatC= 3.72D-12 BMatP= 6.64D-12
 IDIUse=1 WtCom= 1.00D+00 WtEn= 0.00D+00
 Coeff-Com:  0.254D-05-0.529D-05-0.703D-05-0.704D-05 0.289D-04 0.171D-03
 Coeff-Com:  0.382D-03 0.214D-03-0.146D-02-0.236D-02 0.104D-02 0.134D-01
 Coeff-Com:  0.998D-02-0.322D-01-0.129D+00-0.212D+00 0.486D+00 0.866D+00
 Coeff:      0.254D-05-0.529D-05-0.703D-05-0.704D-05 0.289D-04 0.171D-03
 Coeff:      0.382D-03 0.214D-03-0.146D-02-0.236D-02 0.104D-02 0.134D-01
 Coeff:      0.998D-02-0.322D-01-0.129D+00-0.212D+00 0.486D+00 0.866D+00
 Gap=     0.126 Goal=   None    Shift=    0.000
 RMSDP=7.77D-09 MaxDP=6.64D-07 DE= 3.64D-12 OVMax= 4.52D-06

 SCF Done:  E(RCAM-B3LYP) =  -3007.16409881     A.U. after   18 cycles
            NFock= 18  Conv=0.78D-08     -V/T= 2.0108
 KE= 2.975050543467D+03 PE=-2.646550366047D+04 EE= 1.074585485741D+04
 Leave Link  502 at Fri Apr 29 07:29:14 2022, MaxMem= 10066329600 cpu:            8518.9 elap:             371.4
 (Enter /sw/apps/gaussian-16.0/g16/l801.exe)
 DoSCS=F DFT=T ScalE2(SS,OS)=  1.000000  1.000000
 ExpMin= 3.36D-02 ExpMax= 4.95D+03 ExpMxC= 7.45D+02 IAcc=3 IRadAn=         5 AccDes= 0.00D+00
 HarFok:  IExCor=  205 AccDes= 0.00D+00 IRadAn=         5 IDoV=-2 UseB2=F ITyADJ=14
 ICtDFT= 12500011 ScaDFX=  1.000000  1.000000  1.000000  1.000000
 GSVD:  LWork=       -5460 too small for GESVD, short by       25550 words or       25550 for optimal perf.
 Largest valence mixing into a core orbital is  1.27D-04
 Largest core mixing into a valence orbital is  4.96D-05
 Range of M.O.s used for correlation:    71  1298
 NBasis=  1298 NAE=   246 NBE=   246 NFC=    70 NFV=     0
 NROrb=   1228 NOA=   176 NOB=   176 NVA=  1052 NVB=  1052
 Leave Link  801 at Fri Apr 29 07:29:14 2022, MaxMem= 10066329600 cpu:               6.1 elap:               0.3
 (Enter /sw/apps/gaussian-16.0/g16/l914.exe)
 RHF ground state
 Two-electron integrals replicated using symmetry.
 MDV= 10066329600 DFT=T DoStab=F Mixed=T DoRPA=T DoScal=F NonHer=T
 Making orbital integer symmetry assigments:
 Orbital symmetries:
       Occupied  (A) (A) (A) (A) (A) (A) (A) (A) (A) (A) (A) (A)
                 (A) (A) (A) (A) (A) (A) (A) (A) (A) (A) (A) (A)
                 (A) (A) (A) (A) (A) (A) (A) (A) (A) (A) (A) (A)
                 (A) (A) (A) (A) (A) (A) (A) (A) (A) (A) (A) (A)
                 (A) (A) (A) (A) (A) (A) (A) (A) (A) (A) (A) (A)
                 (A) (A) (A) (A) (A) (A) (A) (A) (A) (A) (A) (A)
                 (A) (A) (A) (A) (A) (A) (A) (A) (A) (A) (A) (A)
                 (A) (A) (A) (A) (A) (A) (A) (A) (A) (A) (A) (A)
                 (A) (A) (A) (A) (A) (A) (A) (A) (A) (A) (A) (A)
                 (A) (A) (A) (A) (A) (A) (A) (A) (A) (A) (A) (A)
                 (A) (A) (A) (A) (A) (A) (A) (A) (A) (A) (A) (A)
                 (A) (A) (A) (A) (A) (A) (A) (A) (A) (A) (A) (A)
                 (A) (A) (A) (A) (A) (A) (A) (A) (A) (A) (A) (A)
                 (A) (A) (A) (A) (A) (A) (A) (A) (A) (A) (A) (A)
                 (A) (A) (A) (A) (A) (A) (A) (A) (A) (A) (A) (A)
                 (A) (A) (A) (A) (A) (A) (A) (A) (A) (A) (A) (A)
                 (A) (A) (A) (A) (A) (A) (A) (A) (A) (A) (A) (A)
                 (A) (A) (A) (A) (A) (A) (A) (A) (A) (A) (A) (A)
                 (A) (A) (A) (A) (A) (A) (A) (A) (A) (A) (A) (A)
                 (A) (A) (A) (A) (A) (A) (A) (A) (A) (A) (A) (A)
                 (A) (A) (A) (A) (A) (A)
       Virtual   (A) (A) (A) (A) (A) (A) (A) (A) (A) (A) (A) (A)
                 (A) (A) (A) (A) (A) (A) (A) (A) (A) (A) (A) (A)
                 (A) (A) (A) (A) (A) (A) (A) (A) (A) (A) (A) (A)
                 (A) (A) (A) (A) (A) (A) (A) (A) (A) (A) (A) (A)
                 (A) (A) (A) (A) (A) (A) (A) (A) (A) (A) (A) (A)
                 (A) (A) (A) (A) (A) (A) (A) (A) (A) (A) (A) (A)
                 (A) (A) (A) (A) (A) (A) (A) (A) (A) (A) (A) (A)
                 (A) (A) (A) (A) (A) (A) (A) (A) (A) (A) (A) (A)
                 (A) (A) (A) (A) (A) (A) (A) (A) (A) (A) (A) (A)
                 (A) (A) (A) (A) (A) (A) (A) (A) (A) (A) (A) (A)
                 (A) (A) (A) (A) (A) (A) (A) (A) (A) (A) (A) (A)
                 (A) (A) (A) (A) (A) (A) (A) (A) (A) (A) (A) (A)
                 (A) (A) (A) (A) (A) (A) (A) (A) (A) (A) (A) (A)
                 (A) (A) (A) (A) (A) (A) (A) (A) (A) (A) (A) (A)
                 (A) (A) (A) (A) (A) (A) (A) (A) (A) (A) (A) (A)
                 (A) (A) (A) (A) (A) (A) (A) (A) (A) (A) (A) (A)
                 (A) (A) (A) (A) (A) (A) (A) (A) (A) (A) (A) (A)
                 (A) (A) (A) (A) (A) (A) (A) (A) (A) (A) (A) (A)
                 (A) (A) (A) (A) (A) (A) (A) (A) (A) (A) (A) (A)
                 (A) (A) (A) (A) (A) (A) (A) (A) (A) (A) (A) (A)
                 (A) (A) (A) (A) (A) (A) (A) (A) (A) (A) (A) (A)
                 (A) (A) (A) (A) (A) (A) (A) (A) (A) (A) (A) (A)
                 (A) (A) (A) (A) (A) (A) (A) (A) (A) (A) (A) (A)
                 (A) (A) (A) (A) (A) (A) (A) (A) (A) (A) (A) (A)
                 (A) (A) (A) (A) (A) (A) (A) (A) (A) (A) (A) (A)
                 (A) (A) (A) (A) (A) (A) (A) (A) (A) (A) (A) (A)
                 (A) (A) (A) (A) (A) (A) (A) (A) (A) (A) (A) (A)
                 (A) (A) (A) (A) (A) (A) (A) (A) (A) (A) (A) (A)
                 (A) (A) (A) (A) (A) (A) (A) (A) (A) (A) (A) (A)
                 (A) (A) (A) (A) (A) (A) (A) (A) (A) (A) (A) (A)
                 (A) (A) (A) (A) (A) (A) (A) (A) (A) (A) (A) (A)
                 (A) (A) (A) (A) (A) (A) (A) (A) (A) (A) (A) (A)
                 (A) (A) (A) (A) (A) (A) (A) (A) (A) (A) (A) (A)
                 (A) (A) (A) (A) (A) (A) (A) (A) (A) (A) (A) (A)
                 (A) (A) (A) (A) (A) (A) (A) (A) (A) (A) (A) (A)
                 (A) (A) (A) (A) (A) (A) (A) (A) (A) (A) (A) (A)
                 (A) (A) (A) (A) (A) (A) (A) (A) (A) (A) (A) (A)
                 (A) (A) (A) (A) (A) (A) (A) (A) (A) (A) (A) (A)
                 (A) (A) (A) (A) (A) (A) (A) (A) (A) (A) (A) (A)
                 (A) (A) (A) (A) (A) (A) (A) (A) (A) (A) (A) (A)
                 (A) (A) (A) (A) (A) (A) (A) (A) (A) (A) (A) (A)
                 (A) (A) (A) (A) (A) (A) (A) (A) (A) (A) (A) (A)
                 (A) (A) (A) (A) (A) (A) (A) (A) (A) (A) (A) (A)
                 (A) (A) (A) (A) (A) (A) (A) (A) (A) (A) (A) (A)
                 (A) (A) (A) (A) (A) (A) (A) (A) (A) (A) (A) (A)
                 (A) (A) (A) (A) (A) (A) (A) (A) (A) (A) (A) (A)
                 (A) (A) (A) (A) (A) (A) (A) (A) (A) (A) (A) (A)
                 (A) (A) (A) (A) (A) (A) (A) (A) (A) (A) (A) (A)
                 (A) (A) (A) (A) (A) (A) (A) (A) (A) (A) (A) (A)
                 (A) (A) (A) (A) (A) (A) (A) (A) (A) (A) (A) (A)
                 (A) (A) (A) (A) (A) (A) (A) (A) (A) (A) (A) (A)
                 (A) (A) (A) (A) (A) (A) (A) (A) (A) (A) (A) (A)
                 (A) (A) (A) (A) (A) (A) (A) (A) (A) (A) (A) (A)
                 (A) (A) (A) (A) (A) (A) (A) (A) (A) (A) (A) (A)
                 (A) (A) (A) (A) (A) (A) (A) (A) (A) (A) (A) (A)
                 (A) (A) (A) (A) (A) (A) (A) (A) (A) (A) (A) (A)
                 (A) (A) (A) (A) (A) (A) (A) (A) (A) (A) (A) (A)
                 (A) (A) (A) (A) (A) (A) (A) (A) (A) (A) (A) (A)
                 (A) (A) (A) (A) (A) (A) (A) (A) (A) (A) (A) (A)
                 (A) (A) (A) (A) (A) (A) (A) (A) (A) (A) (A) (A)
                 (A) (A) (A) (A) (A) (A) (A) (A) (A) (A) (A) (A)
                 (A) (A) (A) (A) (A) (A) (A) (A) (A) (A) (A) (A)
                 (A) (A) (A) (A) (A) (A) (A) (A) (A) (A) (A) (A)
                 (A) (A) (A) (A) (A) (A) (A) (A) (A) (A) (A) (A)
                 (A) (A) (A) (A) (A) (A) (A) (A) (A) (A) (A) (A)
                 (A) (A) (A) (A) (A) (A) (A) (A) (A) (A) (A) (A)
                 (A) (A) (A) (A) (A) (A) (A) (A) (A) (A) (A) (A)
                 (A) (A) (A) (A) (A) (A) (A) (A) (A) (A) (A) (A)
                 (A) (A) (A) (A) (A) (A) (A) (A) (A) (A) (A) (A)
                 (A) (A) (A) (A) (A) (A) (A) (A) (A) (A) (A) (A)
                 (A) (A) (A) (A) (A) (A) (A) (A) (A) (A) (A) (A)
                 (A) (A) (A) (A) (A) (A) (A) (A) (A) (A) (A) (A)
                 (A) (A) (A) (A) (A) (A) (A) (A) (A) (A) (A) (A)
                 (A) (A) (A) (A) (A) (A) (A) (A) (A) (A) (A) (A)
                 (A) (A) (A) (A) (A) (A) (A) (A) (A) (A) (A) (A)
                 (A) (A) (A) (A) (A) (A) (A) (A) (A) (A) (A) (A)
                 (A) (A) (A) (A) (A) (A) (A) (A) (A) (A) (A) (A)
                 (A) (A) (A) (A) (A) (A) (A) (A) (A) (A) (A) (A)
                 (A) (A) (A) (A) (A) (A) (A) (A) (A) (A) (A) (A)
                 (A) (A) (A) (A) (A) (A) (A) (A) (A) (A) (A) (A)
                 (A) (A) (A) (A) (A) (A) (A) (A) (A) (A) (A) (A)
                 (A) (A) (A) (A) (A) (A) (A) (A) (A) (A) (A) (A)
                 (A) (A) (A) (A) (A) (A) (A) (A) (A) (A) (A) (A)
                 (A) (A) (A) (A) (A) (A) (A) (A) (A) (A) (A) (A)
                 (A) (A) (A) (A) (A) (A) (A) (A) (A) (A) (A) (A)
                 (A) (A) (A) (A) (A) (A) (A) (A) (A) (A) (A) (A)
                 (A) (A) (A) (A) (A) (A) (A) (A) (A) (A) (A) (A)
                 (A) (A) (A) (A) (A) (A) (A) (A)
    20 initial guesses have been made.
 Convergence on wavefunction:    0.001000000000000
 Davidson Disk Diagonalization:  ConvIn= 1.00D-03 SkipCon=T Conv= 1.00D-03.
 Max sub-space:  2000 roots to seek:    20 dimension of matrix:       370304
 Iteration     1 Dimension    20 NMult     0 NNew     20
 CISAX will form    20 AO SS matrices at one time.
 NMat=    20 NSing=    20 JSym2X= 0.
 FoFJK:  IHMeth= 1 ICntrl=       0 DoSepK=T KAlg= 0 I1Cent=           0 FoldK=F
 IRaf=         1 NMat=      40 IRICut=       1 DoRegI=T DoRafI=F ISym2E= 0 IDoP0=3 IntGTp=3.
 FoFCou: FMM=T IPFlag=           0 FMFlag=      100000 FMFlg1=        2001
         NFxFlg=           0 DoJE=F BraDBF=F KetDBF=F FulRan=T
         wScrn=  0.000000 ICntrl=       500 IOpCl=  0 I1Cent=           0 NGrid=           0
         NMat0=   20 NMatS0=     20 NMatT0=    0 NMatD0=   20 NMtDS0=    0 NMtDT0=    0
 Symmetry not used in FoFCou.
 FMM levels:  10  Number of levels for PrismC:   9
 New state      3 was old state      4
 New state      4 was old state      6
 New state      5 was old state     12
 Excitation Energies [eV] at current iteration:
 Root      1 :     2.269064929504552
 Root      2 :     2.645778127202329
 Root      3 :     3.718152943819237
 Root      4 :     3.878089074612713
 Root      5 :     3.996310652619150
 Root      6 :     4.191004477652057
 Root      7 :     4.239417856949720
 Root      8 :     4.262593912027685
 Root      9 :     4.429615570256090
 Root     10 :     4.582288937654007
 Root     11 :     4.779362403458360
 Root     12 :     4.782521998420463
 Root     13 :     4.824717860248874
 Root     14 :     5.064011369090850
 Root     15 :     5.303583683928797
 Root     16 :     5.502102185369255
 Root     17 :     5.596516859095368
 Root     18 :     6.046606657204925
 Root     19 :     6.128407050479499
 Root     20 :     6.194160533476325
 Iteration     2 Dimension    30 NMult    20 NNew     10
 CISAX will form    10 AO SS matrices at one time.
 NMat=    10 NSing=    10 JSym2X= 0.
 Root      1 not converged, maximum delta is    0.072799917142372
 Root      2 not converged, maximum delta is    0.064735076094804
 Root      3 not converged, maximum delta is    0.174490382756734
 Root      4 not converged, maximum delta is    0.184576710834358
 Root      5 not converged, maximum delta is    0.218158898104016
 Excitation Energies [eV] at current iteration:
 Root      1 :     1.818754143087474   Change is   -0.450310786417079
 Root      2 :     2.258372051558683   Change is   -0.387406075643646
 Root      3 :     3.375180466550102   Change is   -0.342972477269136
 Root      4 :     3.543564096047560   Change is   -0.334524978565154
 Root      5 :     3.861799838245366   Change is   -0.134510814373784
 Iteration     3 Dimension    40 NMult    30 NNew     10
 CISAX will form    10 AO SS matrices at one time.
 NMat=    10 NSing=    10 JSym2X= 0.
 Root      1 not converged, maximum delta is    0.015482459607333
 Root      2 not converged, maximum delta is    0.015084517064174
 Root      3 not converged, maximum delta is    0.033384694233617
 Root      4 not converged, maximum delta is    0.121936434460143
 Root      5 not converged, maximum delta is    0.420032114099188
 Excitation Energies [eV] at current iteration:
 Root      1 :     1.785526951692997   Change is   -0.033227191394477
 Root      2 :     2.237535170299724   Change is   -0.020836881258959
 Root      3 :     3.354770966115764   Change is   -0.020409500434338
 Root      4 :     3.511401344562432   Change is   -0.032162751485128
 Root      5 :     3.653658601814568   Change is   -0.208141236430797
 Iteration     4 Dimension    50 NMult    40 NNew     10
 CISAX will form    10 AO SS matrices at one time.
 NMat=    10 NSing=    10 JSym2X= 0.
 Root      1 not converged, maximum delta is    0.002500432046783
 Root      2 not converged, maximum delta is    0.003407856174017
 Root      3 not converged, maximum delta is    0.033147650666576
 Root      4 not converged, maximum delta is    0.026286995309562
 Root      5 not converged, maximum delta is    0.181362139313222
 Excitation Energies [eV] at current iteration:
 Root      1 :     1.781674928620498   Change is   -0.003852023072499
 Root      2 :     2.234696467763548   Change is   -0.002838702536176
 Root      3 :     3.347055447348561   Change is   -0.007715518767203
 Root      4 :     3.502784815654771   Change is   -0.008616528907661
 Root      5 :     3.592774290716512   Change is   -0.060884311098056
 Iteration     5 Dimension    60 NMult    50 NNew     10
 CISAX will form    10 AO SS matrices at one time.
 NMat=    10 NSing=    10 JSym2X= 0.
 Root      1 has converged.
 Root      2 has converged.
 Root      3 not converged, maximum delta is    0.053471408742501
 Root      4 not converged, maximum delta is    0.343654463078401
 Root      5 not converged, maximum delta is    0.539385390497171
 Excitation Energies [eV] at current iteration:
 Root      1 :     1.781337645076938   Change is   -0.000337283543560
 Root      2 :     2.234477001288119   Change is   -0.000219466475429
 Root      3 :     3.342379047897687   Change is   -0.004676399450874
 Root      4 :     3.489699981388777   Change is   -0.013084834265994
 Root      5 :     3.507242519305753   Change is   -0.085531771410759
 Iteration     6 Dimension    66 NMult    60 NNew      6
 CISAX will form     6 AO SS matrices at one time.
 NMat=     6 NSing=     6 JSym2X= 0.
 Root      1 has converged.
 Root      2 has converged.
 Root      3 not converged, maximum delta is    0.012651642834703
 Root      4 not converged, maximum delta is    0.119554979562187
 Root      5 not converged, maximum delta is    0.116081152932420
 Excitation Energies [eV] at current iteration:
 Root      1 :     1.781333552973111   Change is   -0.000004092103828
 Root      2 :     2.234473426424489   Change is   -0.000003574863630
 Root      3 :     3.341364248662654   Change is   -0.001014799235033
 Root      4 :     3.476031702153868   Change is   -0.013668279234909
 Root      5 :     3.503826399020312   Change is   -0.003416120285441
 Iteration     7 Dimension    72 NMult    66 NNew      6
 CISAX will form     6 AO SS matrices at one time.
 NMat=     6 NSing=     6 JSym2X= 0.
 Root      1 has converged.
 Root      2 has converged.
 Root      3 not converged, maximum delta is    0.003602574650405
 Root      4 not converged, maximum delta is    0.018455235983679
 Root      5 not converged, maximum delta is    0.014698125134687
 Excitation Energies [eV] at current iteration:
 Root      1 :     1.781333006520984   Change is   -0.000000546452126
 Root      2 :     2.234471398595912   Change is   -0.000002027828576
 Root      3 :     3.341120620550730   Change is   -0.000243628111924
 Root      4 :     3.472953855679172   Change is   -0.003077846474697
 Root      5 :     3.503440340802852   Change is   -0.000386058217460
 Iteration     8 Dimension    78 NMult    72 NNew      6
 CISAX will form     6 AO SS matrices at one time.
 NMat=     6 NSing=     6 JSym2X= 0.
 Root      1 has converged.
 Root      2 has converged.
 Root      3 not converged, maximum delta is    0.001994816209914
 Root      4 not converged, maximum delta is    0.009482383837651
 Root      5 not converged, maximum delta is    0.003805366389377
 Excitation Energies [eV] at current iteration:
 Root      1 :     1.781332724090329   Change is   -0.000000282430656
 Root      2 :     2.234467836270843   Change is   -0.000003562325070
 Root      3 :     3.341053878598371   Change is   -0.000066741952359
 Root      4 :     3.472100421545164   Change is   -0.000853434134008
 Root      5 :     3.503318974568257   Change is   -0.000121366234596
 Iteration     9 Dimension    84 NMult    78 NNew      6
 CISAX will form     6 AO SS matrices at one time.
 NMat=     6 NSing=     6 JSym2X= 0.
 Root      1 has converged.
 Root      2 has converged.
 Root      3 not converged, maximum delta is    0.001614372925004
 Root      4 not converged, maximum delta is    0.007839823774774
 Root      5 not converged, maximum delta is    0.003835409178461
 Excitation Energies [eV] at current iteration:
 Root      1 :     1.781332175166091   Change is   -0.000000548924238
 Root      2 :     2.234467430783618   Change is   -0.000000405487225
 Root      3 :     3.341026558824449   Change is   -0.000027319773923
 Root      4 :     3.471697346007607   Change is   -0.000403075537557
 Root      5 :     3.503243087267780   Change is   -0.000075887300476
 Iteration    10 Dimension    90 NMult    84 NNew      6
 CISAX will form     6 AO SS matrices at one time.
 NMat=     6 NSing=     6 JSym2X= 0.
 Root      1 has converged.
 Root      2 has converged.
 Root      3 has converged.
 Root      4 not converged, maximum delta is    0.002973595293857
 Root      5 not converged, maximum delta is    0.001655317190416
 Excitation Energies [eV] at current iteration:
 Root      1 :     1.781331927181311   Change is   -0.000000247984780
 Root      2 :     2.234467306813168   Change is   -0.000000123970450
 Root      3 :     3.341020335399614   Change is   -0.000006223424836
 Root      4 :     3.471588292315446   Change is   -0.000109053692161
 Root      5 :     3.503217386991806   Change is   -0.000025700275974
 Iteration    11 Dimension    94 NMult    90 NNew      4
 CISAX will form     4 AO SS matrices at one time.
 NMat=     4 NSing=     4 JSym2X= 0.
 Root      1 has converged.
 Root      2 has converged.
 Root      3 has converged.
 Root      4 has converged.
 Root      5 has converged.
 Excitation Energies [eV] at current iteration:
 Root      1 :     1.781331888561776   Change is   -0.000000038619535
 Root      2 :     2.234467264985908   Change is   -0.000000041827259
 Root      3 :     3.341019714432243   Change is   -0.000000620967370
 Root      4 :     3.471573351603934   Change is   -0.000014940711512
 Root      5 :     3.503213236294746   Change is   -0.000004150697060
 Convergence achieved on expansion vectors.
 ***********************************************************************
 Excited states from <AA,BB:AA,BB> singles matrix:
 ***********************************************************************
 
 1PDM for each excited state written to RWF  633
 Ground to excited state transition densities written to RWF  633
 Ground to excited state transition electric dipole moments (Au):
       state          X           Y           Z        Dip. S.      Osc.
         1        -1.6980     -1.6819     -1.6583      8.4622      0.3693
         2         0.4615     -1.2497      0.5913      2.1245      0.1163
         3         0.0326     -0.4902      0.1419      0.2615      0.0214
         4        -0.1025      0.4605     -0.1442      0.2434      0.0207
         5         0.1600     -1.5656      0.4452      2.6749      0.2296
 Ground to excited state transition velocity dipole moments (Au):
       state          X           Y           Z        Dip. S.      Osc.
         1         0.1065      0.1066      0.1054      0.0338      0.3447
         2        -0.0354      0.0973     -0.0439      0.0127      0.1028
         3        -0.0044      0.0595     -0.0142      0.0038      0.0204
         4         0.0105     -0.0555      0.0216      0.0037      0.0191
         5        -0.0162      0.1954     -0.0521      0.0412      0.2131
 Ground to excited state transition magnetic dipole moments (Au):
       state          X           Y           Z
         1         0.3952      0.9055     -1.2960
         2        -0.9859     -0.2903     -0.1460
         3         0.5356     -0.4632     -1.3772
         4        -0.6676     -0.0675      0.3375
         5        -0.1620     -0.5105     -1.6882
 Ground to excited state transition velocity quadrupole moments (Au):
       state          XX          YY          ZZ          XY          XZ          YZ
         1        -1.7319      0.4687      0.2488     -0.6246     -0.7808      0.3785
         2         0.5283      0.3920     -0.0509     -0.7076      0.4137      0.0576
         3         0.1109     -0.1841      0.1581     -0.5548      0.2505     -0.0060
         4        -0.1815     -0.0539      0.0098      0.5070     -0.2366     -0.0073
         5        -0.2750      0.8842     -0.0934     -1.8227      0.2551     -0.4228
 <0|del|b> * <b|rxdel|0> + <0|del|b> * <b|delr+rdel|0>
 Rotatory Strengths (R) in cgs (10**-40 erg-esu-cm/Gauss)
       state          XX          YY          ZZ    R(velocity)    E-M Angle
         1      -122.4823     62.8566     81.4352      7.2698       89.61
         2      -133.6058     35.2847    210.8261     37.5016       83.58
         3       -43.0152     26.9475    -43.3432    -19.8036       96.24
         4        24.4575    -29.8206     27.5335      7.3901       84.95
         5        91.2755      6.8088   -148.7097    -16.8751       91.47
 1/2[<0|r|b>*<b|rxdel|0> + (<0|rxdel|b>*<b|r|0>)*]
 Rotatory Strengths (R) in cgs (10**-40 erg-esu-cm/Gauss)
       state          XX          YY          ZZ     R(length)
         1       474.5108   1076.9413  -1519.8009     10.5504
         2       321.7331   -256.5583     61.0363     42.0704
         3       -12.3341   -160.5589    138.2353    -11.5526
         4       -48.3943     21.9893     34.4086      2.6679
         5        18.3281   -565.2308    531.5012     -5.1338
  1/2[<0|del|b>*<b|r|0> + (<0|r|b>*<b|del|0>)*] (Au)
       state          X           Y           Z        Dip. S.   Osc.(frdel)
         1        -0.1809     -0.1794     -0.1749      0.5351      0.3568
[...]
 Alpha virt. eigenvalues --    1.20496   1.20797   1.20873   1.20970   1.21873
 Alpha virt. eigenvalues --    1.21974   1.22537   1.22579   1.23327   1.23675
 Alpha virt. eigenvalues --    1.24132   1.24862   1.25248   1.25425   1.25602
 Alpha virt. eigenvalues --    1.26065   1.26187   1.27511   1.27685   1.27898
 Alpha virt. eigenvalues --    1.28111   1.28255   1.29188   1.29678   1.29793
 Alpha virt. eigenvalues --    1.30006   1.30793   1.31661   1.32241   1.32807
 Alpha virt. eigenvalues --    1.33030   1.33205   1.33609   1.34271   1.34783
 Alpha virt. eigenvalues --    1.35297   1.35807   1.36037   1.36974   1.37571
 Alpha virt. eigenvalues --    1.37876   1.38741   1.38805   1.38983   1.39749
 Alpha virt. eigenvalues --    1.40332   1.40654   1.40781   1.41345   1.41400
 Alpha virt. eigenvalues --    1.41749   1.42608   1.42745   1.43039   1.43231
 Alpha virt. eigenvalues --    1.43716   1.44087   1.44590   1.44770   1.45201
 Alpha virt. eigenvalues --    1.45590   1.45815   1.46122   1.46390   1.46902
 Alpha virt. eigenvalues --    1.47067   1.47306   1.48175   1.48456   1.49187
 Alpha virt. eigenvalues --    1.49599   1.49879   1.50170   1.50307   1.51626
 Alpha virt. eigenvalues --    1.51854   1.53108   1.53351   1.53999   1.54329
 Alpha virt. eigenvalues --    1.54595   1.54844   1.55122   1.55700   1.56927
 Alpha virt. eigenvalues --    1.57406   1.57538   1.57740   1.57865   1.58291
 Alpha virt. eigenvalues --    1.58739   1.59184   1.59229   1.59425   1.59963
 Alpha virt. eigenvalues --    1.60274   1.60336   1.60385   1.60695   1.60941
 Alpha virt. eigenvalues --    1.61146   1.61312   1.61481   1.61693   1.62255
 Alpha virt. eigenvalues --    1.62474   1.62593   1.62727   1.63022   1.63591
 Alpha virt. eigenvalues --    1.63860   1.63988   1.64043   1.64430   1.64877
 Alpha virt. eigenvalues --    1.65015   1.65262   1.65425   1.65535   1.66278
 Alpha virt. eigenvalues --    1.66616   1.66727   1.67264   1.68077   1.68432
 Alpha virt. eigenvalues --    1.69275   1.70457   1.70644   1.71059   1.71170
 Alpha virt. eigenvalues --    1.72108   1.72878   1.73013   1.73334   1.73451
 Alpha virt. eigenvalues --    1.73746   1.73807   1.74003   1.74429   1.74760
 Alpha virt. eigenvalues --    1.74778   1.75425   1.76581   1.76736   1.76873
 Alpha virt. eigenvalues --    1.77007   1.77245   1.77906   1.77941   1.78082
 Alpha virt. eigenvalues --    1.78187   1.78223   1.78737   1.78973   1.79067
 Alpha virt. eigenvalues --    1.79455   1.79849   1.80297   1.80448   1.80634
 Alpha virt. eigenvalues --    1.81253   1.81654   1.81814   1.82046   1.82161
 Alpha virt. eigenvalues --    1.82352   1.82445   1.82893   1.83195   1.83300
 Alpha virt. eigenvalues --    1.83381   1.83605   1.83658   1.83819   1.84412
 Alpha virt. eigenvalues --    1.84500   1.84680   1.84778   1.85001   1.85056
 Alpha virt. eigenvalues --    1.85375   1.85708   1.85807   1.85838   1.86080
 Alpha virt. eigenvalues --    1.86426   1.86559   1.86792   1.86819   1.87129
 Alpha virt. eigenvalues --    1.87360   1.87581   1.87980   1.88114   1.88218
 Alpha virt. eigenvalues --    1.88363   1.88583   1.88670   1.88939   1.89078
 Alpha virt. eigenvalues --    1.89558   1.89581   1.89721   1.89839   1.89920
 Alpha virt. eigenvalues --    1.90023   1.90455   1.90709   1.90804   1.90984
 Alpha virt. eigenvalues --    1.91083   1.91297   1.91569   1.91654   1.91912
 Alpha virt. eigenvalues --    1.92305   1.92659   1.92809   1.93032   1.93271
 Alpha virt. eigenvalues --    1.93505   1.93694   1.93859   1.94489   1.94883
 Alpha virt. eigenvalues --    1.95158   1.95286   1.95543   1.95579   1.95943
 Alpha virt. eigenvalues --    1.96071   1.96493   1.96694   1.97163   1.97610
 Alpha virt. eigenvalues --    1.97704   1.97743   1.98007   1.98317   1.98678
 Alpha virt. eigenvalues --    1.98734   1.99170   1.99328   1.99502   1.99639
 Alpha virt. eigenvalues --    2.00076   2.00333   2.00520   2.01185   2.01379
 Alpha virt. eigenvalues --    2.01554   2.01873   2.01984   2.02271   2.02723
 Alpha virt. eigenvalues --    2.02991   2.03110   2.03988   2.04105   2.04277
 Alpha virt. eigenvalues --    2.04595   2.04618   2.05221   2.05402   2.05747
 Alpha virt. eigenvalues --    2.05907   2.06283   2.06634   2.06724   2.07196
 Alpha virt. eigenvalues --    2.07470   2.07772   2.08104   2.08247   2.08538
 Alpha virt. eigenvalues --    2.08843   2.08960   2.09201   2.09885   2.10262
 Alpha virt. eigenvalues --    2.10674   2.10806   2.10920   2.11291   2.11404
 Alpha virt. eigenvalues --    2.11888   2.12191   2.12575   2.12961   2.13132
 Alpha virt. eigenvalues --    2.13460   2.13873   2.13974   2.14282   2.14874
 Alpha virt. eigenvalues --    2.14911   2.15295   2.15340   2.15426   2.15642
 Alpha virt. eigenvalues --    2.16006   2.16297   2.16770   2.17071   2.17197
 Alpha virt. eigenvalues --    2.17768   2.17802   2.18220   2.18463   2.18591
 Alpha virt. eigenvalues --    2.18752   2.19480   2.19659   2.20081   2.20496
 Alpha virt. eigenvalues --    2.20883   2.21187   2.21418   2.22126   2.22336
 Alpha virt. eigenvalues --    2.22362   2.23225   2.23789   2.23953   2.24493
 Alpha virt. eigenvalues --    2.24818   2.25515   2.26085   2.26552   2.26775
 Alpha virt. eigenvalues --    2.27361   2.27641   2.28278   2.28391   2.28475
 Alpha virt. eigenvalues --    2.29515   2.29846   2.30061   2.31073   2.31457
 Alpha virt. eigenvalues --    2.31585   2.31903   2.32081   2.32567   2.33177
 Alpha virt. eigenvalues --    2.33865   2.34340   2.34609   2.34864   2.34890
 Alpha virt. eigenvalues --    2.36009   2.36202   2.36296   2.36417   2.36731
 Alpha virt. eigenvalues --    2.37366   2.37558   2.37886   2.38478   2.38975
 Alpha virt. eigenvalues --    2.39423   2.39865   2.40096   2.40704   2.40887
 Alpha virt. eigenvalues --    2.41313   2.41404   2.41780   2.41996   2.42176
 Alpha virt. eigenvalues --    2.42386   2.42709   2.42883   2.43095   2.43527
 Alpha virt. eigenvalues --    2.44043   2.44181   2.44555   2.45243   2.45922
 Alpha virt. eigenvalues --    2.46448   2.46744   2.47047   2.47484   2.47718
 Alpha virt. eigenvalues --    2.47851   2.47947   2.48360   2.49206   2.49495
 Alpha virt. eigenvalues --    2.49717   2.50163   2.50522   2.50648   2.50800
 Alpha virt. eigenvalues --    2.51597   2.51814   2.52029   2.52042   2.53022
 Alpha virt. eigenvalues --    2.53573   2.53864   2.54087   2.54291   2.54513
 Alpha virt. eigenvalues --    2.55305   2.55670   2.55899   2.56151   2.56665
 Alpha virt. eigenvalues --    2.56986   2.57452   2.57899   2.58370   2.58956
 Alpha virt. eigenvalues --    2.60000   2.60725   2.60842   2.61154   2.61554
 Alpha virt. eigenvalues --    2.62209   2.62803   2.63002   2.63030   2.63278
 Alpha virt. eigenvalues --    2.63913   2.64415   2.65028   2.65520   2.65873
 Alpha virt. eigenvalues --    2.66309   2.66444   2.66631   2.67190   2.67542
 Alpha virt. eigenvalues --    2.67746   2.67959   2.68348   2.68659   2.68939
 Alpha virt. eigenvalues --    2.69424   2.69614   2.70489   2.71227   2.71536
 Alpha virt. eigenvalues --    2.71610   2.72141   2.72253   2.72826   2.73253
 Alpha virt. eigenvalues --    2.73597   2.73819   2.73961   2.74354   2.74538
 Alpha virt. eigenvalues --    2.75057   2.75587   2.76047   2.76282   2.76753
 Alpha virt. eigenvalues --    2.77833   2.78019   2.78227   2.78844   2.79357
 Alpha virt. eigenvalues --    2.79596   2.79686   2.80348   2.80511   2.80717
 Alpha virt. eigenvalues --    2.81084   2.81726   2.82389   2.82523   2.83293
 Alpha virt. eigenvalues --    2.83665   2.84647   2.84982   2.85305   2.85388
 Alpha virt. eigenvalues --    2.86503   2.86700   2.87159   2.87933   2.88522
 Alpha virt. eigenvalues --    2.89695   2.89846   2.91284   2.91519   2.91813
 Alpha virt. eigenvalues --    2.92568   2.92886   2.93292   2.93762   2.94542
 Alpha virt. eigenvalues --    2.95275   2.95377   2.95677   2.95913   2.97037
 Alpha virt. eigenvalues --    2.97199   2.97218   2.97709   2.98269   2.98632
 Alpha virt. eigenvalues --    2.98868   2.98947   2.99191   2.99545   2.99707
 Alpha virt. eigenvalues --    2.99843   3.00168   3.00384   3.00714   3.01088
 Alpha virt. eigenvalues --    3.01288   3.01568   3.01699   3.01844   3.02040
 Alpha virt. eigenvalues --    3.02208   3.02789   3.03240   3.03428   3.03668
 Alpha virt. eigenvalues --    3.03816   3.04092   3.04197   3.04774   3.05322
 Alpha virt. eigenvalues --    3.05520   3.05963   3.06093   3.06762   3.07599
 Alpha virt. eigenvalues --    3.07733   3.07806   3.08203   3.08285   3.08332
 Alpha virt. eigenvalues --    3.08508   3.08710   3.09113   3.09458   3.10191
 Alpha virt. eigenvalues --    3.10389   3.10858   3.11124   3.11305   3.11443
 Alpha virt. eigenvalues --    3.12013   3.12336   3.13209   3.14140   3.14716
 Alpha virt. eigenvalues --    3.15318   3.15419   3.16009   3.16769   3.16929
 Alpha virt. eigenvalues --    3.17263   3.17553   3.17938   3.18072   3.18703
 Alpha virt. eigenvalues --    3.20080   3.20138   3.22683   3.23275   3.24055
 Alpha virt. eigenvalues --    3.26124   3.26186   3.26715   3.28405   3.31257
 Alpha virt. eigenvalues --    3.31580   3.33568   3.41736   3.46054   3.46361
 Alpha virt. eigenvalues --    3.47469   3.49189   3.52096   3.53861   3.55913
 Alpha virt. eigenvalues --    3.59359   3.65799   3.67067   3.69945   3.71712
 Alpha virt. eigenvalues --    3.73274   3.75477
          Condensed to atoms (all electrons):
 Mulliken charges:
               1
     1  Mg   0.825818
     2  C   -0.004267
     3  C   -0.084587
     4  C   -0.085148
     5  C   -0.075125
     6  N   -0.287609
     7  C   -0.077863
     8  C    0.022634
     9  C   -0.050990
    10  C    0.093795
    11  C    0.063109
    12  C    0.084252
    13  C    0.022609
    14  C    0.145998
    15  O   -0.202495
    16  O   -0.348671
    17  N   -0.357458
    18  C    0.131090
    19  C   -0.137088
    20  C   -0.003342
    21  C    0.161986
    22  C    0.106013
    23  C    0.018235
    24  O   -0.218976
    25  C    0.032214
    26  N   -0.278634
    27  C   -0.011640
    28  C   -0.044731
    29  C   -0.002853
    30  C    0.055238
    31  C    0.080945
    32  C    0.005031
    33  C   -0.010397
    34  N   -0.329964
    35  C    0.097301
    36  C   -0.178437
    37  C    0.036128
    38  C    0.113731
    39  C    0.102709
    40  C    0.036495
    41  O   -0.184673
    42  C    0.011119
    43  C    0.191537
    44  O   -0.213067
    45  O   -0.329487
    46  C    0.171075
    47  C    0.267570
    48  C   -0.114514
    49  C   -0.152057
    50  C    0.075755
    51  C    0.055549
    52  C    0.033389
    53  C    0.049562
    54  C   -0.089126
    55  C    0.044381
    56  C    0.030008
    57  C    0.030781
    58  C    0.046920
    59  C   -0.135053
    60  C    0.048324
    61  C    0.034587
    62  C   -0.004038
    63  C    0.087932
    64  C   -0.189963
    65  C    0.030806
    66  C    0.057187
    67  H   -0.032254
    68  H   -0.050981
    69  H   -0.028899
    70  H    0.003559
    71  H    0.006765
    72  H    0.003928
    73  H    0.006652
    74  H    0.031932
    75  H    0.015914
    76  H    0.034774
    77  H    0.027940
    78  H    0.016051
    79  H    0.042891
    80  H    0.022813
    81  H    0.045502
    82  H    0.039081
    83  H    0.046917
    84  H    0.025379
    85  H    0.022729
    86  H    0.014494
    87  H    0.024145
    88  H    0.018517
    89  H    0.015182
    90  H    0.014874
    91  H    0.009826
    92  H    0.015229
    93  H    0.013675
    94  H    0.024445
    95  H    0.019640
    96  H    0.035002
    97  H    0.014904
    98  H    0.029893
    99  H    0.028824
   100  H    0.030823
   101  H    0.039714
   102  H    0.027782
   103  H    0.008434
   104  H    0.000015
   105  H    0.030904
   106  H    0.019056
   107  H    0.011900
   108  H   -0.001040
   109  H    0.007285
   110  H    0.009402
   111  H   -0.001327
   112  H   -0.018347
   113  H   -0.009713
   114  H   -0.012613
   115  H    0.001644
   116  H   -0.000472
   117  H    0.012100
   118  H   -0.001174
   119  H   -0.018092
   120  H   -0.000618
   121  H   -0.005354
   122  H   -0.014962
   123  H   -0.019434
   124  H   -0.015969
   125  H    0.006706
   126  H    0.010319
   127  H    0.007945
   128  H    0.005262
   129  H   -0.003733
   130  H   -0.010804
   131  H   -0.006861
   132  H    0.003983
   133  H   -0.004976
   134  H    0.009223
   135  H    0.005554
   136  H    0.014646
   137  H   -0.002103
   138  H    0.012311
   139  H    0.006593
   140  H    0.007084
 Sum of Mulliken charges =  -0.00000
 Mulliken charges with hydrogens summed into heavy atoms:
               1
     1  Mg   0.825818
     2  C   -0.004267
     3  C   -0.116841
     4  C   -0.136129
     5  C   -0.104025
     6  N   -0.287609
     7  C   -0.077863
     8  C    0.026193
     9  C   -0.044225
    10  C    0.093795
    11  C    0.105622
    12  C    0.134939
    13  C    0.066600
    14  C    0.145998
    15  O   -0.202495
    16  O   -0.348671
    17  N   -0.357458
    18  C    0.131090
    19  C   -0.137088
    20  C   -0.003342
    21  C    0.161986
    22  C    0.217219
    23  C    0.018235
    24  O   -0.218976
    25  C    0.143591
    26  N   -0.278634
    27  C   -0.011640
    28  C   -0.022002
    29  C    0.011641
    30  C    0.055238
    31  C    0.138789
    32  C    0.029731
    33  C    0.042952
    34  N   -0.329964
    35  C    0.097301
    36  C   -0.178437
    37  C    0.036128
    38  C    0.113731
    39  C    0.172255
    40  C    0.036495
    41  O   -0.184673
    42  C    0.041012
    43  C    0.191537
    44  O   -0.213067
    45  O   -0.329487
    46  C    0.270436
    47  C    0.303787
    48  C   -0.114499
    49  C   -0.152057
    50  C    0.137615
    51  C    0.061795
    52  C    0.041464
    53  C    0.021502
    54  C   -0.101739
    55  C    0.057654
    56  C    0.010742
    57  C    0.024809
    58  C    0.012523
    59  C   -0.151022
    60  C    0.073295
    61  C    0.036116
    62  C   -0.021702
    63  C    0.086939
    64  C   -0.180740
    65  C    0.048904
    66  C    0.083176
 Electronic spatial extent (au):  <R**2>=          97853.3176
 Charge=             -0.0000 electrons
 Dipole moment (field-independent basis, Debye):
    X=              0.1560    Y=              4.2455    Z=             -1.4974  Tot=              4.5046
 Quadrupole moment (field-independent basis, Debye-Ang):
   XX=           -405.0604   YY=           -413.9968   ZZ=           -404.5867
   XY=            -46.5532   XZ=             -3.4324   YZ=            -14.0959
 Traceless Quadrupole moment (field-independent basis, Debye-Ang):
   XX=              2.8209   YY=             -6.1155   ZZ=              3.2946
   XY=            -46.5532   XZ=             -3.4324   YZ=            -14.0959
 Octapole moment (field-independent basis, Debye-Ang**2):
  XXX=            -62.5927  YYY=            -57.9736  ZZZ=            -17.9540  XYY=            -15.1370
  XXY=            305.9358  XXZ=              2.3481  XZZ=            -66.9287  YZZ=            -29.9961
  YYZ=           -216.9992  XYZ=            102.6278
 Hexadecapole moment (field-independent basis, Debye-Ang**3):
 XXXX=         -95825.0270 YYYY=         -29805.8635 ZZZZ=         -11319.9329 XXXY=          -1510.9398
 XXXZ=            893.4683 YYYX=           -917.7569 YYYZ=           -415.6040 ZZZX=             82.0138
 ZZZY=           -126.1060 XXYY=         -21120.8157 XXZZ=         -17408.9946 YYZZ=          -7595.0358
 XXYZ=           -328.4195 YYXZ=             23.6464 ZZXY=           -110.9999
 N-N= 9.737434160783D+03 E-N=-2.646550366594D+04  KE= 2.975050543467D+03
 Leave Link  601 at Fri Apr 29 07:50:30 2022, MaxMem= 10066329600 cpu:              15.6 elap:               0.7
 (Enter /sw/apps/gaussian-16.0/g16/l9999.exe)
 1\1\GINC-BP1-COMPUTE162\SP\RCAM-B3LYP TD-FC\def2SVP\C55H74Mg1N4O6\OF15
 641\29-Apr-2022\0\\#p cam-b3lyp/Def2SVP td=(nstates=5)\\step_201_chrom
 ophore_20 TDDFT with cam-b3lyp functional\\0,1\Mg,0,7.066,57.131,41.37
 7\C,0,6.326,53.8,41.126\C,0,10.232,56.482,40.316\C,0,7.749,60.518,41.0
 98\C,0,3.773,57.83,42.098\N,0,8.069,55.369,40.65\C,0,7.569,54.082,40.6
 08\C,0,8.543,53.114,39.913\C,0,9.89,53.851,40.073\C,0,9.377,55.358,40.
 394\C,0,10.841,53.24,41.064\C,0,8.118,52.861,38.44\C,0,8.396,51.453,37
 .782\C,0,9.41,51.145,36.718\O,0,10.206,50.252,36.731\O,0,9.036,51.886,
 35.619\N,0,8.783,58.321,40.849\C,0,10.02,57.84,40.552\C,0,10.967,58.96
 5,40.362\C,0,10.239,60.189,40.613\C,0,8.901,59.721,40.859\C,0,12.417,5
 8.839,40.11\C,0,10.804,61.606,40.564\O,0,12.012,61.867,40.364\C,0,9.90
 6,62.897,40.717\N,0,5.9,58.937,41.391\C,0,6.409,60.176,41.384\C,0,5.34
 7,61.246,41.72\C,0,4.071,60.393,42.076\C,0,4.586,58.962,41.81\C,0,5.73
 6,62.282,42.83\C,0,2.854,60.826,41.219\C,0,1.401,60.771,41.856\N,0,5.2
 95,56.045,41.577\C,0,4.026,56.462,41.931\C,0,3.311,55.225,42.334\C,0,4
 .191,54.165,42.021\C,0,5.289,54.738,41.545\C,0,1.999,55.105,43.117\C,0
 ,4.352,52.722,41.971\O,0,3.734,51.742,42.404\C,0,5.728,52.445,41.244\C
 ,0,5.409,51.764,39.988\O,0,4.697,52.22,39.114\O,0,6.024,50.519,39.874\
 C,0,5.548,49.731,38.745\C,0,9.691,51.459,34.367\C,0,9.263,52.401,33.21
 9\C,0,8.045,52.675,32.636\C,0,6.769,51.85,32.873\C,0,8.009,53.706,31.5
 01\C,0,7.39,55.07,31.799\C,0,7.994,56.183,30.86\C,0,9.1,57.081,31.417\
 C,0,8.604,58.521,31.802\C,0,10.325,57.192,30.462\C,0,11.755,57.25,31.1
 3\C,0,12.687,58.304,30.528\C,0,13.65,57.82,29.451\C,0,15.154,57.885,29
 .938\C,0,13.365,58.496,28.049\C,0,14.141,57.884,26.826\C,0,13.366,57.5
 65,25.534\C,0,13.855,58.564,24.502\C,0,12.99,59.874,24.437\C,0,13.775,
 57.877,23.104\H,0,11.266,56.288,40.023\H,0,7.834,61.601,40.984\H,0,2.7
 73,57.998,42.501\H,0,8.506,52.172,40.459\H,0,10.543,53.777,39.203\H,0,
 10.231,52.784,41.844\H,0,11.431,53.987,41.593\H,0,11.537,52.498,40.673
 \H,0,8.579,53.653,37.851\H,0,7.035,52.851,38.319\H,0,7.429,51.177,37.3
 61\H,0,8.519,50.633,38.491\H,0,12.581,59.064,39.056\H,0,12.961,57.95,4
 0.432\H,0,12.796,59.634,40.753\H,0,9.448,62.829,41.704\H,0,9.161,63.09
 5,39.947\H,0,10.518,63.795,40.629\H,0,5.299,61.704,40.732\H,0,3.788,60
 .464,43.126\H,0,5.808,63.318,42.499\H,0,6.706,61.974,43.22\H,0,4.985,6
 2.149,43.608\H,0,2.797,60.218,40.316\H,0,2.895,61.861,40.878\H,0,0.941
 ,61.667,41.44\H,0,1.402,60.776,42.946\H,0,0.835,59.896,41.536\H,0,1.96
 ,55.704,44.027\H,0,1.721,54.083,43.378\H,0,1.209,55.513,42.487\H,0,6.3
 31,51.772,41.853\H,0,4.642,49.199,39.036\H,0,6.227,48.956,38.388\H,0,5
 .224,50.144,37.791\H,0,9.593,50.392,34.17\H,0,10.75,51.537,34.614\H,0,
 10.034,53.137,32.992\H,0,6.428,51.259,32.023\H,0,5.942,52.493,33.174\H
 ,0,6.948,51.209,33.736\H,0,7.389,53.227,30.743\H,0,9.028,53.823,31.132
 \H,0,7.545,55.259,32.861\H,0,6.316,55.006,31.629\H,0,7.186,56.853,30.5
 65\H,0,8.287,55.741,29.907\H,0,9.47,56.563,32.302\H,0,9.21,59.045,32.5
 41\H,0,7.677,58.518,32.376\H,0,8.478,59.163,30.93\H,0,10.15,57.9,29.65
 2\H,0,10.341,56.233,29.945\H,0,12.288,56.304,31.029\H,0,11.644,57.447,
 32.196\H,0,13.134,58.875,31.342\H,0,12.083,59.07,30.043\H,0,13.387,56.
 768,29.342\H,0,15.47,56.908,30.305\H,0,15.265,58.575,30.776\H,0,15.805
 ,58.132,29.1\H,0,13.637,59.527,28.274\H,0,12.309,58.35,27.819\H,0,14.6
 78,57.004,27.181\H,0,14.974,58.541,26.578\H,0,12.295,57.613,25.731\H,0
 ,13.666,56.539,25.325\H,0,14.816,59.063,24.631\H,0,13.624,60.7,24.114\
 H,0,12.494,60.014,25.397\H,0,12.26,59.788,23.632\H,0,12.774,57.494,22.
 906\H,0,14.443,57.023,23.218\H,0,14.105,58.662,22.424\\Version=ES64L-G
 16RevA.03\State=1-A\HF=-3007.1640988\RMSD=7.772e-09\PG=C01 [X(C55H74Mg
 1N4O6)]\\@


 IN THE FIGHT BETWEEN YOU AND THE WORLD, BACK THE WORLD

                                        -- FRANZ KAFKA
 Job cpu time:       0 days 10 hours 52 minutes  2.7 seconds.
 Elapsed time:       0 days  0 hours 27 minutes 39.1 seconds.
 File lengths (MBytes):  RWF=   8929 Int=      0 D2E=      0 Chk=    390 Scr=      1
 Normal termination of Gaussian 16 at Fri Apr 29 07:50:31 2022.
