 Entering Gaussian System, Link 0=g16
 Initial command:
 /sw/apps/gaussian-16.0/g16/l1.exe "/tmp/Gau-34039.inp" -scrdir="/tmp/"
 Entering Link 1 = /sw/apps/gaussian-16.0/g16/l1.exe PID=     34040.
  
 Copyright (c) 1988,1990,1992,1993,1995,1998,2003,2009,2016,
            Gaussian, Inc.  All Rights Reserved.
  
 This is part of the Gaussian(R) 16 program.  It is based on
 the Gaussian(R) 09 system (copyright 2009, Gaussian, Inc.),
 the Gaussian(R) 03 system (copyright 2003, Gaussian, Inc.),
 the Gaussian(R) 98 system (copyright 1998, Gaussian, Inc.),
 the Gaussian(R) 94 system (copyright 1995, Gaussian, Inc.),
 the Gaussian 92(TM) system (copyright 1992, Gaussian, Inc.),
 the Gaussian 90(TM) system (copyright 1990, Gaussian, Inc.),
 the Gaussian 88(TM) system (copyright 1988, Gaussian, Inc.),
 the Gaussian 86(TM) system (copyright 1986, Carnegie Mellon
 University), and the Gaussian 82(TM) system (copyright 1983,
 Carnegie Mellon University). Gaussian is a federally registered
 trademark of Gaussian, Inc.
  
 This software contains proprietary and confidential information,
 including trade secrets, belonging to Gaussian, Inc.
  
 This software is provided under written license and may be
 used, copied, transmitted, or stored only in accord with that
 written license.
  
 The following legend is applicable only to US Government
 contracts under FAR:
  
                    RESTRICTED RIGHTS LEGEND
  
 Use, reproduction and disclosure by the US Government is
 subject to restrictions as set forth in subparagraphs (a)
 and (c) of the Commercial Computer Software - Restricted
 Rights clause in FAR 52.227-19.
  
 Gaussian, Inc.
 340 Quinnipiac St., Bldg. 40, Wallingford CT 06492
  
  
 ---------------------------------------------------------------
 Warning -- This program may not be used in any manner that
 competes with the business of Gaussian, Inc. or will provide
 assistance to any competitor of Gaussian, Inc.  The licensee
 of this program is prohibited from giving any competitor of
 Gaussian, Inc. access to this program.  By using this program,
 the user acknowledges that Gaussian, Inc. is engaged in the
 business of creating and licensing software in the field of
 computational chemistry and represents and warrants to the
 licensee that it is not a competitor of Gaussian, Inc. and that
 it will not use this program in any manner prohibited above.
 ---------------------------------------------------------------
  

 Cite this work as:
 Gaussian 16, Revision A.03,
 M. J. Frisch, G. W. Trucks, H. B. Schlegel, G. E. Scuseria, 
 M. A. Robb, J. R. Cheeseman, G. Scalmani, V. Barone, 
 G. A. Petersson, H. Nakatsuji, X. Li, M. Caricato, A. V. Marenich, 
 J. Bloino, B. G. Janesko, R. Gomperts, B. Mennucci, H. P. Hratchian, 
 J. V. Ortiz, A. F. Izmaylov, J. L. Sonnenberg, D. Williams-Young, 
 F. Ding, F. Lipparini, F. Egidi, J. Goings, B. Peng, A. Petrone, 
 T. Henderson, D. Ranasinghe, V. G. Zakrzewski, J. Gao, N. Rega, 
 G. Zheng, W. Liang, M. Hada, M. Ehara, K. Toyota, R. Fukuda, 
 J. Hasegawa, M. Ishida, T. Nakajima, Y. Honda, O. Kitao, H. Nakai, 
 T. Vreven, K. Throssell, J. A. Montgomery, Jr., J. E. Peralta, 
 F. Ogliaro, M. J. Bearpark, J. J. Heyd, E. N. Brothers, K. N. Kudin, 
 V. N. Staroverov, T. A. Keith, R. Kobayashi, J. Normand, 
 K. Raghavachari, A. P. Rendell, J. C. Burant, S. S. Iyengar, 
 J. Tomasi, M. Cossi, J. M. Millam, M. Klene, C. Adamo, R. Cammi, 
 J. W. Ochterski, R. L. Martin, K. Morokuma, O. Farkas, 
 J. B. Foresman, and D. J. Fox, Gaussian, Inc., Wallingford CT, 2016.
 
 ******************************************
 Gaussian 16:  ES64L-G16RevA.03 25-Dec-2016
                 4-May-2022 
 ******************************************
 %nproc=24
 Will use up to   24 processors via shared memory.
 %mem=75GB
 ------------------------------
 #p blyp/Def2SVP td=(nstates=5)
 ------------------------------
 1/38=1,172=1/1;
 2/12=2,17=6,18=5,40=1/2;
 3/5=43,7=101,11=9,25=1,30=1,74=402/1,2,3,8;
 4//1;
 5/5=2,38=5/2;
 8/6=1,10=1,108=5/1;
 9/41=5,42=1,70=2/14;
 6/7=2,8=2,9=2,10=2/1;
 99/5=1,9=1/99;
 Leave Link    1 at Wed May  4 04:36:24 2022, MaxMem= 10066329600 cpu:               0.6 elap:               0.0
 (Enter /sw/apps/gaussian-16.0/g16/l101.exe)
 ---------------------------------------------------
 step_1351_chromophore_22 TDDFT with blyp functional
 ---------------------------------------------------
 Symbolic Z-matrix:
 Charge =  0 Multiplicity = 1
 Mg                    8.805     47.945    24.884 
 C                     6.641     47.916    27.515 
 C                     11.293    49.297    26.836 
 C                     10.81     47.591    22.353 
 C                     5.959     47.534    22.724 
 N                     8.891     48.616    26.942 
 C                     7.829     48.49     27.868 
 C                     8.32      49.017    29.201 
 C                     9.785     49.643    28.849 
 C                     10.       49.193    27.427 
 C                     9.846     51.159    29.042 
 C                     8.228     47.94     30.354 
 C                     9.185     48.108    31.529 
 C                     8.925     47.022    32.677 
 O                     9.137     45.8      32.483 
 O                     8.449     47.617    33.807 
 N                     10.774    48.429    24.62 
 C                     11.681    48.897    25.587 
 C                     13.051    48.844    25.012 
 C                     12.913    48.486    23.613 
 C                     11.487    48.181    23.436 
 C                     14.267    49.304    25.926 
 C                     14.037    48.268    22.559 
 O                     13.698    47.989    21.408 
 C                     15.461    48.373    22.947 
 N                     8.449     47.968    22.674 
 C                     9.484     47.534    21.979 
 C                     9.038     46.9      20.612 
 C                     7.473     47.046    20.642 
 C                     7.283     47.489    22.109 
 C                     9.672     47.585    19.35 
 C                     6.691     45.786    20.094 
 C                     5.786     45.994    18.881 
 N                     6.713     47.735    25.032 
 C                     5.668     47.568    24.113 
 C                     4.385     47.383    24.832 
 C                     4.71      47.541    26.183 
 C                     6.16      47.689    26.265 
 C                     3.027     47.22     24.085 
 C                     4.187     47.592    27.569 
 O                     3.02      47.401    27.963 
 C                     5.38      47.748    28.509 
 C                     5.401     46.525    29.33 
 O                     6.214     45.604    29.277 
 O                     4.443     46.688    30.287 
 C                     4.405     45.786    31.472 
 C                     8.227     46.865    34.964 
 C                     8.852     47.441    36.191 
 C                     8.662     47.204    37.539 
 C                     7.637     46.278    38.07 
 C                     9.488     47.926    38.606 
 C                     10.738    47.116    39.041 
 C                     11.353    47.766    40.267 
 C                     11.725    46.72     41.392 
 C                     11.693    47.404    42.762 
 C                     12.992    45.879    41.049 
 C                     12.882    44.326    41.067 
 C                     12.94     43.872    42.541 
 C                     14.232    43.102    42.848 
 C                     14.732    43.378    44.296 
 C                     14.149    41.632    42.63 
 C                     15.488    41.056    42.068 
 C                     15.353    40.627    40.601 
 C                     16.279    41.307    39.574 
 C                     15.431    41.666    38.309 
 C                     17.472    40.383    39.147 
 H                     12.028    49.616    27.578 
 H                     11.468    47.259    21.547 
 H                     5.188     47.127    22.066 
 H                     7.59      49.815    29.335 
 H                     10.588    49.177    29.421 
 H                     10.477    51.479    29.871 
 H                     8.823     51.471    29.257 
 H                     10.246    51.694    28.181 
 H                     8.322     46.994    29.819 
 H                     7.271     48.036    30.866 
 H                     8.989     49.086    31.968 
 H                     10.21     48.032    31.167 
 H                     13.989    49.32     26.98 
 H                     14.588    50.272    25.541 
 H                     15.011    48.517    25.806 
 H                     16.047    48.573    22.05 
 H                     15.7      47.428    23.435 
 H                     15.588    49.228    23.612 
 H                     9.325     45.848    20.627 
 H                     7.283     47.929    20.031 
 H                     9.013     48.072    18.63 
 H                     10.239    46.824    18.814 
 H                     10.353    48.371    19.674 
 H                     6.054     45.449    20.911 
 H                     7.373     44.94     20. 
 H                     4.803     45.631    19.18 
 H                     6.178     45.419    18.042 
 H                     5.728     47.041    18.582 
 H                     2.224     46.937    24.765 
 H                     3.124     46.376    23.402 
 H                     2.775     48.061    23.438 
 H                     5.133     48.612    29.126 
 H                     4.519     46.275    32.44 
 H                     5.075     44.926    31.471 
 H                     3.434     45.292    31.47 
 H                     8.36      45.786    35.046 
 H                     7.148     46.954    35.093 
 H                     9.572     48.216    35.927 
 H                     6.735     46.457    37.486 
 H                     7.376     46.572    39.087 
 H                     8.016     45.259    37.995 
 H                     8.857     48.159    39.464 
 H                     9.943     48.805    38.149 
 H                     11.475    47.094    38.239 
 H                     10.429    46.079    39.174 
 H                     10.651    48.516    40.632 
 H                     12.292    48.205    39.93 
 H                     10.899    46.01     41.434 
 H                     11.862    48.472    42.625 
 H                     12.442    47.064    43.477 
 H                     10.742    47.287    43.283 
 H                     13.847    46.126    41.677 
 H                     13.265    46.19     40.041 
 H                     13.697    43.967    40.438 
 H                     11.954    43.932    40.652 
 H                     12.096    43.232    42.797 
 H                     12.854    44.714    43.229 
 H                     15.09     43.466    42.283 
 H                     15.472    44.177    44.323 
 H                     15.143    42.479    44.754 
 H                     14.016    43.829    44.983 
 H                     13.31     41.525    41.942 
 H                     13.93     41.073    43.539 
 H                     15.75     40.154    42.622 
 H                     16.387    41.667    42.148 
 H                     14.355    40.842    40.221 
 H                     15.558    39.559    40.517 
 H                     16.661    42.202    40.064 
 H                     14.617    42.32     38.619 
 H                     14.924    40.856    37.785 
 H                     16.138    42.212    37.683 
 H                     17.466    39.334    39.443 
 H                     18.362    40.856    39.562 
 H                     17.711    40.349    38.084 
 
 ITRead=  0  0  0  0  0  0  0  0  0  0  0  0  0  0  0  0  0  0  0  0
 ITRead=  0  0  0  0  0  0  0  0  0  0  0  0  0  0  0  0  0  0  0  0
 ITRead=  0  0  0  0  0  0  0  0  0  0  0  0  0  0  0  0  0  0  0  0
 ITRead=  0  0  0  0  0  0  0  0  0  0  0  0  0  0  0  0  0  0  0  0
 ITRead=  0  0  0  0  0  0  0  0  0  0  0  0  0  0  0  0  0  0  0  0
 ITRead=  0  0  0  0  0  0  0  0  0  0  0  0  0  0  0  0  0  0  0  0
 ITRead=  0  0  0  0  0  0  0  0  0  0  0  0  0  0  0  0  0  0  0  0
 MicOpt= -1 -1 -1 -1 -1 -1 -1 -1 -1 -1 -1 -1 -1 -1 -1 -1 -1 -1 -1 -1
 MicOpt= -1 -1 -1 -1 -1 -1 -1 -1 -1 -1 -1 -1 -1 -1 -1 -1 -1 -1 -1 -1
 MicOpt= -1 -1 -1 -1 -1 -1 -1 -1 -1 -1 -1 -1 -1 -1 -1 -1 -1 -1 -1 -1
 MicOpt= -1 -1 -1 -1 -1 -1 -1 -1 -1 -1 -1 -1 -1 -1 -1 -1 -1 -1 -1 -1
 MicOpt= -1 -1 -1 -1 -1 -1 -1 -1 -1 -1 -1 -1 -1 -1 -1 -1 -1 -1 -1 -1
 MicOpt= -1 -1 -1 -1 -1 -1 -1 -1 -1 -1 -1 -1 -1 -1 -1 -1 -1 -1 -1 -1
 MicOpt= -1 -1 -1 -1 -1 -1 -1 -1 -1 -1 -1 -1 -1 -1 -1 -1 -1 -1 -1 -1
 NAtoms=    140 NQM=      140 NQMF=       0 NMMI=      0 NMMIF=      0
                NMic=       0 NMicF=      0.
                    Isotopes and Nuclear Properties:
 (Nuclear quadrupole moments (NQMom) in fm**2, nuclear magnetic moments (NMagM)
  in nuclear magnetons)

  Atom         1           2           3           4           5           6           7           8           9          10
 IAtWgt=          24          12          12          12          12          14          12          12          12          12
 AtmWgt=  23.9850450  12.0000000  12.0000000  12.0000000  12.0000000  14.0030740  12.0000000  12.0000000  12.0000000  12.0000000
 NucSpn=           0           0           0           0           0           2           0           0           0           0
 AtZEff=  -0.0000000  -0.0000000  -0.0000000  -0.0000000  -0.0000000  -0.0000000  -0.0000000  -0.0000000  -0.0000000  -0.0000000
 NQMom=    0.0000000   0.0000000   0.0000000   0.0000000   0.0000000   2.0440000   0.0000000   0.0000000   0.0000000   0.0000000
 NMagM=    0.0000000   0.0000000   0.0000000   0.0000000   0.0000000   0.4037610   0.0000000   0.0000000   0.0000000   0.0000000
 AtZNuc=  12.0000000   6.0000000   6.0000000   6.0000000   6.0000000   7.0000000   6.0000000   6.0000000   6.0000000   6.0000000

  Atom        11          12          13          14          15          16          17          18          19          20
 IAtWgt=          12          12          12          12          16          16          14          12          12          12
 AtmWgt=  12.0000000  12.0000000  12.0000000  12.0000000  15.9949146  15.9949146  14.0030740  12.0000000  12.0000000  12.0000000
 NucSpn=           0           0           0           0           0           0           2           0           0           0
 AtZEff=  -0.0000000  -0.0000000  -0.0000000  -0.0000000  -0.0000000  -0.0000000  -0.0000000  -0.0000000  -0.0000000  -0.0000000
 NQMom=    0.0000000   0.0000000   0.0000000   0.0000000   0.0000000   0.0000000   2.0440000   0.0000000   0.0000000   0.0000000
 NMagM=    0.0000000   0.0000000   0.0000000   0.0000000   0.0000000   0.0000000   0.4037610   0.0000000   0.0000000   0.0000000
 AtZNuc=   6.0000000   6.0000000   6.0000000   6.0000000   8.0000000   8.0000000   7.0000000   6.0000000   6.0000000   6.0000000

  Atom        21          22          23          24          25          26          27          28          29          30
 IAtWgt=          12          12          12          16          12          14          12          12          12          12
 AtmWgt=  12.0000000  12.0000000  12.0000000  15.9949146  12.0000000  14.0030740  12.0000000  12.0000000  12.0000000  12.0000000
 NucSpn=           0           0           0           0           0           2           0           0           0           0
 AtZEff=  -0.0000000  -0.0000000  -0.0000000  -0.0000000  -0.0000000  -0.0000000  -0.0000000  -0.0000000  -0.0000000  -0.0000000
 NQMom=    0.0000000   0.0000000   0.0000000   0.0000000   0.0000000   2.0440000   0.0000000   0.0000000   0.0000000   0.0000000
 NMagM=    0.0000000   0.0000000   0.0000000   0.0000000   0.0000000   0.4037610   0.0000000   0.0000000   0.0000000   0.0000000
 AtZNuc=   6.0000000   6.0000000   6.0000000   8.0000000   6.0000000   7.0000000   6.0000000   6.0000000   6.0000000   6.0000000

  Atom        31          32          33          34          35          36          37          38          39          40
 IAtWgt=          12          12          12          14          12          12          12          12          12          12
 AtmWgt=  12.0000000  12.0000000  12.0000000  14.0030740  12.0000000  12.0000000  12.0000000  12.0000000  12.0000000  12.0000000
 NucSpn=           0           0           0           2           0           0           0           0           0           0
 AtZEff=  -0.0000000  -0.0000000  -0.0000000  -0.0000000  -0.0000000  -0.0000000  -0.0000000  -0.0000000  -0.0000000  -0.0000000
 NQMom=    0.0000000   0.0000000   0.0000000   2.0440000   0.0000000   0.0000000   0.0000000   0.0000000   0.0000000   0.0000000
 NMagM=    0.0000000   0.0000000   0.0000000   0.4037610   0.0000000   0.0000000   0.0000000   0.0000000   0.0000000   0.0000000
 AtZNuc=   6.0000000   6.0000000   6.0000000   7.0000000   6.0000000   6.0000000   6.0000000   6.0000000   6.0000000   6.0000000

  Atom        41          42          43          44          45          46          47          48          49          50
 IAtWgt=          16          12          12          16          16          12          12          12          12          12
 AtmWgt=  15.9949146  12.0000000  12.0000000  15.9949146  15.9949146  12.0000000  12.0000000  12.0000000  12.0000000  12.0000000
 NucSpn=           0           0           0           0           0           0           0           0           0           0
 AtZEff=  -0.0000000  -0.0000000  -0.0000000  -0.0000000  -0.0000000  -0.0000000  -0.0000000  -0.0000000  -0.0000000  -0.0000000
 NQMom=    0.0000000   0.0000000   0.0000000   0.0000000   0.0000000   0.0000000   0.0000000   0.0000000   0.0000000   0.0000000
 NMagM=    0.0000000   0.0000000   0.0000000   0.0000000   0.0000000   0.0000000   0.0000000   0.0000000   0.0000000   0.0000000
 AtZNuc=   8.0000000   6.0000000   6.0000000   8.0000000   8.0000000   6.0000000   6.0000000   6.0000000   6.0000000   6.0000000

  Atom        51          52          53          54          55          56          57          58          59          60
 IAtWgt=          12          12          12          12          12          12          12          12          12          12
 AtmWgt=  12.0000000  12.0000000  12.0000000  12.0000000  12.0000000  12.0000000  12.0000000  12.0000000  12.0000000  12.0000000
 NucSpn=           0           0           0           0           0           0           0           0           0           0
 AtZEff=  -0.0000000  -0.0000000  -0.0000000  -0.0000000  -0.0000000  -0.0000000  -0.0000000  -0.0000000  -0.0000000  -0.0000000
 NQMom=    0.0000000   0.0000000   0.0000000   0.0000000   0.0000000   0.0000000   0.0000000   0.0000000   0.0000000   0.0000000
 NMagM=    0.0000000   0.0000000   0.0000000   0.0000000   0.0000000   0.0000000   0.0000000   0.0000000   0.0000000   0.0000000
 AtZNuc=   6.0000000   6.0000000   6.0000000   6.0000000   6.0000000   6.0000000   6.0000000   6.0000000   6.0000000   6.0000000

  Atom        61          62          63          64          65          66          67          68          69          70
 IAtWgt=          12          12          12          12          12          12           1           1           1           1
 AtmWgt=  12.0000000  12.0000000  12.0000000  12.0000000  12.0000000  12.0000000   1.0078250   1.0078250   1.0078250   1.0078250
 NucSpn=           0           0           0           0           0           0           1           1           1           1
 AtZEff=  -0.0000000  -0.0000000  -0.0000000  -0.0000000  -0.0000000  -0.0000000  -0.0000000  -0.0000000  -0.0000000  -0.0000000
 NQMom=    0.0000000   0.0000000   0.0000000   0.0000000   0.0000000   0.0000000   0.0000000   0.0000000   0.0000000   0.0000000
 NMagM=    0.0000000   0.0000000   0.0000000   0.0000000   0.0000000   0.0000000   2.7928460   2.7928460   2.7928460   2.7928460
 AtZNuc=   6.0000000   6.0000000   6.0000000   6.0000000   6.0000000   6.0000000   1.0000000   1.0000000   1.0000000   1.0000000

  Atom        71          72          73          74          75          76          77          78          79          80
 IAtWgt=           1           1           1           1           1           1           1           1           1           1
 AtmWgt=   1.0078250   1.0078250   1.0078250   1.0078250   1.0078250   1.0078250   1.0078250   1.0078250   1.0078250   1.0078250
 NucSpn=           1           1           1           1           1           1           1           1           1           1
 AtZEff=  -0.0000000  -0.0000000  -0.0000000  -0.0000000  -0.0000000  -0.0000000  -0.0000000  -0.0000000  -0.0000000  -0.0000000
 NQMom=    0.0000000   0.0000000   0.0000000   0.0000000   0.0000000   0.0000000   0.0000000   0.0000000   0.0000000   0.0000000
 NMagM=    2.7928460   2.7928460   2.7928460   2.7928460   2.7928460   2.7928460   2.7928460   2.7928460   2.7928460   2.7928460
 AtZNuc=   1.0000000   1.0000000   1.0000000   1.0000000   1.0000000   1.0000000   1.0000000   1.0000000   1.0000000   1.0000000

  Atom        81          82          83          84          85          86          87          88          89          90
 IAtWgt=           1           1           1           1           1           1           1           1           1           1
 AtmWgt=   1.0078250   1.0078250   1.0078250   1.0078250   1.0078250   1.0078250   1.0078250   1.0078250   1.0078250   1.0078250
 NucSpn=           1           1           1           1           1           1           1           1           1           1
 AtZEff=  -0.0000000  -0.0000000  -0.0000000  -0.0000000  -0.0000000  -0.0000000  -0.0000000  -0.0000000  -0.0000000  -0.0000000
 NQMom=    0.0000000   0.0000000   0.0000000   0.0000000   0.0000000   0.0000000   0.0000000   0.0000000   0.0000000   0.0000000
 NMagM=    2.7928460   2.7928460   2.7928460   2.7928460   2.7928460   2.7928460   2.7928460   2.7928460   2.7928460   2.7928460
 AtZNuc=   1.0000000   1.0000000   1.0000000   1.0000000   1.0000000   1.0000000   1.0000000   1.0000000   1.0000000   1.0000000

  Atom        91          92          93          94          95          96          97          98          99         100
 IAtWgt=           1           1           1           1           1           1           1           1           1           1
 AtmWgt=   1.0078250   1.0078250   1.0078250   1.0078250   1.0078250   1.0078250   1.0078250   1.0078250   1.0078250   1.0078250
 NucSpn=           1           1           1           1           1           1           1           1           1           1
 AtZEff=  -0.0000000  -0.0000000  -0.0000000  -0.0000000  -0.0000000  -0.0000000  -0.0000000  -0.0000000  -0.0000000  -0.0000000
 NQMom=    0.0000000   0.0000000   0.0000000   0.0000000   0.0000000   0.0000000   0.0000000   0.0000000   0.0000000   0.0000000
 NMagM=    2.7928460   2.7928460   2.7928460   2.7928460   2.7928460   2.7928460   2.7928460   2.7928460   2.7928460   2.7928460
 AtZNuc=   1.0000000   1.0000000   1.0000000   1.0000000   1.0000000   1.0000000   1.0000000   1.0000000   1.0000000   1.0000000

  Atom       101         102         103         104         105         106         107         108         109         110
 IAtWgt=           1           1           1           1           1           1           1           1           1           1
 AtmWgt=   1.0078250   1.0078250   1.0078250   1.0078250   1.0078250   1.0078250   1.0078250   1.0078250   1.0078250   1.0078250
 NucSpn=           1           1           1           1           1           1           1           1           1           1
 AtZEff=  -0.0000000  -0.0000000  -0.0000000  -0.0000000  -0.0000000  -0.0000000  -0.0000000  -0.0000000  -0.0000000  -0.0000000
 NQMom=    0.0000000   0.0000000   0.0000000   0.0000000   0.0000000   0.0000000   0.0000000   0.0000000   0.0000000   0.0000000
 NMagM=    2.7928460   2.7928460   2.7928460   2.7928460   2.7928460   2.7928460   2.7928460   2.7928460   2.7928460   2.7928460
 AtZNuc=   1.0000000   1.0000000   1.0000000   1.0000000   1.0000000   1.0000000   1.0000000   1.0000000   1.0000000   1.0000000

  Atom       111         112         113         114         115         116         117         118         119         120
 IAtWgt=           1           1           1           1           1           1           1           1           1           1
 AtmWgt=   1.0078250   1.0078250   1.0078250   1.0078250   1.0078250   1.0078250   1.0078250   1.0078250   1.0078250   1.0078250
 NucSpn=           1           1           1           1           1           1           1           1           1           1
 AtZEff=  -0.0000000  -0.0000000  -0.0000000  -0.0000000  -0.0000000  -0.0000000  -0.0000000  -0.0000000  -0.0000000  -0.0000000
 NQMom=    0.0000000   0.0000000   0.0000000   0.0000000   0.0000000   0.0000000   0.0000000   0.0000000   0.0000000   0.0000000
 NMagM=    2.7928460   2.7928460   2.7928460   2.7928460   2.7928460   2.7928460   2.7928460   2.7928460   2.7928460   2.7928460
 AtZNuc=   1.0000000   1.0000000   1.0000000   1.0000000   1.0000000   1.0000000   1.0000000   1.0000000   1.0000000   1.0000000

  Atom       121         122         123         124         125         126         127         128         129         130
 IAtWgt=           1           1           1           1           1           1           1           1           1           1
 AtmWgt=   1.0078250   1.0078250   1.0078250   1.0078250   1.0078250   1.0078250   1.0078250   1.0078250   1.0078250   1.0078250
 NucSpn=           1           1           1           1           1           1           1           1           1           1
 AtZEff=  -0.0000000  -0.0000000  -0.0000000  -0.0000000  -0.0000000  -0.0000000  -0.0000000  -0.0000000  -0.0000000  -0.0000000
 NQMom=    0.0000000   0.0000000   0.0000000   0.0000000   0.0000000   0.0000000   0.0000000   0.0000000   0.0000000   0.0000000
 NMagM=    2.7928460   2.7928460   2.7928460   2.7928460   2.7928460   2.7928460   2.7928460   2.7928460   2.7928460   2.7928460
 AtZNuc=   1.0000000   1.0000000   1.0000000   1.0000000   1.0000000   1.0000000   1.0000000   1.0000000   1.0000000   1.0000000

  Atom       131         132         133         134         135         136         137         138         139         140
 IAtWgt=           1           1           1           1           1           1           1           1           1           1
 AtmWgt=   1.0078250   1.0078250   1.0078250   1.0078250   1.0078250   1.0078250   1.0078250   1.0078250   1.0078250   1.0078250
 NucSpn=           1           1           1           1           1           1           1           1           1           1
 AtZEff=  -0.0000000  -0.0000000  -0.0000000  -0.0000000  -0.0000000  -0.0000000  -0.0000000  -0.0000000  -0.0000000  -0.0000000
 NQMom=    0.0000000   0.0000000   0.0000000   0.0000000   0.0000000   0.0000000   0.0000000   0.0000000   0.0000000   0.0000000
 NMagM=    2.7928460   2.7928460   2.7928460   2.7928460   2.7928460   2.7928460   2.7928460   2.7928460   2.7928460   2.7928460
 AtZNuc=   1.0000000   1.0000000   1.0000000   1.0000000   1.0000000   1.0000000   1.0000000   1.0000000   1.0000000   1.0000000
 Leave Link  101 at Wed May  4 04:36:24 2022, MaxMem= 10066329600 cpu:               2.8 elap:               0.1
 (Enter /sw/apps/gaussian-16.0/g16/l202.exe)
 Stoichiometry    C55H74MgN4O6
 Framework group  C1[X(C55H74MgN4O6)]
 Deg. of freedom   414
 Full point group                 C1      NOp   1
 Largest Abelian subgroup         C1      NOp   1
 Largest concise Abelian subgroup C1      NOp   1
                         Standard orientation:                         
 ---------------------------------------------------------------------
 Center     Atomic      Atomic             Coordinates (Angstroms)
 Number     Number       Type             X           Y           Z
 ---------------------------------------------------------------------
      1         12           0        5.818910    0.527830   -0.166738
      2          6           0        3.878236   -2.271836   -0.127353
      3          6           0        3.593627    2.144004   -2.231791
      4          6           0        7.631515    3.200870    0.180574
      5          6           0        8.515504   -1.498034    1.081658
      6          7           0        3.978375   -0.070630   -1.140019
      7          6           0        3.350064   -1.324925   -0.957908
      8          6           0        2.063992   -1.312430   -1.758884
      9          6           0        2.142224    0.091345   -2.586714
     10          6           0        3.346104    0.763250   -1.978417
     11          6           0        2.237677   -0.114619   -4.099227
     12          6           0        0.787211   -1.580646   -0.866868
     13          6           0       -0.538578   -1.031644   -1.382213
     14          6           0       -1.769207   -1.456529   -0.449516
     15          8           0       -1.876864   -1.031835    0.726880
     16          8           0       -2.601461   -2.312558   -1.106836
     17          7           0        5.656814    2.404032   -0.963295
     18          6           0        4.598956    2.923705   -1.729871
     19          6           0        4.781115    4.394532   -1.847421
     20          6           0        6.071743    4.712410   -1.266350
     21          6           0        6.546567    3.452485   -0.679017
     22          6           0        3.692499    5.223504   -2.655737
     23          6           0        6.738635    6.109416   -1.106834
     24          8           0        7.861411    6.154970   -0.601994
     25          6           0        6.025783    7.334729   -1.530858
     26          7           0        8.007249    0.818075    0.205148
     27          6           0        8.315238    2.057897    0.537697
     28          6           0        9.601200    2.112520    1.439296
     29          6           0       10.003169    0.599567    1.583640
     30          6           0        8.748904   -0.060514    0.970818
     31          6           0       10.765949    2.979874    0.843578
     32          6           0       10.478687    0.187840    3.034085
     33          6           0       11.899977   -0.352757    3.180197
     34          7           0        6.175547   -1.469627    0.403739
     35          6           0        7.281758   -2.175327    0.896445
     36          6           0        6.894776   -3.571994    1.207636
     37          6           0        5.562784   -3.671277    0.793232
     38          6           0        5.141306   -2.339849    0.368045
     39          6           0        7.919328   -4.624216    1.729042
     40          6           0        4.394778   -4.570088    0.635033
     41          8           0        4.284538   -5.763110    0.978764
     42          6           0        3.228528   -3.728503    0.122411
     43          6           0        2.208751   -3.774647    1.184549
     44          8           0        1.871535   -2.861649    1.936040
     45          8           0        1.580389   -4.978944    1.062032
     46          6           0        0.293358   -5.229175    1.769287
     47          6           0       -3.785634   -2.749954   -0.506955
     48          6           0       -4.996274   -2.586848   -1.364671
     49          6           0       -6.269679   -3.119333   -1.299322
     50          6           0       -6.688582   -4.115611   -0.288376
     51          6           0       -7.352172   -2.740006   -2.312421
     52          6           0       -8.242181   -1.567172   -1.822349
     53          6           0       -9.434962   -1.423452   -2.749937
     54          6           0      -10.798432   -1.247871   -1.970038
     55          6           0      -11.954736   -1.763581   -2.831887
     56          6           0      -10.962211    0.167507   -1.337501
     57          6           0      -11.252021    0.271842    0.188722
     58          6           0      -12.750500   -0.031539    0.400088
     59          6           0      -13.522356    1.212172    0.862512
     60          6           0      -14.968275    1.234921    0.286594
     61          6           0      -13.579571    1.398076    2.338141
     62          6           0      -13.503132    2.907791    2.732421
     63          6           0      -12.162656    3.257706    3.391994
     64          6           0      -11.296392    4.335586    2.712019
     65          6           0       -9.811244    3.843110    2.708596
     66          6           0      -11.377716    5.716193    3.451388
     67          1           0        2.764105    2.585307   -2.788294
     68          1           0        8.161228    4.100788    0.500534
     69          1           0        9.257686   -1.985352    1.717852
     70          1           0        2.279352   -2.152904   -2.418340
     71          1           0        1.304026    0.753754   -2.368114
     72          1           0        1.352698    0.203068   -4.650306
     73          1           0        2.357418   -1.189204   -4.244236
     74          1           0        3.053804    0.436951   -4.565331
     75          1           0        1.086227   -1.208492    0.113983
     76          1           0        0.566928   -2.647704   -0.858423
     77          1           0       -0.714293   -1.477530   -2.360952
     78          1           0       -0.473908    0.054322   -1.444982
     79          1           0        2.769101    4.656676   -2.776143
     80          1           0        4.162180    5.504618   -3.598427
     81          1           0        3.462420    6.071744   -2.011643
     82          1           0        6.763274    8.119105   -1.700762
     83          1           0        5.319169    7.552155   -0.729789
     84          1           0        5.529267    7.147585   -2.483657
     85          1           0        9.309346    2.525264    2.405610
     86          1           0       10.801633    0.472270    0.851956
     87          1           0       11.711348    2.493407    0.599813
     88          1           0       10.980250    3.775449    1.557048
     89          1           0       10.436583    3.425027   -0.094447
     90          1           0        9.803487   -0.603202    3.358409
     91          1           0       10.228483    0.977976    3.743140
     92          1           0       11.799070   -1.320463    3.670933
     93          1           0       12.482171    0.337757    3.790484
     94          1           0       12.400917   -0.466529    2.218381
     95          1           0        7.426955   -5.541011    2.052079
     96          1           0        8.377470   -4.220999    2.632234
     97          1           0        8.759664   -4.794253    1.055012
     98          1           0        2.875289   -4.257891   -0.762555
     99          1           0       -0.557642   -5.464781    1.129420
    100          1           0       -0.044528   -4.475048    2.480361
    101          1           0        0.448962   -6.081517    2.429728
    102          1           0       -4.106591   -2.498682    0.504234
    103          1           0       -3.613307   -3.822394   -0.412192
    104          1           0       -4.781076   -1.935291   -2.211952
    105          1           0       -5.869219   -4.828977   -0.208041
    106          1           0       -7.527430   -4.694023   -0.676474
    107          1           0       -6.912463   -3.594456    0.642163
    108          1           0       -7.957245   -3.615536   -2.548954
    109          1           0       -6.866001   -2.298990   -3.182856
    110          1           0       -7.676463   -0.636147   -1.818763
    111          1           0       -8.489727   -1.755449   -0.777451
    112          1           0       -9.454809   -2.296722   -3.402266
    113          1           0       -9.272041   -0.497088   -3.300682
    114          1           0      -10.763609   -1.945518   -1.133248
    115          1           0      -11.661427   -1.711209   -3.880305
    116          1           0      -12.890030   -1.210566   -2.746877
    117          1           0      -12.226369   -2.798195   -2.618999
    118          1           0      -11.728584    0.765085   -1.829427
    119          1           0      -10.017696    0.671440   -1.540620
    120          1           0      -10.935460    1.273839    0.479475
    121          1           0      -10.697055   -0.435555    0.805364
    122          1           0      -12.900099   -0.817001    1.140455
    123          1           0      -13.216590   -0.425475   -0.503946
    124          1           0      -13.137294    2.137142    0.433510
    125          1           0      -15.029080    1.819048   -0.630917
    126          1           0      -15.681759    1.617711    1.015497
    127          1           0      -15.347351    0.297591   -0.120516
    128          1           0      -12.733364    0.813531    2.700018
    129          1           0      -14.492298    1.007769    2.786820
    130          1           0      -14.269810    3.122266    3.477652
    131          1           0      -13.691409    3.653467    1.960124
    132          1           0      -11.504796    2.390085    3.424900
    133          1           0      -12.342810    3.623151    4.403775
    134          1           0      -11.684979    4.434754    1.698996
    135          1           0       -9.768851    2.892537    2.178478
    136          1           0       -9.341874    3.623395    3.667316
    137          1           0       -9.294354    4.617230    2.139909
    138          1           0      -11.859761    5.770397    4.427476
    139          1           0      -11.907606    6.376674    2.765068
    140          1           0      -10.439266    6.251080    3.597856
 ---------------------------------------------------------------------
 Rotational constants (GHZ):           0.0430938           0.0087741           0.0079275
 Leave Link  202 at Wed May  4 04:36:24 2022, MaxMem= 10066329600 cpu:               0.2 elap:               0.0
 (Enter /sw/apps/gaussian-16.0/g16/l301.exe)
 Standard basis: def2SVP (5D, 7F)
 Ernie: Thresh=  0.10000D-02 Tol=  0.10000D-05 Strict=F.
 There are  1364 symmetry adapted cartesian basis functions of A   symmetry.
 There are  1298 symmetry adapted basis functions of A   symmetry.
  1298 basis functions,  2180 primitive gaussians,  1364 cartesian basis functions
   246 alpha electrons      246 beta electrons
       nuclear repulsion energy      9320.8553662778 Hartrees.
 IExCor=  402 DFT=T Ex=B Corr=LYP ExCW=0 ScaHFX=  0.000000
 ScaDFX=  1.000000  1.000000  1.000000  1.000000 ScalE2=  1.000000  1.000000
 IRadAn=      5 IRanWt=     -1 IRanGd=            0 ICorTp=0 IEmpDi=  4
 NAtoms=  140 NActive=  140 NUniq=  140 SFac= 1.00D+00 NAtFMM=   60 NAOKFM=T Big=T
 Integral buffers will be    131072 words long.
 Regular integral format.
 Two-electron integral symmetry is turned on.
 Leave Link  301 at Wed May  4 04:36:24 2022, MaxMem= 10066329600 cpu:               1.3 elap:               0.1
 (Enter /sw/apps/gaussian-16.0/g16/l302.exe)
 NPDir=0 NMtPBC=     1 NCelOv=     1 NCel=       1 NClECP=     1 NCelD=      1
         NCelK=      1 NCelE2=     1 NClLst=     1 CellRange=     0.0.
 One-electron integrals computed using PRISM.
 One-electron integral symmetry used in STVInt
   1 Symmetry operations used in ECPInt.
 ECPInt:  NShTT=  192510 NPrTT=  683786 LenC2=   88919 LenP2D=  196943.
 LDataN:  DoStor=T MaxTD1= 4 Len=   56
 NBasis=  1298 RedAO= T EigKep=  3.21D-04  NBF=  1298
 NBsUse=  1298 1.00D-06 EigRej= -1.00D+00 NBFU=  1298
 Precomputing XC quadrature grid using
 IXCGrd= 4 IRadAn=           5 IRanWt=          -1 IRanGd=           0 AccXCQ= 0.00D+00.
 Generated NRdTot=       0 NPtTot=           0 NUsed=           0 NTot=          32
 NSgBfM=   994   963   978   981   994 MxSgAt=   140 MxSgA2=   140.
 Leave Link  302 at Wed May  4 04:36:28 2022, MaxMem= 10066329600 cpu:              77.0 elap:               3.2
 (Enter /sw/apps/gaussian-16.0/g16/l303.exe)
 DipDrv:  MaxL=1.
 Leave Link  303 at Wed May  4 04:36:28 2022, MaxMem= 10066329600 cpu:               6.1 elap:               0.3
 (Enter /sw/apps/gaussian-16.0/g16/l308.exe)
 Leave Link  308 at Wed May  4 04:36:28 2022, MaxMem= 10066329600 cpu:               8.8 elap:               0.4
 (Enter /sw/apps/gaussian-16.0/g16/l401.exe)
 ExpMin= 3.36D-02 ExpMax= 4.95D+03 ExpMxC= 7.45D+02 IAcc=3 IRadAn=         5 AccDes= 0.00D+00
 Harris functional with IExCor=  402 and IRadAn=       5 diagonalized for initial guess.
 HarFok:  IExCor=  402 AccDes= 0.00D+00 IRadAn=         5 IDoV= 1 UseB2=F ITyADJ=14
 ICtDFT=  3500011 ScaDFX=  1.000000  1.000000  1.000000  1.000000
 FoFCou: FMM=F IPFlag=           0 FMFlag=      100000 FMFlg1=        2001
         NFxFlg=           0 DoJE=T BraDBF=F KetDBF=T FulRan=T
         wScrn=  0.000000 ICntrl=       500 IOpCl=  0 I1Cent=   200000004 NGrid=           0
         NMat0=    1 NMatS0=      1 NMatT0=    0 NMatD0=    1 NMtDS0=    0 NMtDT0=    0
 Petite list used in FoFCou.
 Harris En= -3008.75544681760    
 JPrj=0 DoOrth=F DoCkMO=F.
 Leave Link  401 at Wed May  4 04:36:34 2022, MaxMem= 10066329600 cpu:             124.6 elap:               5.2
 (Enter /sw/apps/gaussian-16.0/g16/l502.exe)
 Integral symmetry usage will be decided dynamically.
 Closed shell SCF:
 Using DIIS extrapolation, IDIIS=  1040.
 NGot= 10066329600 LenX= 10062561258 LenY= 10060699398
 Requested convergence on RMS density matrix=1.00D-08 within 128 cycles.
 Requested convergence on MAX density matrix=1.00D-06.
 Requested convergence on             energy=1.00D-06.
 No special actions if energy rises.
 Fock matrices will be formed incrementally for  20 cycles.

 Cycle   1  Pass 1  IDiag  1:
 FoFJK:  IHMeth= 1 ICntrl=     500 DoSepK=F KAlg= 0 I1Cent=           0 FoldK=F
 IRaf= 490000000 NMat=       1 IRICut=       1 DoRegI=T DoRafI=F ISym2E= 0 IDoP0=0 IntGTp=1.
 FoFCou: FMM=T IPFlag=           0 FMFlag=      100000 FMFlg1=        2001
         NFxFlg=           0 DoJE=T BraDBF=F KetDBF=F FulRan=T
         wScrn=  0.000000 ICntrl=       500 IOpCl=  0 I1Cent=           0 NGrid=           0
         NMat0=    1 NMatS0=      1 NMatT0=    0 NMatD0=    1 NMtDS0=    0 NMtDT0=    0
 Symmetry not used in FoFCou.
 FMM levels:  10  Number of levels for PrismC:   9
 E= -3005.67179891237    
 DIIS: error= 2.05D-02 at cycle   1 NSaved=   1.
 NSaved= 1 IEnMin= 1 EnMin= -3005.67179891237     IErMin= 1 ErrMin= 2.05D-02
 ErrMax= 2.05D-02  0.00D+00 EMaxC= 1.00D-01 BMatC= 1.55D+00 BMatP= 1.55D+00
 IDIUse=3 WtCom= 7.95D-01 WtEn= 2.05D-01
 Coeff-Com:  0.100D+01
 Coeff-En:   0.100D+01
 Coeff:      0.100D+01
 Gap=     0.052 Goal=   None    Shift=    0.000
 GapD=    0.052 DampG=0.500 DampE=0.500 DampFc=0.2500 IDamp=-1.
 Damping current iteration by 2.50D-01
 RMSDP=3.82D-03 MaxDP=5.83D-01              OVMax= 9.35D-01

 Cycle   2  Pass 1  IDiag  1:
 RMSU=  9.51D-04    CP:  9.89D-01
 E= -3006.15934995410     Delta-E=       -0.487551041735 Rises=F Damp=T
 DIIS: error= 7.88D-03 at cycle   2 NSaved=   2.
 NSaved= 2 IEnMin= 2 EnMin= -3006.15934995410     IErMin= 2 ErrMin= 7.88D-03
 ErrMax= 7.88D-03  0.00D+00 EMaxC= 1.00D-01 BMatC= 2.56D-01 BMatP= 1.55D+00
 IDIUse=3 WtCom= 9.21D-01 WtEn= 7.88D-02
 Coeff-Com: -0.265D+00 0.127D+01
 Coeff-En:   0.105D+00 0.895D+00
 Coeff:     -0.236D+00 0.124D+01
 Gap=    -0.245 Goal=   None    Shift=    0.000
 RMSDP=1.56D-03 MaxDP=2.37D-01 DE=-4.88D-01 OVMax= 5.46D-01

 Cycle   3  Pass 1  IDiag  1:
 RMSU=  1.53D-03    CP:  9.65D-01  1.23D+00
 E= -3005.38088907069     Delta-E=        0.778460883414 Rises=F Damp=F
 DIIS: error= 3.65D-02 at cycle   3 NSaved=   3.
 NSaved= 3 IEnMin= 2 EnMin= -3006.15934995410     IErMin= 2 ErrMin= 7.88D-03
 ErrMax= 3.65D-02  0.00D+00 EMaxC= 1.00D-01 BMatC= 1.52D+00 BMatP= 2.56D-01
 IDIUse=2 WtCom= 0.00D+00 WtEn= 1.00D+00
 Coeff-En:   0.000D+00 0.654D+00 0.346D+00
 Coeff:      0.000D+00 0.654D+00 0.346D+00
 Gap=     0.062 Goal=   None    Shift=    0.000
 RMSDP=2.13D-03 MaxDP=4.97D-01 DE= 7.78D-01 OVMax= 8.76D-01

 Cycle   4  Pass 1  IDiag  1:
 RMSU=  1.23D-03    CP:  9.67D-01  1.82D+00 -7.21D-02
 E= -3003.62385507626     Delta-E=        1.757033994430 Rises=F Damp=F
 DIIS: error= 4.63D-02 at cycle   4 NSaved=   4.
 NSaved= 4 IEnMin= 2 EnMin= -3006.15934995410     IErMin= 2 ErrMin= 7.88D-03
 ErrMax= 4.63D-02  0.00D+00 EMaxC= 1.00D-01 BMatC= 2.50D+00 BMatP= 2.56D-01
 IDIUse=2 WtCom= 0.00D+00 WtEn= 1.00D+00
 EnCoef did     1 forward-backward iterations
 Coeff-En:   0.108D+00 0.000D+00 0.529D+00 0.363D+00
 Coeff:      0.108D+00 0.000D+00 0.529D+00 0.363D+00
 Gap=     0.071 Goal=   None    Shift=    0.000
 RMSDP=1.57D-03 MaxDP=3.70D-01 DE= 1.76D+00 OVMax= 7.25D-01

 Cycle   5  Pass 1  IDiag  1:
 RMSU=  7.81D-04    CP:  9.81D-01  1.23D+00  1.01D-01  2.18D-02
 E= -3006.91710789325     Delta-E=       -3.293252816988 Rises=F Damp=F
 DIIS: error= 2.45D-02 at cycle   5 NSaved=   5.
 NSaved= 5 IEnMin= 5 EnMin= -3006.91710789325     IErMin= 2 ErrMin= 7.88D-03
 ErrMax= 2.45D-02  0.00D+00 EMaxC= 1.00D-01 BMatC= 4.97D-01 BMatP= 2.56D-01
 IDIUse=2 WtCom= 0.00D+00 WtEn= 1.00D+00
 EnCoef did     4 forward-backward iterations
 Coeff-En:   0.000D+00 0.000D+00 0.260D+00 0.173D+00 0.567D+00
 Coeff:      0.000D+00 0.000D+00 0.260D+00 0.173D+00 0.567D+00
 Gap=     0.134 Goal=   None    Shift=    0.000
 RMSDP=1.40D-03 MaxDP=1.78D-01 DE=-3.29D+00 OVMax= 6.38D-01

 Cycle   6  Pass 1  IDiag  1:
 RMSU=  1.06D-03    CP:  9.74D-01  9.08D-01  2.93D-01  2.38D-01  6.24D-03
 E= -3006.49069300722     Delta-E=        0.426414886033 Rises=F Damp=F
 DIIS: error= 3.34D-02 at cycle   6 NSaved=   6.
 NSaved= 6 IEnMin= 5 EnMin= -3006.91710789325     IErMin= 2 ErrMin= 7.88D-03
 ErrMax= 3.34D-02  0.00D+00 EMaxC= 1.00D-01 BMatC= 9.06D-01 BMatP= 2.56D-01
 IDIUse=2 WtCom= 0.00D+00 WtEn= 1.00D+00
 Coeff-En:   0.000D+00 0.000D+00 0.000D+00 0.000D+00 0.611D+00 0.389D+00
 Coeff:      0.000D+00 0.000D+00 0.000D+00 0.000D+00 0.611D+00 0.389D+00
 Gap=     0.083 Goal=   None    Shift=    0.000
 RMSDP=1.02D-03 MaxDP=9.14D-02 DE= 4.26D-01 OVMax= 6.86D-01

 Cycle   7  Pass 1  IDiag  1:
 RMSU=  5.32D-04    CP:  9.75D-01  1.24D+00  3.13D-01  1.04D-02  6.01D-01
                    CP:  4.23D-01
 E= -3007.18271149087     Delta-E=       -0.692018483656 Rises=F Damp=F
 DIIS: error= 7.32D-03 at cycle   7 NSaved=   7.
 NSaved= 7 IEnMin= 7 EnMin= -3007.18271149087     IErMin= 7 ErrMin= 7.32D-03
 ErrMax= 7.32D-03  0.00D+00 EMaxC= 1.00D-01 BMatC= 1.47D-01 BMatP= 2.56D-01
 IDIUse=3 WtCom= 9.27D-01 WtEn= 7.32D-02
 EnCoef did     3 forward-backward iterations
 Coeff-Com: -0.562D-01 0.119D+00 0.371D-01 0.699D-02 0.386D+00 0.252D+00
 Coeff-Com:  0.256D+00
 Coeff-En:   0.000D+00 0.000D+00 0.000D+00 0.000D+00 0.348D+00 0.198D+00
 Coeff-En:   0.454D+00
 Coeff:     -0.521D-01 0.110D+00 0.344D-01 0.648D-02 0.383D+00 0.248D+00
 Coeff:      0.271D+00
 Gap=     0.037 Goal=   None    Shift=    0.000
 RMSDP=6.97D-04 MaxDP=5.96D-02 DE=-6.92D-01 OVMax= 5.60D-01

 Cycle   8  Pass 1  IDiag  1:
 RMSU=  2.64D-04    CP:  9.76D-01  1.16D+00  2.04D-01  1.24D-01  5.11D-01
                    CP:  5.53D-01 -9.50D-02
 E= -3007.29066892259     Delta-E=       -0.107957431714 Rises=F Damp=F
 DIIS: error= 4.75D-03 at cycle   8 NSaved=   8.
 NSaved= 8 IEnMin= 8 EnMin= -3007.29066892259     IErMin= 8 ErrMin= 4.75D-03
 ErrMax= 4.75D-03  0.00D+00 EMaxC= 1.00D-01 BMatC= 5.11D-02 BMatP= 1.47D-01
 IDIUse=3 WtCom= 9.53D-01 WtEn= 4.75D-02
 EnCoef did     1 forward-backward iterations
 Coeff-Com: -0.223D-01 0.886D-01 0.166D-02-0.268D-02 0.195D+00 0.990D-01
 Coeff-Com:  0.299D+00 0.342D+00
 Coeff-En:   0.000D+00 0.000D+00 0.000D+00 0.000D+00 0.219D-01 0.000D+00
 Coeff-En:   0.347D+00 0.631D+00
 Coeff:     -0.212D-01 0.844D-01 0.158D-02-0.255D-02 0.186D+00 0.943D-01
 Coeff:      0.301D+00 0.356D+00
 Gap=     0.035 Goal=   None    Shift=    0.000
 RMSDP=4.09D-04 MaxDP=4.64D-02 DE=-1.08D-01 OVMax= 3.58D-01

 Cycle   9  Pass 1  IDiag  1:
 RMSU=  1.34D-04    CP:  9.78D-01  1.15D+00  2.12D-01  4.33D-02  6.90D-01
                    CP:  4.43D-01  4.14D-01  3.12D-01
 E= -3007.36411736761     Delta-E=       -0.073448445024 Rises=F Damp=F
 DIIS: error= 1.79D-03 at cycle   9 NSaved=   9.
 NSaved= 9 IEnMin= 9 EnMin= -3007.36411736761     IErMin= 9 ErrMin= 1.79D-03
 ErrMax= 1.79D-03  0.00D+00 EMaxC= 1.00D-01 BMatC= 7.02D-03 BMatP= 5.11D-02
 IDIUse=3 WtCom= 9.82D-01 WtEn= 1.79D-02
 Coeff-Com:  0.113D-02 0.328D-01-0.676D-02 0.190D-02 0.280D-01-0.293D-02
 Coeff-Com:  0.147D+00 0.303D+00 0.495D+00
 Coeff-En:   0.000D+00 0.000D+00 0.000D+00 0.000D+00 0.000D+00 0.000D+00
 Coeff-En:   0.000D+00 0.181D+00 0.819D+00
 Coeff:      0.111D-02 0.322D-01-0.664D-02 0.186D-02 0.275D-01-0.288D-02
 Coeff:      0.145D+00 0.301D+00 0.501D+00
 Gap=     0.040 Goal=   None    Shift=    0.000
 RMSDP=1.29D-04 MaxDP=1.87D-02 DE=-7.34D-02 OVMax= 9.02D-02

 Cycle  10  Pass 1  IDiag  1:
 RMSU=  6.70D-05    CP:  9.78D-01  1.15D+00  2.07D-01  5.83D-02  6.46D-01
                    CP:  4.57D-01  3.28D-01  5.50D-01  5.08D-01
 E= -3007.37170990401     Delta-E=       -0.007592536398 Rises=F Damp=F
 DIIS: error= 7.08D-04 at cycle  10 NSaved=  10.
 NSaved=10 IEnMin=10 EnMin= -3007.37170990401     IErMin=10 ErrMin= 7.08D-04
 ErrMax= 7.08D-04  0.00D+00 EMaxC= 1.00D-01 BMatC= 1.39D-03 BMatP= 7.02D-03
 IDIUse=3 WtCom= 9.93D-01 WtEn= 7.08D-03
 Coeff-Com: -0.190D-02 0.203D-01-0.414D-02 0.122D-02-0.418D-02-0.759D-02
 Coeff-Com:  0.531D-01 0.155D+00 0.369D+00 0.418D+00
 Coeff-En:   0.000D+00 0.000D+00 0.000D+00 0.000D+00 0.000D+00 0.000D+00
 Coeff-En:   0.000D+00 0.000D+00 0.168D+00 0.832D+00
 Coeff:     -0.189D-02 0.201D-01-0.411D-02 0.121D-02-0.415D-02-0.754D-02
 Coeff:      0.528D-01 0.154D+00 0.368D+00 0.421D+00
 Gap=     0.041 Goal=   None    Shift=    0.000
 RMSDP=6.66D-05 MaxDP=5.64D-03 DE=-7.59D-03 OVMax= 3.77D-02

 Cycle  11  Pass 1  IDiag  1:
 RMSU=  3.63D-05    CP:  9.78D-01  1.16D+00  2.06D-01  5.66D-02  6.49D-01
                    CP:  4.61D-01  3.28D-01  5.29D-01  6.87D-01  2.57D-01
 E= -3007.37249544286     Delta-E=       -0.000785538852 Rises=F Damp=F
 DIIS: error= 6.04D-04 at cycle  11 NSaved=  11.
 NSaved=11 IEnMin=11 EnMin= -3007.37249544286     IErMin=11 ErrMin= 6.04D-04
 ErrMax= 6.04D-04  0.00D+00 EMaxC= 1.00D-01 BMatC= 6.31D-04 BMatP= 1.39D-03
 IDIUse=3 WtCom= 9.94D-01 WtEn= 6.04D-03
 Coeff-Com: -0.426D-02 0.115D-01-0.203D-02 0.579D-03-0.911D-02-0.153D-02
 Coeff-Com:  0.238D-02 0.443D-01 0.192D+00 0.392D+00 0.374D+00
 Coeff-En:   0.000D+00 0.000D+00 0.000D+00 0.000D+00 0.000D+00 0.000D+00
 Coeff-En:   0.000D+00 0.000D+00 0.000D+00 0.377D+00 0.623D+00
 Coeff:     -0.423D-02 0.114D-01-0.202D-02 0.575D-03-0.905D-02-0.152D-02
 Coeff:      0.236D-02 0.440D-01 0.191D+00 0.392D+00 0.376D+00
 Gap=     0.041 Goal=   None    Shift=    0.000
 RMSDP=4.08D-05 MaxDP=2.63D-03 DE=-7.86D-04 OVMax= 2.96D-02

 Cycle  12  Pass 1  IDiag  1:
 RMSU=  1.71D-05    CP:  9.78D-01  1.16D+00  2.05D-01  5.89D-02  6.48D-01
                    CP:  4.65D-01  3.27D-01  5.29D-01  6.43D-01  6.01D-01
                    CP:  2.31D-01
 E= -3007.37319986958     Delta-E=       -0.000704426717 Rises=F Damp=F
 DIIS: error= 2.40D-04 at cycle  12 NSaved=  12.
 NSaved=12 IEnMin=12 EnMin= -3007.37319986958     IErMin=12 ErrMin= 2.40D-04
 ErrMax= 2.40D-04  0.00D+00 EMaxC= 1.00D-01 BMatC= 1.19D-04 BMatP= 6.31D-04
 IDIUse=3 WtCom= 9.98D-01 WtEn= 2.40D-03
 Coeff-Com: -0.526D-02 0.104D-01-0.746D-03 0.526D-04-0.601D-02 0.132D-02
 Coeff-Com: -0.742D-02 0.107D-01 0.104D+00 0.255D+00 0.311D+00 0.327D+00
 Coeff-En:   0.000D+00 0.000D+00 0.000D+00 0.000D+00 0.000D+00 0.000D+00
 Coeff-En:   0.000D+00 0.000D+00 0.000D+00 0.000D+00 0.197D+00 0.803D+00
 Coeff:     -0.524D-02 0.104D-01-0.744D-03 0.525D-04-0.599D-02 0.132D-02
 Coeff:     -0.740D-02 0.107D-01 0.104D+00 0.254D+00 0.311D+00 0.328D+00
 Gap=     0.041 Goal=   None    Shift=    0.000
 RMSDP=1.48D-05 MaxDP=1.31D-03 DE=-7.04D-04 OVMax= 1.06D-02

 Cycle  13  Pass 1  IDiag  1:
 RMSU=  6.39D-06    CP:  9.78D-01  1.16D+00  2.05D-01  5.84D-02  6.48D-01
                    CP:  4.66D-01  3.28D-01  5.30D-01  6.57D-01  5.35D-01
                    CP:  4.24D-01  4.05D-01
 E= -3007.37334398189     Delta-E=       -0.000144112311 Rises=F Damp=F
 DIIS: error= 7.81D-05 at cycle  13 NSaved=  13.
 NSaved=13 IEnMin=13 EnMin= -3007.37334398189     IErMin=13 ErrMin= 7.81D-05
 ErrMax= 7.81D-05  0.00D+00 EMaxC= 1.00D-01 BMatC= 1.48D-05 BMatP= 1.19D-04
 IDIUse=1 WtCom= 1.00D+00 WtEn= 0.00D+00
 Coeff-Com: -0.427D-02 0.792D-02-0.275D-03-0.149D-03-0.269D-02 0.173D-02
 Coeff-Com: -0.648D-02-0.126D-02 0.449D-01 0.119D+00 0.171D+00 0.254D+00
 Coeff-Com:  0.416D+00
 Coeff:     -0.427D-02 0.792D-02-0.275D-03-0.149D-03-0.269D-02 0.173D-02
 Coeff:     -0.648D-02-0.126D-02 0.449D-01 0.119D+00 0.171D+00 0.254D+00
 Coeff:      0.416D+00
 Gap=     0.041 Goal=   None    Shift=    0.000
 RMSDP=4.13D-06 MaxDP=4.08D-04 DE=-1.44D-04 OVMax= 1.47D-03

 Cycle  14  Pass 1  IDiag  1:
 RMSU=  2.30D-06    CP:  9.78D-01  1.16D+00  2.05D-01  5.78D-02  6.49D-01
                    CP:  4.66D-01  3.28D-01  5.28D-01  6.62D-01  5.41D-01
                    CP:  4.04D-01  4.59D-01  5.64D-01
 E= -3007.37335748848     Delta-E=       -0.000013506593 Rises=F Damp=F
 DIIS: error= 3.67D-05 at cycle  14 NSaved=  14.
 NSaved=14 IEnMin=14 EnMin= -3007.37335748848     IErMin=14 ErrMin= 3.67D-05
 ErrMax= 3.67D-05  0.00D+00 EMaxC= 1.00D-01 BMatC= 2.34D-06 BMatP= 1.48D-05
 IDIUse=1 WtCom= 1.00D+00 WtEn= 0.00D+00
 Coeff-Com: -0.232D-02 0.404D-02-0.243D-03-0.453D-04-0.674D-03 0.107D-02
 Coeff-Com: -0.316D-02-0.344D-02 0.111D-01 0.304D-01 0.558D-01 0.113D+00
 Coeff-Com:  0.266D+00 0.528D+00
 Coeff:     -0.232D-02 0.404D-02-0.243D-03-0.453D-04-0.674D-03 0.107D-02
 Coeff:     -0.316D-02-0.344D-02 0.111D-01 0.304D-01 0.558D-01 0.113D+00
 Coeff:      0.266D+00 0.528D+00
 Gap=     0.041 Goal=   None    Shift=    0.000
 RMSDP=1.58D-06 MaxDP=2.60D-04 DE=-1.35D-05 OVMax= 4.57D-04

 Cycle  15  Pass 1  IDiag  1:
 RMSU=  1.31D-06    CP:  9.78D-01  1.16D+00  2.05D-01  5.79D-02  6.49D-01
                    CP:  4.67D-01  3.29D-01  5.27D-01  6.64D-01  5.40D-01
                    CP:  4.10D-01  4.65D-01  6.17D-01  8.25D-01
 E= -3007.37335903147     Delta-E=       -0.000001542987 Rises=F Damp=F
 DIIS: error= 2.75D-05 at cycle  15 NSaved=  15.
 NSaved=15 IEnMin=15 EnMin= -3007.37335903147     IErMin=15 ErrMin= 2.75D-05
 ErrMax= 2.75D-05  0.00D+00 EMaxC= 1.00D-01 BMatC= 9.28D-07 BMatP= 2.34D-06
 IDIUse=1 WtCom= 1.00D+00 WtEn= 0.00D+00
 Coeff-Com: -0.701D-03 0.102D-02-0.196D-03 0.168D-04 0.350D-03 0.429D-03
 Coeff-Com: -0.595D-03-0.291D-02-0.811D-02-0.211D-01-0.187D-01 0.460D-02
 Coeff-Com:  0.722D-01 0.429D+00 0.545D+00
 Coeff:     -0.701D-03 0.102D-02-0.196D-03 0.168D-04 0.350D-03 0.429D-03
 Coeff:     -0.595D-03-0.291D-02-0.811D-02-0.211D-01-0.187D-01 0.460D-02
 Coeff:      0.722D-01 0.429D+00 0.545D+00
 Gap=     0.041 Goal=   None    Shift=    0.000
 RMSDP=1.16D-06 MaxDP=2.26D-04 DE=-1.54D-06 OVMax= 3.75D-04

 Cycle  16  Pass 1  IDiag  1:
 RMSU=  7.39D-07    CP:  9.78D-01  1.16D+00  2.04D-01  5.79D-02  6.49D-01
                    CP:  4.67D-01  3.29D-01  5.27D-01  6.64D-01  5.42D-01
                    CP:  4.07D-01  4.82D-01  6.58D-01  1.01D+00  7.84D-01
 E= -3007.37335981760     Delta-E=       -0.000000786131 Rises=F Damp=F
 DIIS: error= 8.69D-06 at cycle  16 NSaved=  16.
 NSaved=16 IEnMin=16 EnMin= -3007.37335981760     IErMin=16 ErrMin= 8.69D-06
 ErrMax= 8.69D-06  0.00D+00 EMaxC= 1.00D-01 BMatC= 2.20D-07 BMatP= 9.28D-07
 IDIUse=1 WtCom= 1.00D+00 WtEn= 0.00D+00
 Coeff-Com: -0.152D-04-0.122D-03-0.946D-04 0.192D-04 0.360D-03 0.960D-04
 Coeff-Com:  0.211D-03-0.136D-02-0.967D-02-0.259D-01-0.317D-01-0.282D-01
 Coeff-Com: -0.196D-01 0.171D+00 0.415D+00 0.529D+00
 Coeff:     -0.152D-04-0.122D-03-0.946D-04 0.192D-04 0.360D-03 0.960D-04
 Coeff:      0.211D-03-0.136D-02-0.967D-02-0.259D-01-0.317D-01-0.282D-01
 Coeff:     -0.196D-01 0.171D+00 0.415D+00 0.529D+00
 Gap=     0.041 Goal=   None    Shift=    0.000
 RMSDP=6.54D-07 MaxDP=7.13D-05 DE=-7.86D-07 OVMax= 3.38D-04

 Cycle  17  Pass 1  IDiag  1:
 RMSU=  3.04D-07    CP:  9.78D-01  1.16D+00  2.04D-01  5.80D-02  6.49D-01
                    CP:  4.67D-01  3.29D-01  5.27D-01  6.65D-01  5.42D-01
                    CP:  4.07D-01  4.92D-01  6.81D-01  1.06D+00  9.05D-01
                    CP:  6.33D-01
 E= -3007.37336005671     Delta-E=       -0.000000239110 Rises=F Damp=F
 DIIS: error= 6.19D-06 at cycle  17 NSaved=  17.
 NSaved=17 IEnMin=17 EnMin= -3007.37336005671     IErMin=17 ErrMin= 6.19D-06
 ErrMax= 6.19D-06  0.00D+00 EMaxC= 1.00D-01 BMatC= 3.86D-08 BMatP= 2.20D-07
 IDIUse=1 WtCom= 1.00D+00 WtEn= 0.00D+00
 Coeff-Com:  0.307D-04-0.105D-03-0.323D-04 0.804D-05 0.125D-03 0.218D-04
 Coeff-Com:  0.149D-03-0.417D-03-0.483D-02-0.136D-01-0.178D-01-0.179D-01
 Coeff-Com: -0.204D-01 0.525D-01 0.198D+00 0.388D+00 0.435D+00
 Coeff:      0.307D-04-0.105D-03-0.323D-04 0.804D-05 0.125D-03 0.218D-04
 Coeff:      0.149D-03-0.417D-03-0.483D-02-0.136D-01-0.178D-01-0.179D-01
 Coeff:     -0.204D-01 0.525D-01 0.198D+00 0.388D+00 0.435D+00
 Gap=     0.041 Goal=   None    Shift=    0.000
 RMSDP=2.51D-07 MaxDP=4.01D-05 DE=-2.39D-07 OVMax= 9.91D-05

 Cycle  18  Pass 1  IDiag  1:
 RMSU=  1.49D-07    CP:  9.78D-01  1.16D+00  2.04D-01  5.80D-02  6.49D-01
                    CP:  4.67D-01  3.29D-01  5.27D-01  6.65D-01  5.42D-01
                    CP:  4.06D-01  4.92D-01  6.84D-01  1.07D+00  9.05D-01
                    CP:  7.04D-01  3.99D-01
 E= -3007.37336008719     Delta-E=       -0.000000030483 Rises=F Damp=F
 DIIS: error= 1.98D-06 at cycle  18 NSaved=  18.
 NSaved=18 IEnMin=18 EnMin= -3007.37336008719     IErMin=18 ErrMin= 1.98D-06
 ErrMax= 1.98D-06  0.00D+00 EMaxC= 1.00D-01 BMatC= 9.31D-09 BMatP= 3.86D-08
 IDIUse=1 WtCom= 1.00D+00 WtEn= 0.00D+00
 Coeff-Com: -0.216D-05-0.274D-05-0.641D-05 0.117D-05 0.192D-04 0.121D-04
 Coeff-Com:  0.458D-04-0.968D-04-0.191D-02-0.582D-02-0.797D-02-0.816D-02
 Coeff-Com: -0.105D-01 0.143D-01 0.844D-01 0.214D+00 0.347D+00 0.375D+00
 Coeff:     -0.216D-05-0.274D-05-0.641D-05 0.117D-05 0.192D-04 0.121D-04
 Coeff:      0.458D-04-0.968D-04-0.191D-02-0.582D-02-0.797D-02-0.816D-02
 Coeff:     -0.105D-01 0.143D-01 0.844D-01 0.214D+00 0.347D+00 0.375D+00
 Gap=     0.041 Goal=   None    Shift=    0.000
 RMSDP=1.22D-07 MaxDP=1.44D-05 DE=-3.05D-08 OVMax= 4.77D-05

 Cycle  19  Pass 1  IDiag  1:
 RMSU=  5.19D-08    CP:  9.78D-01  1.16D+00  2.04D-01  5.80D-02  6.49D-01
                    CP:  4.67D-01  3.29D-01  5.27D-01  6.65D-01  5.42D-01
                    CP:  4.06D-01  4.91D-01  6.83D-01  1.07D+00  9.01D-01
                    CP:  6.88D-01  5.13D-01  3.40D-01
 E= -3007.37336009709     Delta-E=       -0.000000009899 Rises=F Damp=F
 DIIS: error= 3.96D-07 at cycle  19 NSaved=  19.
 NSaved=19 IEnMin=19 EnMin= -3007.37336009709     IErMin=19 ErrMin= 3.96D-07
 ErrMax= 3.96D-07  0.00D+00 EMaxC= 1.00D-01 BMatC= 6.48D-10 BMatP= 9.31D-09
 IDIUse=1 WtCom= 1.00D+00 WtEn= 0.00D+00
 Coeff-Com: -0.302D-05 0.581D-05-0.177D-05-0.304D-07 0.235D-05 0.563D-05
 Coeff-Com:  0.214D-04-0.380D-04-0.800D-03-0.255D-02-0.353D-02-0.364D-02
 Coeff-Com: -0.494D-02 0.433D-02 0.353D-01 0.101D+00 0.184D+00 0.253D+00
 Coeff-Com:  0.439D+00
 Coeff:     -0.302D-05 0.581D-05-0.177D-05-0.304D-07 0.235D-05 0.563D-05
 Coeff:      0.214D-04-0.380D-04-0.800D-03-0.255D-02-0.353D-02-0.364D-02
 Coeff:     -0.494D-02 0.433D-02 0.353D-01 0.101D+00 0.184D+00 0.253D+00
 Coeff:      0.439D+00
 Gap=     0.041 Goal=   None    Shift=    0.000
 RMSDP=3.51D-08 MaxDP=2.92D-06 DE=-9.90D-09 OVMax= 1.50D-05

 Cycle  20  Pass 1  IDiag  1:
 RMSU=  1.74D-08    CP:  9.78D-01  1.16D+00  2.04D-01  5.80D-02  6.49D-01
                    CP:  4.67D-01  3.29D-01  5.27D-01  6.65D-01  5.42D-01
                    CP:  4.06D-01  4.91D-01  6.83D-01  1.07D+00  9.03D-01
                    CP:  7.00D-01  5.06D-01  4.16D-01  5.45D-01
 E= -3007.37336009784     Delta-E=       -0.000000000751 Rises=F Damp=F
 DIIS: error= 2.21D-07 at cycle  20 NSaved=  20.
 NSaved=20 IEnMin=20 EnMin= -3007.37336009784     IErMin=20 ErrMin= 2.21D-07
 ErrMax= 2.21D-07  0.00D+00 EMaxC= 1.00D-01 BMatC= 1.31D-10 BMatP= 6.48D-10
 IDIUse=1 WtCom= 1.00D+00 WtEn= 0.00D+00
 Coeff-Com: -0.190D-05 0.458D-05-0.373D-06-0.121D-06-0.291D-05 0.234D-05
 Coeff-Com:  0.723D-05-0.130D-04-0.237D-03-0.827D-03-0.117D-02-0.122D-02
 Coeff-Com: -0.190D-02 0.926D-04 0.106D-01 0.370D-01 0.787D-01 0.130D+00
 Coeff-Com:  0.329D+00 0.419D+00
 Coeff:     -0.190D-05 0.458D-05-0.373D-06-0.121D-06-0.291D-05 0.234D-05
 Coeff:      0.723D-05-0.130D-04-0.237D-03-0.827D-03-0.117D-02-0.122D-02
 Coeff:     -0.190D-02 0.926D-04 0.106D-01 0.370D-01 0.787D-01 0.130D+00
 Coeff:      0.329D+00 0.419D+00
 Gap=     0.041 Goal=   None    Shift=    0.000
 RMSDP=1.38D-08 MaxDP=1.38D-06 DE=-7.51D-10 OVMax= 4.71D-06

 Cycle  21  Pass 1  IDiag  1:
 Restarting incremental Fock formation.
 E= -3007.37336009781     Delta-E=        0.000000000031 Rises=F Damp=F
 DIIS: error= 9.76D-08 at cycle  21 NSaved=  20.
 NSaved=20 IEnMin=19 EnMin= -3007.37336009784     IErMin=20 ErrMin= 9.76D-08
 ErrMax= 9.76D-08  0.00D+00 EMaxC= 1.00D-01 BMatC= 1.47D-11 BMatP= 1.31D-10
 IDIUse=1 WtCom= 1.00D+00 WtEn= 0.00D+00
 Coeff-Com: -0.526D-06 0.154D-05-0.126D-06-0.179D-05 0.841D-06 0.331D-05
 Coeff-Com: -0.419D-05-0.709D-04-0.272D-03-0.394D-03-0.415D-03-0.791D-03
 Coeff-Com: -0.529D-03 0.286D-02 0.132D-01 0.318D-01 0.594D-01 0.171D+00
 Coeff-Com:  0.296D+00 0.429D+00
 Coeff:     -0.526D-06 0.154D-05-0.126D-06-0.179D-05 0.841D-06 0.331D-05
 Coeff:     -0.419D-05-0.709D-04-0.272D-03-0.394D-03-0.415D-03-0.791D-03
 Coeff:     -0.529D-03 0.286D-02 0.132D-01 0.318D-01 0.594D-01 0.171D+00
 Coeff:      0.296D+00 0.429D+00
 Gap=     0.041 Goal=   None    Shift=    0.000
 RMSDP=4.53D-09 MaxDP=3.54D-07 DE= 3.09D-11 OVMax= 1.13D-06

 SCF Done:  E(RB-LYP) =  -3007.37336010     A.U. after   21 cycles
            NFock= 21  Conv=0.45D-08     -V/T= 2.0102
 KE= 2.977117626477D+03 PE=-2.563702196045D+04 EE= 1.033167560759D+04
 Leave Link  502 at Wed May  4 04:40:07 2022, MaxMem= 10066329600 cpu:            5111.5 elap:             213.8
 (Enter /sw/apps/gaussian-16.0/g16/l801.exe)
 DoSCS=F DFT=T ScalE2(SS,OS)=  1.000000  1.000000
 ExpMin= 3.36D-02 ExpMax= 4.95D+03 ExpMxC= 7.45D+02 IAcc=3 IRadAn=         5 AccDes= 0.00D+00
 HarFok:  IExCor=  205 AccDes= 0.00D+00 IRadAn=         5 IDoV=-2 UseB2=F ITyADJ=14
 ICtDFT= 12500011 ScaDFX=  1.000000  1.000000  1.000000  1.000000
 GSVD:  LWork=       -5460 too small for GESVD, short by       25550 words or       25550 for optimal perf.
 Largest valence mixing into a core orbital is  1.51D-04
 Largest core mixing into a valence orbital is  5.43D-05
 Range of M.O.s used for correlation:    71  1298
 NBasis=  1298 NAE=   246 NBE=   246 NFC=    70 NFV=     0
 NROrb=   1228 NOA=   176 NOB=   176 NVA=  1052 NVB=  1052

 **** Warning!!: The smallest alpha delta epsilon is  0.40888180D-01

 Leave Link  801 at Wed May  4 04:40:08 2022, MaxMem= 10066329600 cpu:               6.2 elap:               0.3
 (Enter /sw/apps/gaussian-16.0/g16/l914.exe)
 RHF ground state
 Two-electron integrals replicated using symmetry.
 MDV= 10066329600 DFT=T DoStab=F Mixed=F DoRPA=T DoScal=T NonHer=F
 Making orbital integer symmetry assigments:
 Orbital symmetries:
       Occupied  (A) (A) (A) (A) (A) (A) (A) (A) (A) (A) (A) (A)
                 (A) (A) (A) (A) (A) (A) (A) (A) (A) (A) (A) (A)
                 (A) (A) (A) (A) (A) (A) (A) (A) (A) (A) (A) (A)
                 (A) (A) (A) (A) (A) (A) (A) (A) (A) (A) (A) (A)
                 (A) (A) (A) (A) (A) (A) (A) (A) (A) (A) (A) (A)
                 (A) (A) (A) (A) (A) (A) (A) (A) (A) (A) (A) (A)
                 (A) (A) (A) (A) (A) (A) (A) (A) (A) (A) (A) (A)
                 (A) (A) (A) (A) (A) (A) (A) (A) (A) (A) (A) (A)
                 (A) (A) (A) (A) (A) (A) (A) (A) (A) (A) (A) (A)
                 (A) (A) (A) (A) (A) (A) (A) (A) (A) (A) (A) (A)
                 (A) (A) (A) (A) (A) (A) (A) (A) (A) (A) (A) (A)
                 (A) (A) (A) (A) (A) (A) (A) (A) (A) (A) (A) (A)
                 (A) (A) (A) (A) (A) (A) (A) (A) (A) (A) (A) (A)
                 (A) (A) (A) (A) (A) (A) (A) (A) (A) (A) (A) (A)
                 (A) (A) (A) (A) (A) (A) (A) (A) (A) (A) (A) (A)
                 (A) (A) (A) (A) (A) (A) (A) (A) (A) (A) (A) (A)
                 (A) (A) (A) (A) (A) (A) (A) (A) (A) (A) (A) (A)
                 (A) (A) (A) (A) (A) (A) (A) (A) (A) (A) (A) (A)
                 (A) (A) (A) (A) (A) (A) (A) (A) (A) (A) (A) (A)
                 (A) (A) (A) (A) (A) (A) (A) (A) (A) (A) (A) (A)
                 (A) (A) (A) (A) (A) (A)
       Virtual   (A) (A) (A) (A) (A) (A) (A) (A) (A) (A) (A) (A)
                 (A) (A) (A) (A) (A) (A) (A) (A) (A) (A) (A) (A)
                 (A) (A) (A) (A) (A) (A) (A) (A) (A) (A) (A) (A)
                 (A) (A) (A) (A) (A) (A) (A) (A) (A) (A) (A) (A)
                 (A) (A) (A) (A) (A) (A) (A) (A) (A) (A) (A) (A)
                 (A) (A) (A) (A) (A) (A) (A) (A) (A) (A) (A) (A)
                 (A) (A) (A) (A) (A) (A) (A) (A) (A) (A) (A) (A)
                 (A) (A) (A) (A) (A) (A) (A) (A) (A) (A) (A) (A)
                 (A) (A) (A) (A) (A) (A) (A) (A) (A) (A) (A) (A)
                 (A) (A) (A) (A) (A) (A) (A) (A) (A) (A) (A) (A)
                 (A) (A) (A) (A) (A) (A) (A) (A) (A) (A) (A) (A)
                 (A) (A) (A) (A) (A) (A) (A) (A) (A) (A) (A) (A)
                 (A) (A) (A) (A) (A) (A) (A) (A) (A) (A) (A) (A)
                 (A) (A) (A) (A) (A) (A) (A) (A) (A) (A) (A) (A)
                 (A) (A) (A) (A) (A) (A) (A) (A) (A) (A) (A) (A)
                 (A) (A) (A) (A) (A) (A) (A) (A) (A) (A) (A) (A)
                 (A) (A) (A) (A) (A) (A) (A) (A) (A) (A) (A) (A)
                 (A) (A) (A) (A) (A) (A) (A) (A) (A) (A) (A) (A)
                 (A) (A) (A) (A) (A) (A) (A) (A) (A) (A) (A) (A)
                 (A) (A) (A) (A) (A) (A) (A) (A) (A) (A) (A) (A)
                 (A) (A) (A) (A) (A) (A) (A) (A) (A) (A) (A) (A)
                 (A) (A) (A) (A) (A) (A) (A) (A) (A) (A) (A) (A)
                 (A) (A) (A) (A) (A) (A) (A) (A) (A) (A) (A) (A)
                 (A) (A) (A) (A) (A) (A) (A) (A) (A) (A) (A) (A)
                 (A) (A) (A) (A) (A) (A) (A) (A) (A) (A) (A) (A)
                 (A) (A) (A) (A) (A) (A) (A) (A) (A) (A) (A) (A)
                 (A) (A) (A) (A) (A) (A) (A) (A) (A) (A) (A) (A)
                 (A) (A) (A) (A) (A) (A) (A) (A) (A) (A) (A) (A)
                 (A) (A) (A) (A) (A) (A) (A) (A) (A) (A) (A) (A)
                 (A) (A) (A) (A) (A) (A) (A) (A) (A) (A) (A) (A)
                 (A) (A) (A) (A) (A) (A) (A) (A) (A) (A) (A) (A)
                 (A) (A) (A) (A) (A) (A) (A) (A) (A) (A) (A) (A)
                 (A) (A) (A) (A) (A) (A) (A) (A) (A) (A) (A) (A)
                 (A) (A) (A) (A) (A) (A) (A) (A) (A) (A) (A) (A)
                 (A) (A) (A) (A) (A) (A) (A) (A) (A) (A) (A) (A)
                 (A) (A) (A) (A) (A) (A) (A) (A) (A) (A) (A) (A)
                 (A) (A) (A) (A) (A) (A) (A) (A) (A) (A) (A) (A)
                 (A) (A) (A) (A) (A) (A) (A) (A) (A) (A) (A) (A)
                 (A) (A) (A) (A) (A) (A) (A) (A) (A) (A) (A) (A)
                 (A) (A) (A) (A) (A) (A) (A) (A) (A) (A) (A) (A)
                 (A) (A) (A) (A) (A) (A) (A) (A) (A) (A) (A) (A)
                 (A) (A) (A) (A) (A) (A) (A) (A) (A) (A) (A) (A)
                 (A) (A) (A) (A) (A) (A) (A) (A) (A) (A) (A) (A)
                 (A) (A) (A) (A) (A) (A) (A) (A) (A) (A) (A) (A)
                 (A) (A) (A) (A) (A) (A) (A) (A) (A) (A) (A) (A)
                 (A) (A) (A) (A) (A) (A) (A) (A) (A) (A) (A) (A)
                 (A) (A) (A) (A) (A) (A) (A) (A) (A) (A) (A) (A)
                 (A) (A) (A) (A) (A) (A) (A) (A) (A) (A) (A) (A)
                 (A) (A) (A) (A) (A) (A) (A) (A) (A) (A) (A) (A)
                 (A) (A) (A) (A) (A) (A) (A) (A) (A) (A) (A) (A)
                 (A) (A) (A) (A) (A) (A) (A) (A) (A) (A) (A) (A)
                 (A) (A) (A) (A) (A) (A) (A) (A) (A) (A) (A) (A)
                 (A) (A) (A) (A) (A) (A) (A) (A) (A) (A) (A) (A)
                 (A) (A) (A) (A) (A) (A) (A) (A) (A) (A) (A) (A)
                 (A) (A) (A) (A) (A) (A) (A) (A) (A) (A) (A) (A)
                 (A) (A) (A) (A) (A) (A) (A) (A) (A) (A) (A) (A)
                 (A) (A) (A) (A) (A) (A) (A) (A) (A) (A) (A) (A)
                 (A) (A) (A) (A) (A) (A) (A) (A) (A) (A) (A) (A)
                 (A) (A) (A) (A) (A) (A) (A) (A) (A) (A) (A) (A)
                 (A) (A) (A) (A) (A) (A) (A) (A) (A) (A) (A) (A)
                 (A) (A) (A) (A) (A) (A) (A) (A) (A) (A) (A) (A)
                 (A) (A) (A) (A) (A) (A) (A) (A) (A) (A) (A) (A)
                 (A) (A) (A) (A) (A) (A) (A) (A) (A) (A) (A) (A)
                 (A) (A) (A) (A) (A) (A) (A) (A) (A) (A) (A) (A)
                 (A) (A) (A) (A) (A) (A) (A) (A) (A) (A) (A) (A)
                 (A) (A) (A) (A) (A) (A) (A) (A) (A) (A) (A) (A)
                 (A) (A) (A) (A) (A) (A) (A) (A) (A) (A) (A) (A)
                 (A) (A) (A) (A) (A) (A) (A) (A) (A) (A) (A) (A)
                 (A) (A) (A) (A) (A) (A) (A) (A) (A) (A) (A) (A)
                 (A) (A) (A) (A) (A) (A) (A) (A) (A) (A) (A) (A)
                 (A) (A) (A) (A) (A) (A) (A) (A) (A) (A) (A) (A)
                 (A) (A) (A) (A) (A) (A) (A) (A) (A) (A) (A) (A)
                 (A) (A) (A) (A) (A) (A) (A) (A) (A) (A) (A) (A)
                 (A) (A) (A) (A) (A) (A) (A) (A) (A) (A) (A) (A)
                 (A) (A) (A) (A) (A) (A) (A) (A) (A) (A) (A) (A)
                 (A) (A) (A) (A) (A) (A) (A) (A) (A) (A) (A) (A)
                 (A) (A) (A) (A) (A) (A) (A) (A) (A) (A) (A) (A)
                 (A) (A) (A) (A) (A) (A) (A) (A) (A) (A) (A) (A)
                 (A) (A) (A) (A) (A) (A) (A) (A) (A) (A) (A) (A)
                 (A) (A) (A) (A) (A) (A) (A) (A) (A) (A) (A) (A)
                 (A) (A) (A) (A) (A) (A) (A) (A) (A) (A) (A) (A)
                 (A) (A) (A) (A) (A) (A) (A) (A) (A) (A) (A) (A)
                 (A) (A) (A) (A) (A) (A) (A) (A) (A) (A) (A) (A)
                 (A) (A) (A) (A) (A) (A) (A) (A) (A) (A) (A) (A)
                 (A) (A) (A) (A) (A) (A) (A) (A) (A) (A) (A) (A)
                 (A) (A) (A) (A) (A) (A) (A) (A) (A) (A) (A) (A)
                 (A) (A) (A) (A) (A) (A) (A) (A) (A) (A) (A) (A)
                 (A) (A) (A) (A) (A) (A) (A) (A)
    20 initial guesses have been made.
 Convergence on wavefunction:    0.001000000000000
 Davidson Disk Diagonalization:  ConvIn= 1.00D-03 SkipCon=T Conv= 1.00D-03.
 Max sub-space:  2000 roots to seek:    20 dimension of matrix:       370304
 Iteration     1 Dimension    20 NMult     0 NNew     20
 CISAX will form    20 AO SS matrices at one time.
 NMat=    20 NSing=    20 JSym2X= 0.
 FoFJK:  IHMeth= 1 ICntrl=     500 DoSepK=F KAlg= 0 I1Cent=           0 FoldK=F
 IRaf= 490000000 NMat=      20 IRICut=       1 DoRegI=T DoRafI=F ISym2E= 0 IDoP0=0 IntGTp=1.
 FoFCou: FMM=T IPFlag=           0 FMFlag=      100000 FMFlg1=        2001
         NFxFlg=           0 DoJE=F BraDBF=F KetDBF=F FulRan=T
         wScrn=  0.000000 ICntrl=       500 IOpCl=  0 I1Cent=           0 NGrid=           0
         NMat0=   20 NMatS0=     20 NMatT0=    0 NMatD0=   20 NMtDS0=    0 NMtDT0=    0
 Symmetry not used in FoFCou.
 FMM levels:  10  Number of levels for PrismC:   9
 New state      1 was old state      3
 New state      2 was old state      1
 New state      3 was old state      4
 New state      4 was old state      5
 New state      5 was old state      2
 Excitation Energies [eV] at current iteration:
 Root      1 :     1.985162001343002
 Root      2 :     2.073575958553336
 Root      3 :     2.153074037904378
 Root      4 :     2.236173066835078
 Root      5 :     2.312790171455203
 Root      6 :     2.857187742906853
 Root      7 :     2.887368091213285
 Root      8 :     2.897160454823662
 Root      9 :     2.984870897920936
 Root     10 :     3.039921767026350
 Root     11 :     3.128176724478053
 Root     12 :     3.159460476006610
 Root     13 :     3.219929626636043
 Root     14 :     3.225208886388069
 Root     15 :     3.334167830308217
 Root     16 :     3.377928535598317
 Root     17 :     3.476346915600817
 Root     18 :     3.931452820349476
 Root     19 :     4.016803998877532
 Root     20 :     4.340566555980526
 Iteration     2 Dimension    40 NMult    20 NNew     20
 CISAX will form    20 AO SS matrices at one time.
 NMat=    20 NSing=    20 JSym2X= 0.
 New state      1 was old state      2
 Root      1 not converged, maximum delta is    0.238198027873525
 New state      2 was old state      1
 Root      2 not converged, maximum delta is    0.212639396190210
 Root      3 not converged, maximum delta is    0.340706498452408
 New state      4 was old state      5
 Root      4 not converged, maximum delta is    0.350975441963030
 New state      5 was old state      4
 Root      5 not converged, maximum delta is    0.010048915639602
 Excitation Energies [eV] at current iteration:
 Root      1 :     1.826190599485482   Change is   -0.247385359067854
 Root      2 :     1.956845169987600   Change is   -0.028316831355402
 Root      3 :     2.077111661646917   Change is   -0.075962376257461
 Root      4 :     2.181455951135354   Change is   -0.131334220319850
 Root      5 :     2.236153793102196   Change is   -0.000019273732881
 Root      6 :     2.654377363477710   Change is   -0.242783091345952
 Root      7 :     2.677254231584452   Change is   -0.307616666336483
 Root      8 :     2.809250853285355   Change is   -0.318925871192698
 Root      9 :     2.857115137552068   Change is   -0.000072605354784
 Root     10 :     2.875213037473362   Change is   -0.012155053739923
 Root     11 :     2.907945134536375   Change is   -0.317263751851693
 Root     12 :     2.959971531179137   Change is   -0.079950235847213
 Root     13 :     3.131166888111659   Change is   -0.028293587894951
 Root     14 :     3.156786595373536   Change is   -0.063143031262507
 Root     15 :     3.226332215918772   Change is   -0.107835614389445
 Root     16 :     3.308311078001508   Change is   -0.069617457596809
 Root     17 :     3.370171070059691   Change is   -0.106175845541126
 Root     18 :     3.492754845154110   Change is   -0.438697975195365
 Root     19 :     3.599817863036632   Change is   -0.416986135840901
 Root     20 :     3.691384861438482
 Iteration     3 Dimension    45 NMult    40 NNew      5
 CISAX will form     5 AO SS matrices at one time.
 NMat=     5 NSing=     5 JSym2X= 0.
 Root      1 not converged, maximum delta is    0.022331212759236
 Root      2 not converged, maximum delta is    0.058683817068328
 Root      3 not converged, maximum delta is    0.060462308111580
 Root      4 not converged, maximum delta is    0.039530208915995
 Root      5 has converged.
 Excitation Energies [eV] at current iteration:
 Root      1 :     1.777570037823325   Change is   -0.048620561662157
 Root      2 :     1.942982312863706   Change is   -0.013862857123894
 Root      3 :     2.060800065561353   Change is   -0.016311596085564
 Root      4 :     2.174528439747915   Change is   -0.006927511387439
 Root      5 :     2.236148579897562   Change is   -0.000005213204635
 Iteration     4 Dimension    49 NMult    45 NNew      4
 CISAX will form     4 AO SS matrices at one time.
 NMat=     4 NSing=     4 JSym2X= 0.
 Root      1 not converged, maximum delta is    0.009083025072832
 Root      2 not converged, maximum delta is    0.026824773838096
 Root      3 not converged, maximum delta is    0.022615554208984
 Root      4 not converged, maximum delta is    0.013895055741831
 Root      5 has converged.
 Excitation Energies [eV] at current iteration:
 Root      1 :     1.761169668094206   Change is   -0.016400369729119
 Root      2 :     1.936700231770517   Change is   -0.006282081093189
 Root      3 :     2.054831845239452   Change is   -0.005968220321901
 Root      4 :     2.172045880549263   Change is   -0.002482559198652
 Root      5 :     2.236147993230067   Change is   -0.000000586667494
 Iteration     5 Dimension    53 NMult    49 NNew      4
 CISAX will form     4 AO SS matrices at one time.
 NMat=     4 NSing=     4 JSym2X= 0.
 Root      1 not converged, maximum delta is    0.005016459264291
 Root      2 not converged, maximum delta is    0.008987734854464
 Root      3 not converged, maximum delta is    0.006878129404972
 Root      4 not converged, maximum delta is    0.004149207186274
 Root      5 has converged.
 Excitation Energies [eV] at current iteration:
 Root      1 :     1.755344515589184   Change is   -0.005825152505021
 Root      2 :     1.934433606554069   Change is   -0.002266625216447
 Root      3 :     2.052907935574855   Change is   -0.001923909664597
 Root      4 :     2.171293360613161   Change is   -0.000752519936101
 Root      5 :     2.236147942234230   Change is   -0.000000050995837
 Iteration     6 Dimension    57 NMult    53 NNew      4
 CISAX will form     4 AO SS matrices at one time.
 NMat=     4 NSing=     4 JSym2X= 0.
 Root      1 not converged, maximum delta is    0.003772530411709
 Root      2 not converged, maximum delta is    0.003535632941902
 Root      3 not converged, maximum delta is    0.003101777561563
 Root      4 not converged, maximum delta is    0.001721656820562
 Root      5 has converged.
 Excitation Energies [eV] at current iteration:
 Root      1 :     1.752795956817035   Change is   -0.002548558772150
 Root      2 :     1.933425580534099   Change is   -0.001008026019971
 Root      3 :     2.052131143503551   Change is   -0.000776792071305
 Root      4 :     2.170992566198804   Change is   -0.000300794414357
 Root      5 :     2.236147933764990   Change is   -0.000000008469240
 Iteration     7 Dimension    61 NMult    57 NNew      4
 CISAX will form     4 AO SS matrices at one time.
 NMat=     4 NSing=     4 JSym2X= 0.
 Root      1 not converged, maximum delta is    0.001713146131109
 Root      2 not converged, maximum delta is    0.001348793249048
 Root      3 not converged, maximum delta is    0.001263404638278
 Root      4 not converged, maximum delta is    0.001123755757503
 Root      5 has converged.
 Excitation Energies [eV] at current iteration:
 Root      1 :     1.751775061055528   Change is   -0.001020895761507
 Root      2 :     1.933026552310847   Change is   -0.000399028223252
 Root      3 :     2.051843373871984   Change is   -0.000287769631566
 Root      4 :     2.170861193485097   Change is   -0.000131372713707
 Root      5 :     2.236147927737732   Change is   -0.000000006027258
 Iteration     8 Dimension    65 NMult    61 NNew      4
 CISAX will form     4 AO SS matrices at one time.
 NMat=     4 NSing=     4 JSym2X= 0.
 Root      1 not converged, maximum delta is    0.001148406602775
 Root      2 has converged.
 Root      3 has converged.
 Root      4 has converged.
 Root      5 has converged.
 Excitation Energies [eV] at current iteration:
 Root      1 :     1.751353357972417   Change is   -0.000421703083112
 Root      2 :     1.932855829770361   Change is   -0.000170722540486
 Root      3 :     2.051729002978200   Change is   -0.000114370893784
 Root      4 :     2.170806105402223   Change is   -0.000055088082874
 Root      5 :     2.236147921935059   Change is   -0.000000005802673
 Iteration     9 Dimension    66 NMult    65 NNew      1
 CISAX will form     1 AO SS matrices at one time.
 NMat=     1 NSing=     1 JSym2X= 0.
 Root      1 has converged.
 Root      2 has converged.
 Root      3 has converged.
 Root      4 has converged.
 Root      5 has converged.
 Excitation Energies [eV] at current iteration:
 Root      1 :     1.751169573764345   Change is   -0.000183784208072
 Root      2 :     1.932852046515759   Change is   -0.000003783254602
 Root      3 :     2.051728988003558   Change is   -0.000000014974642
 Root      4 :     2.170805936311246   Change is   -0.000000169090977
 Root      5 :     2.236147921227923   Change is   -0.000000000707136
 Convergence achieved on expansion vectors.
[...]
 Alpha virt. eigenvalues --    1.09713   1.10054   1.10319   1.10785   1.11245
 Alpha virt. eigenvalues --    1.12097   1.12345   1.12896   1.14057   1.14589
 Alpha virt. eigenvalues --    1.15251   1.15580   1.15945   1.16386   1.16886
 Alpha virt. eigenvalues --    1.17332   1.17476   1.18366   1.18391   1.19077
 Alpha virt. eigenvalues --    1.19622   1.20408   1.20524   1.21071   1.21184
 Alpha virt. eigenvalues --    1.21857   1.22457   1.22759   1.23149   1.24076
 Alpha virt. eigenvalues --    1.24697   1.25063   1.25436   1.25694   1.25732
 Alpha virt. eigenvalues --    1.26591   1.26958   1.27451   1.27826   1.28067
 Alpha virt. eigenvalues --    1.28292   1.28790   1.29201   1.29667   1.29795
 Alpha virt. eigenvalues --    1.30312   1.30700   1.30764   1.31379   1.31883
 Alpha virt. eigenvalues --    1.32195   1.32970   1.33511   1.33820   1.34173
 Alpha virt. eigenvalues --    1.34379   1.35117   1.35548   1.35574   1.35832
 Alpha virt. eigenvalues --    1.36143   1.36636   1.36872   1.37780   1.37915
 Alpha virt. eigenvalues --    1.38025   1.38588   1.39157   1.39195   1.39475
 Alpha virt. eigenvalues --    1.40216   1.40285   1.40746   1.41423   1.42418
 Alpha virt. eigenvalues --    1.42711   1.42809   1.43297   1.43637   1.44052
 Alpha virt. eigenvalues --    1.44474   1.45162   1.45810   1.46251   1.46275
 Alpha virt. eigenvalues --    1.46636   1.47041   1.47186   1.47241   1.47530
 Alpha virt. eigenvalues --    1.47938   1.48206   1.48285   1.48453   1.48661
 Alpha virt. eigenvalues --    1.48802   1.49088   1.49479   1.49892   1.50055
 Alpha virt. eigenvalues --    1.50125   1.50860   1.50976   1.50988   1.51191
 Alpha virt. eigenvalues --    1.51729   1.51825   1.51861   1.51948   1.52125
 Alpha virt. eigenvalues --    1.52179   1.52785   1.53275   1.53446   1.53841
 Alpha virt. eigenvalues --    1.54583   1.55522   1.55626   1.56262   1.56568
 Alpha virt. eigenvalues --    1.56764   1.57313   1.57664   1.58524   1.59263
 Alpha virt. eigenvalues --    1.59709   1.59814   1.60087   1.60624   1.60867
 Alpha virt. eigenvalues --    1.61274   1.61454   1.61960   1.63115   1.63221
 Alpha virt. eigenvalues --    1.63530   1.63710   1.64240   1.64490   1.64615
 Alpha virt. eigenvalues --    1.65028   1.65159   1.65196   1.65601   1.65844
 Alpha virt. eigenvalues --    1.66685   1.66788   1.66875   1.66927   1.67171
 Alpha virt. eigenvalues --    1.67262   1.67802   1.67954   1.68217   1.68263
 Alpha virt. eigenvalues --    1.68344   1.68661   1.68836   1.69447   1.69591
 Alpha virt. eigenvalues --    1.69752   1.70034   1.70126   1.70302   1.70596
 Alpha virt. eigenvalues --    1.70717   1.70860   1.71214   1.71359   1.71525
 Alpha virt. eigenvalues --    1.71639   1.72053   1.72179   1.72546   1.72777
 Alpha virt. eigenvalues --    1.72905   1.72995   1.73193   1.73254   1.73450
 Alpha virt. eigenvalues --    1.73744   1.73769   1.74124   1.74416   1.74551
 Alpha virt. eigenvalues --    1.74776   1.74835   1.74866   1.75005   1.75157
 Alpha virt. eigenvalues --    1.75392   1.75616   1.75803   1.75877   1.76070
 Alpha virt. eigenvalues --    1.76290   1.76344   1.76412   1.76823   1.76939
 Alpha virt. eigenvalues --    1.76999   1.77525   1.77743   1.77946   1.78155
 Alpha virt. eigenvalues --    1.78347   1.78610   1.78783   1.79041   1.79285
 Alpha virt. eigenvalues --    1.79422   1.79687   1.79912   1.80444   1.80730
 Alpha virt. eigenvalues --    1.80925   1.81088   1.81380   1.81627   1.81881
 Alpha virt. eigenvalues --    1.82048   1.82070   1.82413   1.82526   1.82858
 Alpha virt. eigenvalues --    1.83018   1.83513   1.83699   1.83968   1.84126
 Alpha virt. eigenvalues --    1.84201   1.84278   1.84512   1.85150   1.85266
 Alpha virt. eigenvalues --    1.85435   1.85716   1.86109   1.86484   1.86623
 Alpha virt. eigenvalues --    1.86862   1.86889   1.87363   1.87496   1.87683
 Alpha virt. eigenvalues --    1.88510   1.88730   1.88889   1.89100   1.89208
 Alpha virt. eigenvalues --    1.89331   1.89808   1.90060   1.90424   1.90652
 Alpha virt. eigenvalues --    1.90870   1.91288   1.91524   1.91809   1.91885
 Alpha virt. eigenvalues --    1.92291   1.92651   1.92911   1.93343   1.93410
 Alpha virt. eigenvalues --    1.93714   1.93882   1.94035   1.94162   1.94465
 Alpha virt. eigenvalues --    1.94909   1.95105   1.95721   1.95900   1.96377
 Alpha virt. eigenvalues --    1.96528   1.96725   1.97351   1.97709   1.97764
 Alpha virt. eigenvalues --    1.97901   1.98159   1.98677   1.98919   1.99356
 Alpha virt. eigenvalues --    1.99869   2.00345   2.00670   2.01079   2.01183
 Alpha virt. eigenvalues --    2.01263   2.01768   2.01950   2.02032   2.02338
 Alpha virt. eigenvalues --    2.02527   2.02981   2.03186   2.03901   2.04199
 Alpha virt. eigenvalues --    2.04374   2.04562   2.04792   2.04873   2.05241
 Alpha virt. eigenvalues --    2.05835   2.05960   2.06038   2.06483   2.06497
 Alpha virt. eigenvalues --    2.07167   2.07467   2.07660   2.08178   2.08292
 Alpha virt. eigenvalues --    2.08552   2.08952   2.09563   2.09947   2.10728
 Alpha virt. eigenvalues --    2.11063   2.11628   2.11955   2.12522   2.12664
 Alpha virt. eigenvalues --    2.12864   2.13297   2.14171   2.14932   2.15290
 Alpha virt. eigenvalues --    2.16505   2.16764   2.17046   2.17316   2.17842
 Alpha virt. eigenvalues --    2.18094   2.18407   2.18944   2.19198   2.19249
 Alpha virt. eigenvalues --    2.19475   2.20260   2.20444   2.20497   2.20659
 Alpha virt. eigenvalues --    2.21190   2.21509   2.21767   2.22359   2.22553
 Alpha virt. eigenvalues --    2.22975   2.23101   2.23762   2.23909   2.24836
 Alpha virt. eigenvalues --    2.25127   2.25269   2.25624   2.26160   2.26377
 Alpha virt. eigenvalues --    2.26689   2.26898   2.27318   2.27783   2.28102
 Alpha virt. eigenvalues --    2.28628   2.28706   2.29241   2.29281   2.29424
 Alpha virt. eigenvalues --    2.30044   2.30380   2.30629   2.31151   2.31198
 Alpha virt. eigenvalues --    2.31520   2.31690   2.32415   2.32738   2.33254
 Alpha virt. eigenvalues --    2.33651   2.34031   2.34105   2.34769   2.34969
 Alpha virt. eigenvalues --    2.35521   2.36156   2.36547   2.36814   2.37024
 Alpha virt. eigenvalues --    2.37310   2.38618   2.39004   2.39187   2.39310
 Alpha virt. eigenvalues --    2.39975   2.40014   2.40515   2.40619   2.40791
 Alpha virt. eigenvalues --    2.41526   2.41883   2.42274   2.42440   2.43051
 Alpha virt. eigenvalues --    2.43770   2.44265   2.45063   2.45276   2.45375
 Alpha virt. eigenvalues --    2.45859   2.46637   2.47003   2.47110   2.47668
 Alpha virt. eigenvalues --    2.47980   2.48296   2.48708   2.48736   2.48788
 Alpha virt. eigenvalues --    2.49205   2.49502   2.49535   2.50387   2.51129
 Alpha virt. eigenvalues --    2.51284   2.52019   2.52632   2.52941   2.53043
 Alpha virt. eigenvalues --    2.53486   2.53721   2.53895   2.54691   2.54830
 Alpha virt. eigenvalues --    2.55156   2.55527   2.55925   2.56272   2.56547
 Alpha virt. eigenvalues --    2.56590   2.57473   2.58168   2.58350   2.58995
 Alpha virt. eigenvalues --    2.59267   2.59383   2.60230   2.60848   2.61164
 Alpha virt. eigenvalues --    2.61557   2.61823   2.62143   2.62155   2.62524
 Alpha virt. eigenvalues --    2.63202   2.63519   2.64086   2.64248   2.64518
 Alpha virt. eigenvalues --    2.64954   2.65384   2.65541   2.65678   2.66288
 Alpha virt. eigenvalues --    2.66717   2.67289   2.67857   2.68458   2.68574
 Alpha virt. eigenvalues --    2.69051   2.69482   2.70325   2.70467   2.71561
 Alpha virt. eigenvalues --    2.71988   2.72315   2.72613   2.74209   2.74295
 Alpha virt. eigenvalues --    2.74600   2.75263   2.75635   2.75731   2.76543
 Alpha virt. eigenvalues --    2.76965   2.77151   2.77531   2.77546   2.78656
 Alpha virt. eigenvalues --    2.79810   2.80235   2.80250   2.80573   2.81026
 Alpha virt. eigenvalues --    2.81627   2.81786   2.81979   2.82279   2.82793
 Alpha virt. eigenvalues --    2.83269   2.83371   2.83412   2.83793   2.84128
 Alpha virt. eigenvalues --    2.84612   2.84859   2.85051   2.85099   2.85544
 Alpha virt. eigenvalues --    2.85788   2.86443   2.86549   2.86822   2.87038
 Alpha virt. eigenvalues --    2.87362   2.87547   2.87682   2.87856   2.88321
 Alpha virt. eigenvalues --    2.88480   2.88589   2.88958   2.89618   2.89718
 Alpha virt. eigenvalues --    2.90169   2.90422   2.90775   2.90916   2.91338
 Alpha virt. eigenvalues --    2.91730   2.91836   2.92425   2.92812   2.92911
 Alpha virt. eigenvalues --    2.93160   2.93842   2.94281   2.94533   2.94636
 Alpha virt. eigenvalues --    2.94733   2.95238   2.95636   2.95886   2.96338
 Alpha virt. eigenvalues --    2.96661   2.97009   2.97554   2.97950   2.98185
 Alpha virt. eigenvalues --    2.98804   2.98830   3.00574   3.01098   3.01306
 Alpha virt. eigenvalues --    3.01447   3.01575   3.03710   3.04403   3.04767
 Alpha virt. eigenvalues --    3.05133   3.05272   3.06395   3.06617   3.06943
 Alpha virt. eigenvalues --    3.09573   3.10596   3.11712   3.12308   3.12896
 Alpha virt. eigenvalues --    3.14336   3.15254   3.27679   3.27898   3.29902
 Alpha virt. eigenvalues --    3.30267   3.33410   3.35194   3.37533   3.41430
 Alpha virt. eigenvalues --    3.44483   3.46270   3.52470   3.53032   3.54299
 Alpha virt. eigenvalues --    3.55597   3.57597
          Condensed to atoms (all electrons):
 Mulliken charges:
               1
     1  Mg   0.673423
     2  C    0.033874
     3  C   -0.074295
     4  C   -0.031116
     5  C   -0.032153
     6  N   -0.238061
     7  C   -0.119696
     8  C    0.091105
     9  C   -0.029824
    10  C    0.014287
    11  C    0.138669
    12  C    0.083608
    13  C    0.142369
    14  C    0.095986
    15  O   -0.210576
    16  O   -0.223063
    17  N   -0.341254
    18  C    0.196125
    19  C   -0.171894
    20  C    0.030280
    21  C    0.126832
    22  C    0.154422
    23  C   -0.086334
    24  O   -0.169257
    25  C    0.153851
    26  N   -0.177679
    27  C   -0.007548
    28  C   -0.028605
    29  C    0.075032
    30  C   -0.035076
    31  C    0.114237
    32  C    0.086884
    33  C    0.076140
    34  N   -0.261880
    35  C    0.086397
    36  C   -0.170547
    37  C    0.083753
    38  C    0.108443
    39  C    0.166363
    40  C   -0.063622
    41  O   -0.150493
    42  C    0.026392
    43  C    0.142247
    44  O   -0.175458
    45  O   -0.266689
    46  C    0.208213
    47  C    0.340053
    48  C   -0.122986
    49  C   -0.188498
    50  C    0.163752
    51  C    0.123925
    52  C    0.056549
    53  C    0.115091
    54  C   -0.056434
    55  C    0.105816
    56  C    0.096175
    57  C    0.074108
    58  C    0.122942
    59  C   -0.087510
    60  C    0.089161
    61  C    0.136407
    62  C    0.084289
    63  C    0.106829
    64  C   -0.095777
    65  C    0.083749
    66  C    0.095320
    67  H   -0.068239
    68  H   -0.044224
    69  H   -0.055491
    70  H   -0.031958
    71  H   -0.020283
    72  H   -0.013319
    73  H   -0.014340
    74  H   -0.004830
    75  H    0.022024
    76  H   -0.012791
    77  H   -0.023204
    78  H    0.001084
    79  H   -0.004610
    80  H    0.030179
    81  H    0.003435
    82  H    0.000614
    83  H    0.028467
    84  H   -0.004589
    85  H   -0.017430
    86  H   -0.016479
    87  H   -0.011318
    88  H   -0.007479
    89  H    0.004227
    90  H   -0.031077
    91  H   -0.028859
    92  H   -0.003905
    93  H   -0.002603
    94  H   -0.004732
    95  H    0.008077
    96  H   -0.012978
    97  H    0.007963
    98  H    0.011643
    99  H    0.016076
   100  H    0.022063
   101  H    0.012604
   102  H    0.009365
   103  H   -0.021818
   104  H   -0.045003
   105  H   -0.008336
   106  H   -0.018952
   107  H    0.019063
   108  H   -0.021606
   109  H   -0.031967
   110  H   -0.030613
   111  H   -0.032687
   112  H   -0.028304
   113  H   -0.026269
   114  H   -0.043942
   115  H   -0.023324
   116  H   -0.019434
   117  H   -0.018840
   118  H   -0.034398
   119  H   -0.048449
   120  H   -0.010169
   121  H   -0.030450
   122  H   -0.042657
   123  H   -0.036847
   124  H   -0.037501
   125  H   -0.031544
   126  H   -0.019113
   127  H   -0.027547
   128  H   -0.034397
   129  H   -0.034648
   130  H   -0.046287
   131  H   -0.027930
   132  H   -0.043292
   133  H   -0.038376
   134  H   -0.033470
   135  H   -0.020018
   136  H   -0.005936
   137  H   -0.013073
   138  H   -0.012423
   139  H   -0.024228
   140  H   -0.025069
 Sum of Mulliken charges =  -0.00000
 Mulliken charges with hydrogens summed into heavy atoms:
               1
     1  Mg   0.673423
     2  C    0.033874
     3  C   -0.142534
     4  C   -0.075341
     5  C   -0.087645
     6  N   -0.238061
     7  C   -0.119696
     8  C    0.059147
     9  C   -0.050107
    10  C    0.014287
    11  C    0.106180
    12  C    0.092841
    13  C    0.120249
    14  C    0.095986
    15  O   -0.210576
    16  O   -0.223063
    17  N   -0.341254
    18  C    0.196125
    19  C   -0.171894
    20  C    0.030280
    21  C    0.126832
    22  C    0.183425
    23  C   -0.086334
    24  O   -0.169257
    25  C    0.178343
    26  N   -0.177679
    27  C   -0.007548
    28  C   -0.046036
    29  C    0.058553
    30  C   -0.035076
    31  C    0.099666
    32  C    0.026948
    33  C    0.064899
    34  N   -0.261880
    35  C    0.086397
    36  C   -0.170547
    37  C    0.083753
    38  C    0.108443
    39  C    0.169426
    40  C   -0.063622
    41  O   -0.150493
    42  C    0.038035
    43  C    0.142247
    44  O   -0.175458
    45  O   -0.266689
    46  C    0.258956
    47  C    0.327600
    48  C   -0.167988
    49  C   -0.188498
    50  C    0.155526
    51  C    0.070353
    52  C   -0.006751
    53  C    0.060518
    54  C   -0.100376
    55  C    0.044218
    56  C    0.013328
    57  C    0.033489
    58  C    0.043437
    59  C   -0.125010
    60  C    0.010957
    61  C    0.067362
    62  C    0.010072
    63  C    0.025161
    64  C   -0.129246
    65  C    0.044723
    66  C    0.033600
 Electronic spatial extent (au):  <R**2>=         133601.8229
 Charge=             -0.0000 electrons
 Dipole moment (field-independent basis, Debye):
    X=             -2.9678    Y=              1.4742    Z=             -2.5254  Tot=              4.1664
 Quadrupole moment (field-independent basis, Debye-Ang):
   XX=           -388.7046   YY=           -413.7819   ZZ=           -398.5626
   XY=             10.3048   XZ=             11.4517   YZ=             -2.9030
 Traceless Quadrupole moment (field-independent basis, Debye-Ang):
   XX=             11.6451   YY=            -13.4322   ZZ=              1.7871
   XY=             10.3048   XZ=             11.4517   YZ=             -2.9030
 Octapole moment (field-independent basis, Debye-Ang**2):
  XXX=            184.0057  YYY=             82.2120  ZZZ=              8.6599  XYY=           -215.8816
  XXY=           -200.5897  XXZ=            173.4280  XZZ=             78.4271  YZZ=             10.3051
  YYZ=            -39.5987  XYZ=             11.1332
 Hexadecapole moment (field-independent basis, Debye-Ang**3):
 XXXX=        -152172.2852 YYYY=         -24789.7973 ZZZZ=          -8391.4349 XXXY=          -1441.6558
 XXXZ=           1754.8351 YYYX=            656.9778 YYYZ=           -378.1880 ZZZX=             25.5200
 ZZZY=           -170.8498 XXYY=         -30863.2119 XXZZ=         -26759.7345 YYZZ=          -5234.1626
 XXYZ=             31.6086 YYXZ=           -233.8254 ZZXY=            133.2574
 N-N= 9.320855366278D+03 E-N=-2.563702193598D+04  KE= 2.977117626477D+03
 Leave Link  601 at Wed May  4 04:47:36 2022, MaxMem= 10066329600 cpu:              10.1 elap:               0.5
 (Enter /sw/apps/gaussian-16.0/g16/l9999.exe)
 1\1\GINC-BP1-COMPUTE089\SP\RBLYP TD-FC\def2SVP\C55H74Mg1N4O6\OF15641\0
 4-May-2022\0\\#p blyp/Def2SVP td=(nstates=5)\\step_1351_chromophore_22
  TDDFT with blyp functional\\0,1\Mg,0,8.805,47.945,24.884\C,0,6.641,47
 .916,27.515\C,0,11.293,49.297,26.836\C,0,10.81,47.591,22.353\C,0,5.959
 ,47.534,22.724\N,0,8.891,48.616,26.942\C,0,7.829,48.49,27.868\C,0,8.32
 ,49.017,29.201\C,0,9.785,49.643,28.849\C,0,10.,49.193,27.427\C,0,9.846
 ,51.159,29.042\C,0,8.228,47.94,30.354\C,0,9.185,48.108,31.529\C,0,8.92
 5,47.022,32.677\O,0,9.137,45.8,32.483\O,0,8.449,47.617,33.807\N,0,10.7
 74,48.429,24.62\C,0,11.681,48.897,25.587\C,0,13.051,48.844,25.012\C,0,
 12.913,48.486,23.613\C,0,11.487,48.181,23.436\C,0,14.267,49.304,25.926
 \C,0,14.037,48.268,22.559\O,0,13.698,47.989,21.408\C,0,15.461,48.373,2
 2.947\N,0,8.449,47.968,22.674\C,0,9.484,47.534,21.979\C,0,9.038,46.9,2
 0.612\C,0,7.473,47.046,20.642\C,0,7.283,47.489,22.109\C,0,9.672,47.585
 ,19.35\C,0,6.691,45.786,20.094\C,0,5.786,45.994,18.881\N,0,6.713,47.73
 5,25.032\C,0,5.668,47.568,24.113\C,0,4.385,47.383,24.832\C,0,4.71,47.5
 41,26.183\C,0,6.16,47.689,26.265\C,0,3.027,47.22,24.085\C,0,4.187,47.5
 92,27.569\O,0,3.02,47.401,27.963\C,0,5.38,47.748,28.509\C,0,5.401,46.5
 25,29.33\O,0,6.214,45.604,29.277\O,0,4.443,46.688,30.287\C,0,4.405,45.
 786,31.472\C,0,8.227,46.865,34.964\C,0,8.852,47.441,36.191\C,0,8.662,4
 7.204,37.539\C,0,7.637,46.278,38.07\C,0,9.488,47.926,38.606\C,0,10.738
 ,47.116,39.041\C,0,11.353,47.766,40.267\C,0,11.725,46.72,41.392\C,0,11
 .693,47.404,42.762\C,0,12.992,45.879,41.049\C,0,12.882,44.326,41.067\C
 ,0,12.94,43.872,42.541\C,0,14.232,43.102,42.848\C,0,14.732,43.378,44.2
 96\C,0,14.149,41.632,42.63\C,0,15.488,41.056,42.068\C,0,15.353,40.627,
 40.601\C,0,16.279,41.307,39.574\C,0,15.431,41.666,38.309\C,0,17.472,40
 .383,39.147\H,0,12.028,49.616,27.578\H,0,11.468,47.259,21.547\H,0,5.18
 8,47.127,22.066\H,0,7.59,49.815,29.335\H,0,10.588,49.177,29.421\H,0,10
 .477,51.479,29.871\H,0,8.823,51.471,29.257\H,0,10.246,51.694,28.181\H,
 0,8.322,46.994,29.819\H,0,7.271,48.036,30.866\H,0,8.989,49.086,31.968\
 H,0,10.21,48.032,31.167\H,0,13.989,49.32,26.98\H,0,14.588,50.272,25.54
 1\H,0,15.011,48.517,25.806\H,0,16.047,48.573,22.05\H,0,15.7,47.428,23.
 435\H,0,15.588,49.228,23.612\H,0,9.325,45.848,20.627\H,0,7.283,47.929,
 20.031\H,0,9.013,48.072,18.63\H,0,10.239,46.824,18.814\H,0,10.353,48.3
 71,19.674\H,0,6.054,45.449,20.911\H,0,7.373,44.94,20.\H,0,4.803,45.631
 ,19.18\H,0,6.178,45.419,18.042\H,0,5.728,47.041,18.582\H,0,2.224,46.93
 7,24.765\H,0,3.124,46.376,23.402\H,0,2.775,48.061,23.438\H,0,5.133,48.
 612,29.126\H,0,4.519,46.275,32.44\H,0,5.075,44.926,31.471\H,0,3.434,45
 .292,31.47\H,0,8.36,45.786,35.046\H,0,7.148,46.954,35.093\H,0,9.572,48
 .216,35.927\H,0,6.735,46.457,37.486\H,0,7.376,46.572,39.087\H,0,8.016,
 45.259,37.995\H,0,8.857,48.159,39.464\H,0,9.943,48.805,38.149\H,0,11.4
 75,47.094,38.239\H,0,10.429,46.079,39.174\H,0,10.651,48.516,40.632\H,0
 ,12.292,48.205,39.93\H,0,10.899,46.01,41.434\H,0,11.862,48.472,42.625\
 H,0,12.442,47.064,43.477\H,0,10.742,47.287,43.283\H,0,13.847,46.126,41
 .677\H,0,13.265,46.19,40.041\H,0,13.697,43.967,40.438\H,0,11.954,43.93
 2,40.652\H,0,12.096,43.232,42.797\H,0,12.854,44.714,43.229\H,0,15.09,4
 3.466,42.283\H,0,15.472,44.177,44.323\H,0,15.143,42.479,44.754\H,0,14.
 016,43.829,44.983\H,0,13.31,41.525,41.942\H,0,13.93,41.073,43.539\H,0,
 15.75,40.154,42.622\H,0,16.387,41.667,42.148\H,0,14.355,40.842,40.221\
 H,0,15.558,39.559,40.517\H,0,16.661,42.202,40.064\H,0,14.617,42.32,38.
 619\H,0,14.924,40.856,37.785\H,0,16.138,42.212,37.683\H,0,17.466,39.33
 4,39.443\H,0,18.362,40.856,39.562\H,0,17.711,40.349,38.084\\Version=ES
 64L-G16RevA.03\State=1-A\HF=-3007.3733601\RMSD=4.528e-09\PG=C01 [X(C55
 H74Mg1N4O6)]\\@


 EVANS BOLDLY PUT 50 ATM. OF ETHYLENE IN A CELL WITH 25 ATM. OF OXYGEN.
 THE APPARATUS SUBSEQUENTLY BLEW UP, BUT LUCKILY NOT BEFORE HE
 OBTAINED THE SPECTRA SHOWN IN FIGURE 8.
 A.J.MERER AND R.S.MULLIKEN, CHEM.REV. 69, 645 (1969)
 Job cpu time:       0 days  4 hours 27 minutes 40.5 seconds.
 Elapsed time:       0 days  0 hours 11 minutes 11.9 seconds.
 File lengths (MBytes):  RWF=   8011 Int=      0 D2E=      0 Chk=    390 Scr=      1
 Normal termination of Gaussian 16 at Wed May  4 04:47:36 2022.
