 Entering Gaussian System, Link 0=g16
 Initial command:
 /sw/apps/gaussian-16.0/g16/l1.exe "/tmp/Gau-67467.inp" -scrdir="/tmp/"
 Entering Link 1 = /sw/apps/gaussian-16.0/g16/l1.exe PID=     67468.
  
 Copyright (c) 1988,1990,1992,1993,1995,1998,2003,2009,2016,
            Gaussian, Inc.  All Rights Reserved.
  
 This is part of the Gaussian(R) 16 program.  It is based on
 the Gaussian(R) 09 system (copyright 2009, Gaussian, Inc.),
 the Gaussian(R) 03 system (copyright 2003, Gaussian, Inc.),
 the Gaussian(R) 98 system (copyright 1998, Gaussian, Inc.),
 the Gaussian(R) 94 system (copyright 1995, Gaussian, Inc.),
 the Gaussian 92(TM) system (copyright 1992, Gaussian, Inc.),
 the Gaussian 90(TM) system (copyright 1990, Gaussian, Inc.),
 the Gaussian 88(TM) system (copyright 1988, Gaussian, Inc.),
 the Gaussian 86(TM) system (copyright 1986, Carnegie Mellon
 University), and the Gaussian 82(TM) system (copyright 1983,
 Carnegie Mellon University). Gaussian is a federally registered
 trademark of Gaussian, Inc.
  
 This software contains proprietary and confidential information,
 including trade secrets, belonging to Gaussian, Inc.
  
 This software is provided under written license and may be
 used, copied, transmitted, or stored only in accord with that
 written license.
  
 The following legend is applicable only to US Government
 contracts under FAR:
  
                    RESTRICTED RIGHTS LEGEND
  
 Use, reproduction and disclosure by the US Government is
 subject to restrictions as set forth in subparagraphs (a)
 and (c) of the Commercial Computer Software - Restricted
 Rights clause in FAR 52.227-19.
  
 Gaussian, Inc.
 340 Quinnipiac St., Bldg. 40, Wallingford CT 06492
  
  
 ---------------------------------------------------------------
 Warning -- This program may not be used in any manner that
 competes with the business of Gaussian, Inc. or will provide
 assistance to any competitor of Gaussian, Inc.  The licensee
 of this program is prohibited from giving any competitor of
 Gaussian, Inc. access to this program.  By using this program,
 the user acknowledges that Gaussian, Inc. is engaged in the
 business of creating and licensing software in the field of
 computational chemistry and represents and warrants to the
 licensee that it is not a competitor of Gaussian, Inc. and that
 it will not use this program in any manner prohibited above.
 ---------------------------------------------------------------
  

 Cite this work as:
 Gaussian 16, Revision A.03,
 M. J. Frisch, G. W. Trucks, H. B. Schlegel, G. E. Scuseria, 
 M. A. Robb, J. R. Cheeseman, G. Scalmani, V. Barone, 
 G. A. Petersson, H. Nakatsuji, X. Li, M. Caricato, A. V. Marenich, 
 J. Bloino, B. G. Janesko, R. Gomperts, B. Mennucci, H. P. Hratchian, 
 J. V. Ortiz, A. F. Izmaylov, J. L. Sonnenberg, D. Williams-Young, 
 F. Ding, F. Lipparini, F. Egidi, J. Goings, B. Peng, A. Petrone, 
 T. Henderson, D. Ranasinghe, V. G. Zakrzewski, J. Gao, N. Rega, 
 G. Zheng, W. Liang, M. Hada, M. Ehara, K. Toyota, R. Fukuda, 
 J. Hasegawa, M. Ishida, T. Nakajima, Y. Honda, O. Kitao, H. Nakai, 
 T. Vreven, K. Throssell, J. A. Montgomery, Jr., J. E. Peralta, 
 F. Ogliaro, M. J. Bearpark, J. J. Heyd, E. N. Brothers, K. N. Kudin, 
 V. N. Staroverov, T. A. Keith, R. Kobayashi, J. Normand, 
 K. Raghavachari, A. P. Rendell, J. C. Burant, S. S. Iyengar, 
 J. Tomasi, M. Cossi, J. M. Millam, M. Klene, C. Adamo, R. Cammi, 
 J. W. Ochterski, R. L. Martin, K. Morokuma, O. Farkas, 
 J. B. Foresman, and D. J. Fox, Gaussian, Inc., Wallingford CT, 2016.
 
 ******************************************
 Gaussian 16:  ES64L-G16RevA.03 25-Dec-2016
                 4-May-2022 
 ******************************************
 %nproc=24
 Will use up to   24 processors via shared memory.
 %mem=75GB
 ---------------------------------
 #p PBE1PBE/Def2SVP td=(nstates=5)
 ---------------------------------
 1/38=1,172=1/1;
 2/12=2,17=6,18=5,40=1/2;
 3/5=43,7=101,11=9,25=1,30=1,74=-13/1,2,3,8;
 4//1;
 5/5=2,38=5/2;
 8/6=1,10=1,108=5/1;
 9/41=5,42=1,70=2/14;
 6/7=2,8=2,9=2,10=2/1;
 99/5=1,9=1/99;
 Leave Link    1 at Wed May  4 13:03:41 2022, MaxMem= 10066329600 cpu:               1.0 elap:               0.0
 (Enter /sw/apps/gaussian-16.0/g16/l101.exe)
 ------------------------------------------------------
 step_1751_chromophore_27 TDDFT with PBE1PBE functional
 ------------------------------------------------------
 Symbolic Z-matrix:
 Charge =  0 Multiplicity = 1
 Mg                   -5.722     25.286    26.529 
 C                    -4.        27.315    28.885 
 C                    -6.548     23.12     29.077 
 C                    -6.839     23.273    24.235 
 C                    -4.068     27.186    24.045 
 N                    -5.32      25.305    28.663 
 C                    -4.62      26.238    29.416 
 C                    -4.91      26.001    30.928 
 C                    -5.379     24.461    30.957 
 C                    -5.824     24.297    29.509 
 C                    -4.255     23.308    31.19 
 C                    -5.965     26.983    31.559 
 C                    -5.694     27.504    32.921 
 C                    -6.735     27.138    34.017 
 O                    -7.819     27.712    34.271 
 O                    -6.423     25.995    34.635 
 N                    -6.812     23.627    26.627 
 C                    -6.998     22.809    27.781 
 C                    -7.813     21.712    27.403 
 C                    -8.062     21.839    25.995 
 C                    -7.233     22.95     25.537 
 C                    -8.299     20.748    28.436 
 C                    -9.077     21.053    25.174 
 O                    -9.25      21.344    24.012 
 C                    -9.64      19.773    25.785 
 N                    -5.377     25.177    24.484 
 C                    -5.994     24.249    23.709 
 C                    -5.849     24.469    22.214 
 C                    -4.811     25.638    22.176 
 C                    -4.723     26.039    23.632 
 C                    -5.248     23.205    21.566 
 C                    -5.377     26.81     21.365 
 C                    -4.5       27.226    20.139 
 N                    -4.482     27.076    26.413 
 C                    -3.834     27.676    25.364 
 C                    -3.042     28.853    25.851 
 C                    -3.15      28.768    27.239 
 C                    -3.93      27.624    27.526 
 C                    -2.314     29.783    25.005 
 C                    -2.782     29.399    28.474 
 O                    -2.078     30.377    28.613 
 C                    -3.358     28.467    29.707 
 C                    -2.279     28.065    30.529 
 O                    -1.327     27.354    30.129 
 O                    -2.439     28.554    31.797 
 C                    -1.518     27.891    32.772 
 C                    -7.054     25.783    35.973 
 C                    -7.95      24.637    35.979 
 C                    -8.179     23.647    36.972 
 C                    -7.745     23.588    38.398 
 C                    -9.059     22.463    36.684 
 C                    -10.519    22.615    37.142 
 C                    -10.936    21.578    38.226 
 C                    -12.085    20.66     37.87 
 C                    -13.407    21.423    38.157 
 C                    -12.057    19.311    38.643 
 C                    -11.639    18.218    37.706 
 C                    -11.16     16.952    38.595 
 C                    -9.683     16.914    38.597 
 C                    -9.037     17.799    39.739 
 C                    -9.151     15.486    38.758 
 C                    -7.804     15.216    38.14 
 C                    -6.618     15.36     39.128 
 C                    -5.345     14.607    38.749 
 C                    -4.45      14.248    39.975 
 C                    -4.504     15.263    37.633 
 H                    -6.891     22.559    29.948 
 H                    -7.26      22.488    23.604 
 H                    -3.463     27.822    23.395 
 H                    -3.91      26.025    31.363 
 H                    -6.21      24.41     31.66 
 H                    -3.324     23.843    31.376 
 H                    -4.219     22.584    30.376 
 H                    -4.6       22.822    32.103 
 H                    -6.951     26.521    31.601 
 H                    -6.125     27.819    30.878 
 H                    -5.491     28.575    32.941 
 H                    -4.75      27.055    33.227 
 H                    -9.23      21.016    28.934 
 H                    -7.579     20.637    29.247 
 H                    -8.482     19.689    28.253 
 H                    -10.131    20.089    26.705 
 H                    -8.798     19.197    26.168 
 H                    -10.477    19.228    25.346 
 H                    -6.817     24.781    21.821 
 H                    -3.767     25.409    21.96 
 H                    -4.778     22.633    22.366 
 H                    -4.505     23.408    20.795 
 H                    -5.952     22.54     21.065 
 H                    -5.609     27.678    21.982 
 H                    -6.357     26.641    20.918 
 H                    -4.076     28.229    20.18 
 H                    -5.097     27.318    19.231 
 H                    -3.686     26.538    19.915 
 H                    -2.133     30.785    25.393 
 H                    -2.663     29.847    23.975 
 H                    -1.347     29.28     24.995 
 H                    -4.207     28.931    30.21 
 H                    -1.872     28.207    33.753 
 H                    -0.476     28.212    32.773 
 H                    -1.542     26.805    32.675 
 H                    -7.586     26.633    36.403 
 H                    -6.259     25.584    36.692 
 H                    -8.403     24.412    35.014 
 H                    -7.189     22.679    38.63 
 H                    -8.665     23.715    38.967 
 H                    -7.04      24.365    38.692 
 H                    -8.679     21.541    37.122 
 H                    -8.989     22.366    35.6 
 H                    -11.117    22.438    36.249 
 H                    -10.779    23.613    37.496 
 H                    -11.187    22.14     39.126 
 H                    -10.125    20.88     38.437 
 H                    -12.038    20.5      36.793 
 H                    -13.914    20.989    39.019 
 H                    -14.2      21.443    37.409 
 H                    -13.223    22.435    38.518 
 H                    -13.01     18.969    39.045 
 H                    -11.517    19.36     39.588 
 H                    -10.842    18.571    37.053 
 H                    -12.482    17.954    37.068 
 H                    -11.599    16.018    38.243 
 H                    -11.53     17.107    39.608 
 H                    -9.214     17.337    37.709 
 H                    -9.477     17.56     40.707 
 H                    -9.111     18.837    39.414 
 H                    -7.961     17.729    39.899 
 H                    -9.851     14.795    38.288 
 H                    -9.058     15.27     39.822 
 H                    -7.547     16.001    37.429 
 H                    -7.78      14.248    37.64 
 H                    -6.92      14.948    40.091 
 H                    -6.44      16.435    39.159 
 H                    -5.524     13.695    38.179 
 H                    -5.088     13.689    40.66 
 H                    -4.023     15.119    40.473 
 H                    -3.64      13.547    39.772 
 H                    -5.111     16.048    37.182 
 H                    -4.098     14.717    36.781 
 H                    -3.621     15.717    38.083 
 
 ITRead=  0  0  0  0  0  0  0  0  0  0  0  0  0  0  0  0  0  0  0  0
 ITRead=  0  0  0  0  0  0  0  0  0  0  0  0  0  0  0  0  0  0  0  0
 ITRead=  0  0  0  0  0  0  0  0  0  0  0  0  0  0  0  0  0  0  0  0
 ITRead=  0  0  0  0  0  0  0  0  0  0  0  0  0  0  0  0  0  0  0  0
 ITRead=  0  0  0  0  0  0  0  0  0  0  0  0  0  0  0  0  0  0  0  0
 ITRead=  0  0  0  0  0  0  0  0  0  0  0  0  0  0  0  0  0  0  0  0
 ITRead=  0  0  0  0  0  0  0  0  0  0  0  0  0  0  0  0  0  0  0  0
 MicOpt= -1 -1 -1 -1 -1 -1 -1 -1 -1 -1 -1 -1 -1 -1 -1 -1 -1 -1 -1 -1
 MicOpt= -1 -1 -1 -1 -1 -1 -1 -1 -1 -1 -1 -1 -1 -1 -1 -1 -1 -1 -1 -1
 MicOpt= -1 -1 -1 -1 -1 -1 -1 -1 -1 -1 -1 -1 -1 -1 -1 -1 -1 -1 -1 -1
 MicOpt= -1 -1 -1 -1 -1 -1 -1 -1 -1 -1 -1 -1 -1 -1 -1 -1 -1 -1 -1 -1
 MicOpt= -1 -1 -1 -1 -1 -1 -1 -1 -1 -1 -1 -1 -1 -1 -1 -1 -1 -1 -1 -1
 MicOpt= -1 -1 -1 -1 -1 -1 -1 -1 -1 -1 -1 -1 -1 -1 -1 -1 -1 -1 -1 -1
 MicOpt= -1 -1 -1 -1 -1 -1 -1 -1 -1 -1 -1 -1 -1 -1 -1 -1 -1 -1 -1 -1
 NAtoms=    140 NQM=      140 NQMF=       0 NMMI=      0 NMMIF=      0
                NMic=       0 NMicF=      0.
                    Isotopes and Nuclear Properties:
 (Nuclear quadrupole moments (NQMom) in fm**2, nuclear magnetic moments (NMagM)
  in nuclear magnetons)

  Atom         1           2           3           4           5           6           7           8           9          10
 IAtWgt=          24          12          12          12          12          14          12          12          12          12
 AtmWgt=  23.9850450  12.0000000  12.0000000  12.0000000  12.0000000  14.0030740  12.0000000  12.0000000  12.0000000  12.0000000
 NucSpn=           0           0           0           0           0           2           0           0           0           0
 AtZEff=  -0.0000000  -0.0000000  -0.0000000  -0.0000000  -0.0000000  -0.0000000  -0.0000000  -0.0000000  -0.0000000  -0.0000000
 NQMom=    0.0000000   0.0000000   0.0000000   0.0000000   0.0000000   2.0440000   0.0000000   0.0000000   0.0000000   0.0000000
 NMagM=    0.0000000   0.0000000   0.0000000   0.0000000   0.0000000   0.4037610   0.0000000   0.0000000   0.0000000   0.0000000
 AtZNuc=  12.0000000   6.0000000   6.0000000   6.0000000   6.0000000   7.0000000   6.0000000   6.0000000   6.0000000   6.0000000

  Atom        11          12          13          14          15          16          17          18          19          20
 IAtWgt=          12          12          12          12          16          16          14          12          12          12
 AtmWgt=  12.0000000  12.0000000  12.0000000  12.0000000  15.9949146  15.9949146  14.0030740  12.0000000  12.0000000  12.0000000
 NucSpn=           0           0           0           0           0           0           2           0           0           0
 AtZEff=  -0.0000000  -0.0000000  -0.0000000  -0.0000000  -0.0000000  -0.0000000  -0.0000000  -0.0000000  -0.0000000  -0.0000000
 NQMom=    0.0000000   0.0000000   0.0000000   0.0000000   0.0000000   0.0000000   2.0440000   0.0000000   0.0000000   0.0000000
 NMagM=    0.0000000   0.0000000   0.0000000   0.0000000   0.0000000   0.0000000   0.4037610   0.0000000   0.0000000   0.0000000
 AtZNuc=   6.0000000   6.0000000   6.0000000   6.0000000   8.0000000   8.0000000   7.0000000   6.0000000   6.0000000   6.0000000

  Atom        21          22          23          24          25          26          27          28          29          30
 IAtWgt=          12          12          12          16          12          14          12          12          12          12
 AtmWgt=  12.0000000  12.0000000  12.0000000  15.9949146  12.0000000  14.0030740  12.0000000  12.0000000  12.0000000  12.0000000
 NucSpn=           0           0           0           0           0           2           0           0           0           0
 AtZEff=  -0.0000000  -0.0000000  -0.0000000  -0.0000000  -0.0000000  -0.0000000  -0.0000000  -0.0000000  -0.0000000  -0.0000000
 NQMom=    0.0000000   0.0000000   0.0000000   0.0000000   0.0000000   2.0440000   0.0000000   0.0000000   0.0000000   0.0000000
 NMagM=    0.0000000   0.0000000   0.0000000   0.0000000   0.0000000   0.4037610   0.0000000   0.0000000   0.0000000   0.0000000
 AtZNuc=   6.0000000   6.0000000   6.0000000   8.0000000   6.0000000   7.0000000   6.0000000   6.0000000   6.0000000   6.0000000

  Atom        31          32          33          34          35          36          37          38          39          40
 IAtWgt=          12          12          12          14          12          12          12          12          12          12
 AtmWgt=  12.0000000  12.0000000  12.0000000  14.0030740  12.0000000  12.0000000  12.0000000  12.0000000  12.0000000  12.0000000
 NucSpn=           0           0           0           2           0           0           0           0           0           0
 AtZEff=  -0.0000000  -0.0000000  -0.0000000  -0.0000000  -0.0000000  -0.0000000  -0.0000000  -0.0000000  -0.0000000  -0.0000000
 NQMom=    0.0000000   0.0000000   0.0000000   2.0440000   0.0000000   0.0000000   0.0000000   0.0000000   0.0000000   0.0000000
 NMagM=    0.0000000   0.0000000   0.0000000   0.4037610   0.0000000   0.0000000   0.0000000   0.0000000   0.0000000   0.0000000
 AtZNuc=   6.0000000   6.0000000   6.0000000   7.0000000   6.0000000   6.0000000   6.0000000   6.0000000   6.0000000   6.0000000

  Atom        41          42          43          44          45          46          47          48          49          50
 IAtWgt=          16          12          12          16          16          12          12          12          12          12
 AtmWgt=  15.9949146  12.0000000  12.0000000  15.9949146  15.9949146  12.0000000  12.0000000  12.0000000  12.0000000  12.0000000
 NucSpn=           0           0           0           0           0           0           0           0           0           0
 AtZEff=  -0.0000000  -0.0000000  -0.0000000  -0.0000000  -0.0000000  -0.0000000  -0.0000000  -0.0000000  -0.0000000  -0.0000000
 NQMom=    0.0000000   0.0000000   0.0000000   0.0000000   0.0000000   0.0000000   0.0000000   0.0000000   0.0000000   0.0000000
 NMagM=    0.0000000   0.0000000   0.0000000   0.0000000   0.0000000   0.0000000   0.0000000   0.0000000   0.0000000   0.0000000
 AtZNuc=   8.0000000   6.0000000   6.0000000   8.0000000   8.0000000   6.0000000   6.0000000   6.0000000   6.0000000   6.0000000

  Atom        51          52          53          54          55          56          57          58          59          60
 IAtWgt=          12          12          12          12          12          12          12          12          12          12
 AtmWgt=  12.0000000  12.0000000  12.0000000  12.0000000  12.0000000  12.0000000  12.0000000  12.0000000  12.0000000  12.0000000
 NucSpn=           0           0           0           0           0           0           0           0           0           0
 AtZEff=  -0.0000000  -0.0000000  -0.0000000  -0.0000000  -0.0000000  -0.0000000  -0.0000000  -0.0000000  -0.0000000  -0.0000000
 NQMom=    0.0000000   0.0000000   0.0000000   0.0000000   0.0000000   0.0000000   0.0000000   0.0000000   0.0000000   0.0000000
 NMagM=    0.0000000   0.0000000   0.0000000   0.0000000   0.0000000   0.0000000   0.0000000   0.0000000   0.0000000   0.0000000
 AtZNuc=   6.0000000   6.0000000   6.0000000   6.0000000   6.0000000   6.0000000   6.0000000   6.0000000   6.0000000   6.0000000

  Atom        61          62          63          64          65          66          67          68          69          70
 IAtWgt=          12          12          12          12          12          12           1           1           1           1
 AtmWgt=  12.0000000  12.0000000  12.0000000  12.0000000  12.0000000  12.0000000   1.0078250   1.0078250   1.0078250   1.0078250
 NucSpn=           0           0           0           0           0           0           1           1           1           1
 AtZEff=  -0.0000000  -0.0000000  -0.0000000  -0.0000000  -0.0000000  -0.0000000  -0.0000000  -0.0000000  -0.0000000  -0.0000000
 NQMom=    0.0000000   0.0000000   0.0000000   0.0000000   0.0000000   0.0000000   0.0000000   0.0000000   0.0000000   0.0000000
 NMagM=    0.0000000   0.0000000   0.0000000   0.0000000   0.0000000   0.0000000   2.7928460   2.7928460   2.7928460   2.7928460
 AtZNuc=   6.0000000   6.0000000   6.0000000   6.0000000   6.0000000   6.0000000   1.0000000   1.0000000   1.0000000   1.0000000

  Atom        71          72          73          74          75          76          77          78          79          80
 IAtWgt=           1           1           1           1           1           1           1           1           1           1
 AtmWgt=   1.0078250   1.0078250   1.0078250   1.0078250   1.0078250   1.0078250   1.0078250   1.0078250   1.0078250   1.0078250
 NucSpn=           1           1           1           1           1           1           1           1           1           1
 AtZEff=  -0.0000000  -0.0000000  -0.0000000  -0.0000000  -0.0000000  -0.0000000  -0.0000000  -0.0000000  -0.0000000  -0.0000000
 NQMom=    0.0000000   0.0000000   0.0000000   0.0000000   0.0000000   0.0000000   0.0000000   0.0000000   0.0000000   0.0000000
 NMagM=    2.7928460   2.7928460   2.7928460   2.7928460   2.7928460   2.7928460   2.7928460   2.7928460   2.7928460   2.7928460
 AtZNuc=   1.0000000   1.0000000   1.0000000   1.0000000   1.0000000   1.0000000   1.0000000   1.0000000   1.0000000   1.0000000

  Atom        81          82          83          84          85          86          87          88          89          90
 IAtWgt=           1           1           1           1           1           1           1           1           1           1
 AtmWgt=   1.0078250   1.0078250   1.0078250   1.0078250   1.0078250   1.0078250   1.0078250   1.0078250   1.0078250   1.0078250
 NucSpn=           1           1           1           1           1           1           1           1           1           1
 AtZEff=  -0.0000000  -0.0000000  -0.0000000  -0.0000000  -0.0000000  -0.0000000  -0.0000000  -0.0000000  -0.0000000  -0.0000000
 NQMom=    0.0000000   0.0000000   0.0000000   0.0000000   0.0000000   0.0000000   0.0000000   0.0000000   0.0000000   0.0000000
 NMagM=    2.7928460   2.7928460   2.7928460   2.7928460   2.7928460   2.7928460   2.7928460   2.7928460   2.7928460   2.7928460
 AtZNuc=   1.0000000   1.0000000   1.0000000   1.0000000   1.0000000   1.0000000   1.0000000   1.0000000   1.0000000   1.0000000

  Atom        91          92          93          94          95          96          97          98          99         100
 IAtWgt=           1           1           1           1           1           1           1           1           1           1
 AtmWgt=   1.0078250   1.0078250   1.0078250   1.0078250   1.0078250   1.0078250   1.0078250   1.0078250   1.0078250   1.0078250
 NucSpn=           1           1           1           1           1           1           1           1           1           1
 AtZEff=  -0.0000000  -0.0000000  -0.0000000  -0.0000000  -0.0000000  -0.0000000  -0.0000000  -0.0000000  -0.0000000  -0.0000000
 NQMom=    0.0000000   0.0000000   0.0000000   0.0000000   0.0000000   0.0000000   0.0000000   0.0000000   0.0000000   0.0000000
 NMagM=    2.7928460   2.7928460   2.7928460   2.7928460   2.7928460   2.7928460   2.7928460   2.7928460   2.7928460   2.7928460
 AtZNuc=   1.0000000   1.0000000   1.0000000   1.0000000   1.0000000   1.0000000   1.0000000   1.0000000   1.0000000   1.0000000

  Atom       101         102         103         104         105         106         107         108         109         110
 IAtWgt=           1           1           1           1           1           1           1           1           1           1
 AtmWgt=   1.0078250   1.0078250   1.0078250   1.0078250   1.0078250   1.0078250   1.0078250   1.0078250   1.0078250   1.0078250
 NucSpn=           1           1           1           1           1           1           1           1           1           1
 AtZEff=  -0.0000000  -0.0000000  -0.0000000  -0.0000000  -0.0000000  -0.0000000  -0.0000000  -0.0000000  -0.0000000  -0.0000000
 NQMom=    0.0000000   0.0000000   0.0000000   0.0000000   0.0000000   0.0000000   0.0000000   0.0000000   0.0000000   0.0000000
 NMagM=    2.7928460   2.7928460   2.7928460   2.7928460   2.7928460   2.7928460   2.7928460   2.7928460   2.7928460   2.7928460
 AtZNuc=   1.0000000   1.0000000   1.0000000   1.0000000   1.0000000   1.0000000   1.0000000   1.0000000   1.0000000   1.0000000

  Atom       111         112         113         114         115         116         117         118         119         120
 IAtWgt=           1           1           1           1           1           1           1           1           1           1
 AtmWgt=   1.0078250   1.0078250   1.0078250   1.0078250   1.0078250   1.0078250   1.0078250   1.0078250   1.0078250   1.0078250
 NucSpn=           1           1           1           1           1           1           1           1           1           1
 AtZEff=  -0.0000000  -0.0000000  -0.0000000  -0.0000000  -0.0000000  -0.0000000  -0.0000000  -0.0000000  -0.0000000  -0.0000000
 NQMom=    0.0000000   0.0000000   0.0000000   0.0000000   0.0000000   0.0000000   0.0000000   0.0000000   0.0000000   0.0000000
 NMagM=    2.7928460   2.7928460   2.7928460   2.7928460   2.7928460   2.7928460   2.7928460   2.7928460   2.7928460   2.7928460
 AtZNuc=   1.0000000   1.0000000   1.0000000   1.0000000   1.0000000   1.0000000   1.0000000   1.0000000   1.0000000   1.0000000

  Atom       121         122         123         124         125         126         127         128         129         130
 IAtWgt=           1           1           1           1           1           1           1           1           1           1
 AtmWgt=   1.0078250   1.0078250   1.0078250   1.0078250   1.0078250   1.0078250   1.0078250   1.0078250   1.0078250   1.0078250
 NucSpn=           1           1           1           1           1           1           1           1           1           1
 AtZEff=  -0.0000000  -0.0000000  -0.0000000  -0.0000000  -0.0000000  -0.0000000  -0.0000000  -0.0000000  -0.0000000  -0.0000000
 NQMom=    0.0000000   0.0000000   0.0000000   0.0000000   0.0000000   0.0000000   0.0000000   0.0000000   0.0000000   0.0000000
 NMagM=    2.7928460   2.7928460   2.7928460   2.7928460   2.7928460   2.7928460   2.7928460   2.7928460   2.7928460   2.7928460
 AtZNuc=   1.0000000   1.0000000   1.0000000   1.0000000   1.0000000   1.0000000   1.0000000   1.0000000   1.0000000   1.0000000

  Atom       131         132         133         134         135         136         137         138         139         140
 IAtWgt=           1           1           1           1           1           1           1           1           1           1
 AtmWgt=   1.0078250   1.0078250   1.0078250   1.0078250   1.0078250   1.0078250   1.0078250   1.0078250   1.0078250   1.0078250
 NucSpn=           1           1           1           1           1           1           1           1           1           1
 AtZEff=  -0.0000000  -0.0000000  -0.0000000  -0.0000000  -0.0000000  -0.0000000  -0.0000000  -0.0000000  -0.0000000  -0.0000000
 NQMom=    0.0000000   0.0000000   0.0000000   0.0000000   0.0000000   0.0000000   0.0000000   0.0000000   0.0000000   0.0000000
 NMagM=    2.7928460   2.7928460   2.7928460   2.7928460   2.7928460   2.7928460   2.7928460   2.7928460   2.7928460   2.7928460
 AtZNuc=   1.0000000   1.0000000   1.0000000   1.0000000   1.0000000   1.0000000   1.0000000   1.0000000   1.0000000   1.0000000
 Leave Link  101 at Wed May  4 13:03:41 2022, MaxMem= 10066329600 cpu:               3.0 elap:               0.1
 (Enter /sw/apps/gaussian-16.0/g16/l202.exe)
 Stoichiometry    C55H74MgN4O6
 Framework group  C1[X(C55H74MgN4O6)]
 Deg. of freedom   414
 Full point group                 C1      NOp   1
 Largest Abelian subgroup         C1      NOp   1
 Largest concise Abelian subgroup C1      NOp   1
                         Standard orientation:                         
 ---------------------------------------------------------------------
 Center     Atomic      Atomic             Coordinates (Angstroms)
 Number     Number       Type             X           Y           Z
 ---------------------------------------------------------------------
      1         12           0       -4.701988    0.967811   -0.220467
      2          6           0       -4.235499   -2.492259    0.445236
      3          6           0       -1.299165    1.426182    0.056710
      4          6           0       -5.286802    4.162027   -0.351900
      5          6           0       -8.139915    0.370530    0.362535
      6          7           0       -3.060792   -0.400968    0.165328
      7          6           0       -3.093935   -1.771589    0.383954
      8          6           0       -1.652466   -2.348038    0.256325
      9          6           0       -0.733117   -1.054783    0.529619
     10          6           0       -1.725198    0.048155    0.181872
     11          6           0       -0.264266   -0.739929    2.055437
     12          6           0       -1.342442   -3.050874   -1.116780
     13          6           0       -0.553368   -4.306404   -1.086247
     14          6           0        0.810281   -4.279925   -1.833651
     15          8           0        1.021570   -4.456604   -3.055613
     16          8           0        1.807901   -3.896877   -1.031313
     17          7           0       -3.500608    2.534723   -0.447307
     18          6           0       -2.091166    2.553614   -0.226962
     19          6           0       -1.636391    3.874742   -0.468456
     20          6           0       -2.793373    4.668686   -0.771176
     21          6           0       -3.947564    3.805867   -0.537266
     22          6           0       -0.173563    4.178813   -0.452510
     23          6           0       -2.805748    6.082982   -1.338341
     24          8           0       -3.862392    6.588625   -1.642778
     25          6           0       -1.511942    6.887971   -1.256198
     26          7           0       -6.424125    2.082531    0.102915
     27          6           0       -6.433748    3.431890   -0.044178
     28          6           0       -7.814027    4.063748   -0.038157
     29          6           0       -8.706999    2.844379    0.363329
     30          6           0       -7.731644    1.690620    0.285847
     31          6           0       -7.875879    5.149221    1.055791
     32          6           0       -9.810354    2.641123   -0.682116
     33          6           0      -11.262356    2.710631   -0.105816
     34          7           0       -6.023742   -0.740143    0.081222
     35          6           0       -7.360886   -0.824299    0.373231
     36          6           0       -7.759751   -2.258094    0.560044
     37          6           0       -6.545017   -2.942640    0.524667
     38          6           0       -5.528256   -1.976219    0.346528
     39          6           0       -9.116083   -2.730515    0.778632
     40          6           0       -5.941464   -4.242725    0.590339
     41          8           0       -6.503983   -5.300169    0.782189
     42          6           0       -4.305878   -4.043116    0.514818
     43          6           0       -3.715486   -4.601694    1.672815
     44          8           0       -3.943301   -4.193109    2.835993
     45          8           0       -2.872862   -5.624341    1.331167
     46          6           0       -1.983724   -6.019248    2.467792
     47          6           0        3.184494   -4.269864   -1.477653
     48          6           0        4.001719   -3.100761   -1.763153
     49          6           0        5.376042   -2.847753   -1.506616
     50          6           0        6.464485   -3.769165   -1.068887
     51          6           0        5.965817   -1.489707   -1.765608
     52          6           0        6.656555   -1.333565   -3.130513
     53          6           0        8.179506   -1.029317   -3.019298
     54          6           0        8.651964    0.267671   -3.639191
     55          6           0        8.859386    0.018484   -5.158106
     56          6           0        9.956078    0.818125   -2.995450
     57          6           0        9.619434    2.006987   -2.146556
     58          6           0       10.857274    2.267102   -1.135315
     59          6           0       10.483913    1.759750    0.201163
     60          6           0       10.809636    0.223762    0.399536
     61          6           0       11.188940    2.533152    1.320499
     62          6           0       10.455568    2.595910    2.634828
     63          6           0       10.881041    1.500368    3.645885
     64          6           0       10.605901    1.812012    5.115019
     65          6           0       11.556675    1.059235    6.096007
     66          6           0        9.134065    1.654545    5.553170
     67          1           0       -0.209527    1.471992    0.016694
     68          1           0       -5.301620    5.253017   -0.385768
     69          1           0       -9.154908    0.049179    0.606549
     70          1           0       -1.572897   -2.974087    1.146006
     71          1           0        0.093195   -1.114760   -0.178182
     72          1           0       -0.627025   -1.578191    2.649831
     73          1           0       -0.582262    0.244273    2.399375
     74          1           0        0.822987   -0.772716    1.980638
     75          1           0       -0.813705   -2.375955   -1.789332
     76          1           0       -2.278939   -3.225950   -1.646476
     77          1           0       -1.126786   -5.184006   -1.385671
     78          1           0       -0.328521   -4.488945   -0.036249
     79          1           0        0.350981    4.035036   -1.396317
     80          1           0        0.357973    3.540930    0.253901
     81          1           0        0.254242    5.132665   -0.143302
     82          1           0       -0.781154    6.310342   -1.821556
     83          1           0       -1.132925    6.792711   -0.238996
     84          1           0       -1.377672    7.842997   -1.766309
     85          1           0       -8.035609    4.405689   -1.049490
     86          1           0       -9.048890    2.758603    1.395213
     87          1           0       -7.056110    4.949280    1.745781
     88          1           0       -8.810767    5.167048    1.615583
     89          1           0       -7.768138    6.180095    0.717367
     90          1           0       -9.674388    1.732866   -1.269074
     91          1           0       -9.832612    3.374076   -1.488996
     92          1           0      -11.843416    1.791513   -0.176933
     93          1           0      -11.897106    3.373047   -0.695420
     94          1           0      -11.319878    3.052381    0.926664
     95          1           0       -9.345967   -3.757615    0.496626
     96          1           0       -9.903486   -2.067959    0.421124
     97          1           0       -9.130674   -2.702335    1.868215
     98          1           0       -3.897135   -4.364486   -0.443700
     99          1           0       -1.239233   -6.681008    2.025820
    100          1           0       -2.421446   -6.634416    3.254414
    101          1           0       -1.513985   -5.151666    2.932580
    102          1           0        3.255449   -4.950295   -2.327597
    103          1           0        3.664254   -4.817604   -0.666235
    104          1           0        3.440170   -2.223476   -2.082671
    105          1           0        6.961982   -3.428879   -0.160073
    106          1           0        7.115114   -3.852778   -1.938359
    107          1           0        6.129930   -4.766010   -0.783297
    108          1           0        6.686466   -1.192859   -1.004770
    109          1           0        5.102689   -0.828953   -1.677402
    110          1           0        6.168989   -0.480154   -3.599930
    111          1           0        6.518309   -2.178892   -3.805220
    112          1           0        8.706739   -1.864546   -3.481101
    113          1           0        8.486130   -0.925581   -1.977824
    114          1           0        7.832253    0.979416   -3.543116
    115          1           0        9.921832    0.034712   -5.401817
    116          1           0        8.444743    0.714442   -5.887810
    117          1           0        8.601457   -1.001804   -5.442370
    118          1           0       10.712544    1.188272   -3.686484
    119          1           0       10.565982    0.050986   -2.519488
    120          1           0        8.692313    1.827370   -1.603959
    121          1           0        9.450809    2.868935   -2.791536
    122          1           0       11.151625    3.316803   -1.113726
    123          1           0       11.712931    1.712180   -1.518730
    124          1           0        9.415688    1.780146    0.415440
    125          1           0       11.843985    0.011331    0.129832
    126          1           0       10.042416   -0.333696   -0.138199
    127          1           0       10.689412   -0.204362    1.394791
    128          1           0       11.334158    3.564260    0.997839
    129          1           0       12.148679    2.056465    1.518167
    130          1           0        9.408627    2.324726    2.500043
    131          1           0       10.521494    3.587143    3.082835
    132          1           0       11.960995    1.368911    3.577082
    133          1           0       10.321352    0.622615    3.322514
    134          1           0       10.640304    2.874899    5.355379
    135          1           0       12.570787    1.315691    5.788504
    136          1           0       11.417311   -0.022222    6.094409
    137          1           0       11.524023    1.400156    7.131100
    138          1           0        8.531794    1.548604    4.650883
    139          1           0        8.597021    2.394654    6.147037
    140          1           0        9.042106    0.744009    6.145430
 ---------------------------------------------------------------------
 Rotational constants (GHZ):           0.0371839           0.0115994           0.0101639
 Leave Link  202 at Wed May  4 13:03:41 2022, MaxMem= 10066329600 cpu:               0.3 elap:               0.0
 (Enter /sw/apps/gaussian-16.0/g16/l301.exe)
 Standard basis: def2SVP (5D, 7F)
 Ernie: Thresh=  0.10000D-02 Tol=  0.10000D-05 Strict=F.
 There are  1364 symmetry adapted cartesian basis functions of A   symmetry.
 There are  1298 symmetry adapted basis functions of A   symmetry.
  1298 basis functions,  2180 primitive gaussians,  1364 cartesian basis functions
   246 alpha electrons      246 beta electrons
       nuclear repulsion energy      9611.2538626690 Hartrees.
 IExCor= 1009 DFT=T Ex+Corr=PBE1PBE ExCW=0 ScaHFX=  0.250000
 ScaDFX=  0.750000  0.750000  1.000000  1.000000 ScalE2=  1.000000  1.000000
 IRadAn=      5 IRanWt=     -1 IRanGd=            0 ICorTp=0 IEmpDi=  4
 NAtoms=  140 NActive=  140 NUniq=  140 SFac= 1.00D+00 NAtFMM=   60 NAOKFM=T Big=T
 Integral buffers will be    131072 words long.
 Regular integral format.
 Two-electron integral symmetry is turned on.
 Leave Link  301 at Wed May  4 13:03:41 2022, MaxMem= 10066329600 cpu:               1.3 elap:               0.1
 (Enter /sw/apps/gaussian-16.0/g16/l302.exe)
 NPDir=0 NMtPBC=     1 NCelOv=     1 NCel=       1 NClECP=     1 NCelD=      1
         NCelK=      1 NCelE2=     1 NClLst=     1 CellRange=     0.0.
 One-electron integrals computed using PRISM.
 One-electron integral symmetry used in STVInt
   1 Symmetry operations used in ECPInt.
 ECPInt:  NShTT=  192510 NPrTT=  683786 LenC2=   96117 LenP2D=  208591.
 LDataN:  DoStor=T MaxTD1= 4 Len=   56
 NBasis=  1298 RedAO= T EigKep=  2.81D-04  NBF=  1298
 NBsUse=  1298 1.00D-06 EigRej= -1.00D+00 NBFU=  1298
 Precomputing XC quadrature grid using
 IXCGrd= 4 IRadAn=           5 IRanWt=          -1 IRanGd=           0 AccXCQ= 0.00D+00.
 Generated NRdTot=       0 NPtTot=           0 NUsed=           0 NTot=          32
 NSgBfM=  1123  1108  1110  1120  1123 MxSgAt=   140 MxSgA2=   140.
 Leave Link  302 at Wed May  4 13:03:45 2022, MaxMem= 10066329600 cpu:              85.8 elap:               3.6
 (Enter /sw/apps/gaussian-16.0/g16/l303.exe)
 DipDrv:  MaxL=1.
 Leave Link  303 at Wed May  4 13:03:45 2022, MaxMem= 10066329600 cpu:               5.9 elap:               0.3
 (Enter /sw/apps/gaussian-16.0/g16/l308.exe)
 Leave Link  308 at Wed May  4 13:03:46 2022, MaxMem= 10066329600 cpu:               8.6 elap:               0.4
 (Enter /sw/apps/gaussian-16.0/g16/l401.exe)
 ExpMin= 3.36D-02 ExpMax= 4.95D+03 ExpMxC= 7.45D+02 IAcc=3 IRadAn=         5 AccDes= 0.00D+00
 Harris functional with IExCor= 1009 and IRadAn=       5 diagonalized for initial guess.
 HarFok:  IExCor= 1009 AccDes= 0.00D+00 IRadAn=         5 IDoV= 1 UseB2=F ITyADJ=14
 ICtDFT=  3500011 ScaDFX=  1.000000  1.000000  1.000000  1.000000
 FoFCou: FMM=F IPFlag=           0 FMFlag=      100000 FMFlg1=        2001
         NFxFlg=           0 DoJE=T BraDBF=F KetDBF=T FulRan=T
         wScrn=  0.000000 ICntrl=       500 IOpCl=  0 I1Cent=   200000004 NGrid=           0
         NMat0=    1 NMatS0=      1 NMatT0=    0 NMatD0=    1 NMtDS0=    0 NMtDT0=    0
 Petite list used in FoFCou.
 Harris En= -3006.13025238504    
 JPrj=0 DoOrth=F DoCkMO=F.
 Leave Link  401 at Wed May  4 13:03:51 2022, MaxMem= 10066329600 cpu:             134.1 elap:               5.6
 (Enter /sw/apps/gaussian-16.0/g16/l502.exe)
 Integral symmetry usage will be decided dynamically.
 Closed shell SCF:
 Using DIIS extrapolation, IDIIS=  1040.
 NGot= 10066329600 LenX= 10062561258 LenY= 10060699398
 Requested convergence on RMS density matrix=1.00D-08 within 128 cycles.
 Requested convergence on MAX density matrix=1.00D-06.
 Requested convergence on             energy=1.00D-06.
 No special actions if energy rises.
 Fock matrices will be formed incrementally for  20 cycles.

 Cycle   1  Pass 1  IDiag  1:
 FoFJK:  IHMeth= 1 ICntrl=       0 DoSepK=F KAlg= 0 I1Cent=           0 FoldK=F
 IRaf= 520000000 NMat=       1 IRICut=       1 DoRegI=T DoRafI=F ISym2E= 0 IDoP0=0 IntGTp=1.
 FoFCou: FMM=T IPFlag=           0 FMFlag=      100000 FMFlg1=        2001
         NFxFlg=           0 DoJE=F BraDBF=F KetDBF=F FulRan=T
         wScrn=  0.000000 ICntrl=         0 IOpCl=  0 I1Cent=           0 NGrid=           0
         NMat0=    1 NMatS0=      1 NMatT0=    0 NMatD0=    1 NMtDS0=    0 NMtDT0=    0
 Symmetry not used in FoFCou.
 FMM levels:  10  Number of levels for PrismC:   9
 E= -3003.78763690076    
 DIIS: error= 1.95D-02 at cycle   1 NSaved=   1.
 NSaved= 1 IEnMin= 1 EnMin= -3003.78763690076     IErMin= 1 ErrMin= 1.95D-02
 ErrMax= 1.95D-02  0.00D+00 EMaxC= 1.00D-01 BMatC= 1.46D+00 BMatP= 1.46D+00
 IDIUse=3 WtCom= 8.05D-01 WtEn= 1.95D-01
 Coeff-Com:  0.100D+01
 Coeff-En:   0.100D+01
 Coeff:      0.100D+01
 Gap=     0.082 Goal=   None    Shift=    0.000
 GapD=    0.082 DampG=0.500 DampE=0.500 DampFc=0.2500 IDamp=-1.
 Damping current iteration by 2.50D-01
 RMSDP=2.71D-03 MaxDP=6.28D-01              OVMax= 2.22D-01

 Cycle   2  Pass 1  IDiag  1:
 RMSU=  6.70D-04    CP:  9.90D-01
 E= -3004.33672614816     Delta-E=       -0.549089247397 Rises=F Damp=T
 DIIS: error= 9.99D-03 at cycle   2 NSaved=   2.
 NSaved= 2 IEnMin= 2 EnMin= -3004.33672614816     IErMin= 2 ErrMin= 9.99D-03
 ErrMax= 9.99D-03  0.00D+00 EMaxC= 1.00D-01 BMatC= 3.65D-01 BMatP= 1.46D+00
 IDIUse=3 WtCom= 9.00D-01 WtEn= 9.99D-02
 Coeff-Com: -0.759D+00 0.176D+01
 Coeff-En:   0.000D+00 0.100D+01
 Coeff:     -0.683D+00 0.168D+01
 Gap=     0.181 Goal=   None    Shift=    0.000
 RMSDP=1.00D-03 MaxDP=7.78D-02 DE=-5.49D-01 OVMax= 2.34D-01

 Cycle   3  Pass 1  IDiag  1:
 RMSU=  8.38D-04    CP:  9.64D-01  1.74D+00
 E= -3005.15751199160     Delta-E=       -0.820785843445 Rises=F Damp=F
 DIIS: error= 1.94D-02 at cycle   3 NSaved=   3.
 NSaved= 3 IEnMin= 3 EnMin= -3005.15751199160     IErMin= 2 ErrMin= 9.99D-03
 ErrMax= 1.94D-02  0.00D+00 EMaxC= 1.00D-01 BMatC= 1.86D-01 BMatP= 3.65D-01
 IDIUse=3 WtCom= 8.06D-01 WtEn= 1.94D-01
 Coeff-Com: -0.495D+00 0.106D+01 0.436D+00
 Coeff-En:   0.000D+00 0.000D+00 0.100D+01
 Coeff:     -0.399D+00 0.854D+00 0.545D+00
 Gap=     0.074 Goal=   None    Shift=    0.000
 RMSDP=6.44D-04 MaxDP=1.09D-01 DE=-8.21D-01 OVMax= 1.69D-01

 Cycle   4  Pass 1  IDiag  1:
 RMSU=  4.29D-04    CP:  9.71D-01  2.00D+00  4.72D-01
 E= -3005.25697122674     Delta-E=       -0.099459235142 Rises=F Damp=F
 DIIS: error= 1.29D-02 at cycle   4 NSaved=   4.
 NSaved= 4 IEnMin= 4 EnMin= -3005.25697122674     IErMin= 2 ErrMin= 9.99D-03
 ErrMax= 1.29D-02  0.00D+00 EMaxC= 1.00D-01 BMatC= 7.51D-02 BMatP= 1.86D-01
 IDIUse=3 WtCom= 8.71D-01 WtEn= 1.29D-01
 Coeff-Com: -0.869D-01 0.205D+00 0.377D+00 0.505D+00
 Coeff-En:   0.000D+00 0.000D+00 0.335D+00 0.665D+00
 Coeff:     -0.757D-01 0.178D+00 0.372D+00 0.526D+00
 Gap=     0.075 Goal=   None    Shift=    0.000
 RMSDP=3.39D-04 MaxDP=5.64D-02 DE=-9.95D-02 OVMax= 1.41D-01

 Cycle   5  Pass 1  IDiag  1:
 RMSU=  1.45D-04    CP:  9.69D-01  1.85D+00  6.92D-01  4.81D-01
 E= -3005.31851261587     Delta-E=       -0.061541389123 Rises=F Damp=F
 DIIS: error= 2.33D-03 at cycle   5 NSaved=   5.
 NSaved= 5 IEnMin= 5 EnMin= -3005.31851261587     IErMin= 5 ErrMin= 2.33D-03
 ErrMax= 2.33D-03  0.00D+00 EMaxC= 1.00D-01 BMatC= 6.44D-03 BMatP= 7.51D-02
 IDIUse=3 WtCom= 9.77D-01 WtEn= 2.33D-02
 Coeff-Com: -0.147D-01 0.440D-01 0.220D+00 0.364D+00 0.387D+00
 Coeff-En:   0.000D+00 0.000D+00 0.000D+00 0.908D-01 0.909D+00
 Coeff:     -0.143D-01 0.430D-01 0.215D+00 0.358D+00 0.399D+00
 Gap=     0.074 Goal=   None    Shift=    0.000
 RMSDP=1.36D-04 MaxDP=1.03D-02 DE=-6.15D-02 OVMax= 7.58D-02

 Cycle   6  Pass 1  IDiag  1:
 RMSU=  5.80D-05    CP:  9.69D-01  1.86D+00  6.62D-01  6.08D-01  2.61D-01
 E= -3005.32589915235     Delta-E=       -0.007386536483 Rises=F Damp=F
 DIIS: error= 8.48D-04 at cycle   6 NSaved=   6.
 NSaved= 6 IEnMin= 6 EnMin= -3005.32589915235     IErMin= 6 ErrMin= 8.48D-04
 ErrMax= 8.48D-04  0.00D+00 EMaxC= 1.00D-01 BMatC= 9.62D-04 BMatP= 6.44D-03
 IDIUse=3 WtCom= 9.92D-01 WtEn= 8.48D-03
 Coeff-Com:  0.496D-02-0.554D-02 0.775D-01 0.148D+00 0.293D+00 0.482D+00
 Coeff-En:   0.000D+00 0.000D+00 0.000D+00 0.000D+00 0.184D+00 0.816D+00
 Coeff:      0.492D-02-0.549D-02 0.769D-01 0.147D+00 0.292D+00 0.485D+00
 Gap=     0.074 Goal=   None    Shift=    0.000
 RMSDP=5.14D-05 MaxDP=4.20D-03 DE=-7.39D-03 OVMax= 3.53D-02

 Cycle   7  Pass 1  IDiag  1:
 RMSU=  2.57D-05    CP:  9.69D-01  1.86D+00  6.72D-01  5.82D-01  4.53D-01
                    CP:  4.55D-01
 E= -3005.32706734811     Delta-E=       -0.001168195762 Rises=F Damp=F
 DIIS: error= 3.75D-04 at cycle   7 NSaved=   7.
 NSaved= 7 IEnMin= 7 EnMin= -3005.32706734811     IErMin= 7 ErrMin= 3.75D-04
 ErrMax= 3.75D-04  0.00D+00 EMaxC= 1.00D-01 BMatC= 1.54D-04 BMatP= 9.62D-04
 IDIUse=3 WtCom= 9.96D-01 WtEn= 3.75D-03
 Coeff-Com:  0.458D-02-0.807D-02 0.259D-01 0.545D-01 0.156D+00 0.348D+00
 Coeff-Com:  0.419D+00
 Coeff-En:   0.000D+00 0.000D+00 0.000D+00 0.000D+00 0.000D+00 0.136D+00
 Coeff-En:   0.864D+00
 Coeff:      0.456D-02-0.804D-02 0.258D-01 0.543D-01 0.155D+00 0.347D+00
 Coeff:      0.421D+00
 Gap=     0.074 Goal=   None    Shift=    0.000
 RMSDP=2.20D-05 MaxDP=1.49D-03 DE=-1.17D-03 OVMax= 1.60D-02

 Cycle   8  Pass 1  IDiag  1:
 RMSU=  1.11D-05    CP:  9.69D-01  1.86D+00  6.73D-01  5.84D-01  4.37D-01
                    CP:  5.95D-01  3.40D-01
 E= -3005.32722899281     Delta-E=       -0.000161644697 Rises=F Damp=F
 DIIS: error= 1.41D-04 at cycle   8 NSaved=   8.
 NSaved= 8 IEnMin= 8 EnMin= -3005.32722899281     IErMin= 8 ErrMin= 1.41D-04
 ErrMax= 1.41D-04  0.00D+00 EMaxC= 1.00D-01 BMatC= 2.77D-05 BMatP= 1.54D-04
 IDIUse=3 WtCom= 9.99D-01 WtEn= 1.41D-03
 Coeff-Com:  0.224D-02-0.443D-02 0.601D-02 0.143D-01 0.648D-01 0.176D+00
 Coeff-Com:  0.316D+00 0.425D+00
 Coeff-En:   0.000D+00 0.000D+00 0.000D+00 0.000D+00 0.000D+00 0.000D+00
 Coeff-En:   0.203D+00 0.797D+00
 Coeff:      0.223D-02-0.443D-02 0.600D-02 0.143D-01 0.647D-01 0.176D+00
 Coeff:      0.316D+00 0.426D+00
 Gap=     0.074 Goal=   None    Shift=    0.000
 RMSDP=8.72D-06 MaxDP=7.27D-04 DE=-1.62D-04 OVMax= 5.80D-03

 Cycle   9  Pass 1  IDiag  1:
 RMSU=  3.25D-06    CP:  9.69D-01  1.86D+00  6.73D-01  5.86D-01  4.40D-01
                    CP:  5.70D-01  5.12D-01  4.13D-01
 E= -3005.32726480870     Delta-E=       -0.000035815896 Rises=F Damp=F
 DIIS: error= 5.43D-05 at cycle   9 NSaved=   9.
 NSaved= 9 IEnMin= 9 EnMin= -3005.32726480870     IErMin= 9 ErrMin= 5.43D-05
 ErrMax= 5.43D-05  0.00D+00 EMaxC= 1.00D-01 BMatC= 2.74D-06 BMatP= 2.77D-05
 IDIUse=1 WtCom= 1.00D+00 WtEn= 0.00D+00
 Coeff-Com:  0.773D-03-0.164D-02 0.610D-03 0.198D-02 0.224D-01 0.715D-01
 Coeff-Com:  0.153D+00 0.285D+00 0.466D+00
 Coeff:      0.773D-03-0.164D-02 0.610D-03 0.198D-02 0.224D-01 0.715D-01
 Coeff:      0.153D+00 0.285D+00 0.466D+00
 Gap=     0.074 Goal=   None    Shift=    0.000
 RMSDP=2.30D-06 MaxDP=3.37D-04 DE=-3.58D-05 OVMax= 1.13D-03

 Cycle  10  Pass 1  IDiag  1:
 RMSU=  1.31D-06    CP:  9.69D-01  1.86D+00  6.73D-01  5.85D-01  4.41D-01
                    CP:  5.81D-01  4.94D-01  4.99D-01  6.05D-01
 E= -3005.32726767002     Delta-E=       -0.000002861319 Rises=F Damp=F
 DIIS: error= 2.27D-05 at cycle  10 NSaved=  10.
 NSaved=10 IEnMin=10 EnMin= -3005.32726767002     IErMin=10 ErrMin= 2.27D-05
 ErrMax= 2.27D-05  0.00D+00 EMaxC= 1.00D-01 BMatC= 2.77D-07 BMatP= 2.74D-06
 IDIUse=1 WtCom= 1.00D+00 WtEn= 0.00D+00
 Coeff-Com:  0.725D-04-0.202D-03-0.518D-03-0.118D-02 0.323D-02 0.150D-01
 Coeff-Com:  0.414D-01 0.108D+00 0.281D+00 0.553D+00
 Coeff:      0.725D-04-0.202D-03-0.518D-03-0.118D-02 0.323D-02 0.150D-01
 Coeff:      0.414D-01 0.108D+00 0.281D+00 0.553D+00
 Gap=     0.074 Goal=   None    Shift=    0.000
 RMSDP=6.59D-07 MaxDP=7.55D-05 DE=-2.86D-06 OVMax= 2.32D-04

 Cycle  11  Pass 1  IDiag  1:
 RMSU=  4.24D-07    CP:  9.69D-01  1.86D+00  6.73D-01  5.85D-01  4.41D-01
                    CP:  5.82D-01  4.98D-01  5.01D-01  6.91D-01  6.95D-01
 E= -3005.32726790349     Delta-E=       -0.000000233465 Rises=F Damp=F
 DIIS: error= 4.88D-06 at cycle  11 NSaved=  11.
 NSaved=11 IEnMin=11 EnMin= -3005.32726790349     IErMin=11 ErrMin= 4.88D-06
 ErrMax= 4.88D-06  0.00D+00 EMaxC= 1.00D-01 BMatC= 3.84D-08 BMatP= 2.77D-07
 IDIUse=1 WtCom= 1.00D+00 WtEn= 0.00D+00
 Coeff-Com: -0.427D-04 0.635D-04-0.409D-03-0.103D-02-0.764D-03 0.272D-03
 Coeff-Com:  0.605D-02 0.326D-01 0.110D+00 0.335D+00 0.519D+00
 Coeff:     -0.427D-04 0.635D-04-0.409D-03-0.103D-02-0.764D-03 0.272D-03
 Coeff:      0.605D-02 0.326D-01 0.110D+00 0.335D+00 0.519D+00
 Gap=     0.074 Goal=   None    Shift=    0.000
 RMSDP=2.40D-07 MaxDP=2.05D-05 DE=-2.33D-07 OVMax= 8.07D-05

 Cycle  12  Pass 1  IDiag  1:
 RMSU=  1.61D-07    CP:  9.69D-01  1.86D+00  6.73D-01  5.85D-01  4.41D-01
                    CP:  5.82D-01  4.99D-01  5.09D-01  6.93D-01  7.76D-01
                    CP:  7.83D-01
 E= -3005.32726793993     Delta-E=       -0.000000036442 Rises=F Damp=F
 DIIS: error= 1.21D-06 at cycle  12 NSaved=  12.
 NSaved=12 IEnMin=12 EnMin= -3005.32726793993     IErMin=12 ErrMin= 1.21D-06
 ErrMax= 1.21D-06  0.00D+00 EMaxC= 1.00D-01 BMatC= 3.06D-09 BMatP= 3.84D-08
 IDIUse=1 WtCom= 1.00D+00 WtEn= 0.00D+00
 Coeff-Com: -0.241D-04 0.459D-04-0.138D-03-0.374D-03-0.682D-03-0.160D-02
 Coeff-Com: -0.180D-02 0.489D-02 0.195D-01 0.105D+00 0.256D+00 0.619D+00
 Coeff:     -0.241D-04 0.459D-04-0.138D-03-0.374D-03-0.682D-03-0.160D-02
 Coeff:     -0.180D-02 0.489D-02 0.195D-01 0.105D+00 0.256D+00 0.619D+00
 Gap=     0.074 Goal=   None    Shift=    0.000
 RMSDP=9.46D-08 MaxDP=1.59D-05 DE=-3.64D-08 OVMax= 3.48D-05

 Cycle  13  Pass 1  IDiag  1:
 RMSU=  7.32D-08    CP:  9.69D-01  1.86D+00  6.73D-01  5.85D-01  4.41D-01
                    CP:  5.82D-01  4.99D-01  5.09D-01  7.03D-01  7.87D-01
                    CP:  8.71D-01  8.75D-01
 E= -3005.32726794275     Delta-E=       -0.000000002816 Rises=F Damp=F
 DIIS: error= 6.13D-07 at cycle  13 NSaved=  13.
 NSaved=13 IEnMin=13 EnMin= -3005.32726794275     IErMin=13 ErrMin= 6.13D-07
 ErrMax= 6.13D-07  0.00D+00 EMaxC= 1.00D-01 BMatC= 1.03D-09 BMatP= 3.06D-09
 IDIUse=1 WtCom= 1.00D+00 WtEn= 0.00D+00
 Coeff-Com: -0.613D-05 0.155D-04-0.123D-04-0.459D-04-0.313D-03-0.122D-02
 Coeff-Com: -0.266D-02-0.319D-02-0.113D-01 0.162D-02 0.583D-01 0.403D+00
 Coeff-Com:  0.556D+00
 Coeff:     -0.613D-05 0.155D-04-0.123D-04-0.459D-04-0.313D-03-0.122D-02
 Coeff:     -0.266D-02-0.319D-02-0.113D-01 0.162D-02 0.583D-01 0.403D+00
 Coeff:      0.556D+00
 Gap=     0.074 Goal=   None    Shift=    0.000
 RMSDP=4.88D-08 MaxDP=4.10D-06 DE=-2.82D-09 OVMax= 1.98D-05

 Cycle  14  Pass 1  IDiag  1:
 RMSU=  3.07D-08    CP:  9.69D-01  1.86D+00  6.73D-01  5.85D-01  4.41D-01
                    CP:  5.82D-01  4.99D-01  5.10D-01  7.05D-01  8.03D-01
                    CP:  8.94D-01  1.01D+00  7.94D-01
 E= -3005.32726794421     Delta-E=       -0.000000001468 Rises=F Damp=F
 DIIS: error= 2.51D-07 at cycle  14 NSaved=  14.
 NSaved=14 IEnMin=14 EnMin= -3005.32726794421     IErMin=14 ErrMin= 2.51D-07
 ErrMax= 2.51D-07  0.00D+00 EMaxC= 1.00D-01 BMatC= 1.45D-10 BMatP= 1.03D-09
 IDIUse=1 WtCom= 1.00D+00 WtEn= 0.00D+00
 Coeff-Com:  0.221D-05-0.169D-05 0.189D-04 0.441D-04-0.570D-04-0.456D-03
 Coeff-Com: -0.135D-02-0.270D-02-0.115D-01-0.194D-01-0.151D-01 0.126D+00
 Coeff-Com:  0.325D+00 0.599D+00
 Coeff:      0.221D-05-0.169D-05 0.189D-04 0.441D-04-0.570D-04-0.456D-03
 Coeff:     -0.135D-02-0.270D-02-0.115D-01-0.194D-01-0.151D-01 0.126D+00
 Coeff:      0.325D+00 0.599D+00
 Gap=     0.074 Goal=   None    Shift=    0.000
 RMSDP=2.15D-08 MaxDP=3.09D-06 DE=-1.47D-09 OVMax= 9.67D-06

 Cycle  15  Pass 1  IDiag  1:
 RMSU=  1.27D-08    CP:  9.69D-01  1.86D+00  6.73D-01  5.85D-01  4.41D-01
                    CP:  5.82D-01  4.99D-01  5.10D-01  7.05D-01  8.06D-01
                    CP:  9.16D-01  1.05D+00  9.15D-01  8.53D-01
 E= -3005.32726794407     Delta-E=        0.000000000146 Rises=F Damp=F
 DIIS: error= 1.05D-07 at cycle  15 NSaved=  15.
 NSaved=15 IEnMin=14 EnMin= -3005.32726794421     IErMin=15 ErrMin= 1.05D-07
 ErrMax= 1.05D-07  0.00D+00 EMaxC= 1.00D-01 BMatC= 2.68D-11 BMatP= 1.45D-10
 IDIUse=1 WtCom= 1.00D+00 WtEn= 0.00D+00
 Coeff-Com:  0.220D-05-0.324D-05 0.123D-04 0.299D-04 0.205D-04-0.520D-04
 Coeff-Com: -0.312D-03-0.729D-03-0.447D-02-0.101D-01-0.160D-01 0.544D-02
 Coeff-Com:  0.838D-01 0.351D+00 0.592D+00
 Coeff:      0.220D-05-0.324D-05 0.123D-04 0.299D-04 0.205D-04-0.520D-04
 Coeff:     -0.312D-03-0.729D-03-0.447D-02-0.101D-01-0.160D-01 0.544D-02
 Coeff:      0.838D-01 0.351D+00 0.592D+00
 Gap=     0.074 Goal=   None    Shift=    0.000
 RMSDP=8.33D-09 MaxDP=8.12D-07 DE= 1.46D-10 OVMax= 4.22D-06

 SCF Done:  E(RPBE1PBE) =  -3005.32726794     A.U. after   15 cycles
            NFock= 15  Conv=0.83D-08     -V/T= 2.0101
 KE= 2.975201394841D+03 PE=-2.621315837235D+04 EE= 1.062137584690D+04
 Leave Link  502 at Wed May  4 13:08:15 2022, MaxMem= 10066329600 cpu:            6295.5 elap:             264.0
 (Enter /sw/apps/gaussian-16.0/g16/l801.exe)
 DoSCS=F DFT=T ScalE2(SS,OS)=  1.000000  1.000000
 ExpMin= 3.36D-02 ExpMax= 4.95D+03 ExpMxC= 7.45D+02 IAcc=3 IRadAn=         5 AccDes= 0.00D+00
 HarFok:  IExCor=  205 AccDes= 0.00D+00 IRadAn=         5 IDoV=-2 UseB2=F ITyADJ=14
 ICtDFT= 12500011 ScaDFX=  1.000000  1.000000  1.000000  1.000000
 GSVD:  LWork=       -5460 too small for GESVD, short by       25550 words or       25550 for optimal perf.
 Largest valence mixing into a core orbital is  1.70D-04
 Largest core mixing into a valence orbital is  5.59D-05
 Range of M.O.s used for correlation:    71  1298
 NBasis=  1298 NAE=   246 NBE=   246 NFC=    70 NFV=     0
 NROrb=   1228 NOA=   176 NOB=   176 NVA=  1052 NVB=  1052

 **** Warning!!: The smallest alpha delta epsilon is  0.74297980D-01

 Leave Link  801 at Wed May  4 13:08:16 2022, MaxMem= 10066329600 cpu:               6.6 elap:               0.3
 (Enter /sw/apps/gaussian-16.0/g16/l914.exe)
 RHF ground state
 Two-electron integrals replicated using symmetry.
 MDV= 10066329600 DFT=T DoStab=F Mixed=T DoRPA=T DoScal=F NonHer=T
 Making orbital integer symmetry assigments:
 Orbital symmetries:
       Occupied  (A) (A) (A) (A) (A) (A) (A) (A) (A) (A) (A) (A)
                 (A) (A) (A) (A) (A) (A) (A) (A) (A) (A) (A) (A)
                 (A) (A) (A) (A) (A) (A) (A) (A) (A) (A) (A) (A)
                 (A) (A) (A) (A) (A) (A) (A) (A) (A) (A) (A) (A)
                 (A) (A) (A) (A) (A) (A) (A) (A) (A) (A) (A) (A)
                 (A) (A) (A) (A) (A) (A) (A) (A) (A) (A) (A) (A)
                 (A) (A) (A) (A) (A) (A) (A) (A) (A) (A) (A) (A)
                 (A) (A) (A) (A) (A) (A) (A) (A) (A) (A) (A) (A)
                 (A) (A) (A) (A) (A) (A) (A) (A) (A) (A) (A) (A)
                 (A) (A) (A) (A) (A) (A) (A) (A) (A) (A) (A) (A)
                 (A) (A) (A) (A) (A) (A) (A) (A) (A) (A) (A) (A)
                 (A) (A) (A) (A) (A) (A) (A) (A) (A) (A) (A) (A)
                 (A) (A) (A) (A) (A) (A) (A) (A) (A) (A) (A) (A)
                 (A) (A) (A) (A) (A) (A) (A) (A) (A) (A) (A) (A)
                 (A) (A) (A) (A) (A) (A) (A) (A) (A) (A) (A) (A)
                 (A) (A) (A) (A) (A) (A) (A) (A) (A) (A) (A) (A)
                 (A) (A) (A) (A) (A) (A) (A) (A) (A) (A) (A) (A)
                 (A) (A) (A) (A) (A) (A) (A) (A) (A) (A) (A) (A)
                 (A) (A) (A) (A) (A) (A) (A) (A) (A) (A) (A) (A)
                 (A) (A) (A) (A) (A) (A) (A) (A) (A) (A) (A) (A)
                 (A) (A) (A) (A) (A) (A)
       Virtual   (A) (A) (A) (A) (A) (A) (A) (A) (A) (A) (A) (A)
                 (A) (A) (A) (A) (A) (A) (A) (A) (A) (A) (A) (A)
                 (A) (A) (A) (A) (A) (A) (A) (A) (A) (A) (A) (A)
                 (A) (A) (A) (A) (A) (A) (A) (A) (A) (A) (A) (A)
                 (A) (A) (A) (A) (A) (A) (A) (A) (A) (A) (A) (A)
                 (A) (A) (A) (A) (A) (A) (A) (A) (A) (A) (A) (A)
                 (A) (A) (A) (A) (A) (A) (A) (A) (A) (A) (A) (A)
                 (A) (A) (A) (A) (A) (A) (A) (A) (A) (A) (A) (A)
                 (A) (A) (A) (A) (A) (A) (A) (A) (A) (A) (A) (A)
                 (A) (A) (A) (A) (A) (A) (A) (A) (A) (A) (A) (A)
                 (A) (A) (A) (A) (A) (A) (A) (A) (A) (A) (A) (A)
                 (A) (A) (A) (A) (A) (A) (A) (A) (A) (A) (A) (A)
                 (A) (A) (A) (A) (A) (A) (A) (A) (A) (A) (A) (A)
                 (A) (A) (A) (A) (A) (A) (A) (A) (A) (A) (A) (A)
                 (A) (A) (A) (A) (A) (A) (A) (A) (A) (A) (A) (A)
                 (A) (A) (A) (A) (A) (A) (A) (A) (A) (A) (A) (A)
                 (A) (A) (A) (A) (A) (A) (A) (A) (A) (A) (A) (A)
                 (A) (A) (A) (A) (A) (A) (A) (A) (A) (A) (A) (A)
                 (A) (A) (A) (A) (A) (A) (A) (A) (A) (A) (A) (A)
                 (A) (A) (A) (A) (A) (A) (A) (A) (A) (A) (A) (A)
                 (A) (A) (A) (A) (A) (A) (A) (A) (A) (A) (A) (A)
                 (A) (A) (A) (A) (A) (A) (A) (A) (A) (A) (A) (A)
                 (A) (A) (A) (A) (A) (A) (A) (A) (A) (A) (A) (A)
                 (A) (A) (A) (A) (A) (A) (A) (A) (A) (A) (A) (A)
                 (A) (A) (A) (A) (A) (A) (A) (A) (A) (A) (A) (A)
                 (A) (A) (A) (A) (A) (A) (A) (A) (A) (A) (A) (A)
                 (A) (A) (A) (A) (A) (A) (A) (A) (A) (A) (A) (A)
                 (A) (A) (A) (A) (A) (A) (A) (A) (A) (A) (A) (A)
                 (A) (A) (A) (A) (A) (A) (A) (A) (A) (A) (A) (A)
                 (A) (A) (A) (A) (A) (A) (A) (A) (A) (A) (A) (A)
                 (A) (A) (A) (A) (A) (A) (A) (A) (A) (A) (A) (A)
                 (A) (A) (A) (A) (A) (A) (A) (A) (A) (A) (A) (A)
                 (A) (A) (A) (A) (A) (A) (A) (A) (A) (A) (A) (A)
                 (A) (A) (A) (A) (A) (A) (A) (A) (A) (A) (A) (A)
                 (A) (A) (A) (A) (A) (A) (A) (A) (A) (A) (A) (A)
                 (A) (A) (A) (A) (A) (A) (A) (A) (A) (A) (A) (A)
                 (A) (A) (A) (A) (A) (A) (A) (A) (A) (A) (A) (A)
                 (A) (A) (A) (A) (A) (A) (A) (A) (A) (A) (A) (A)
                 (A) (A) (A) (A) (A) (A) (A) (A) (A) (A) (A) (A)
                 (A) (A) (A) (A) (A) (A) (A) (A) (A) (A) (A) (A)
                 (A) (A) (A) (A) (A) (A) (A) (A) (A) (A) (A) (A)
                 (A) (A) (A) (A) (A) (A) (A) (A) (A) (A) (A) (A)
                 (A) (A) (A) (A) (A) (A) (A) (A) (A) (A) (A) (A)
                 (A) (A) (A) (A) (A) (A) (A) (A) (A) (A) (A) (A)
                 (A) (A) (A) (A) (A) (A) (A) (A) (A) (A) (A) (A)
                 (A) (A) (A) (A) (A) (A) (A) (A) (A) (A) (A) (A)
                 (A) (A) (A) (A) (A) (A) (A) (A) (A) (A) (A) (A)
                 (A) (A) (A) (A) (A) (A) (A) (A) (A) (A) (A) (A)
                 (A) (A) (A) (A) (A) (A) (A) (A) (A) (A) (A) (A)
                 (A) (A) (A) (A) (A) (A) (A) (A) (A) (A) (A) (A)
                 (A) (A) (A) (A) (A) (A) (A) (A) (A) (A) (A) (A)
                 (A) (A) (A) (A) (A) (A) (A) (A) (A) (A) (A) (A)
                 (A) (A) (A) (A) (A) (A) (A) (A) (A) (A) (A) (A)
                 (A) (A) (A) (A) (A) (A) (A) (A) (A) (A) (A) (A)
                 (A) (A) (A) (A) (A) (A) (A) (A) (A) (A) (A) (A)
                 (A) (A) (A) (A) (A) (A) (A) (A) (A) (A) (A) (A)
                 (A) (A) (A) (A) (A) (A) (A) (A) (A) (A) (A) (A)
                 (A) (A) (A) (A) (A) (A) (A) (A) (A) (A) (A) (A)
                 (A) (A) (A) (A) (A) (A) (A) (A) (A) (A) (A) (A)
                 (A) (A) (A) (A) (A) (A) (A) (A) (A) (A) (A) (A)
                 (A) (A) (A) (A) (A) (A) (A) (A) (A) (A) (A) (A)
                 (A) (A) (A) (A) (A) (A) (A) (A) (A) (A) (A) (A)
                 (A) (A) (A) (A) (A) (A) (A) (A) (A) (A) (A) (A)
                 (A) (A) (A) (A) (A) (A) (A) (A) (A) (A) (A) (A)
                 (A) (A) (A) (A) (A) (A) (A) (A) (A) (A) (A) (A)
                 (A) (A) (A) (A) (A) (A) (A) (A) (A) (A) (A) (A)
                 (A) (A) (A) (A) (A) (A) (A) (A) (A) (A) (A) (A)
                 (A) (A) (A) (A) (A) (A) (A) (A) (A) (A) (A) (A)
                 (A) (A) (A) (A) (A) (A) (A) (A) (A) (A) (A) (A)
                 (A) (A) (A) (A) (A) (A) (A) (A) (A) (A) (A) (A)
                 (A) (A) (A) (A) (A) (A) (A) (A) (A) (A) (A) (A)
                 (A) (A) (A) (A) (A) (A) (A) (A) (A) (A) (A) (A)
                 (A) (A) (A) (A) (A) (A) (A) (A) (A) (A) (A) (A)
                 (A) (A) (A) (A) (A) (A) (A) (A) (A) (A) (A) (A)
                 (A) (A) (A) (A) (A) (A) (A) (A) (A) (A) (A) (A)
                 (A) (A) (A) (A) (A) (A) (A) (A) (A) (A) (A) (A)
                 (A) (A) (A) (A) (A) (A) (A) (A) (A) (A) (A) (A)
                 (A) (A) (A) (A) (A) (A) (A) (A) (A) (A) (A) (A)
                 (A) (A) (A) (A) (A) (A) (A) (A) (A) (A) (A) (A)
                 (A) (A) (A) (A) (A) (A) (A) (A) (A) (A) (A) (A)
                 (A) (A) (A) (A) (A) (A) (A) (A) (A) (A) (A) (A)
                 (A) (A) (A) (A) (A) (A) (A) (A) (A) (A) (A) (A)
                 (A) (A) (A) (A) (A) (A) (A) (A) (A) (A) (A) (A)
                 (A) (A) (A) (A) (A) (A) (A) (A) (A) (A) (A) (A)
                 (A) (A) (A) (A) (A) (A) (A) (A) (A) (A) (A) (A)
                 (A) (A) (A) (A) (A) (A) (A) (A) (A) (A) (A) (A)
                 (A) (A) (A) (A) (A) (A) (A) (A) (A) (A) (A) (A)
                 (A) (A) (A) (A) (A) (A) (A) (A)
    20 initial guesses have been made.
 Convergence on wavefunction:    0.001000000000000
 Davidson Disk Diagonalization:  ConvIn= 1.00D-03 SkipCon=T Conv= 1.00D-03.
 Max sub-space:  2000 roots to seek:    20 dimension of matrix:       370304
 Iteration     1 Dimension    20 NMult     0 NNew     20
 CISAX will form    20 AO SS matrices at one time.
 NMat=    20 NSing=    20 JSym2X= 0.
 FoFJK:  IHMeth= 1 ICntrl=       0 DoSepK=F KAlg= 0 I1Cent=           0 FoldK=F
 IRaf= 520000000 NMat=      40 IRICut=       1 DoRegI=T DoRafI=F ISym2E= 0 IDoP0=3 IntGTp=3.
 FoFCou: FMM=T IPFlag=           0 FMFlag=      100000 FMFlg1=        2001
         NFxFlg=           0 DoJE=F BraDBF=F KetDBF=F FulRan=T
         wScrn=  0.000000 ICntrl=         0 IOpCl=  0 I1Cent=           0 NGrid=           0
         NMat0=   40 NMatS0=     20 NMatT0=    0 NMatD0=   40 NMtDS0=    0 NMtDT0=    0
 Symmetry not used in FoFCou.
 FMM levels:  10  Number of levels for PrismC:   9
 New state      3 was old state      8
 New state      4 was old state      5
 New state      5 was old state      4
 Excitation Energies [eV] at current iteration:
 Root      1 :     2.219034233359529
 Root      2 :     2.521290103248037
 Root      3 :     3.212881337896275
 Root      4 :     3.234798980170850
 Root      5 :     3.296133016354124
 Root      6 :     3.351669445827079
 Root      7 :     3.459454855673914
 Root      8 :     3.722853461058906
 Root      9 :     3.891375796188759
 Root     10 :     3.976757288758744
 Root     11 :     4.193982404229485
 Root     12 :     4.220262490661221
 Root     13 :     4.244965814394688
 Root     14 :     4.288223201080812
 Root     15 :     4.367876086746099
 Root     16 :     4.529004548373297
 Root     17 :     4.595027203360340
 Root     18 :     4.599910558695863
 Root     19 :     4.680451196054602
 Root     20 :     4.863801738147266
 Iteration     2 Dimension    30 NMult    20 NNew     10
 CISAX will form    10 AO SS matrices at one time.
 NMat=    10 NSing=    10 JSym2X= 0.
 Root      1 not converged, maximum delta is    0.056520321898512
 Root      2 not converged, maximum delta is    0.049969511467151
 New state      3 was old state      4
 Root      3 not converged, maximum delta is    0.366893777981761
 New state      4 was old state      3
 Root      4 not converged, maximum delta is    0.402715822596589
 New state      5 was old state      6
 Root      5 not converged, maximum delta is    0.312090573561158
 Excitation Energies [eV] at current iteration:
 Root      1 :     1.861623866963361   Change is   -0.357410366396168
 Root      2 :     2.271231001257783   Change is   -0.250059101990254
 Root      3 :     3.037306382482694   Change is   -0.197492597688156
 Root      4 :     3.078006569198330   Change is   -0.134874768697945
 Root      5 :     3.207270878148603   Change is   -0.144398567678476
 Iteration     3 Dimension    40 NMult    30 NNew     10
 CISAX will form    10 AO SS matrices at one time.
 NMat=    10 NSing=    10 JSym2X= 0.
 Root      1 not converged, maximum delta is    0.024963646666085
 Root      2 not converged, maximum delta is    0.025224715928337
 Root      3 not converged, maximum delta is    0.039002543685057
 Root      4 not converged, maximum delta is    0.047529557704126
 Root      5 not converged, maximum delta is    0.057256367541240
 Excitation Energies [eV] at current iteration:
 Root      1 :     1.828485897538072   Change is   -0.033137969425289
 Root      2 :     2.254091737798887   Change is   -0.017139263458896
 Root      3 :     3.023579515702259   Change is   -0.013726866780434
 Root      4 :     3.063487320103978   Change is   -0.014519249094352
 Root      5 :     3.146458061223976   Change is   -0.060812816924627
 Iteration     4 Dimension    50 NMult    40 NNew     10
 CISAX will form    10 AO SS matrices at one time.
 NMat=    10 NSing=    10 JSym2X= 0.
 Root      1 not converged, maximum delta is    0.003992530939807
 Root      2 not converged, maximum delta is    0.007759062451088
 Root      3 not converged, maximum delta is    0.010167449950979
 Root      4 not converged, maximum delta is    0.015554334159781
 Root      5 not converged, maximum delta is    0.042649929106469
 Excitation Energies [eV] at current iteration:
 Root      1 :     1.824765460161871   Change is   -0.003720437376200
 Root      2 :     2.251599599297332   Change is   -0.002492138501555
 Root      3 :     3.020595567601465   Change is   -0.002983948100794
 Root      4 :     3.060651122735574   Change is   -0.002836197368404
 Root      5 :     3.135992390924387   Change is   -0.010465670299589
 Iteration     5 Dimension    60 NMult    50 NNew     10
 CISAX will form    10 AO SS matrices at one time.
 NMat=    10 NSing=    10 JSym2X= 0.
 Root      1 has converged.
 Root      2 has converged.
 Root      3 not converged, maximum delta is    0.002039251532788
 Root      4 not converged, maximum delta is    0.004474160552729
 Root      5 not converged, maximum delta is    0.017048030400927
 Excitation Energies [eV] at current iteration:
 Root      1 :     1.824344315322580   Change is   -0.000421144839291
 Root      2 :     2.251416599071638   Change is   -0.000183000225694
 Root      3 :     3.020265725834413   Change is   -0.000329841767052
 Root      4 :     3.060179631313511   Change is   -0.000471491422063
 Root      5 :     3.134027993074882   Change is   -0.001964397849505
 Iteration     6 Dimension    66 NMult    60 NNew      6
 CISAX will form     6 AO SS matrices at one time.
 NMat=     6 NSing=     6 JSym2X= 0.
 Root      1 has converged.
 Root      2 has converged.
 Root      3 has converged.
 Root      4 not converged, maximum delta is    0.001243987095605
 Root      5 not converged, maximum delta is    0.007317029680213
 Excitation Energies [eV] at current iteration:
 Root      1 :     1.824343495715483   Change is   -0.000000819607097
 Root      2 :     2.251410776471634   Change is   -0.000005822600005
 Root      3 :     3.020226507246491   Change is   -0.000039218587922
 Root      4 :     3.060129495383606   Change is   -0.000050135929905
 Root      5 :     3.133558427282323   Change is   -0.000469565792560
 Iteration     7 Dimension    70 NMult    66 NNew      4
 CISAX will form     4 AO SS matrices at one time.
 NMat=     4 NSing=     4 JSym2X= 0.
 Root      1 has converged.
 Root      2 has converged.
 Root      3 has converged.
 Root      4 has converged.
 Root      5 not converged, maximum delta is    0.004202112641299
 Excitation Energies [eV] at current iteration:
 Root      1 :     1.824341736583377   Change is   -0.000001759132106
 Root      2 :     2.251409870452932   Change is   -0.000000906018702
 Root      3 :     3.020223788261913   Change is   -0.000002718984577
 Root      4 :     3.060121668709309   Change is   -0.000007826674296
 Root      5 :     3.133472460230440   Change is   -0.000085967051883
 Iteration     8 Dimension    72 NMult    70 NNew      2
 CISAX will form     2 AO SS matrices at one time.
 NMat=     2 NSing=     2 JSym2X= 0.
 Root      1 has converged.
 Root      2 has converged.
 Root      3 has converged.
 Root      4 has converged.
 Root      5 not converged, maximum delta is    0.002332613681376
 Excitation Energies [eV] at current iteration:
 Root      1 :     1.824341489721996   Change is   -0.000000246861381
 Root      2 :     2.251409706710870   Change is   -0.000000163742062
 Root      3 :     3.020223661491391   Change is   -0.000000126770522
 Root      4 :     3.060120760433909   Change is   -0.000000908275400
 Root      5 :     3.133454071247276   Change is   -0.000018388983164
 Iteration     9 Dimension    74 NMult    72 NNew      2
 CISAX will form     2 AO SS matrices at one time.
 NMat=     2 NSing=     2 JSym2X= 0.
 Root      1 has converged.
 Root      2 has converged.
 Root      3 has converged.
 Root      4 has converged.
 Root      5 not converged, maximum delta is    0.001044317801394
 Excitation Energies [eV] at current iteration:
 Root      1 :     1.824340772543810   Change is   -0.000000717178186
 Root      2 :     2.251409587750635   Change is   -0.000000118960236
 Root      3 :     3.020223595401442   Change is   -0.000000066089949
 Root      4 :     3.060120677356954   Change is   -0.000000083076955
 Root      5 :     3.133450466400876   Change is   -0.000003604846400
 Convergence on energies, max DE= 3.60D-06.
 Convergence on expansion vectors.
 ***********************************************************************
 Excited states from <AA,BB:AA,BB> singles matrix:
 ***********************************************************************
 
 1PDM for each excited state written to RWF  633
 Ground to excited state transition densities written to RWF  633
 Ground to excited state transition electric dipole moments (Au):
       state          X           Y           Z        Dip. S.      Osc.
         1        -1.7888     -2.2544      0.3800      8.4265      0.3766
         2        -0.8682      0.8463     -0.0945      1.4789      0.0816
         3        -0.0385      0.0962     -0.0688      0.0155      0.0011
         4        -0.0098     -0.1071      0.0274      0.0123      0.0009
         5         0.3588     -0.2605     -0.0132      0.1968      0.0151
 Ground to excited state transition velocity dipole moments (Au):
       state          X           Y           Z        Dip. S.      Osc.
         1         0.1165      0.1467     -0.0244      0.0357      0.3550
         2         0.0680     -0.0670      0.0071      0.0092      0.0739
         3         0.0036     -0.0096      0.0051      0.0001      0.0008
         4        -0.0035      0.0106     -0.0026      0.0001      0.0008
         5        -0.0412      0.0295      0.0041      0.0026      0.0149
 Ground to excited state transition magnetic dipole moments (Au):
       state          X           Y           Z
         1        -0.0889     -0.1840     -1.5369
         2        -0.0024     -0.0240      0.2754
         3         0.0949     -0.2232     -0.6704
         4        -0.3189     -0.1435     -0.3275
         5        -0.0937      0.3291     -0.6190
 Ground to excited state transition velocity quadrupole moments (Au):
       state          XX          YY          ZZ          XY          XZ          YZ
         1        -2.0634      0.4673      0.0123     -1.0791      0.2448     -0.0554
         2        -1.1205     -0.1893      0.0266      0.6738     -0.0459      0.0032
         3         0.1593     -0.3274     -0.0147      0.1561     -0.0773      0.1016
         4         0.0722      0.0537      0.0242      0.0312     -0.0122     -0.0527
         5         0.6225     -0.0999     -0.0534     -0.5098     -0.0229      0.1285
 <0|del|b> * <b|rxdel|0> + <0|del|b> * <b|delr+rdel|0>
 Rotatory Strengths (R) in cgs (10**-40 erg-esu-cm/Gauss)
       state          XX          YY          ZZ    R(velocity)    E-M Angle
         1         5.3683    -29.6948     26.4044      0.6926       89.96
         2        22.5994    -11.8867     18.4069      9.7065       82.61
         3        -3.8472    -11.1033      9.1258     -1.9416       96.43
         4        -1.9468      7.0971     -2.2560      0.9647       85.22
         5        17.7481     -5.7660     55.8104     22.5975       72.11
 1/2[<0|r|b>*<b|rxdel|0> + (<0|rxdel|b>*<b|r|0>)*]
 Rotatory Strengths (R) in cgs (10**-40 erg-esu-cm/Gauss)
       state          XX          YY          ZZ     R(length)
         1      -112.5036   -293.3512    413.0329      2.3927
         2        -1.4521     14.3352     18.4057     10.4296
         3         2.5852     15.1892    -32.6314     -4.9523
         4        -2.2059    -10.8672      6.3462     -2.2423
         5        23.7660     60.6161     -5.7794     26.2009
  1/2[<0|del|b>*<b|r|0> + (<0|r|b>*<b|del|0>)*] (Au)
       state          X           Y           Z        Dip. S.   Osc.(frdel)
         1        -0.2084     -0.3308     -0.0093      0.5485      0.3657
         2        -0.0591     -0.0567     -0.0007      0.1165      0.0777
         3        -0.0001     -0.0009     -0.0003      0.0014      0.0009
         4         0.0000     -0.0011     -0.0001      0.0012      0.0008
         5        -0.0148     -0.0077     -0.0001      0.0225      0.0150

 Excitation energies and oscillator strengths:
 
 Excited State   1:      Singlet-A      1.8243 eV  679.61 nm  f=0.3766  <S**2>=0.000
     245 -> 248        0.17094
     246 -> 247        0.69513
     246 <- 247       -0.11430
 This state for optimization and/or second-order correction.
 Total Energy, E(TD-HF/TD-DFT) =  -3005.26022465    
 Copying the excited state density for this state as the 1-particle RhoCI density.
 
 Excited State   2:      Singlet-A      2.2514 eV  550.70 nm  f=0.0816  <S**2>=0.000
     245 -> 247        0.63641
     246 -> 248       -0.29228
 
 Excited State   3:      Singlet-A      3.0202 eV  410.51 nm  f=0.0011  <S**2>=0.000
     242 -> 247       -0.26646
     243 -> 247        0.63653
 
 Excited State   4:      Singlet-A      3.0601 eV  405.16 nm  f=0.0009  <S**2>=0.000
     240 -> 247        0.13549
     241 -> 247        0.28546
     242 -> 247        0.54785
     243 -> 247        0.25377
     246 -> 248        0.10526
 
 Excited State   5:      Singlet-A      3.1335 eV  395.68 nm  f=0.0151  <S**2>=0.000
     240 -> 247       -0.28942
     241 -> 247        0.53339
     241 -> 249        0.10678
     242 -> 247       -0.19520
     246 -> 248       -0.23180
 SavETr:  write IOETrn=   770 NScale= 10 NData=  16 NLR=1 NState=    5 LETran=     100.
 Leave Link  914 at Wed May  4 13:24:29 2022, MaxMem= 10066329600 cpu:           23309.4 elap:             973.0
 (Enter /sw/apps/gaussian-16.0/g16/l601.exe)
 Copying SCF densities to generalized density rwf, IOpCl= 0 IROHF=0.
 Hyperfine terms turned off by default for NAtoms > 100.

 **********************************************************************

            Population analysis using the SCF density.

 **********************************************************************

 Orbital symmetries:
       Occupied  (A) (A) (A) (A) (A) (A) (A) (A) (A) (A) (A) (A)
                 (A) (A) (A) (A) (A) (A) (A) (A) (A) (A) (A) (A)
                 (A) (A) (A) (A) (A) (A) (A) (A) (A) (A) (A) (A)
                 (A) (A) (A) (A) (A) (A) (A) (A) (A) (A) (A) (A)
                 (A) (A) (A) (A) (A) (A) (A) (A) (A) (A) (A) (A)
                 (A) (A) (A) (A) (A) (A) (A) (A) (A) (A) (A) (A)
                 (A) (A) (A) (A) (A) (A) (A) (A) (A) (A) (A) (A)
                 (A) (A) (A) (A) (A) (A) (A) (A) (A) (A) (A) (A)
                 (A) (A) (A) (A) (A) (A) (A) (A) (A) (A) (A) (A)
                 (A) (A) (A) (A) (A) (A) (A) (A) (A) (A) (A) (A)
                 (A) (A) (A) (A) (A) (A) (A) (A) (A) (A) (A) (A)
                 (A) (A) (A) (A) (A) (A) (A) (A) (A) (A) (A) (A)
                 (A) (A) (A) (A) (A) (A) (A) (A) (A) (A) (A) (A)
                 (A) (A) (A) (A) (A) (A) (A) (A) (A) (A) (A) (A)
                 (A) (A) (A) (A) (A) (A) (A) (A) (A) (A) (A) (A)
                 (A) (A) (A) (A) (A) (A) (A) (A) (A) (A) (A) (A)
                 (A) (A) (A) (A) (A) (A) (A) (A) (A) (A) (A) (A)
                 (A) (A) (A) (A) (A) (A) (A) (A) (A) (A) (A) (A)
                 (A) (A) (A) (A) (A) (A) (A) (A) (A) (A) (A) (A)
                 (A) (A) (A) (A) (A) (A) (A) (A) (A) (A) (A) (A)
                 (A) (A) (A) (A) (A) (A)
       Virtual   (A) (A) (A) (A) (A) (A) (A) (A) (A) (A) (A) (A)
                 (A) (A) (A) (A) (A) (A) (A) (A) (A) (A) (A) (A)
                 (A) (A) (A) (A) (A) (A) (A) (A) (A) (A) (A) (A)
                 (A) (A) (A) (A) (A) (A) (A) (A) (A) (A) (A) (A)
                 (A) (A) (A) (A) (A) (A) (A) (A) (A) (A) (A) (A)
                 (A) (A) (A) (A) (A) (A) (A) (A) (A) (A) (A) (A)
                 (A) (A) (A) (A) (A) (A) (A) (A) (A) (A) (A) (A)
                 (A) (A) (A) (A) (A) (A) (A) (A) (A) (A) (A) (A)
                 (A) (A) (A) (A) (A) (A) (A) (A) (A) (A) (A) (A)
                 (A) (A) (A) (A) (A) (A) (A) (A) (A) (A) (A) (A)
                 (A) (A) (A) (A) (A) (A) (A) (A) (A) (A) (A) (A)
                 (A) (A) (A) (A) (A) (A) (A) (A) (A) (A) (A) (A)
                 (A) (A) (A) (A) (A) (A) (A) (A) (A) (A) (A) (A)
                 (A) (A) (A) (A) (A) (A) (A) (A) (A) (A) (A) (A)
                 (A) (A) (A) (A) (A) (A) (A) (A) (A) (A) (A) (A)
                 (A) (A) (A) (A) (A) (A) (A) (A) (A) (A) (A) (A)
                 (A) (A) (A) (A) (A) (A) (A) (A) (A) (A) (A) (A)
                 (A) (A) (A) (A) (A) (A) (A) (A) (A) (A) (A) (A)
                 (A) (A) (A) (A) (A) (A) (A) (A) (A) (A) (A) (A)
                 (A) (A) (A) (A) (A) (A) (A) (A) (A) (A) (A) (A)
                 (A) (A) (A) (A) (A) (A) (A) (A) (A) (A) (A) (A)
                 (A) (A) (A) (A) (A) (A) (A) (A) (A) (A) (A) (A)
                 (A) (A) (A) (A) (A) (A) (A) (A) (A) (A) (A) (A)
[...]
 Alpha virt. eigenvalues --    1.16669   1.17479   1.18270   1.18508   1.18643
 Alpha virt. eigenvalues --    1.19581   1.20185   1.20901   1.21264   1.21814
 Alpha virt. eigenvalues --    1.22307   1.23011   1.23158   1.23821   1.24074
 Alpha virt. eigenvalues --    1.24475   1.24638   1.24896   1.25170   1.26014
 Alpha virt. eigenvalues --    1.26119   1.26512   1.26729   1.27487   1.28035
 Alpha virt. eigenvalues --    1.28254   1.28932   1.29352   1.29637   1.30040
 Alpha virt. eigenvalues --    1.30371   1.31090   1.31363   1.31848   1.32126
 Alpha virt. eigenvalues --    1.32736   1.32814   1.33244   1.33723   1.33870
 Alpha virt. eigenvalues --    1.34392   1.34500   1.34532   1.34997   1.35211
 Alpha virt. eigenvalues --    1.36053   1.36377   1.36439   1.36730   1.37461
 Alpha virt. eigenvalues --    1.37984   1.38382   1.38788   1.39009   1.39793
 Alpha virt. eigenvalues --    1.40137   1.40800   1.41451   1.41747   1.42344
 Alpha virt. eigenvalues --    1.42929   1.43024   1.43537   1.43660   1.43738
 Alpha virt. eigenvalues --    1.44543   1.45182   1.45363   1.45768   1.46728
 Alpha virt. eigenvalues --    1.47004   1.47146   1.47435   1.47615   1.48928
 Alpha virt. eigenvalues --    1.49040   1.49533   1.49817   1.50233   1.50621
 Alpha virt. eigenvalues --    1.51122   1.51237   1.51618   1.52083   1.52296
 Alpha virt. eigenvalues --    1.52455   1.52631   1.53470   1.53649   1.53813
 Alpha virt. eigenvalues --    1.53950   1.54343   1.54676   1.54734   1.55101
 Alpha virt. eigenvalues --    1.55496   1.55753   1.55951   1.56224   1.56304
 Alpha virt. eigenvalues --    1.57225   1.57329   1.57544   1.57736   1.57946
 Alpha virt. eigenvalues --    1.58188   1.58324   1.58985   1.59045   1.59266
 Alpha virt. eigenvalues --    1.59509   1.59832   1.60411   1.60609   1.61403
 Alpha virt. eigenvalues --    1.61929   1.62302   1.62360   1.62795   1.63327
 Alpha virt. eigenvalues --    1.63422   1.63949   1.65048   1.65222   1.65974
 Alpha virt. eigenvalues --    1.66620   1.66753   1.67151   1.67315   1.67511
 Alpha virt. eigenvalues --    1.68394   1.68633   1.68670   1.69060   1.69091
 Alpha virt. eigenvalues --    1.69906   1.70463   1.70645   1.70721   1.71074
 Alpha virt. eigenvalues --    1.71367   1.72151   1.72262   1.72592   1.72874
 Alpha virt. eigenvalues --    1.73160   1.73408   1.73536   1.73828   1.74106
 Alpha virt. eigenvalues --    1.74262   1.74553   1.74755   1.74772   1.75158
 Alpha virt. eigenvalues --    1.75366   1.75869   1.76511   1.76938   1.76959
 Alpha virt. eigenvalues --    1.77069   1.77269   1.77458   1.77532   1.77815
 Alpha virt. eigenvalues --    1.77859   1.78028   1.78180   1.78544   1.78743
 Alpha virt. eigenvalues --    1.78921   1.79457   1.79556   1.79881   1.80116
 Alpha virt. eigenvalues --    1.80338   1.80523   1.81011   1.81325   1.81535
 Alpha virt. eigenvalues --    1.81570   1.81830   1.82045   1.82078   1.82376
 Alpha virt. eigenvalues --    1.82784   1.82996   1.83292   1.83452   1.83540
 Alpha virt. eigenvalues --    1.83770   1.83900   1.84045   1.84270   1.84520
 Alpha virt. eigenvalues --    1.84569   1.84845   1.85054   1.85071   1.85160
 Alpha virt. eigenvalues --    1.85417   1.85835   1.85950   1.86144   1.86285
 Alpha virt. eigenvalues --    1.86630   1.86807   1.86936   1.87166   1.87316
 Alpha virt. eigenvalues --    1.87418   1.87583   1.87667   1.88198   1.88472
 Alpha virt. eigenvalues --    1.88888   1.88932   1.89053   1.89075   1.89387
 Alpha virt. eigenvalues --    1.89950   1.90176   1.90333   1.90619   1.90851
 Alpha virt. eigenvalues --    1.91015   1.91193   1.91276   1.91540   1.91802
 Alpha virt. eigenvalues --    1.92359   1.92458   1.92636   1.93184   1.93327
 Alpha virt. eigenvalues --    1.93700   1.93811   1.93819   1.94064   1.94280
 Alpha virt. eigenvalues --    1.94586   1.94772   1.94962   1.95243   1.95664
 Alpha virt. eigenvalues --    1.95721   1.96036   1.96402   1.96633   1.97042
 Alpha virt. eigenvalues --    1.97230   1.97550   1.97654   1.98211   1.98418
 Alpha virt. eigenvalues --    1.98513   1.98738   1.98965   1.99106   1.99495
 Alpha virt. eigenvalues --    1.99653   1.99899   2.00431   2.00531   2.00914
 Alpha virt. eigenvalues --    2.01212   2.01411   2.01813   2.02194   2.02391
 Alpha virt. eigenvalues --    2.02940   2.03165   2.03278   2.03739   2.04050
 Alpha virt. eigenvalues --    2.04164   2.04636   2.04935   2.05022   2.05297
 Alpha virt. eigenvalues --    2.05562   2.06094   2.06259   2.06386   2.07057
 Alpha virt. eigenvalues --    2.07560   2.08033   2.08128   2.08611   2.08801
 Alpha virt. eigenvalues --    2.09016   2.09644   2.10030   2.10348   2.10516
 Alpha virt. eigenvalues --    2.10652   2.10972   2.11280   2.11502   2.12035
 Alpha virt. eigenvalues --    2.12272   2.12455   2.12505   2.12804   2.12989
 Alpha virt. eigenvalues --    2.13267   2.13453   2.13593   2.14007   2.14067
 Alpha virt. eigenvalues --    2.14751   2.16181   2.16356   2.16554   2.16652
 Alpha virt. eigenvalues --    2.17346   2.18122   2.18180   2.18475   2.18673
 Alpha virt. eigenvalues --    2.19303   2.19614   2.19761   2.19997   2.20319
 Alpha virt. eigenvalues --    2.21378   2.21604   2.21940   2.22351   2.22821
 Alpha virt. eigenvalues --    2.23175   2.23925   2.24124   2.24481   2.24814
 Alpha virt. eigenvalues --    2.25283   2.25881   2.26594   2.26719   2.27307
 Alpha virt. eigenvalues --    2.27810   2.28084   2.28153   2.28637   2.28930
 Alpha virt. eigenvalues --    2.29418   2.29869   2.30032   2.30811   2.31379
 Alpha virt. eigenvalues --    2.31935   2.32538   2.33204   2.33540   2.33692
 Alpha virt. eigenvalues --    2.34137   2.34398   2.34776   2.35027   2.35241
 Alpha virt. eigenvalues --    2.35854   2.35972   2.36386   2.36660   2.37153
 Alpha virt. eigenvalues --    2.37276   2.37979   2.38257   2.38307   2.38776
 Alpha virt. eigenvalues --    2.38955   2.39447   2.39844   2.40114   2.40504
 Alpha virt. eigenvalues --    2.40668   2.40788   2.40980   2.41554   2.42055
 Alpha virt. eigenvalues --    2.42510   2.42584   2.43052   2.43391   2.43686
 Alpha virt. eigenvalues --    2.44299   2.44504   2.45168   2.45428   2.45584
 Alpha virt. eigenvalues --    2.46234   2.46587   2.46945   2.47168   2.47384
 Alpha virt. eigenvalues --    2.47904   2.48222   2.48428   2.48702   2.49418
 Alpha virt. eigenvalues --    2.49798   2.50019   2.51072   2.51665   2.52753
 Alpha virt. eigenvalues --    2.53002   2.53127   2.53378   2.53932   2.54232
 Alpha virt. eigenvalues --    2.54287   2.55214   2.55381   2.56072   2.56473
 Alpha virt. eigenvalues --    2.56750   2.57013   2.57151   2.57529   2.57687
 Alpha virt. eigenvalues --    2.58052   2.58693   2.59156   2.59588   2.60084
 Alpha virt. eigenvalues --    2.60163   2.61080   2.61423   2.61781   2.62204
 Alpha virt. eigenvalues --    2.62588   2.62701   2.62996   2.63317   2.63474
 Alpha virt. eigenvalues --    2.63861   2.64045   2.64557   2.65178   2.65458
 Alpha virt. eigenvalues --    2.65812   2.66106   2.66342   2.66767   2.67396
 Alpha virt. eigenvalues --    2.67539   2.67595   2.68345   2.68997   2.69236
 Alpha virt. eigenvalues --    2.69341   2.70262   2.70525   2.71665   2.72176
 Alpha virt. eigenvalues --    2.72349   2.72707   2.72803   2.72958   2.73011
 Alpha virt. eigenvalues --    2.73371   2.73865   2.74175   2.74465   2.74907
 Alpha virt. eigenvalues --    2.75514   2.75622   2.76029   2.76149   2.77114
 Alpha virt. eigenvalues --    2.77217   2.77927   2.78379   2.79054   2.79630
 Alpha virt. eigenvalues --    2.80433   2.80938   2.81256   2.81421   2.83631
 Alpha virt. eigenvalues --    2.83713   2.83934   2.84124   2.84551   2.86197
 Alpha virt. eigenvalues --    2.86544   2.86746   2.87315   2.87742   2.87772
 Alpha virt. eigenvalues --    2.89233   2.89490   2.89638   2.90008   2.90309
 Alpha virt. eigenvalues --    2.91220   2.91904   2.92221   2.92357   2.92782
 Alpha virt. eigenvalues --    2.92862   2.93077   2.93337   2.93634   2.93833
 Alpha virt. eigenvalues --    2.94083   2.94646   2.94919   2.95277   2.95466
 Alpha virt. eigenvalues --    2.96059   2.97293   2.97322   2.97817   2.98062
 Alpha virt. eigenvalues --    2.98282   2.98308   2.98575   2.99317   2.99332
 Alpha virt. eigenvalues --    2.99602   2.99785   2.99868   3.00174   3.00397
 Alpha virt. eigenvalues --    3.00569   3.01114   3.01367   3.01497   3.01809
 Alpha virt. eigenvalues --    3.02436   3.02530   3.02979   3.03060   3.03334
 Alpha virt. eigenvalues --    3.03511   3.04141   3.04845   3.05241   3.05261
 Alpha virt. eigenvalues --    3.06116   3.06330   3.07235   3.07386   3.07636
 Alpha virt. eigenvalues --    3.07996   3.08547   3.08764   3.09259   3.09962
 Alpha virt. eigenvalues --    3.10766   3.11279   3.11517   3.11580   3.12527
 Alpha virt. eigenvalues --    3.14227   3.14623   3.14696   3.14705   3.15893
 Alpha virt. eigenvalues --    3.16609   3.17485   3.18057   3.18592   3.19110
 Alpha virt. eigenvalues --    3.20387   3.20499   3.21276   3.22156   3.24395
 Alpha virt. eigenvalues --    3.25731   3.26226   3.35051   3.39450   3.41612
 Alpha virt. eigenvalues --    3.42422   3.43555   3.45005   3.50502   3.52068
 Alpha virt. eigenvalues --    3.57197   3.58029   3.62331   3.63173   3.64392
 Alpha virt. eigenvalues --    3.66641   3.68860
          Condensed to atoms (all electrons):
 Mulliken charges:
               1
     1  Mg   1.000537
     2  C   -0.077517
     3  C   -0.079715
     4  C   -0.031350
     5  C   -0.062389
     6  N   -0.418632
     7  C    0.024011
     8  C   -0.099123
     9  C   -0.156960
    10  C    0.050800
    11  C    0.013287
    12  C    0.032318
    13  C    0.028157
    14  C    0.191815
    15  O   -0.294934
    16  O   -0.345863
    17  N   -0.563941
    18  C    0.212601
    19  C   -0.114223
    20  C   -0.107446
    21  C    0.137016
    22  C    0.003308
    23  C    0.079680
    24  O   -0.226664
    25  C   -0.030814
    26  N   -0.414168
    27  C    0.089591
    28  C   -0.086115
    29  C   -0.061268
    30  C    0.088944
    31  C    0.001071
    32  C   -0.019590
    33  C   -0.081410
    34  N   -0.417875
    35  C    0.060544
    36  C   -0.178428
    37  C   -0.000461
    38  C    0.170011
    39  C    0.055050
    40  C    0.126536
    41  O   -0.199843
    42  C   -0.088235
    43  C    0.309403
    44  O   -0.288982
    45  O   -0.364512
    46  C    0.122246
    47  C    0.262699
    48  C   -0.124180
    49  C   -0.239303
    50  C    0.029901
    51  C   -0.002524
    52  C   -0.015208
    53  C   -0.028946
    54  C   -0.212227
    55  C   -0.006637
    56  C   -0.007388
    57  C   -0.061184
    58  C    0.033359
    59  C   -0.211878
    60  C   -0.042958
    61  C    0.026041
    62  C   -0.038807
    63  C   -0.038587
    64  C   -0.204440
    65  C   -0.027572
    66  C   -0.036420
    67  H    0.013376
    68  H    0.017713
    69  H   -0.003072
    70  H    0.048634
    71  H    0.051366
    72  H    0.055745
    73  H    0.070905
    74  H    0.049830
    75  H    0.053029
    76  H    0.049345
    77  H    0.069210
    78  H    0.043971
    79  H    0.056788
    80  H    0.040276
    81  H    0.032851
    82  H    0.039644
    83  H    0.075645
    84  H    0.054965
    85  H    0.067068
    86  H    0.060648
    87  H    0.051034
    88  H    0.040383
    89  H    0.050626
    90  H    0.045966
    91  H    0.036419
    92  H    0.036793
    93  H    0.032469
    94  H    0.039974
    95  H    0.065585
    96  H    0.045681
    97  H    0.067352
    98  H    0.073340
    99  H    0.051958
   100  H    0.068724
   101  H    0.060759
   102  H    0.076446
   103  H    0.044107
   104  H    0.024632
   105  H    0.050891
   106  H    0.059441
   107  H    0.022526
   108  H    0.029858
   109  H    0.026732
   110  H    0.033034
   111  H    0.042905
   112  H    0.030030
   113  H    0.033919
   114  H    0.032811
   115  H    0.018742
   116  H    0.037037
   117  H    0.021274
   118  H    0.023724
   119  H    0.026901
   120  H    0.029970
   121  H    0.035851
   122  H    0.024710
   123  H    0.025761
   124  H    0.026960
   125  H    0.038250
   126  H    0.031980
   127  H    0.026657
   128  H    0.019445
   129  H    0.020248
   130  H    0.020267
   131  H    0.027436
   132  H    0.023375
   133  H    0.041807
   134  H    0.034091
   135  H    0.031624
   136  H    0.041107
   137  H    0.032954
   138  H    0.019135
   139  H    0.036894
   140  H    0.021258
 Sum of Mulliken charges =  -0.00000
 Mulliken charges with hydrogens summed into heavy atoms:
               1
     1  Mg   1.000537
     2  C   -0.077517
     3  C   -0.066339
     4  C   -0.013637
     5  C   -0.065461
     6  N   -0.418632
     7  C    0.024011
     8  C   -0.050488
     9  C   -0.105594
    10  C    0.050800
    11  C    0.189768
    12  C    0.134691
    13  C    0.141338
    14  C    0.191815
    15  O   -0.294934
    16  O   -0.345863
    17  N   -0.563941
    18  C    0.212601
    19  C   -0.114223
    20  C   -0.107446
    21  C    0.137016
    22  C    0.133222
    23  C    0.079680
    24  O   -0.226664
    25  C    0.139440
    26  N   -0.414168
    27  C    0.089591
    28  C   -0.019047
    29  C   -0.000621
    30  C    0.088944
    31  C    0.143114
    32  C    0.062795
    33  C    0.027826
    34  N   -0.417875
    35  C    0.060544
    36  C   -0.178428
    37  C   -0.000461
    38  C    0.170011
    39  C    0.233667
    40  C    0.126536
    41  O   -0.199843
    42  C   -0.014896
    43  C    0.309403
    44  O   -0.288982
    45  O   -0.364512
    46  C    0.303688
    47  C    0.383252
    48  C   -0.099547
    49  C   -0.239303
    50  C    0.162759
    51  C    0.054066
    52  C    0.060730
    53  C    0.035003
    54  C   -0.179415
    55  C    0.070416
    56  C    0.043238
    57  C    0.004637
    58  C    0.083830
    59  C   -0.184918
    60  C    0.053930
    61  C    0.065734
    62  C    0.008896
    63  C    0.026595
    64  C   -0.170349
    65  C    0.078113
    66  C    0.040867
 Electronic spatial extent (au):  <R**2>=         107229.8306
 Charge=             -0.0000 electrons
 Dipole moment (field-independent basis, Debye):
    X=              4.7305    Y=              2.4465    Z=              1.0788  Tot=              5.4339
 Quadrupole moment (field-independent basis, Debye-Ang):
   XX=           -366.3748   YY=           -421.9274   ZZ=           -419.2223
   XY=            -24.8999   XZ=              2.9724   YZ=              0.1193
 Traceless Quadrupole moment (field-independent basis, Debye-Ang):
   XX=             36.1334   YY=            -19.4192   ZZ=            -16.7141
   XY=            -24.8999   XZ=              2.9724   YZ=              0.1193
 Octapole moment (field-independent basis, Debye-Ang**2):
  XXX=           -308.5022  YYY=           -112.2361  ZZZ=             31.3059  XYY=            278.4955
  XXY=            189.5126  XXZ=            -72.2862  XZZ=             12.5881  YZZ=             28.3841
  YYZ=             94.8434  XYZ=            -96.2371
 Hexadecapole moment (field-independent basis, Debye-Ang**3):
 XXXX=        -104450.0136 YYYY=         -26705.2318 ZZZZ=         -11121.0826 XXXY=          -1909.4351
 XXXZ=           -543.6710 YYYX=           -265.2824 YYYZ=           -105.6865 ZZZX=             97.5354
 ZZZY=           -196.1774 XXYY=         -23700.9399 XXZZ=         -20422.4250 YYZZ=          -6319.3542
 XXYZ=            531.2086 YYXZ=           -135.4731 ZZXY=             55.5079
 N-N= 9.611253862669D+03 E-N=-2.621315839256D+04  KE= 2.975201394841D+03
 Leave Link  601 at Wed May  4 13:24:29 2022, MaxMem= 10066329600 cpu:              12.6 elap:               0.6
 (Enter /sw/apps/gaussian-16.0/g16/l9999.exe)
 1\1\GINC-BP1-COMPUTE065\SP\RPBE1PBE TD-FC\def2SVP\C55H74Mg1N4O6\OF1564
 1\04-May-2022\0\\#p PBE1PBE/Def2SVP td=(nstates=5)\\step_1751_chromoph
 ore_27 TDDFT with PBE1PBE functional\\0,1\Mg,0,-5.722,25.286,26.529\C,
 0,-4.,27.315,28.885\C,0,-6.548,23.12,29.077\C,0,-6.839,23.273,24.235\C
 ,0,-4.068,27.186,24.045\N,0,-5.32,25.305,28.663\C,0,-4.62,26.238,29.41
 6\C,0,-4.91,26.001,30.928\C,0,-5.379,24.461,30.957\C,0,-5.824,24.297,2
 9.509\C,0,-4.255,23.308,31.19\C,0,-5.965,26.983,31.559\C,0,-5.694,27.5
 04,32.921\C,0,-6.735,27.138,34.017\O,0,-7.819,27.712,34.271\O,0,-6.423
 ,25.995,34.635\N,0,-6.812,23.627,26.627\C,0,-6.998,22.809,27.781\C,0,-
 7.813,21.712,27.403\C,0,-8.062,21.839,25.995\C,0,-7.233,22.95,25.537\C
 ,0,-8.299,20.748,28.436\C,0,-9.077,21.053,25.174\O,0,-9.25,21.344,24.0
 12\C,0,-9.64,19.773,25.785\N,0,-5.377,25.177,24.484\C,0,-5.994,24.249,
 23.709\C,0,-5.849,24.469,22.214\C,0,-4.811,25.638,22.176\C,0,-4.723,26
 .039,23.632\C,0,-5.248,23.205,21.566\C,0,-5.377,26.81,21.365\C,0,-4.5,
 27.226,20.139\N,0,-4.482,27.076,26.413\C,0,-3.834,27.676,25.364\C,0,-3
 .042,28.853,25.851\C,0,-3.15,28.768,27.239\C,0,-3.93,27.624,27.526\C,0
 ,-2.314,29.783,25.005\C,0,-2.782,29.399,28.474\O,0,-2.078,30.377,28.61
 3\C,0,-3.358,28.467,29.707\C,0,-2.279,28.065,30.529\O,0,-1.327,27.354,
 30.129\O,0,-2.439,28.554,31.797\C,0,-1.518,27.891,32.772\C,0,-7.054,25
 .783,35.973\C,0,-7.95,24.637,35.979\C,0,-8.179,23.647,36.972\C,0,-7.74
 5,23.588,38.398\C,0,-9.059,22.463,36.684\C,0,-10.519,22.615,37.142\C,0
 ,-10.936,21.578,38.226\C,0,-12.085,20.66,37.87\C,0,-13.407,21.423,38.1
 57\C,0,-12.057,19.311,38.643\C,0,-11.639,18.218,37.706\C,0,-11.16,16.9
 52,38.595\C,0,-9.683,16.914,38.597\C,0,-9.037,17.799,39.739\C,0,-9.151
 ,15.486,38.758\C,0,-7.804,15.216,38.14\C,0,-6.618,15.36,39.128\C,0,-5.
 345,14.607,38.749\C,0,-4.45,14.248,39.975\C,0,-4.504,15.263,37.633\H,0
 ,-6.891,22.559,29.948\H,0,-7.26,22.488,23.604\H,0,-3.463,27.822,23.395
 \H,0,-3.91,26.025,31.363\H,0,-6.21,24.41,31.66\H,0,-3.324,23.843,31.37
 6\H,0,-4.219,22.584,30.376\H,0,-4.6,22.822,32.103\H,0,-6.951,26.521,31
 .601\H,0,-6.125,27.819,30.878\H,0,-5.491,28.575,32.941\H,0,-4.75,27.05
 5,33.227\H,0,-9.23,21.016,28.934\H,0,-7.579,20.637,29.247\H,0,-8.482,1
 9.689,28.253\H,0,-10.131,20.089,26.705\H,0,-8.798,19.197,26.168\H,0,-1
 0.477,19.228,25.346\H,0,-6.817,24.781,21.821\H,0,-3.767,25.409,21.96\H
 ,0,-4.778,22.633,22.366\H,0,-4.505,23.408,20.795\H,0,-5.952,22.54,21.0
 65\H,0,-5.609,27.678,21.982\H,0,-6.357,26.641,20.918\H,0,-4.076,28.229
 ,20.18\H,0,-5.097,27.318,19.231\H,0,-3.686,26.538,19.915\H,0,-2.133,30
 .785,25.393\H,0,-2.663,29.847,23.975\H,0,-1.347,29.28,24.995\H,0,-4.20
 7,28.931,30.21\H,0,-1.872,28.207,33.753\H,0,-0.476,28.212,32.773\H,0,-
 1.542,26.805,32.675\H,0,-7.586,26.633,36.403\H,0,-6.259,25.584,36.692\
 H,0,-8.403,24.412,35.014\H,0,-7.189,22.679,38.63\H,0,-8.665,23.715,38.
 967\H,0,-7.04,24.365,38.692\H,0,-8.679,21.541,37.122\H,0,-8.989,22.366
 ,35.6\H,0,-11.117,22.438,36.249\H,0,-10.779,23.613,37.496\H,0,-11.187,
 22.14,39.126\H,0,-10.125,20.88,38.437\H,0,-12.038,20.5,36.793\H,0,-13.
 914,20.989,39.019\H,0,-14.2,21.443,37.409\H,0,-13.223,22.435,38.518\H,
 0,-13.01,18.969,39.045\H,0,-11.517,19.36,39.588\H,0,-10.842,18.571,37.
 053\H,0,-12.482,17.954,37.068\H,0,-11.599,16.018,38.243\H,0,-11.53,17.
 107,39.608\H,0,-9.214,17.337,37.709\H,0,-9.477,17.56,40.707\H,0,-9.111
 ,18.837,39.414\H,0,-7.961,17.729,39.899\H,0,-9.851,14.795,38.288\H,0,-
 9.058,15.27,39.822\H,0,-7.547,16.001,37.429\H,0,-7.78,14.248,37.64\H,0
 ,-6.92,14.948,40.091\H,0,-6.44,16.435,39.159\H,0,-5.524,13.695,38.179\
 H,0,-5.088,13.689,40.66\H,0,-4.023,15.119,40.473\H,0,-3.64,13.547,39.7
 72\H,0,-5.111,16.048,37.182\H,0,-4.098,14.717,36.781\H,0,-3.621,15.717
 ,38.083\\Version=ES64L-G16RevA.03\State=1-A\HF=-3005.3272679\RMSD=8.32
 5e-09\PG=C01 [X(C55H74Mg1N4O6)]\\@


 At the touch of love, everyone becomves a poet.
                                -- Plato
 Job cpu time:       0 days  8 hours 17 minutes 52.1 seconds.
 Elapsed time:       0 days  0 hours 20 minutes 48.5 seconds.
 File lengths (MBytes):  RWF=   8929 Int=      0 D2E=      0 Chk=    390 Scr=      1
 Normal termination of Gaussian 16 at Wed May  4 13:24:30 2022.
