 Entering Gaussian System, Link 0=g16
 Initial command:
 /sw/apps/gaussian-16.0/g16/l1.exe "/tmp/Gau-68271.inp" -scrdir="/tmp/"
 Entering Link 1 = /sw/apps/gaussian-16.0/g16/l1.exe PID=     68272.
  
 Copyright (c) 1988,1990,1992,1993,1995,1998,2003,2009,2016,
            Gaussian, Inc.  All Rights Reserved.
  
 This is part of the Gaussian(R) 16 program.  It is based on
 the Gaussian(R) 09 system (copyright 2009, Gaussian, Inc.),
 the Gaussian(R) 03 system (copyright 2003, Gaussian, Inc.),
 the Gaussian(R) 98 system (copyright 1998, Gaussian, Inc.),
 the Gaussian(R) 94 system (copyright 1995, Gaussian, Inc.),
 the Gaussian 92(TM) system (copyright 1992, Gaussian, Inc.),
 the Gaussian 90(TM) system (copyright 1990, Gaussian, Inc.),
 the Gaussian 88(TM) system (copyright 1988, Gaussian, Inc.),
 the Gaussian 86(TM) system (copyright 1986, Carnegie Mellon
 University), and the Gaussian 82(TM) system (copyright 1983,
 Carnegie Mellon University). Gaussian is a federally registered
 trademark of Gaussian, Inc.
  
 This software contains proprietary and confidential information,
 including trade secrets, belonging to Gaussian, Inc.
  
 This software is provided under written license and may be
 used, copied, transmitted, or stored only in accord with that
 written license.
  
 The following legend is applicable only to US Government
 contracts under FAR:
  
                    RESTRICTED RIGHTS LEGEND
  
 Use, reproduction and disclosure by the US Government is
 subject to restrictions as set forth in subparagraphs (a)
 and (c) of the Commercial Computer Software - Restricted
 Rights clause in FAR 52.227-19.
  
 Gaussian, Inc.
 340 Quinnipiac St., Bldg. 40, Wallingford CT 06492
  
  
 ---------------------------------------------------------------
 Warning -- This program may not be used in any manner that
 competes with the business of Gaussian, Inc. or will provide
 assistance to any competitor of Gaussian, Inc.  The licensee
 of this program is prohibited from giving any competitor of
 Gaussian, Inc. access to this program.  By using this program,
 the user acknowledges that Gaussian, Inc. is engaged in the
 business of creating and licensing software in the field of
 computational chemistry and represents and warrants to the
 licensee that it is not a competitor of Gaussian, Inc. and that
 it will not use this program in any manner prohibited above.
 ---------------------------------------------------------------
  

 Cite this work as:
 Gaussian 16, Revision A.03,
 M. J. Frisch, G. W. Trucks, H. B. Schlegel, G. E. Scuseria, 
 M. A. Robb, J. R. Cheeseman, G. Scalmani, V. Barone, 
 G. A. Petersson, H. Nakatsuji, X. Li, M. Caricato, A. V. Marenich, 
 J. Bloino, B. G. Janesko, R. Gomperts, B. Mennucci, H. P. Hratchian, 
 J. V. Ortiz, A. F. Izmaylov, J. L. Sonnenberg, D. Williams-Young, 
 F. Ding, F. Lipparini, F. Egidi, J. Goings, B. Peng, A. Petrone, 
 T. Henderson, D. Ranasinghe, V. G. Zakrzewski, J. Gao, N. Rega, 
 G. Zheng, W. Liang, M. Hada, M. Ehara, K. Toyota, R. Fukuda, 
 J. Hasegawa, M. Ishida, T. Nakajima, Y. Honda, O. Kitao, H. Nakai, 
 T. Vreven, K. Throssell, J. A. Montgomery, Jr., J. E. Peralta, 
 F. Ogliaro, M. J. Bearpark, J. J. Heyd, E. N. Brothers, K. N. Kudin, 
 V. N. Staroverov, T. A. Keith, R. Kobayashi, J. Normand, 
 K. Raghavachari, A. P. Rendell, J. C. Burant, S. S. Iyengar, 
 J. Tomasi, M. Cossi, J. M. Millam, M. Klene, C. Adamo, R. Cammi, 
 J. W. Ochterski, R. L. Martin, K. Morokuma, O. Farkas, 
 J. B. Foresman, and D. J. Fox, Gaussian, Inc., Wallingford CT, 2016.
 
 ******************************************
 Gaussian 16:  ES64L-G16RevA.03 25-Dec-2016
                 5-May-2022 
 ******************************************
 %nproc=24
 Will use up to   24 processors via shared memory.
 %mem=75GB
 ---------------------------------
 #p PBE1PBE/Def2SVP td=(nstates=5)
 ---------------------------------
 1/38=1,172=1/1;
 2/12=2,17=6,18=5,40=1/2;
 3/5=43,7=101,11=9,25=1,30=1,74=-13/1,2,3,8;
 4//1;
 5/5=2,38=5/2;
 8/6=1,10=1,108=5/1;
 9/41=5,42=1,70=2/14;
 6/7=2,8=2,9=2,10=2/1;
 99/5=1,9=1/99;
 Leave Link    1 at Thu May  5 08:30:26 2022, MaxMem= 10066329600 cpu:               1.1 elap:               0.1
 (Enter /sw/apps/gaussian-16.0/g16/l101.exe)
 -----------------------------------------------------
 step_751_chromophore_27 TDDFT with PBE1PBE functional
 -----------------------------------------------------
 Symbolic Z-matrix:
 Charge =  0 Multiplicity = 1
 Mg                   -5.573     24.878    26.729 
 C                    -3.791     26.673    29.242 
 C                    -6.56      22.653    29.117 
 C                    -6.836     23.077    24.284 
 C                    -3.825     26.867    24.349 
 N                    -5.091     24.728    28.86 
 C                    -4.506     25.634    29.754 
 C                    -4.879     25.347    31.233 
 C                    -5.619     23.929    31.136 
 C                    -5.756     23.681    29.581 
 C                    -4.814     22.885    31.879 
 C                    -5.717     26.372    32.002 
 C                    -5.335     26.522    33.503 
 C                    -6.378     26.496    34.586 
 O                    -6.371     27.338    35.463 
 O                    -7.211     25.302    34.564 
 N                    -6.679     23.132    26.734 
 C                    -6.968     22.285    27.803 
 C                    -7.692     21.193    27.345 
 C                    -7.826     21.31     25.949 
 C                    -7.111     22.568    25.549 
 C                    -8.112     20.098    28.313 
 C                    -8.412     20.385    24.946 
 O                    -8.582     20.613    23.722 
 C                    -9.162     19.194    25.337 
 N                    -5.124     24.757    24.575 
 C                    -5.938     24.063    23.861 
 C                    -5.525     24.249    22.338 
 C                    -5.014     25.703    22.312 
 C                    -4.645     25.816    23.808 
 C                    -4.63      23.101    21.734 
 C                    -6.152     26.694    21.904 
 C                    -6.14      27.096    20.406 
 N                    -4.173     26.567    26.739 
 C                    -3.566     27.235    25.641 
 C                    -2.778     28.302    26.219 
 C                    -2.803     28.076    27.644 
 C                    -3.689     27.056    27.886 
 C                    -2.083     29.474    25.529 
 C                    -2.319     28.623    28.894 
 O                    -1.503     29.507    29.158 
 C                    -2.927     27.748    29.981 
 C                    -1.85      27.042    30.712 
 O                    -0.808     26.63     30.2 
 O                    -2.13      27.018    32.034 
 C                    -1.052     26.593    32.86 
 C                    -7.838     25.245    35.864 
 C                    -8.725     24.016    35.834 
 C                    -8.629     22.888    36.594 
 C                    -7.456     22.558    37.565 
 C                    -9.77      21.898    36.601 
 C                    -11.161    22.202    37.187 
 C                    -11.771    21.21     38.187 
 C                    -12.858    20.316    37.688 
 C                    -14.263    20.976    37.619 
 C                    -12.925    18.9      38.361 
 C                    -11.908    17.912    37.704 
 C                    -11.234    16.907    38.748 
 C                    -9.692     16.876    38.643 
 C                    -8.98      17.809    39.634 
 C                    -9.173     15.435    38.979 
 C                    -7.679     15.395    38.571 
 C                    -6.875     14.879    39.85 
 C                    -5.7       13.934    39.467 
 C                    -5.321     13.135    40.704 
 C                    -4.488     14.724    38.939 
 H                    -6.894     21.937    29.871 
 H                    -7.143     22.524    23.394 
 H                    -3.288     27.605    23.749 
 H                    -3.952     25.181    31.781 
 H                    -6.525     23.863    31.739 
 H                    -4.343     23.406    32.713 
 H                    -4.071     22.396    31.25 
 H                    -5.454     22.074    32.226 
 H                    -6.755     26.071    31.861 
 H                    -5.606     27.346    31.525 
 H                    -4.692     27.391    33.641 
 H                    -4.592     25.753    33.716 
 H                    -9.118     19.714    28.143 
 H                    -8.176     20.519    29.317 
 H                    -7.487     19.205    28.308 
 H                    -8.763     18.8      26.272 
 H                    -9.194     18.392    24.601 
 H                    -10.146    19.611    25.555 
 H                    -6.419     24.181    21.718 
 H                    -4.059     25.785    21.793 
 H                    -4.344     22.393    22.512 
 H                    -3.757     23.454    21.186 
 H                    -5.172     22.492    21.01 
 H                    -6.031     27.548    22.57 
 H                    -7.107     26.299    22.251 
 H                    -5.253     26.745    19.878 
 H                    -6.101     28.185    20.38 
 H                    -7.063     26.74     19.95 
 H                    -1.053     29.155    25.373 
 H                    -2.138     30.413    26.081 
 H                    -2.52      29.625    24.542 
 H                    -3.498     28.355    30.683 
 H                    -1.321     26.739    33.906 
 H                    -0.047     26.952    32.64 
 H                    -0.945     25.51     32.805 
 H                    -8.339     26.138    36.237 
 H                    -7.13      25.026    36.663 
 H                    -9.61      24.12     35.206 
 H                    -7.093     23.451    38.074 
 H                    -6.623     22.039    37.09 
 H                    -7.888     22.042    38.423 
 H                    -9.512     20.88     36.892 
 H                    -10.046    21.902    35.547 
 H                    -11.862    22.295    36.358 
 H                    -11.063    23.165    37.687 
 H                    -12.157    21.798    39.02 
 H                    -10.965    20.618    38.621 
 H                    -12.687    20.149    36.624 
 H                    -14.306    21.986    38.028 
 H                    -15.089    20.555    38.192 
 H                    -14.65     21.068    36.604 
 H                    -13.924    18.473    38.45 
 H                    -12.533    19.096    39.359 
 H                    -11.148    18.4      37.094 
 H                    -12.442    17.165    37.116 
 H                    -11.518    15.857    38.69 
 H                    -11.622    17.164    39.733 
 H                    -9.452     17.048    37.594 
 H                    -8.315     17.393    40.391 
 H                    -9.69      18.346    40.263 
 H                    -8.421     18.633    39.19 
 H                    -9.755     14.774    38.336 
 H                    -9.378     15.282    40.038 
 H                    -7.273     16.344    38.223 
 H                    -7.581     14.619    37.811 
 H                    -7.554     14.325    40.499 
 H                    -6.542     15.845    40.23 
 H                    -6.007     13.262    38.666 
 H                    -4.311     12.758    40.542 
 H                    -6.076     12.374    40.902 
 H                    -5.254     13.718    41.623 
 H                    -3.65      14.744    39.635 
 H                    -4.854     15.749    38.873 
 H                    -4.271     14.306    37.956 
 
 ITRead=  0  0  0  0  0  0  0  0  0  0  0  0  0  0  0  0  0  0  0  0
 ITRead=  0  0  0  0  0  0  0  0  0  0  0  0  0  0  0  0  0  0  0  0
 ITRead=  0  0  0  0  0  0  0  0  0  0  0  0  0  0  0  0  0  0  0  0
 ITRead=  0  0  0  0  0  0  0  0  0  0  0  0  0  0  0  0  0  0  0  0
 ITRead=  0  0  0  0  0  0  0  0  0  0  0  0  0  0  0  0  0  0  0  0
 ITRead=  0  0  0  0  0  0  0  0  0  0  0  0  0  0  0  0  0  0  0  0
 ITRead=  0  0  0  0  0  0  0  0  0  0  0  0  0  0  0  0  0  0  0  0
 MicOpt= -1 -1 -1 -1 -1 -1 -1 -1 -1 -1 -1 -1 -1 -1 -1 -1 -1 -1 -1 -1
 MicOpt= -1 -1 -1 -1 -1 -1 -1 -1 -1 -1 -1 -1 -1 -1 -1 -1 -1 -1 -1 -1
 MicOpt= -1 -1 -1 -1 -1 -1 -1 -1 -1 -1 -1 -1 -1 -1 -1 -1 -1 -1 -1 -1
 MicOpt= -1 -1 -1 -1 -1 -1 -1 -1 -1 -1 -1 -1 -1 -1 -1 -1 -1 -1 -1 -1
 MicOpt= -1 -1 -1 -1 -1 -1 -1 -1 -1 -1 -1 -1 -1 -1 -1 -1 -1 -1 -1 -1
 MicOpt= -1 -1 -1 -1 -1 -1 -1 -1 -1 -1 -1 -1 -1 -1 -1 -1 -1 -1 -1 -1
 MicOpt= -1 -1 -1 -1 -1 -1 -1 -1 -1 -1 -1 -1 -1 -1 -1 -1 -1 -1 -1 -1
 NAtoms=    140 NQM=      140 NQMF=       0 NMMI=      0 NMMIF=      0
                NMic=       0 NMicF=      0.
                    Isotopes and Nuclear Properties:
 (Nuclear quadrupole moments (NQMom) in fm**2, nuclear magnetic moments (NMagM)
  in nuclear magnetons)

  Atom         1           2           3           4           5           6           7           8           9          10
 IAtWgt=          24          12          12          12          12          14          12          12          12          12
 AtmWgt=  23.9850450  12.0000000  12.0000000  12.0000000  12.0000000  14.0030740  12.0000000  12.0000000  12.0000000  12.0000000
 NucSpn=           0           0           0           0           0           2           0           0           0           0
 AtZEff=  -0.0000000  -0.0000000  -0.0000000  -0.0000000  -0.0000000  -0.0000000  -0.0000000  -0.0000000  -0.0000000  -0.0000000
 NQMom=    0.0000000   0.0000000   0.0000000   0.0000000   0.0000000   2.0440000   0.0000000   0.0000000   0.0000000   0.0000000
 NMagM=    0.0000000   0.0000000   0.0000000   0.0000000   0.0000000   0.4037610   0.0000000   0.0000000   0.0000000   0.0000000
 AtZNuc=  12.0000000   6.0000000   6.0000000   6.0000000   6.0000000   7.0000000   6.0000000   6.0000000   6.0000000   6.0000000

  Atom        11          12          13          14          15          16          17          18          19          20
 IAtWgt=          12          12          12          12          16          16          14          12          12          12
 AtmWgt=  12.0000000  12.0000000  12.0000000  12.0000000  15.9949146  15.9949146  14.0030740  12.0000000  12.0000000  12.0000000
 NucSpn=           0           0           0           0           0           0           2           0           0           0
 AtZEff=  -0.0000000  -0.0000000  -0.0000000  -0.0000000  -0.0000000  -0.0000000  -0.0000000  -0.0000000  -0.0000000  -0.0000000
 NQMom=    0.0000000   0.0000000   0.0000000   0.0000000   0.0000000   0.0000000   2.0440000   0.0000000   0.0000000   0.0000000
 NMagM=    0.0000000   0.0000000   0.0000000   0.0000000   0.0000000   0.0000000   0.4037610   0.0000000   0.0000000   0.0000000
 AtZNuc=   6.0000000   6.0000000   6.0000000   6.0000000   8.0000000   8.0000000   7.0000000   6.0000000   6.0000000   6.0000000

  Atom        21          22          23          24          25          26          27          28          29          30
 IAtWgt=          12          12          12          16          12          14          12          12          12          12
 AtmWgt=  12.0000000  12.0000000  12.0000000  15.9949146  12.0000000  14.0030740  12.0000000  12.0000000  12.0000000  12.0000000
 NucSpn=           0           0           0           0           0           2           0           0           0           0
 AtZEff=  -0.0000000  -0.0000000  -0.0000000  -0.0000000  -0.0000000  -0.0000000  -0.0000000  -0.0000000  -0.0000000  -0.0000000
 NQMom=    0.0000000   0.0000000   0.0000000   0.0000000   0.0000000   2.0440000   0.0000000   0.0000000   0.0000000   0.0000000
 NMagM=    0.0000000   0.0000000   0.0000000   0.0000000   0.0000000   0.4037610   0.0000000   0.0000000   0.0000000   0.0000000
 AtZNuc=   6.0000000   6.0000000   6.0000000   8.0000000   6.0000000   7.0000000   6.0000000   6.0000000   6.0000000   6.0000000

  Atom        31          32          33          34          35          36          37          38          39          40
 IAtWgt=          12          12          12          14          12          12          12          12          12          12
 AtmWgt=  12.0000000  12.0000000  12.0000000  14.0030740  12.0000000  12.0000000  12.0000000  12.0000000  12.0000000  12.0000000
 NucSpn=           0           0           0           2           0           0           0           0           0           0
 AtZEff=  -0.0000000  -0.0000000  -0.0000000  -0.0000000  -0.0000000  -0.0000000  -0.0000000  -0.0000000  -0.0000000  -0.0000000
 NQMom=    0.0000000   0.0000000   0.0000000   2.0440000   0.0000000   0.0000000   0.0000000   0.0000000   0.0000000   0.0000000
 NMagM=    0.0000000   0.0000000   0.0000000   0.4037610   0.0000000   0.0000000   0.0000000   0.0000000   0.0000000   0.0000000
 AtZNuc=   6.0000000   6.0000000   6.0000000   7.0000000   6.0000000   6.0000000   6.0000000   6.0000000   6.0000000   6.0000000

  Atom        41          42          43          44          45          46          47          48          49          50
 IAtWgt=          16          12          12          16          16          12          12          12          12          12
 AtmWgt=  15.9949146  12.0000000  12.0000000  15.9949146  15.9949146  12.0000000  12.0000000  12.0000000  12.0000000  12.0000000
 NucSpn=           0           0           0           0           0           0           0           0           0           0
 AtZEff=  -0.0000000  -0.0000000  -0.0000000  -0.0000000  -0.0000000  -0.0000000  -0.0000000  -0.0000000  -0.0000000  -0.0000000
 NQMom=    0.0000000   0.0000000   0.0000000   0.0000000   0.0000000   0.0000000   0.0000000   0.0000000   0.0000000   0.0000000
 NMagM=    0.0000000   0.0000000   0.0000000   0.0000000   0.0000000   0.0000000   0.0000000   0.0000000   0.0000000   0.0000000
 AtZNuc=   8.0000000   6.0000000   6.0000000   8.0000000   8.0000000   6.0000000   6.0000000   6.0000000   6.0000000   6.0000000

  Atom        51          52          53          54          55          56          57          58          59          60
 IAtWgt=          12          12          12          12          12          12          12          12          12          12
 AtmWgt=  12.0000000  12.0000000  12.0000000  12.0000000  12.0000000  12.0000000  12.0000000  12.0000000  12.0000000  12.0000000
 NucSpn=           0           0           0           0           0           0           0           0           0           0
 AtZEff=  -0.0000000  -0.0000000  -0.0000000  -0.0000000  -0.0000000  -0.0000000  -0.0000000  -0.0000000  -0.0000000  -0.0000000
 NQMom=    0.0000000   0.0000000   0.0000000   0.0000000   0.0000000   0.0000000   0.0000000   0.0000000   0.0000000   0.0000000
 NMagM=    0.0000000   0.0000000   0.0000000   0.0000000   0.0000000   0.0000000   0.0000000   0.0000000   0.0000000   0.0000000
 AtZNuc=   6.0000000   6.0000000   6.0000000   6.0000000   6.0000000   6.0000000   6.0000000   6.0000000   6.0000000   6.0000000

  Atom        61          62          63          64          65          66          67          68          69          70
 IAtWgt=          12          12          12          12          12          12           1           1           1           1
 AtmWgt=  12.0000000  12.0000000  12.0000000  12.0000000  12.0000000  12.0000000   1.0078250   1.0078250   1.0078250   1.0078250
 NucSpn=           0           0           0           0           0           0           1           1           1           1
 AtZEff=  -0.0000000  -0.0000000  -0.0000000  -0.0000000  -0.0000000  -0.0000000  -0.0000000  -0.0000000  -0.0000000  -0.0000000
 NQMom=    0.0000000   0.0000000   0.0000000   0.0000000   0.0000000   0.0000000   0.0000000   0.0000000   0.0000000   0.0000000
 NMagM=    0.0000000   0.0000000   0.0000000   0.0000000   0.0000000   0.0000000   2.7928460   2.7928460   2.7928460   2.7928460
 AtZNuc=   6.0000000   6.0000000   6.0000000   6.0000000   6.0000000   6.0000000   1.0000000   1.0000000   1.0000000   1.0000000

  Atom        71          72          73          74          75          76          77          78          79          80
 IAtWgt=           1           1           1           1           1           1           1           1           1           1
 AtmWgt=   1.0078250   1.0078250   1.0078250   1.0078250   1.0078250   1.0078250   1.0078250   1.0078250   1.0078250   1.0078250
 NucSpn=           1           1           1           1           1           1           1           1           1           1
 AtZEff=  -0.0000000  -0.0000000  -0.0000000  -0.0000000  -0.0000000  -0.0000000  -0.0000000  -0.0000000  -0.0000000  -0.0000000
 NQMom=    0.0000000   0.0000000   0.0000000   0.0000000   0.0000000   0.0000000   0.0000000   0.0000000   0.0000000   0.0000000
 NMagM=    2.7928460   2.7928460   2.7928460   2.7928460   2.7928460   2.7928460   2.7928460   2.7928460   2.7928460   2.7928460
 AtZNuc=   1.0000000   1.0000000   1.0000000   1.0000000   1.0000000   1.0000000   1.0000000   1.0000000   1.0000000   1.0000000

  Atom        81          82          83          84          85          86          87          88          89          90
 IAtWgt=           1           1           1           1           1           1           1           1           1           1
 AtmWgt=   1.0078250   1.0078250   1.0078250   1.0078250   1.0078250   1.0078250   1.0078250   1.0078250   1.0078250   1.0078250
 NucSpn=           1           1           1           1           1           1           1           1           1           1
 AtZEff=  -0.0000000  -0.0000000  -0.0000000  -0.0000000  -0.0000000  -0.0000000  -0.0000000  -0.0000000  -0.0000000  -0.0000000
 NQMom=    0.0000000   0.0000000   0.0000000   0.0000000   0.0000000   0.0000000   0.0000000   0.0000000   0.0000000   0.0000000
 NMagM=    2.7928460   2.7928460   2.7928460   2.7928460   2.7928460   2.7928460   2.7928460   2.7928460   2.7928460   2.7928460
 AtZNuc=   1.0000000   1.0000000   1.0000000   1.0000000   1.0000000   1.0000000   1.0000000   1.0000000   1.0000000   1.0000000

  Atom        91          92          93          94          95          96          97          98          99         100
 IAtWgt=           1           1           1           1           1           1           1           1           1           1
 AtmWgt=   1.0078250   1.0078250   1.0078250   1.0078250   1.0078250   1.0078250   1.0078250   1.0078250   1.0078250   1.0078250
 NucSpn=           1           1           1           1           1           1           1           1           1           1
 AtZEff=  -0.0000000  -0.0000000  -0.0000000  -0.0000000  -0.0000000  -0.0000000  -0.0000000  -0.0000000  -0.0000000  -0.0000000
 NQMom=    0.0000000   0.0000000   0.0000000   0.0000000   0.0000000   0.0000000   0.0000000   0.0000000   0.0000000   0.0000000
 NMagM=    2.7928460   2.7928460   2.7928460   2.7928460   2.7928460   2.7928460   2.7928460   2.7928460   2.7928460   2.7928460
 AtZNuc=   1.0000000   1.0000000   1.0000000   1.0000000   1.0000000   1.0000000   1.0000000   1.0000000   1.0000000   1.0000000

  Atom       101         102         103         104         105         106         107         108         109         110
 IAtWgt=           1           1           1           1           1           1           1           1           1           1
 AtmWgt=   1.0078250   1.0078250   1.0078250   1.0078250   1.0078250   1.0078250   1.0078250   1.0078250   1.0078250   1.0078250
 NucSpn=           1           1           1           1           1           1           1           1           1           1
 AtZEff=  -0.0000000  -0.0000000  -0.0000000  -0.0000000  -0.0000000  -0.0000000  -0.0000000  -0.0000000  -0.0000000  -0.0000000
 NQMom=    0.0000000   0.0000000   0.0000000   0.0000000   0.0000000   0.0000000   0.0000000   0.0000000   0.0000000   0.0000000
 NMagM=    2.7928460   2.7928460   2.7928460   2.7928460   2.7928460   2.7928460   2.7928460   2.7928460   2.7928460   2.7928460
 AtZNuc=   1.0000000   1.0000000   1.0000000   1.0000000   1.0000000   1.0000000   1.0000000   1.0000000   1.0000000   1.0000000

  Atom       111         112         113         114         115         116         117         118         119         120
 IAtWgt=           1           1           1           1           1           1           1           1           1           1
 AtmWgt=   1.0078250   1.0078250   1.0078250   1.0078250   1.0078250   1.0078250   1.0078250   1.0078250   1.0078250   1.0078250
 NucSpn=           1           1           1           1           1           1           1           1           1           1
 AtZEff=  -0.0000000  -0.0000000  -0.0000000  -0.0000000  -0.0000000  -0.0000000  -0.0000000  -0.0000000  -0.0000000  -0.0000000
 NQMom=    0.0000000   0.0000000   0.0000000   0.0000000   0.0000000   0.0000000   0.0000000   0.0000000   0.0000000   0.0000000
 NMagM=    2.7928460   2.7928460   2.7928460   2.7928460   2.7928460   2.7928460   2.7928460   2.7928460   2.7928460   2.7928460
 AtZNuc=   1.0000000   1.0000000   1.0000000   1.0000000   1.0000000   1.0000000   1.0000000   1.0000000   1.0000000   1.0000000

  Atom       121         122         123         124         125         126         127         128         129         130
 IAtWgt=           1           1           1           1           1           1           1           1           1           1
 AtmWgt=   1.0078250   1.0078250   1.0078250   1.0078250   1.0078250   1.0078250   1.0078250   1.0078250   1.0078250   1.0078250
 NucSpn=           1           1           1           1           1           1           1           1           1           1
 AtZEff=  -0.0000000  -0.0000000  -0.0000000  -0.0000000  -0.0000000  -0.0000000  -0.0000000  -0.0000000  -0.0000000  -0.0000000
 NQMom=    0.0000000   0.0000000   0.0000000   0.0000000   0.0000000   0.0000000   0.0000000   0.0000000   0.0000000   0.0000000
 NMagM=    2.7928460   2.7928460   2.7928460   2.7928460   2.7928460   2.7928460   2.7928460   2.7928460   2.7928460   2.7928460
 AtZNuc=   1.0000000   1.0000000   1.0000000   1.0000000   1.0000000   1.0000000   1.0000000   1.0000000   1.0000000   1.0000000

  Atom       131         132         133         134         135         136         137         138         139         140
 IAtWgt=           1           1           1           1           1           1           1           1           1           1
 AtmWgt=   1.0078250   1.0078250   1.0078250   1.0078250   1.0078250   1.0078250   1.0078250   1.0078250   1.0078250   1.0078250
 NucSpn=           1           1           1           1           1           1           1           1           1           1
 AtZEff=  -0.0000000  -0.0000000  -0.0000000  -0.0000000  -0.0000000  -0.0000000  -0.0000000  -0.0000000  -0.0000000  -0.0000000
 NQMom=    0.0000000   0.0000000   0.0000000   0.0000000   0.0000000   0.0000000   0.0000000   0.0000000   0.0000000   0.0000000
 NMagM=    2.7928460   2.7928460   2.7928460   2.7928460   2.7928460   2.7928460   2.7928460   2.7928460   2.7928460   2.7928460
 AtZNuc=   1.0000000   1.0000000   1.0000000   1.0000000   1.0000000   1.0000000   1.0000000   1.0000000   1.0000000   1.0000000
 Leave Link  101 at Thu May  5 08:30:26 2022, MaxMem= 10066329600 cpu:               2.7 elap:               0.1
 (Enter /sw/apps/gaussian-16.0/g16/l202.exe)
 Stoichiometry    C55H74MgN4O6
 Framework group  C1[X(C55H74MgN4O6)]
 Deg. of freedom   414
 Full point group                 C1      NOp   1
 Largest Abelian subgroup         C1      NOp   1
 Largest concise Abelian subgroup C1      NOp   1
                         Standard orientation:                         
 ---------------------------------------------------------------------
 Center     Atomic      Atomic             Coordinates (Angstroms)
 Number     Number       Type             X           Y           Z
 ---------------------------------------------------------------------
      1         12           0       -4.775852    0.845998   -0.111230
      2          6           0       -4.099489   -2.625824    0.337882
      3          6           0       -1.435004    1.463092    0.180780
      4          6           0       -5.540751    4.044685   -0.122644
      5          6           0       -8.209999    0.035616    0.364103
      6          7           0       -3.086071   -0.483185    0.305777
      7          6           0       -2.963320   -1.878380    0.280100
      8          6           0       -1.499453   -2.350707    0.072881
      9          6           0       -0.670353   -0.987197    0.218368
     10          6           0       -1.788256    0.128062    0.287567
     11          6           0        0.226524   -1.066355    1.434656
     12          6           0       -1.133948   -3.101924   -1.210204
     13          6           0       -0.081765   -4.232251   -1.018638
     14          6           0        1.118097   -4.349889   -1.917474
     15          8           0        1.422581   -5.425984   -2.394391
     16          8           0        1.924932   -3.139151   -1.973518
     17          7           0       -3.597278    2.543825   -0.100073
     18          6           0       -2.218576    2.648042    0.078844
     19          6           0       -1.851579    3.986583    0.073696
     20          6           0       -3.019400    4.760961   -0.056664
     21          6           0       -4.171354    3.800391   -0.120673
     22          6           0       -0.396544    4.377711    0.279469
     23          6           0       -3.222159    6.231480   -0.018026
     24          8           0       -4.292974    6.848957   -0.244162
     25          6           0       -2.100678    7.167504   -0.019316
     26          7           0       -6.615474    1.945231    0.402032
     27          6           0       -6.629582    3.198756    0.114801
     28          6           0       -8.091236    3.746638    0.411594
     29          6           0       -8.974197    2.533675    0.058020
     30          6           0       -7.904203    1.437427    0.258771
     31          6           0       -8.276612    4.461944    1.803614
     32          6           0       -9.474827    2.611911   -1.420776
     33          6           0      -10.908443    3.182482   -1.578715
     34          7           0       -5.997514   -0.956599    0.155239
     35          6           0       -7.402199   -1.068337    0.341390
     36          6           0       -7.676355   -2.487370    0.409961
     37          6           0       -6.385810   -3.130686    0.464397
     38          6           0       -5.432510   -2.164287    0.261289
     39          6           0       -9.018784   -3.215360    0.384970
     40          6           0       -5.764665   -4.436460    0.535802
     41          8           0       -6.214877   -5.565124    0.736887
     42          6           0       -4.266750   -4.176678    0.460835
     43          6           0       -3.623546   -4.604865    1.724034
     44          8           0       -4.137653   -4.511920    2.839699
     45          8           0       -2.444818   -5.210380    1.458305
     46          6           0       -1.862216   -5.884833    2.567661
     47          6           0        3.200390   -3.550101   -2.512689
     48          6           0        4.033229   -2.286096   -2.595026
     49          6           0        5.186870   -1.991574   -1.930519
     50          6           0        5.814943   -2.856903   -0.797205
     51          6           0        6.004529   -0.794983   -2.356704
     52          6           0        6.731850   -0.695743   -3.710162
     53          6           0        8.216424   -0.305756   -3.720859
     54          6           0        8.555248    1.087769   -4.136905
     55          6           0        8.572386    1.322283   -5.672839
     56          6           0        9.825536    1.703277   -3.451344
     57          6           0        9.483076    2.283337   -2.041261
     58          6           0       10.645525    2.066870   -0.966044
     59          6           0       10.136429    1.438688    0.351514
     60          6           0       10.289586   -0.088411    0.414966
     61          6           0       10.975393    1.993190    1.554596
     62          6           0       10.235143    1.565267    2.846499
     63          6           0       11.313014    0.821710    3.759642
     64          6           0       11.129857    1.144188    5.270536
     65          6           0       12.433345    0.813112    5.980126
     66          6           0        9.962044    0.347338    5.881332
     67          1           0       -0.367161    1.677411    0.261432
     68          1           0       -5.913110    5.068766   -0.053621
     69          1           0       -9.219677   -0.374501    0.437364
     70          1           0       -1.230235   -2.974728    0.924532
     71          1           0        0.115495   -0.867965   -0.527975
     72          1           0        0.522005   -2.112193    1.522707
     73          1           0       -0.260945   -0.716930    2.344099
     74          1           0        1.093332   -0.415384    1.322359
     75          1           0       -0.806767   -2.339099   -1.916588
     76          1           0       -2.037734   -3.547157   -1.626693
     77          1           0       -0.579082   -5.199589   -0.950914
     78          1           0        0.261289   -4.169735    0.014408
     79          1           0       -0.061410    5.198961   -0.354271
     80          1           0        0.240004    3.549604   -0.034215
     81          1           0       -0.138183    4.702928    1.287230
     82          1           0       -1.250826    6.722179    0.498466
     83          1           0       -2.301795    8.147722    0.410393
     84          1           0       -1.847331    7.211413   -1.079295
     85          1           0       -8.313751    4.556143   -0.283711
     86          1           0       -9.712755    2.333295    0.834221
     87          1           0       -7.369081    4.372115    2.400826
     88          1           0       -9.149260    4.130694    2.365575
     89          1           0       -8.418088    5.538052    1.699711
     90          1           0       -9.382189    1.595015   -1.801372
     91          1           0       -8.723518    3.123668   -2.022522
     92          1           0      -11.421738    3.314126   -0.625850
     93          1           0      -11.477486    2.435752   -2.132521
     94          1           0      -10.845922    4.108845   -2.148402
     95          1           0       -9.282489   -3.382536    1.428766
     96          1           0       -9.011802   -4.144645   -0.185847
     97          1           0       -9.780880   -2.557118   -0.032002
     98          1           0       -3.826235   -4.727203   -0.369925
     99          1           0       -0.997391   -6.454766    2.228475
    100          1           0       -2.505530   -6.467110    3.226757
    101          1           0       -1.404225   -5.163334    3.243713
    102          1           0        3.209493   -4.141282   -3.428113
    103          1           0        3.764381   -4.179764   -1.824891
    104          1           0        3.716829   -1.593627   -3.375284
    105          1           0        5.690489   -3.922548   -0.990108
    106          1           0        5.443358   -2.615815    0.199126
    107          1           0        6.897620   -2.793136   -0.910289
    108          1           0        6.672193   -0.383751   -1.599946
    109          1           0        5.214023   -0.072351   -2.556729
    110          1           0        6.203279    0.033767   -4.323120
    111          1           0        6.640775   -1.682234   -4.163499
    112          1           0        8.721501   -1.002748   -4.389984
    113          1           0        8.636146   -0.518545   -2.737493
    114          1           0        7.713802    1.727319   -3.868259
    115          1           0        8.423355    0.420199   -6.267200
    116          1           0        9.485752    1.664158   -6.159387
    117          1           0        7.802127    2.013719   -6.015001
    118          1           0       10.392901    2.403607   -4.064438
    119          1           0       10.438486    0.822549   -3.259784
    120          1           0        8.525011    1.947068   -1.645182
    121          1           0        9.519186    3.372771   -2.068420
    122          1           0       11.195853    2.947312   -0.636677
    123          1           0       11.439286    1.510496   -1.463245
    124          1           0        9.120687    1.806530    0.494851
    125          1           0       10.928313   -0.539945    1.174225
    126          1           0       10.744031   -0.485782   -0.492605
    127          1           0        9.359597   -0.655940    0.455259
    128          1           0       10.937524    3.077203    1.442449
    129          1           0       11.980057    1.590606    1.430132
    130          1           0        9.365984    0.928225    2.687499
    131          1           0        9.964549    2.481589    3.372343
    132          1           0       12.312669    1.143658    3.466048
    133          1           0       11.055007   -0.206739    3.506322
    134          1           0       10.889336    2.198987    5.400853
    135          1           0       12.198964    0.698140    7.038578
    136          1           0       13.185627    1.567420    5.748955
    137          1           0       12.882947   -0.137574    5.692042
    138          1           0       10.286627   -0.446799    6.552936
    139          1           0        9.506675   -0.146774    5.022594
    140          1           0        9.297830    1.091127    6.321444
 ---------------------------------------------------------------------
 Rotational constants (GHZ):           0.0364752           0.0114064           0.0101538
 Leave Link  202 at Thu May  5 08:30:26 2022, MaxMem= 10066329600 cpu:               0.2 elap:               0.0
 (Enter /sw/apps/gaussian-16.0/g16/l301.exe)
 Standard basis: def2SVP (5D, 7F)
 Ernie: Thresh=  0.10000D-02 Tol=  0.10000D-05 Strict=F.
 There are  1364 symmetry adapted cartesian basis functions of A   symmetry.
 There are  1298 symmetry adapted basis functions of A   symmetry.
  1298 basis functions,  2180 primitive gaussians,  1364 cartesian basis functions
   246 alpha electrons      246 beta electrons
       nuclear repulsion energy      9570.8243608151 Hartrees.
 IExCor= 1009 DFT=T Ex+Corr=PBE1PBE ExCW=0 ScaHFX=  0.250000
 ScaDFX=  0.750000  0.750000  1.000000  1.000000 ScalE2=  1.000000  1.000000
 IRadAn=      5 IRanWt=     -1 IRanGd=            0 ICorTp=0 IEmpDi=  4
 NAtoms=  140 NActive=  140 NUniq=  140 SFac= 1.00D+00 NAtFMM=   60 NAOKFM=T Big=T
 Integral buffers will be    131072 words long.
 Regular integral format.
 Two-electron integral symmetry is turned on.
 Leave Link  301 at Thu May  5 08:30:26 2022, MaxMem= 10066329600 cpu:               2.0 elap:               0.1
 (Enter /sw/apps/gaussian-16.0/g16/l302.exe)
 NPDir=0 NMtPBC=     1 NCelOv=     1 NCel=       1 NClECP=     1 NCelD=      1
         NCelK=      1 NCelE2=     1 NClLst=     1 CellRange=     0.0.
 One-electron integrals computed using PRISM.
 One-electron integral symmetry used in STVInt
   1 Symmetry operations used in ECPInt.
 ECPInt:  NShTT=  192510 NPrTT=  683786 LenC2=   95763 LenP2D=  207553.
 LDataN:  DoStor=T MaxTD1= 4 Len=   56
 NBasis=  1298 RedAO= T EigKep=  3.05D-04  NBF=  1298
 NBsUse=  1298 1.00D-06 EigRej= -1.00D+00 NBFU=  1298
 Precomputing XC quadrature grid using
 IXCGrd= 4 IRadAn=           5 IRanWt=          -1 IRanGd=           0 AccXCQ= 0.00D+00.
 Generated NRdTot=       0 NPtTot=           0 NUsed=           0 NTot=          32
 NSgBfM=  1162  1155  1157  1159  1162 MxSgAt=   140 MxSgA2=   140.
 Leave Link  302 at Thu May  5 08:30:29 2022, MaxMem= 10066329600 cpu:              79.2 elap:               3.3
 (Enter /sw/apps/gaussian-16.0/g16/l303.exe)
 DipDrv:  MaxL=1.
 Leave Link  303 at Thu May  5 08:30:30 2022, MaxMem= 10066329600 cpu:               6.8 elap:               0.3
 (Enter /sw/apps/gaussian-16.0/g16/l308.exe)
 Leave Link  308 at Thu May  5 08:30:30 2022, MaxMem= 10066329600 cpu:              12.7 elap:               0.6
 (Enter /sw/apps/gaussian-16.0/g16/l401.exe)
 ExpMin= 3.36D-02 ExpMax= 4.95D+03 ExpMxC= 7.45D+02 IAcc=3 IRadAn=         5 AccDes= 0.00D+00
 Harris functional with IExCor= 1009 and IRadAn=       5 diagonalized for initial guess.
 HarFok:  IExCor= 1009 AccDes= 0.00D+00 IRadAn=         5 IDoV= 1 UseB2=F ITyADJ=14
 ICtDFT=  3500011 ScaDFX=  1.000000  1.000000  1.000000  1.000000
 FoFCou: FMM=F IPFlag=           0 FMFlag=      100000 FMFlg1=        2001
         NFxFlg=           0 DoJE=T BraDBF=F KetDBF=T FulRan=T
         wScrn=  0.000000 ICntrl=       500 IOpCl=  0 I1Cent=   200000004 NGrid=           0
         NMat0=    1 NMatS0=      1 NMatT0=    0 NMatD0=    1 NMtDS0=    0 NMtDT0=    0
 Petite list used in FoFCou.
 Harris En= -3006.12414268896    
 JPrj=0 DoOrth=F DoCkMO=F.
 Leave Link  401 at Thu May  5 08:30:37 2022, MaxMem= 10066329600 cpu:             171.2 elap:               7.2
 (Enter /sw/apps/gaussian-16.0/g16/l502.exe)
 Integral symmetry usage will be decided dynamically.
 Closed shell SCF:
 Using DIIS extrapolation, IDIIS=  1040.
 NGot= 10066329600 LenX= 10062561258 LenY= 10060699398
 Requested convergence on RMS density matrix=1.00D-08 within 128 cycles.
 Requested convergence on MAX density matrix=1.00D-06.
 Requested convergence on             energy=1.00D-06.
 No special actions if energy rises.
 Fock matrices will be formed incrementally for  20 cycles.

 Cycle   1  Pass 1  IDiag  1:
 FoFJK:  IHMeth= 1 ICntrl=       0 DoSepK=F KAlg= 0 I1Cent=           0 FoldK=F
 IRaf= 520000000 NMat=       1 IRICut=       1 DoRegI=T DoRafI=F ISym2E= 0 IDoP0=0 IntGTp=1.
 FoFCou: FMM=T IPFlag=           0 FMFlag=      100000 FMFlg1=        2001
         NFxFlg=           0 DoJE=F BraDBF=F KetDBF=F FulRan=T
         wScrn=  0.000000 ICntrl=         0 IOpCl=  0 I1Cent=           0 NGrid=           0
         NMat0=    1 NMatS0=      1 NMatT0=    0 NMatD0=    1 NMtDS0=    0 NMtDT0=    0
 Symmetry not used in FoFCou.
 FMM levels:  10  Number of levels for PrismC:   9
 E= -3003.78036226716    
 DIIS: error= 1.88D-02 at cycle   1 NSaved=   1.
 NSaved= 1 IEnMin= 1 EnMin= -3003.78036226716     IErMin= 1 ErrMin= 1.88D-02
 ErrMax= 1.88D-02  0.00D+00 EMaxC= 1.00D-01 BMatC= 1.46D+00 BMatP= 1.46D+00
 IDIUse=3 WtCom= 8.12D-01 WtEn= 1.88D-01
 Coeff-Com:  0.100D+01
 Coeff-En:   0.100D+01
 Coeff:      0.100D+01
 Gap=     0.083 Goal=   None    Shift=    0.000
 GapD=    0.083 DampG=0.500 DampE=0.500 DampFc=0.2500 IDamp=-1.
 Damping current iteration by 2.50D-01
 RMSDP=2.81D-03 MaxDP=7.31D-01              OVMax= 2.88D-01

 Cycle   2  Pass 1  IDiag  1:
 RMSU=  6.97D-04    CP:  9.90D-01
 E= -3004.32859835731     Delta-E=       -0.548236090151 Rises=F Damp=T
 DIIS: error= 7.91D-03 at cycle   2 NSaved=   2.
 NSaved= 2 IEnMin= 2 EnMin= -3004.32859835731     IErMin= 2 ErrMin= 7.91D-03
 ErrMax= 7.91D-03  0.00D+00 EMaxC= 1.00D-01 BMatC= 3.62D-01 BMatP= 1.46D+00
 IDIUse=3 WtCom= 9.21D-01 WtEn= 7.91D-02
 Coeff-Com: -0.761D+00 0.176D+01
 Coeff-En:   0.000D+00 0.100D+01
 Coeff:     -0.701D+00 0.170D+01
 Gap=     0.180 Goal=   None    Shift=    0.000
 RMSDP=9.85D-04 MaxDP=5.88D-02 DE=-5.48D-01 OVMax= 2.58D-01

 Cycle   3  Pass 1  IDiag  1:
 RMSU=  8.56D-04    CP:  9.65D-01  1.61D+00
 E= -3005.14429120144     Delta-E=       -0.815692844126 Rises=F Damp=F
 DIIS: error= 1.13D-02 at cycle   3 NSaved=   3.
 NSaved= 3 IEnMin= 3 EnMin= -3005.14429120144     IErMin= 2 ErrMin= 7.91D-03
 ErrMax= 1.13D-02  0.00D+00 EMaxC= 1.00D-01 BMatC= 1.89D-01 BMatP= 3.62D-01
 IDIUse=3 WtCom= 8.87D-01 WtEn= 1.13D-01
 Coeff-Com: -0.507D+00 0.107D+01 0.434D+00
 Coeff-En:   0.000D+00 0.000D+00 0.100D+01
 Coeff:     -0.449D+00 0.951D+00 0.498D+00
 Gap=     0.073 Goal=   None    Shift=    0.000
 RMSDP=6.08D-04 MaxDP=1.14D-01 DE=-8.16D-01 OVMax= 1.87D-01

 Cycle   4  Pass 1  IDiag  1:
 RMSU=  3.98D-04    CP:  9.72D-01  1.90D+00  5.21D-01
 E= -3005.27460330186     Delta-E=       -0.130312100418 Rises=F Damp=F
 DIIS: error= 5.32D-03 at cycle   4 NSaved=   4.
 NSaved= 4 IEnMin= 4 EnMin= -3005.27460330186     IErMin= 4 ErrMin= 5.32D-03
 ErrMax= 5.32D-03  0.00D+00 EMaxC= 1.00D-01 BMatC= 4.42D-02 BMatP= 1.89D-01
 IDIUse=3 WtCom= 9.47D-01 WtEn= 5.32D-02
 Coeff-Com: -0.120D+00 0.255D+00 0.327D+00 0.538D+00
 Coeff-En:   0.000D+00 0.000D+00 0.243D+00 0.757D+00
 Coeff:     -0.113D+00 0.241D+00 0.322D+00 0.550D+00
 Gap=     0.076 Goal=   None    Shift=    0.000
 RMSDP=3.07D-04 MaxDP=5.46D-02 DE=-1.30D-01 OVMax= 1.59D-01

 Cycle   5  Pass 1  IDiag  1:
 RMSU=  1.65D-04    CP:  9.70D-01  1.78D+00  6.85D-01  5.01D-01
 E= -3005.30723363109     Delta-E=       -0.032630329228 Rises=F Damp=F
 DIIS: error= 2.79D-03 at cycle   5 NSaved=   5.
 NSaved= 5 IEnMin= 5 EnMin= -3005.30723363109     IErMin= 5 ErrMin= 2.79D-03
 ErrMax= 2.79D-03  0.00D+00 EMaxC= 1.00D-01 BMatC= 8.02D-03 BMatP= 4.42D-02
 IDIUse=3 WtCom= 9.72D-01 WtEn= 2.79D-02
 Coeff-Com: -0.313D-01 0.681D-01 0.188D+00 0.402D+00 0.373D+00
 Coeff-En:   0.000D+00 0.000D+00 0.000D+00 0.216D+00 0.784D+00
 Coeff:     -0.305D-01 0.662D-01 0.183D+00 0.397D+00 0.384D+00
 Gap=     0.074 Goal=   None    Shift=    0.000
 RMSDP=1.46D-04 MaxDP=1.30D-02 DE=-3.26D-02 OVMax= 8.91D-02

 Cycle   6  Pass 1  IDiag  1:
 RMSU=  5.58D-05    CP:  9.70D-01  1.78D+00  6.66D-01  6.52D-01  2.76D-01
 E= -3005.31706073001     Delta-E=       -0.009827098922 Rises=F Damp=F
 DIIS: error= 7.92D-04 at cycle   6 NSaved=   6.
 NSaved= 6 IEnMin= 6 EnMin= -3005.31706073001     IErMin= 6 ErrMin= 7.92D-04
 ErrMax= 7.92D-04  0.00D+00 EMaxC= 1.00D-01 BMatC= 8.15D-04 BMatP= 8.02D-03
 IDIUse=3 WtCom= 9.92D-01 WtEn= 7.92D-03
 Coeff-Com: -0.936D-03 0.297D-02 0.646D-01 0.164D+00 0.267D+00 0.503D+00
 Coeff-En:   0.000D+00 0.000D+00 0.000D+00 0.000D+00 0.125D+00 0.875D+00
 Coeff:     -0.929D-03 0.295D-02 0.641D-01 0.163D+00 0.266D+00 0.506D+00
 Gap=     0.074 Goal=   None    Shift=    0.000
 RMSDP=4.28D-05 MaxDP=3.19D-03 DE=-9.83D-03 OVMax= 2.40D-02

 Cycle   7  Pass 1  IDiag  1:
 RMSU=  2.04D-05    CP:  9.70D-01  1.78D+00  6.73D-01  6.26D-01  4.30D-01
                    CP:  5.55D-01
 E= -3005.31805082186     Delta-E=       -0.000990091849 Rises=F Damp=F
 DIIS: error= 3.01D-04 at cycle   7 NSaved=   7.
 NSaved= 7 IEnMin= 7 EnMin= -3005.31805082186     IErMin= 7 ErrMin= 3.01D-04
 ErrMax= 3.01D-04  0.00D+00 EMaxC= 1.00D-01 BMatC= 8.74D-05 BMatP= 8.15D-04
 IDIUse=3 WtCom= 9.97D-01 WtEn= 3.01D-03
 Coeff-Com:  0.263D-02-0.525D-02 0.184D-01 0.528D-01 0.123D+00 0.323D+00
 Coeff-Com:  0.485D+00
 Coeff-En:   0.000D+00 0.000D+00 0.000D+00 0.000D+00 0.000D+00 0.629D-01
 Coeff-En:   0.937D+00
 Coeff:      0.263D-02-0.524D-02 0.183D-01 0.527D-01 0.123D+00 0.322D+00
 Coeff:      0.486D+00
 Gap=     0.074 Goal=   None    Shift=    0.000
 RMSDP=1.73D-05 MaxDP=1.23D-03 DE=-9.90D-04 OVMax= 1.21D-02

 Cycle   8  Pass 1  IDiag  1:
 RMSU=  1.19D-05    CP:  9.70D-01  1.78D+00  6.73D-01  6.29D-01  4.25D-01
                    CP:  6.44D-01  4.37D-01
 E= -3005.31812065041     Delta-E=       -0.000069828553 Rises=F Damp=F
 DIIS: error= 2.16D-04 at cycle   8 NSaved=   8.
 NSaved= 8 IEnMin= 8 EnMin= -3005.31812065041     IErMin= 8 ErrMin= 2.16D-04
 ErrMax= 2.16D-04  0.00D+00 EMaxC= 1.00D-01 BMatC= 2.43D-05 BMatP= 8.74D-05
 IDIUse=3 WtCom= 9.98D-01 WtEn= 2.16D-03
 Coeff-Com:  0.191D-02-0.394D-02 0.535D-02 0.172D-01 0.572D-01 0.174D+00
 Coeff-Com:  0.365D+00 0.384D+00
 Coeff-En:   0.000D+00 0.000D+00 0.000D+00 0.000D+00 0.000D+00 0.000D+00
 Coeff-En:   0.289D+00 0.711D+00
 Coeff:      0.191D-02-0.393D-02 0.534D-02 0.172D-01 0.571D-01 0.173D+00
 Coeff:      0.364D+00 0.385D+00
 Gap=     0.074 Goal=   None    Shift=    0.000
 RMSDP=9.06D-06 MaxDP=6.63D-04 DE=-6.98D-05 OVMax= 6.35D-03

 Cycle   9  Pass 1  IDiag  1:
 RMSU=  3.58D-06    CP:  9.70D-01  1.78D+00  6.73D-01  6.30D-01  4.26D-01
                    CP:  6.30D-01  6.22D-01  3.81D-01
 E= -3005.31815329584     Delta-E=       -0.000032645426 Rises=F Damp=F
 DIIS: error= 5.66D-05 at cycle   9 NSaved=   9.
 NSaved= 9 IEnMin= 9 EnMin= -3005.31815329584     IErMin= 9 ErrMin= 5.66D-05
 ErrMax= 5.66D-05  0.00D+00 EMaxC= 1.00D-01 BMatC= 3.17D-06 BMatP= 2.43D-05
 IDIUse=1 WtCom= 1.00D+00 WtEn= 0.00D+00
 Coeff-Com:  0.809D-03-0.167D-02 0.438D-03 0.180D-02 0.180D-01 0.639D-01
 Coeff-Com:  0.173D+00 0.282D+00 0.462D+00
 Coeff:      0.809D-03-0.167D-02 0.438D-03 0.180D-02 0.180D-01 0.639D-01
 Coeff:      0.173D+00 0.282D+00 0.462D+00
 Gap=     0.074 Goal=   None    Shift=    0.000
 RMSDP=2.56D-06 MaxDP=5.18D-04 DE=-3.26D-05 OVMax= 1.51D-03

 Cycle  10  Pass 1  IDiag  1:
 RMSU=  1.42D-06    CP:  9.70D-01  1.78D+00  6.73D-01  6.29D-01  4.27D-01
                    CP:  6.41D-01  5.94D-01  4.97D-01  6.55D-01
 E= -3005.31815701932     Delta-E=       -0.000003723489 Rises=F Damp=F
 DIIS: error= 1.09D-05 at cycle  10 NSaved=  10.
 NSaved=10 IEnMin=10 EnMin= -3005.31815701932     IErMin=10 ErrMin= 1.09D-05
 ErrMax= 1.09D-05  0.00D+00 EMaxC= 1.00D-01 BMatC= 2.45D-07 BMatP= 3.17D-06
 IDIUse=1 WtCom= 1.00D+00 WtEn= 0.00D+00
 Coeff-Com:  0.126D-03-0.248D-03-0.573D-03-0.210D-02 0.946D-03 0.640D-02
 Coeff-Com:  0.376D-01 0.104D+00 0.258D+00 0.596D+00
 Coeff:      0.126D-03-0.248D-03-0.573D-03-0.210D-02 0.946D-03 0.640D-02
 Coeff:      0.376D-01 0.104D+00 0.258D+00 0.596D+00
 Gap=     0.074 Goal=   None    Shift=    0.000
 RMSDP=7.84D-07 MaxDP=7.63D-05 DE=-3.72D-06 OVMax= 2.69D-04

 Cycle  11  Pass 1  IDiag  1:
 RMSU=  5.11D-07    CP:  9.70D-01  1.78D+00  6.73D-01  6.29D-01  4.28D-01
                    CP:  6.42D-01  6.00D-01  5.12D-01  7.72D-01  7.67D-01
 E= -3005.31815724901     Delta-E=       -0.000000229682 Rises=F Damp=F
 DIIS: error= 4.55D-06 at cycle  11 NSaved=  11.
 NSaved=11 IEnMin=11 EnMin= -3005.31815724901     IErMin=11 ErrMin= 4.55D-06
 ErrMax= 4.55D-06  0.00D+00 EMaxC= 1.00D-01 BMatC= 5.12D-08 BMatP= 2.45D-07
 IDIUse=1 WtCom= 1.00D+00 WtEn= 0.00D+00
 Coeff-Com: -0.137D-04 0.417D-04-0.401D-03-0.160D-02-0.156D-02-0.471D-02
 Coeff-Com:  0.878D-03 0.299D-01 0.919D-01 0.365D+00 0.520D+00
 Coeff:     -0.137D-04 0.417D-04-0.401D-03-0.160D-02-0.156D-02-0.471D-02
 Coeff:      0.878D-03 0.299D-01 0.919D-01 0.365D+00 0.520D+00
 Gap=     0.074 Goal=   None    Shift=    0.000
 RMSDP=3.18D-07 MaxDP=4.40D-05 DE=-2.30D-07 OVMax= 1.40D-04

 Cycle  12  Pass 1  IDiag  1:
 RMSU=  2.10D-07    CP:  9.70D-01  1.78D+00  6.73D-01  6.29D-01  4.28D-01
                    CP:  6.43D-01  6.03D-01  5.20D-01  7.74D-01  8.75D-01
                    CP:  8.08D-01
 E= -3005.31815730441     Delta-E=       -0.000000055408 Rises=F Damp=F
 DIIS: error= 1.78D-06 at cycle  12 NSaved=  12.
 NSaved=12 IEnMin=12 EnMin= -3005.31815730441     IErMin=12 ErrMin= 1.78D-06
 ErrMax= 1.78D-06  0.00D+00 EMaxC= 1.00D-01 BMatC= 6.90D-09 BMatP= 5.12D-08
 IDIUse=1 WtCom= 1.00D+00 WtEn= 0.00D+00
 Coeff-Com: -0.190D-04 0.489D-04-0.123D-03-0.560D-03-0.867D-03-0.383D-02
 Coeff-Com: -0.524D-02 0.133D-02 0.468D-02 0.101D+00 0.286D+00 0.617D+00
 Coeff:     -0.190D-04 0.489D-04-0.123D-03-0.560D-03-0.867D-03-0.383D-02
 Coeff:     -0.524D-02 0.133D-02 0.468D-02 0.101D+00 0.286D+00 0.617D+00
 Gap=     0.074 Goal=   None    Shift=    0.000
 RMSDP=1.58D-07 MaxDP=1.84D-05 DE=-5.54D-08 OVMax= 5.40D-05

 Cycle  13  Pass 1  IDiag  1:
 RMSU=  9.83D-08    CP:  9.70D-01  1.78D+00  6.73D-01  6.29D-01  4.28D-01
                    CP:  6.43D-01  6.03D-01  5.24D-01  7.92D-01  9.00D-01
                    CP:  9.38D-01  8.54D-01
 E= -3005.31815731200     Delta-E=       -0.000000007583 Rises=F Damp=F
 DIIS: error= 1.25D-06 at cycle  13 NSaved=  13.
 NSaved=13 IEnMin=13 EnMin= -3005.31815731200     IErMin=13 ErrMin= 1.25D-06
 ErrMax= 1.25D-06  0.00D+00 EMaxC= 1.00D-01 BMatC= 1.90D-09 BMatP= 6.90D-09
 IDIUse=1 WtCom= 1.00D+00 WtEn= 0.00D+00
 Coeff-Com: -0.711D-05 0.193D-04 0.130D-04-0.679D-05-0.191D-03-0.168D-02
 Coeff-Com: -0.403D-02-0.627D-02-0.222D-01-0.222D-01 0.670D-01 0.407D+00
 Coeff-Com:  0.583D+00
 Coeff:     -0.711D-05 0.193D-04 0.130D-04-0.679D-05-0.191D-03-0.168D-02
 Coeff:     -0.403D-02-0.627D-02-0.222D-01-0.222D-01 0.670D-01 0.407D+00
 Coeff:      0.583D+00
 Gap=     0.074 Goal=   None    Shift=    0.000
 RMSDP=7.97D-08 MaxDP=5.35D-06 DE=-7.58D-09 OVMax= 3.87D-05

 Cycle  14  Pass 1  IDiag  1:
 RMSU=  3.98D-08    CP:  9.70D-01  1.78D+00  6.73D-01  6.29D-01  4.28D-01
                    CP:  6.43D-01  6.03D-01  5.27D-01  7.97D-01  9.20D-01
                    CP:  9.79D-01  1.03D+00  7.62D-01
 E= -3005.31815731456     Delta-E=       -0.000000002565 Rises=F Damp=F
 DIIS: error= 4.41D-07 at cycle  14 NSaved=  14.
 NSaved=14 IEnMin=14 EnMin= -3005.31815731456     IErMin=14 ErrMin= 4.41D-07
 ErrMax= 4.41D-07  0.00D+00 EMaxC= 1.00D-01 BMatC= 2.81D-10 BMatP= 1.90D-09
 IDIUse=1 WtCom= 1.00D+00 WtEn= 0.00D+00
 Coeff-Com:  0.482D-06 0.767D-06 0.283D-04 0.861D-04 0.449D-04-0.417D-03
 Coeff-Com: -0.153D-02-0.380D-02-0.147D-01-0.302D-01-0.720D-02 0.137D+00
 Coeff-Com:  0.350D+00 0.570D+00
 Coeff:      0.482D-06 0.767D-06 0.283D-04 0.861D-04 0.449D-04-0.417D-03
 Coeff:     -0.153D-02-0.380D-02-0.147D-01-0.302D-01-0.720D-02 0.137D+00
 Coeff:      0.350D+00 0.570D+00
 Gap=     0.074 Goal=   None    Shift=    0.000
 RMSDP=2.88D-08 MaxDP=3.76D-06 DE=-2.56D-09 OVMax= 1.22D-05

 Cycle  15  Pass 1  IDiag  1:
 RMSU=  1.54D-08    CP:  9.70D-01  1.78D+00  6.73D-01  6.29D-01  4.28D-01
                    CP:  6.43D-01  6.03D-01  5.28D-01  7.99D-01  9.26D-01
                    CP:  1.00D+00  1.05D+00  8.82D-01  8.01D-01
 E= -3005.31815731482     Delta-E=       -0.000000000253 Rises=F Damp=F
 DIIS: error= 2.03D-07 at cycle  15 NSaved=  15.
 NSaved=15 IEnMin=15 EnMin= -3005.31815731482     IErMin=15 ErrMin= 2.03D-07
 ErrMax= 2.03D-07  0.00D+00 EMaxC= 1.00D-01 BMatC= 4.16D-11 BMatP= 2.81D-10
 IDIUse=1 WtCom= 1.00D+00 WtEn= 0.00D+00
 Coeff-Com:  0.157D-05-0.267D-05 0.144D-04 0.472D-04 0.639D-04 0.304D-04
 Coeff-Com: -0.155D-03-0.889D-03-0.454D-02-0.122D-01-0.135D-01 0.839D-02
 Coeff-Com:  0.964D-01 0.331D+00 0.595D+00
 Coeff:      0.157D-05-0.267D-05 0.144D-04 0.472D-04 0.639D-04 0.304D-04
 Coeff:     -0.155D-03-0.889D-03-0.454D-02-0.122D-01-0.135D-01 0.839D-02
 Coeff:      0.964D-01 0.331D+00 0.595D+00
 Gap=     0.074 Goal=   None    Shift=    0.000
 RMSDP=1.10D-08 MaxDP=1.10D-06 DE=-2.53D-10 OVMax= 4.94D-06

 Cycle  16  Pass 1  IDiag  1:
 RMSU=  5.49D-09    CP:  9.70D-01  1.78D+00  6.73D-01  6.29D-01  4.28D-01
                    CP:  6.43D-01  6.03D-01  5.28D-01  8.00D-01  9.27D-01
                    CP:  1.01D+00  1.07D+00  9.03D-01  8.99D-01  8.18D-01
 E= -3005.31815731503     Delta-E=       -0.000000000211 Rises=F Damp=F
 DIIS: error= 5.51D-08 at cycle  16 NSaved=  16.
 NSaved=16 IEnMin=16 EnMin= -3005.31815731503     IErMin=16 ErrMin= 5.51D-08
 ErrMax= 5.51D-08  0.00D+00 EMaxC= 1.00D-01 BMatC= 4.96D-12 BMatP= 4.16D-11
 IDIUse=1 WtCom= 1.00D+00 WtEn= 0.00D+00
 Coeff-Com:  0.817D-06-0.160D-05 0.442D-05 0.159D-04 0.314D-04 0.698D-04
 Coeff-Com:  0.112D-03-0.569D-05-0.699D-03-0.305D-02-0.733D-02-0.154D-01
 Coeff-Com:  0.546D-02 0.114D+00 0.327D+00 0.580D+00
 Coeff:      0.817D-06-0.160D-05 0.442D-05 0.159D-04 0.314D-04 0.698D-04
 Coeff:      0.112D-03-0.569D-05-0.699D-03-0.305D-02-0.733D-02-0.154D-01
 Coeff:      0.546D-02 0.114D+00 0.327D+00 0.580D+00
 Gap=     0.074 Goal=   None    Shift=    0.000
 RMSDP=3.48D-09 MaxDP=2.88D-07 DE=-2.11D-10 OVMax= 1.34D-06

 SCF Done:  E(RPBE1PBE) =  -3005.31815732     A.U. after   16 cycles
            NFock= 16  Conv=0.35D-08     -V/T= 2.0102
 KE= 2.974914618871D+03 PE=-2.613165020467D+04 EE= 1.058059306767D+04
 Leave Link  502 at Thu May  5 08:38:03 2022, MaxMem= 10066329600 cpu:           10659.6 elap:             445.8
 (Enter /sw/apps/gaussian-16.0/g16/l801.exe)
 DoSCS=F DFT=T ScalE2(SS,OS)=  1.000000  1.000000
 ExpMin= 3.36D-02 ExpMax= 4.95D+03 ExpMxC= 7.45D+02 IAcc=3 IRadAn=         5 AccDes= 0.00D+00
 HarFok:  IExCor=  205 AccDes= 0.00D+00 IRadAn=         5 IDoV=-2 UseB2=F ITyADJ=14
 ICtDFT= 12500011 ScaDFX=  1.000000  1.000000  1.000000  1.000000
 GSVD:  LWork=       -5460 too small for GESVD, short by       25550 words or       25550 for optimal perf.
 Largest valence mixing into a core orbital is  1.17D-04
 Largest core mixing into a valence orbital is  5.58D-05
 Range of M.O.s used for correlation:    71  1298
 NBasis=  1298 NAE=   246 NBE=   246 NFC=    70 NFV=     0
 NROrb=   1228 NOA=   176 NOB=   176 NVA=  1052 NVB=  1052

 **** Warning!!: The smallest alpha delta epsilon is  0.74442482D-01

 Leave Link  801 at Thu May  5 08:38:04 2022, MaxMem= 10066329600 cpu:               7.6 elap:               0.3
 (Enter /sw/apps/gaussian-16.0/g16/l914.exe)
 RHF ground state
 Two-electron integrals replicated using symmetry.
 MDV= 10066329600 DFT=T DoStab=F Mixed=T DoRPA=T DoScal=F NonHer=T
 Making orbital integer symmetry assigments:
 Orbital symmetries:
       Occupied  (A) (A) (A) (A) (A) (A) (A) (A) (A) (A) (A) (A)
                 (A) (A) (A) (A) (A) (A) (A) (A) (A) (A) (A) (A)
                 (A) (A) (A) (A) (A) (A) (A) (A) (A) (A) (A) (A)
                 (A) (A) (A) (A) (A) (A) (A) (A) (A) (A) (A) (A)
                 (A) (A) (A) (A) (A) (A) (A) (A) (A) (A) (A) (A)
                 (A) (A) (A) (A) (A) (A) (A) (A) (A) (A) (A) (A)
                 (A) (A) (A) (A) (A) (A) (A) (A) (A) (A) (A) (A)
                 (A) (A) (A) (A) (A) (A) (A) (A) (A) (A) (A) (A)
                 (A) (A) (A) (A) (A) (A) (A) (A) (A) (A) (A) (A)
                 (A) (A) (A) (A) (A) (A) (A) (A) (A) (A) (A) (A)
                 (A) (A) (A) (A) (A) (A) (A) (A) (A) (A) (A) (A)
                 (A) (A) (A) (A) (A) (A) (A) (A) (A) (A) (A) (A)
                 (A) (A) (A) (A) (A) (A) (A) (A) (A) (A) (A) (A)
                 (A) (A) (A) (A) (A) (A) (A) (A) (A) (A) (A) (A)
                 (A) (A) (A) (A) (A) (A) (A) (A) (A) (A) (A) (A)
                 (A) (A) (A) (A) (A) (A) (A) (A) (A) (A) (A) (A)
                 (A) (A) (A) (A) (A) (A) (A) (A) (A) (A) (A) (A)
                 (A) (A) (A) (A) (A) (A) (A) (A) (A) (A) (A) (A)
                 (A) (A) (A) (A) (A) (A) (A) (A) (A) (A) (A) (A)
                 (A) (A) (A) (A) (A) (A) (A) (A) (A) (A) (A) (A)
                 (A) (A) (A) (A) (A) (A)
       Virtual   (A) (A) (A) (A) (A) (A) (A) (A) (A) (A) (A) (A)
                 (A) (A) (A) (A) (A) (A) (A) (A) (A) (A) (A) (A)
                 (A) (A) (A) (A) (A) (A) (A) (A) (A) (A) (A) (A)
                 (A) (A) (A) (A) (A) (A) (A) (A) (A) (A) (A) (A)
                 (A) (A) (A) (A) (A) (A) (A) (A) (A) (A) (A) (A)
                 (A) (A) (A) (A) (A) (A) (A) (A) (A) (A) (A) (A)
                 (A) (A) (A) (A) (A) (A) (A) (A) (A) (A) (A) (A)
                 (A) (A) (A) (A) (A) (A) (A) (A) (A) (A) (A) (A)
                 (A) (A) (A) (A) (A) (A) (A) (A) (A) (A) (A) (A)
                 (A) (A) (A) (A) (A) (A) (A) (A) (A) (A) (A) (A)
                 (A) (A) (A) (A) (A) (A) (A) (A) (A) (A) (A) (A)
                 (A) (A) (A) (A) (A) (A) (A) (A) (A) (A) (A) (A)
                 (A) (A) (A) (A) (A) (A) (A) (A) (A) (A) (A) (A)
                 (A) (A) (A) (A) (A) (A) (A) (A) (A) (A) (A) (A)
                 (A) (A) (A) (A) (A) (A) (A) (A) (A) (A) (A) (A)
                 (A) (A) (A) (A) (A) (A) (A) (A) (A) (A) (A) (A)
                 (A) (A) (A) (A) (A) (A) (A) (A) (A) (A) (A) (A)
                 (A) (A) (A) (A) (A) (A) (A) (A) (A) (A) (A) (A)
                 (A) (A) (A) (A) (A) (A) (A) (A) (A) (A) (A) (A)
                 (A) (A) (A) (A) (A) (A) (A) (A) (A) (A) (A) (A)
                 (A) (A) (A) (A) (A) (A) (A) (A) (A) (A) (A) (A)
                 (A) (A) (A) (A) (A) (A) (A) (A) (A) (A) (A) (A)
                 (A) (A) (A) (A) (A) (A) (A) (A) (A) (A) (A) (A)
                 (A) (A) (A) (A) (A) (A) (A) (A) (A) (A) (A) (A)
                 (A) (A) (A) (A) (A) (A) (A) (A) (A) (A) (A) (A)
                 (A) (A) (A) (A) (A) (A) (A) (A) (A) (A) (A) (A)
                 (A) (A) (A) (A) (A) (A) (A) (A) (A) (A) (A) (A)
                 (A) (A) (A) (A) (A) (A) (A) (A) (A) (A) (A) (A)
                 (A) (A) (A) (A) (A) (A) (A) (A) (A) (A) (A) (A)
                 (A) (A) (A) (A) (A) (A) (A) (A) (A) (A) (A) (A)
                 (A) (A) (A) (A) (A) (A) (A) (A) (A) (A) (A) (A)
                 (A) (A) (A) (A) (A) (A) (A) (A) (A) (A) (A) (A)
                 (A) (A) (A) (A) (A) (A) (A) (A) (A) (A) (A) (A)
                 (A) (A) (A) (A) (A) (A) (A) (A) (A) (A) (A) (A)
                 (A) (A) (A) (A) (A) (A) (A) (A) (A) (A) (A) (A)
                 (A) (A) (A) (A) (A) (A) (A) (A) (A) (A) (A) (A)
                 (A) (A) (A) (A) (A) (A) (A) (A) (A) (A) (A) (A)
                 (A) (A) (A) (A) (A) (A) (A) (A) (A) (A) (A) (A)
                 (A) (A) (A) (A) (A) (A) (A) (A) (A) (A) (A) (A)
                 (A) (A) (A) (A) (A) (A) (A) (A) (A) (A) (A) (A)
                 (A) (A) (A) (A) (A) (A) (A) (A) (A) (A) (A) (A)
                 (A) (A) (A) (A) (A) (A) (A) (A) (A) (A) (A) (A)
                 (A) (A) (A) (A) (A) (A) (A) (A) (A) (A) (A) (A)
                 (A) (A) (A) (A) (A) (A) (A) (A) (A) (A) (A) (A)
                 (A) (A) (A) (A) (A) (A) (A) (A) (A) (A) (A) (A)
                 (A) (A) (A) (A) (A) (A) (A) (A) (A) (A) (A) (A)
                 (A) (A) (A) (A) (A) (A) (A) (A) (A) (A) (A) (A)
                 (A) (A) (A) (A) (A) (A) (A) (A) (A) (A) (A) (A)
                 (A) (A) (A) (A) (A) (A) (A) (A) (A) (A) (A) (A)
                 (A) (A) (A) (A) (A) (A) (A) (A) (A) (A) (A) (A)
                 (A) (A) (A) (A) (A) (A) (A) (A) (A) (A) (A) (A)
                 (A) (A) (A) (A) (A) (A) (A) (A) (A) (A) (A) (A)
                 (A) (A) (A) (A) (A) (A) (A) (A) (A) (A) (A) (A)
                 (A) (A) (A) (A) (A) (A) (A) (A) (A) (A) (A) (A)
                 (A) (A) (A) (A) (A) (A) (A) (A) (A) (A) (A) (A)
                 (A) (A) (A) (A) (A) (A) (A) (A) (A) (A) (A) (A)
                 (A) (A) (A) (A) (A) (A) (A) (A) (A) (A) (A) (A)
                 (A) (A) (A) (A) (A) (A) (A) (A) (A) (A) (A) (A)
                 (A) (A) (A) (A) (A) (A) (A) (A) (A) (A) (A) (A)
                 (A) (A) (A) (A) (A) (A) (A) (A) (A) (A) (A) (A)
                 (A) (A) (A) (A) (A) (A) (A) (A) (A) (A) (A) (A)
                 (A) (A) (A) (A) (A) (A) (A) (A) (A) (A) (A) (A)
                 (A) (A) (A) (A) (A) (A) (A) (A) (A) (A) (A) (A)
                 (A) (A) (A) (A) (A) (A) (A) (A) (A) (A) (A) (A)
                 (A) (A) (A) (A) (A) (A) (A) (A) (A) (A) (A) (A)
                 (A) (A) (A) (A) (A) (A) (A) (A) (A) (A) (A) (A)
                 (A) (A) (A) (A) (A) (A) (A) (A) (A) (A) (A) (A)
                 (A) (A) (A) (A) (A) (A) (A) (A) (A) (A) (A) (A)
                 (A) (A) (A) (A) (A) (A) (A) (A) (A) (A) (A) (A)
                 (A) (A) (A) (A) (A) (A) (A) (A) (A) (A) (A) (A)
                 (A) (A) (A) (A) (A) (A) (A) (A) (A) (A) (A) (A)
                 (A) (A) (A) (A) (A) (A) (A) (A) (A) (A) (A) (A)
                 (A) (A) (A) (A) (A) (A) (A) (A) (A) (A) (A) (A)
                 (A) (A) (A) (A) (A) (A) (A) (A) (A) (A) (A) (A)
                 (A) (A) (A) (A) (A) (A) (A) (A) (A) (A) (A) (A)
                 (A) (A) (A) (A) (A) (A) (A) (A) (A) (A) (A) (A)
                 (A) (A) (A) (A) (A) (A) (A) (A) (A) (A) (A) (A)
                 (A) (A) (A) (A) (A) (A) (A) (A) (A) (A) (A) (A)
                 (A) (A) (A) (A) (A) (A) (A) (A) (A) (A) (A) (A)
                 (A) (A) (A) (A) (A) (A) (A) (A) (A) (A) (A) (A)
                 (A) (A) (A) (A) (A) (A) (A) (A) (A) (A) (A) (A)
                 (A) (A) (A) (A) (A) (A) (A) (A) (A) (A) (A) (A)
                 (A) (A) (A) (A) (A) (A) (A) (A) (A) (A) (A) (A)
                 (A) (A) (A) (A) (A) (A) (A) (A) (A) (A) (A) (A)
                 (A) (A) (A) (A) (A) (A) (A) (A) (A) (A) (A) (A)
                 (A) (A) (A) (A) (A) (A) (A) (A) (A) (A) (A) (A)
                 (A) (A) (A) (A) (A) (A) (A) (A) (A) (A) (A) (A)
                 (A) (A) (A) (A) (A) (A) (A) (A)
    20 initial guesses have been made.
 Convergence on wavefunction:    0.001000000000000
 Davidson Disk Diagonalization:  ConvIn= 1.00D-03 SkipCon=T Conv= 1.00D-03.
 Max sub-space:  2000 roots to seek:    20 dimension of matrix:       370304
 Iteration     1 Dimension    20 NMult     0 NNew     20
 CISAX will form    20 AO SS matrices at one time.
 NMat=    20 NSing=    20 JSym2X= 0.
 FoFJK:  IHMeth= 1 ICntrl=       0 DoSepK=F KAlg= 0 I1Cent=           0 FoldK=F
 IRaf= 520000000 NMat=      40 IRICut=       1 DoRegI=T DoRafI=F ISym2E= 0 IDoP0=3 IntGTp=3.
 FoFCou: FMM=T IPFlag=           0 FMFlag=      100000 FMFlg1=        2001
         NFxFlg=           0 DoJE=F BraDBF=F KetDBF=F FulRan=T
         wScrn=  0.000000 ICntrl=         0 IOpCl=  0 I1Cent=           0 NGrid=           0
         NMat0=   40 NMatS0=     20 NMatT0=    0 NMatD0=   40 NMtDS0=    0 NMtDT0=    0
 Symmetry not used in FoFCou.
 FMM levels:  10  Number of levels for PrismC:   9
 New state      3 was old state      4
 New state      4 was old state      6
 New state      5 was old state      3
 Excitation Energies [eV] at current iteration:
 Root      1 :     2.195058221544747
 Root      2 :     2.429239875911293
 Root      3 :     2.682796205120150
 Root      4 :     2.902207915284281
 Root      5 :     2.933660180451679
 Root      6 :     3.271638474271403
 Root      7 :     3.391957186384105
 Root      8 :     3.772200429822480
 Root      9 :     3.818731973566665
 Root     10 :     3.884002625622658
 Root     11 :     3.994572362244342
 Root     12 :     4.086803646341957
 Root     13 :     4.155125459303063
 Root     14 :     4.159376878153912
 Root     15 :     4.245173698168702
 Root     16 :     4.486222852813198
 Root     17 :     4.548192309164307
 Root     18 :     4.582972745282181
 Root     19 :     4.760974851857433
 Root     20 :     4.914452832629201
 Iteration     2 Dimension    30 NMult    20 NNew     10
 CISAX will form    10 AO SS matrices at one time.
 NMat=    10 NSing=    10 JSym2X= 0.
 Root      1 not converged, maximum delta is    0.056217142686257
 Root      2 not converged, maximum delta is    0.086114287060480
 Root      3 not converged, maximum delta is    0.112791243228034
 New state      4 was old state      5
 Root      4 not converged, maximum delta is    0.123740839253797
 New state      5 was old state      4
 Root      5 not converged, maximum delta is    0.116565420717531
 Excitation Energies [eV] at current iteration:
 Root      1 :     1.850857362147385   Change is   -0.344200859397361
 Root      2 :     2.147466274514309   Change is   -0.281773601396984
 Root      3 :     2.566221329517405   Change is   -0.116574875602745
 Root      4 :     2.667786572150471   Change is   -0.265873608301207
 Root      5 :     2.798404938681877   Change is   -0.103802976602404
 Iteration     3 Dimension    40 NMult    30 NNew     10
 CISAX will form    10 AO SS matrices at one time.
 NMat=    10 NSing=    10 JSym2X= 0.
 Root      1 not converged, maximum delta is    0.024994727616031
 Root      2 not converged, maximum delta is    0.020642232588355
 Root      3 not converged, maximum delta is    0.023353281017768
 Root      4 not converged, maximum delta is    0.010654118955623
 Root      5 not converged, maximum delta is    0.018919541721728
 Excitation Energies [eV] at current iteration:
 Root      1 :     1.818709446542172   Change is   -0.032147915605213
 Root      2 :     2.126542220815800   Change is   -0.020924053698509
 Root      3 :     2.555081007950860   Change is   -0.011140321566545
 Root      4 :     2.654929725325148   Change is   -0.012856846825323
 Root      5 :     2.789395603698158   Change is   -0.009009334983719
 Iteration     4 Dimension    50 NMult    40 NNew     10
 CISAX will form    10 AO SS matrices at one time.
 NMat=    10 NSing=    10 JSym2X= 0.
 Root      1 not converged, maximum delta is    0.003449498349305
 Root      2 not converged, maximum delta is    0.007417937482495
 Root      3 not converged, maximum delta is    0.006967158842236
 Root      4 not converged, maximum delta is    0.006065761780710
 Root      5 not converged, maximum delta is    0.002281389860372
 Excitation Energies [eV] at current iteration:
 Root      1 :     1.815214309786704   Change is   -0.003495136755468
 Root      2 :     2.123482822310539   Change is   -0.003059398505260
 Root      3 :     2.554035536096351   Change is   -0.001045471854509
 Root      4 :     2.653096909966903   Change is   -0.001832815358245
 Root      5 :     2.788575890463834   Change is   -0.000819713234324
 Iteration     5 Dimension    60 NMult    50 NNew     10
 CISAX will form    10 AO SS matrices at one time.
 NMat=    10 NSing=    10 JSym2X= 0.
 Root      1 has converged.
 Root      2 has converged.
 Root      3 has converged.
 Root      4 has converged.
 Root      5 has converged.
 Excitation Energies [eV] at current iteration:
 Root      1 :     1.814860846940816   Change is   -0.000353462845888
 Root      2 :     2.123221323681257   Change is   -0.000261498629282
 Root      3 :     2.553924568224396   Change is   -0.000110967871954
 Root      4 :     2.652881324035216   Change is   -0.000215585931687
 Root      5 :     2.788486623926825   Change is   -0.000089266537009
 Convergence achieved on expansion vectors.
 ***********************************************************************
 Excited states from <AA,BB:AA,BB> singles matrix:
 ***********************************************************************
 
 1PDM for each excited state written to RWF  633
 Ground to excited state transition densities written to RWF  633
 Ground to excited state transition electric dipole moments (Au):
       state          X           Y           Z        Dip. S.      Osc.
         1         1.7842      2.2332     -0.0844      8.1779      0.3636
         2         0.9092     -1.2665      0.0627      2.4347      0.1266
         3        -0.0767     -0.0378     -0.0074      0.0074      0.0005
         4        -0.3415      0.3478     -0.0311      0.2386      0.0155
         5         0.0231     -0.0028      0.0208      0.0010      0.0001
 Ground to excited state transition velocity dipole moments (Au):
       state          X           Y           Z        Dip. S.      Osc.
         1        -0.1151     -0.1452      0.0037      0.0343      0.3433
         2        -0.0660      0.0945     -0.0039      0.0133      0.1137
         3         0.0075      0.0035     -0.0001      0.0001      0.0005
         4         0.0346     -0.0326      0.0034      0.0023      0.0155
         5        -0.0016      0.0005      0.0006      0.0000      0.0000
 Ground to excited state transition magnetic dipole moments (Au):
       state          X           Y           Z
         1         0.1168      0.0078      1.6783
         2        -0.0134      0.0288     -0.6387
         3         0.3596     -0.2376     -0.0042
         4         0.0120      0.1564      0.9685
         5         0.1268      0.4436     -0.1345
 Ground to excited state transition velocity quadrupole moments (Au):
       state          XX          YY          ZZ          XY          XZ          YZ
         1         2.1159     -0.5349      0.0133      1.0850     -0.0713     -0.0836
         2         1.0457      0.2731     -0.0349     -0.8099      0.0317      0.0475
         3        -0.1539      0.0255     -0.0039     -0.0600      0.0036      0.0063
         4        -0.7678      0.1861      0.0078      0.1396      0.0068     -0.0541
         5         0.0461     -0.0558     -0.0044      0.0089     -0.0274      0.0096
 <0|del|b> * <b|rxdel|0> + <0|del|b> * <b|delr+rdel|0>
 Rotatory Strengths (R) in cgs (10**-40 erg-esu-cm/Gauss)
       state          XX          YY          ZZ    R(velocity)    E-M Angle
         1        -6.1102     -8.5493    -73.3989    -29.3528       91.53
         2        24.4934    -13.2649     44.1154     18.4480       85.25
         3        -3.1310     10.2774      6.8817      4.6760       58.43
         4        -4.2021      4.8065    -11.0030     -3.4662       91.76
         5         0.6266     -1.0195      0.1316     -0.0871       90.00
 1/2[<0|r|b>*<b|rxdel|0> + (<0|rxdel|b>*<b|r|0>)*]
 Rotatory Strengths (R) in cgs (10**-40 erg-esu-cm/Gauss)
       state          XX          YY          ZZ     R(length)
         1      -147.4219    -12.3025    100.1333    -19.8637
         2         8.5896     25.8143     28.3252     20.9097
         3        19.5021     -6.3570     -0.0221      4.3744
         4         2.8964    -38.4785     21.3017     -4.7601
         5        -2.0703      0.8744      1.9818      0.2620
  1/2[<0|del|b>*<b|r|0> + (<0|r|b>*<b|del|0>)*] (Au)
       state          X           Y           Z        Dip. S.   Osc.(frdel)
         1        -0.2054     -0.3242     -0.0003      0.5299      0.3533
         2        -0.0600     -0.1197     -0.0002      0.1799      0.1200
         3        -0.0006     -0.0001      0.0000      0.0007      0.0005
         4        -0.0118     -0.0113     -0.0001      0.0233      0.0155
         5        -0.0000     -0.0000      0.0000      0.0000      0.0000

 Excitation energies and oscillator strengths:
 
 Excited State   1:      Singlet-A      1.8149 eV  683.16 nm  f=0.3636  <S**2>=0.000
     245 -> 248        0.16127
     246 -> 247        0.69360
     246 <- 247       -0.11150
 This state for optimization and/or second-order correction.
 Total Energy, E(TD-HF/TD-DFT) =  -3005.25146241    
 Copying the excited state density for this state as the 1-particle RhoCI density.
 
 Excited State   2:      Singlet-A      2.1232 eV  583.94 nm  f=0.1266  <S**2>=0.000
     244 -> 247        0.11341
     245 -> 247        0.65763
     246 -> 248       -0.21403
 
 Excited State   3:      Singlet-A      2.5539 eV  485.47 nm  f=0.0005  <S**2>=0.000
     243 -> 247        0.65321
     243 -> 248        0.10591
     243 -> 249       -0.12452
     244 -> 247        0.18066
 
 Excited State   4:      Singlet-A      2.6529 eV  467.36 nm  f=0.0155  <S**2>=0.000
     243 -> 247       -0.17800
     244 -> 247        0.66596
 
 Excited State   5:      Singlet-A      2.7885 eV  444.63 nm  f=0.0001  <S**2>=0.000
     241 -> 247        0.68108
     241 -> 249        0.13229
 SavETr:  write IOETrn=   770 NScale= 10 NData=  16 NLR=1 NState=    5 LETran=     100.
 Leave Link  914 at Thu May  5 09:02:37 2022, MaxMem= 10066329600 cpu:           35304.9 elap:            1472.8
 (Enter /sw/apps/gaussian-16.0/g16/l601.exe)
 Copying SCF densities to generalized density rwf, IOpCl= 0 IROHF=0.
 Hyperfine terms turned off by default for NAtoms > 100.

 **********************************************************************

            Population analysis using the SCF density.

 **********************************************************************

 Orbital symmetries:
       Occupied  (A) (A) (A) (A) (A) (A) (A) (A) (A) (A) (A) (A)
                 (A) (A) (A) (A) (A) (A) (A) (A) (A) (A) (A) (A)
                 (A) (A) (A) (A) (A) (A) (A) (A) (A) (A) (A) (A)
                 (A) (A) (A) (A) (A) (A) (A) (A) (A) (A) (A) (A)
                 (A) (A) (A) (A) (A) (A) (A) (A) (A) (A) (A) (A)
                 (A) (A) (A) (A) (A) (A) (A) (A) (A) (A) (A) (A)
                 (A) (A) (A) (A) (A) (A) (A) (A) (A) (A) (A) (A)
                 (A) (A) (A) (A) (A) (A) (A) (A) (A) (A) (A) (A)
                 (A) (A) (A) (A) (A) (A) (A) (A) (A) (A) (A) (A)
                 (A) (A) (A) (A) (A) (A) (A) (A) (A) (A) (A) (A)
                 (A) (A) (A) (A) (A) (A) (A) (A) (A) (A) (A) (A)
                 (A) (A) (A) (A) (A) (A) (A) (A) (A) (A) (A) (A)
                 (A) (A) (A) (A) (A) (A) (A) (A) (A) (A) (A) (A)
                 (A) (A) (A) (A) (A) (A) (A) (A) (A) (A) (A) (A)
                 (A) (A) (A) (A) (A) (A) (A) (A) (A) (A) (A) (A)
                 (A) (A) (A) (A) (A) (A) (A) (A) (A) (A) (A) (A)
                 (A) (A) (A) (A) (A) (A) (A) (A) (A) (A) (A) (A)
                 (A) (A) (A) (A) (A) (A) (A) (A) (A) (A) (A) (A)
                 (A) (A) (A) (A) (A) (A) (A) (A) (A) (A) (A) (A)
                 (A) (A) (A) (A) (A) (A) (A) (A) (A) (A) (A) (A)
                 (A) (A) (A) (A) (A) (A)
       Virtual   (A) (A) (A) (A) (A) (A) (A) (A) (A) (A) (A) (A)
                 (A) (A) (A) (A) (A) (A) (A) (A) (A) (A) (A) (A)
                 (A) (A) (A) (A) (A) (A) (A) (A) (A) (A) (A) (A)
                 (A) (A) (A) (A) (A) (A) (A) (A) (A) (A) (A) (A)
                 (A) (A) (A) (A) (A) (A) (A) (A) (A) (A) (A) (A)
                 (A) (A) (A) (A) (A) (A) (A) (A) (A) (A) (A) (A)
                 (A) (A) (A) (A) (A) (A) (A) (A) (A) (A) (A) (A)
                 (A) (A) (A) (A) (A) (A) (A) (A) (A) (A) (A) (A)
                 (A) (A) (A) (A) (A) (A) (A) (A) (A) (A) (A) (A)
                 (A) (A) (A) (A) (A) (A) (A) (A) (A) (A) (A) (A)
                 (A) (A) (A) (A) (A) (A) (A) (A) (A) (A) (A) (A)
                 (A) (A) (A) (A) (A) (A) (A) (A) (A) (A) (A) (A)
                 (A) (A) (A) (A) (A) (A) (A) (A) (A) (A) (A) (A)
                 (A) (A) (A) (A) (A) (A) (A) (A) (A) (A) (A) (A)
                 (A) (A) (A) (A) (A) (A) (A) (A) (A) (A) (A) (A)
                 (A) (A) (A) (A) (A) (A) (A) (A) (A) (A) (A) (A)
                 (A) (A) (A) (A) (A) (A) (A) (A) (A) (A) (A) (A)
                 (A) (A) (A) (A) (A) (A) (A) (A) (A) (A) (A) (A)
                 (A) (A) (A) (A) (A) (A) (A) (A) (A) (A) (A) (A)
                 (A) (A) (A) (A) (A) (A) (A) (A) (A) (A) (A) (A)
                 (A) (A) (A) (A) (A) (A) (A) (A) (A) (A) (A) (A)
                 (A) (A) (A) (A) (A) (A) (A) (A) (A) (A) (A) (A)
                 (A) (A) (A) (A) (A) (A) (A) (A) (A) (A) (A) (A)
                 (A) (A) (A) (A) (A) (A) (A) (A) (A) (A) (A) (A)
                 (A) (A) (A) (A) (A) (A) (A) (A) (A) (A) (A) (A)
                 (A) (A) (A) (A) (A) (A) (A) (A) (A) (A) (A) (A)
                 (A) (A) (A) (A) (A) (A) (A) (A) (A) (A) (A) (A)
                 (A) (A) (A) (A) (A) (A) (A) (A) (A) (A) (A) (A)
                 (A) (A) (A) (A) (A) (A) (A) (A) (A) (A) (A) (A)
                 (A) (A) (A) (A) (A) (A) (A) (A) (A) (A) (A) (A)
                 (A) (A) (A) (A) (A) (A) (A) (A) (A) (A) (A) (A)
                 (A) (A) (A) (A) (A) (A) (A) (A) (A) (A) (A) (A)
                 (A) (A) (A) (A) (A) (A) (A) (A) (A) (A) (A) (A)
                 (A) (A) (A) (A) (A) (A) (A) (A) (A) (A) (A) (A)
                 (A) (A) (A) (A) (A) (A) (A) (A) (A) (A) (A) (A)
                 (A) (A) (A) (A) (A) (A) (A) (A) (A) (A) (A) (A)
                 (A) (A) (A) (A) (A) (A) (A) (A) (A) (A) (A) (A)
                 (A) (A) (A) (A) (A) (A) (A) (A) (A) (A) (A) (A)
                 (A) (A) (A) (A) (A) (A) (A) (A) (A) (A) (A) (A)
                 (A) (A) (A) (A) (A) (A) (A) (A) (A) (A) (A) (A)
                 (A) (A) (A) (A) (A) (A) (A) (A) (A) (A) (A) (A)
                 (A) (A) (A) (A) (A) (A) (A) (A) (A) (A) (A) (A)
                 (A) (A) (A) (A) (A) (A) (A) (A) (A) (A) (A) (A)
                 (A) (A) (A) (A) (A) (A) (A) (A) (A) (A) (A) (A)
                 (A) (A) (A) (A) (A) (A) (A) (A) (A) (A) (A) (A)
                 (A) (A) (A) (A) (A) (A) (A) (A) (A) (A) (A) (A)
                 (A) (A) (A) (A) (A) (A) (A) (A) (A) (A) (A) (A)
                 (A) (A) (A) (A) (A) (A) (A) (A) (A) (A) (A) (A)
                 (A) (A) (A) (A) (A) (A) (A) (A) (A) (A) (A) (A)
                 (A) (A) (A) (A) (A) (A) (A) (A) (A) (A) (A) (A)
                 (A) (A) (A) (A) (A) (A) (A) (A) (A) (A) (A) (A)
                 (A) (A) (A) (A) (A) (A) (A) (A) (A) (A) (A) (A)
                 (A) (A) (A) (A) (A) (A) (A) (A) (A) (A) (A) (A)
                 (A) (A) (A) (A) (A) (A) (A) (A) (A) (A) (A) (A)
                 (A) (A) (A) (A) (A) (A) (A) (A) (A) (A) (A) (A)
                 (A) (A) (A) (A) (A) (A) (A) (A) (A) (A) (A) (A)
[...]
 Alpha virt. eigenvalues --    1.15858   1.16465   1.16883   1.17639   1.18133
 Alpha virt. eigenvalues --    1.18244   1.18980   1.19171   1.19549   1.19996
 Alpha virt. eigenvalues --    1.20876   1.20947   1.22077   1.22578   1.23177
 Alpha virt. eigenvalues --    1.23555   1.23902   1.24025   1.24729   1.25331
 Alpha virt. eigenvalues --    1.25906   1.26613   1.27201   1.27741   1.28120
 Alpha virt. eigenvalues --    1.28439   1.29426   1.29982   1.30165   1.30428
 Alpha virt. eigenvalues --    1.30626   1.31140   1.31485   1.31917   1.32080
 Alpha virt. eigenvalues --    1.32500   1.32660   1.32779   1.33028   1.33414
 Alpha virt. eigenvalues --    1.34025   1.34777   1.35241   1.35356   1.36166
 Alpha virt. eigenvalues --    1.36354   1.36715   1.37408   1.37420   1.37610
 Alpha virt. eigenvalues --    1.37757   1.38661   1.39106   1.39432   1.39935
 Alpha virt. eigenvalues --    1.39970   1.40022   1.40731   1.41290   1.41516
 Alpha virt. eigenvalues --    1.41781   1.41952   1.42650   1.43157   1.43913
 Alpha virt. eigenvalues --    1.44389   1.44544   1.45171   1.45527   1.46172
 Alpha virt. eigenvalues --    1.46821   1.46990   1.47557   1.47705   1.47981
 Alpha virt. eigenvalues --    1.48949   1.49059   1.49131   1.49741   1.49913
 Alpha virt. eigenvalues --    1.50036   1.50974   1.51065   1.51576   1.51920
 Alpha virt. eigenvalues --    1.52366   1.52745   1.52933   1.52983   1.53439
 Alpha virt. eigenvalues --    1.53571   1.53688   1.54010   1.54190   1.54288
 Alpha virt. eigenvalues --    1.54646   1.55090   1.55231   1.55417   1.55606
 Alpha virt. eigenvalues --    1.56170   1.56318   1.56492   1.56697   1.57250
 Alpha virt. eigenvalues --    1.57272   1.57512   1.57810   1.58056   1.58429
 Alpha virt. eigenvalues --    1.58713   1.59413   1.59552   1.60034   1.60704
 Alpha virt. eigenvalues --    1.60749   1.60967   1.61024   1.61510   1.62096
 Alpha virt. eigenvalues --    1.63038   1.63133   1.63768   1.64913   1.65357
 Alpha virt. eigenvalues --    1.65382   1.66155   1.66472   1.66616   1.67181
 Alpha virt. eigenvalues --    1.67220   1.68372   1.68524   1.69095   1.69364
 Alpha virt. eigenvalues --    1.69540   1.69694   1.69989   1.70373   1.70604
 Alpha virt. eigenvalues --    1.71618   1.71909   1.71940   1.72247   1.72288
 Alpha virt. eigenvalues --    1.72471   1.73118   1.73322   1.73644   1.73945
 Alpha virt. eigenvalues --    1.74075   1.74625   1.74701   1.74839   1.75189
 Alpha virt. eigenvalues --    1.75556   1.75747   1.76052   1.76089   1.76225
 Alpha virt. eigenvalues --    1.76464   1.76661   1.76955   1.77536   1.77905
 Alpha virt. eigenvalues --    1.78007   1.78140   1.78395   1.78489   1.78764
 Alpha virt. eigenvalues --    1.78871   1.78977   1.79095   1.79210   1.79310
 Alpha virt. eigenvalues --    1.79852   1.79999   1.80151   1.80260   1.80518
 Alpha virt. eigenvalues --    1.80530   1.80872   1.80940   1.81061   1.81335
 Alpha virt. eigenvalues --    1.81581   1.81877   1.82025   1.82243   1.82397
 Alpha virt. eigenvalues --    1.82591   1.82714   1.82771   1.82989   1.83321
 Alpha virt. eigenvalues --    1.83586   1.83906   1.84035   1.84369   1.84419
 Alpha virt. eigenvalues --    1.84947   1.85233   1.85321   1.85601   1.85641
 Alpha virt. eigenvalues --    1.85846   1.86047   1.86203   1.86348   1.86407
 Alpha virt. eigenvalues --    1.86708   1.87069   1.87148   1.87588   1.87663
 Alpha virt. eigenvalues --    1.87851   1.88194   1.88280   1.88556   1.88697
 Alpha virt. eigenvalues --    1.88768   1.89213   1.89291   1.89821   1.90007
 Alpha virt. eigenvalues --    1.90466   1.90835   1.91080   1.91532   1.91752
 Alpha virt. eigenvalues --    1.91773   1.92405   1.92416   1.92532   1.92663
 Alpha virt. eigenvalues --    1.92811   1.93085   1.93383   1.93637   1.93785
 Alpha virt. eigenvalues --    1.94464   1.94667   1.94821   1.94962   1.95222
 Alpha virt. eigenvalues --    1.95584   1.95764   1.96032   1.96273   1.96685
 Alpha virt. eigenvalues --    1.96819   1.97135   1.97328   1.97438   1.97642
 Alpha virt. eigenvalues --    1.97763   1.98478   1.98648   1.99072   1.99313
 Alpha virt. eigenvalues --    1.99532   1.99961   2.00052   2.00155   2.00493
 Alpha virt. eigenvalues --    2.01073   2.01342   2.01517   2.01703   2.02172
 Alpha virt. eigenvalues --    2.02478   2.03005   2.03346   2.03602   2.04060
 Alpha virt. eigenvalues --    2.04243   2.04343   2.04903   2.05319   2.05590
 Alpha virt. eigenvalues --    2.06004   2.06533   2.06674   2.07008   2.07315
 Alpha virt. eigenvalues --    2.07404   2.07635   2.08110   2.08306   2.08747
 Alpha virt. eigenvalues --    2.09424   2.09772   2.09977   2.10068   2.10238
 Alpha virt. eigenvalues --    2.10361   2.10793   2.11037   2.11429   2.11854
 Alpha virt. eigenvalues --    2.12035   2.12277   2.12465   2.12605   2.13606
 Alpha virt. eigenvalues --    2.13819   2.14296   2.14466   2.14610   2.14714
 Alpha virt. eigenvalues --    2.15277   2.15648   2.15741   2.16089   2.16345
 Alpha virt. eigenvalues --    2.16993   2.17075   2.17527   2.18110   2.18601
 Alpha virt. eigenvalues --    2.19235   2.19459   2.19502   2.19962   2.20145
 Alpha virt. eigenvalues --    2.21036   2.21543   2.21790   2.22559   2.22674
 Alpha virt. eigenvalues --    2.23298   2.23661   2.24184   2.24447   2.25072
 Alpha virt. eigenvalues --    2.25142   2.25483   2.26316   2.26695   2.27168
 Alpha virt. eigenvalues --    2.27690   2.28030   2.28249   2.28993   2.29221
 Alpha virt. eigenvalues --    2.29607   2.30102   2.30190   2.30315   2.31120
 Alpha virt. eigenvalues --    2.31451   2.31751   2.31845   2.32187   2.32725
 Alpha virt. eigenvalues --    2.32976   2.33230   2.33428   2.34058   2.34599
 Alpha virt. eigenvalues --    2.34722   2.35060   2.35296   2.35872   2.36135
 Alpha virt. eigenvalues --    2.36359   2.36464   2.36946   2.37025   2.37751
 Alpha virt. eigenvalues --    2.38140   2.38266   2.38378   2.38870   2.39419
 Alpha virt. eigenvalues --    2.39875   2.40178   2.40964   2.41557   2.41868
 Alpha virt. eigenvalues --    2.42633   2.42862   2.43194   2.43519   2.43818
 Alpha virt. eigenvalues --    2.44362   2.44528   2.44725   2.45224   2.45979
 Alpha virt. eigenvalues --    2.46177   2.46262   2.46766   2.46802   2.47094
 Alpha virt. eigenvalues --    2.47731   2.47869   2.48068   2.48330   2.48542
 Alpha virt. eigenvalues --    2.49138   2.49407   2.50467   2.50886   2.51346
 Alpha virt. eigenvalues --    2.52064   2.52336   2.52910   2.53558   2.53708
 Alpha virt. eigenvalues --    2.54161   2.54758   2.55273   2.55400   2.55703
 Alpha virt. eigenvalues --    2.56545   2.56671   2.56868   2.56990   2.57488
 Alpha virt. eigenvalues --    2.57788   2.58041   2.58249   2.59147   2.59326
 Alpha virt. eigenvalues --    2.59946   2.60208   2.60352   2.60641   2.61550
 Alpha virt. eigenvalues --    2.62156   2.62414   2.62784   2.62834   2.62954
 Alpha virt. eigenvalues --    2.63125   2.63377   2.63860   2.63952   2.65021
 Alpha virt. eigenvalues --    2.66004   2.66279   2.66971   2.67680   2.68037
 Alpha virt. eigenvalues --    2.68480   2.68541   2.68670   2.69129   2.69459
 Alpha virt. eigenvalues --    2.69831   2.70346   2.70807   2.70867   2.71073
 Alpha virt. eigenvalues --    2.71753   2.72011   2.72052   2.72963   2.73082
 Alpha virt. eigenvalues --    2.73435   2.74283   2.74612   2.75193   2.75528
 Alpha virt. eigenvalues --    2.75882   2.76137   2.76298   2.76372   2.78231
 Alpha virt. eigenvalues --    2.78309   2.78428   2.79182   2.79569   2.79672
 Alpha virt. eigenvalues --    2.79949   2.81488   2.81565   2.82118   2.82508
 Alpha virt. eigenvalues --    2.83129   2.83730   2.84926   2.85439   2.86019
 Alpha virt. eigenvalues --    2.86306   2.86546   2.86739   2.88323   2.88341
 Alpha virt. eigenvalues --    2.88924   2.89401   2.89841   2.90650   2.91041
 Alpha virt. eigenvalues --    2.91184   2.91385   2.91550   2.91640   2.91893
 Alpha virt. eigenvalues --    2.92765   2.92852   2.93086   2.93353   2.93786
 Alpha virt. eigenvalues --    2.94554   2.94962   2.95193   2.95298   2.95610
 Alpha virt. eigenvalues --    2.95920   2.96234   2.96536   2.96804   2.97239
 Alpha virt. eigenvalues --    2.97348   2.97891   2.98037   2.98338   2.98584
 Alpha virt. eigenvalues --    2.98980   2.99135   2.99885   3.00028   3.00199
 Alpha virt. eigenvalues --    3.00395   3.00906   3.01091   3.01528   3.01710
 Alpha virt. eigenvalues --    3.01888   3.02102   3.02989   3.03143   3.03644
 Alpha virt. eigenvalues --    3.03794   3.04072   3.04353   3.05163   3.05460
 Alpha virt. eigenvalues --    3.06041   3.06184   3.06727   3.06776   3.06884
 Alpha virt. eigenvalues --    3.07750   3.08082   3.08355   3.08559   3.08944
 Alpha virt. eigenvalues --    3.09308   3.10203   3.10359   3.10393   3.11239
 Alpha virt. eigenvalues --    3.11597   3.12518   3.12694   3.12926   3.14693
 Alpha virt. eigenvalues --    3.15371   3.15800   3.17183   3.17750   3.18638
 Alpha virt. eigenvalues --    3.18838   3.20213   3.21566   3.22272   3.22825
 Alpha virt. eigenvalues --    3.24759   3.28358   3.31789   3.39159   3.40442
 Alpha virt. eigenvalues --    3.41302   3.43155   3.45853   3.48269   3.50555
 Alpha virt. eigenvalues --    3.54886   3.58336   3.62178   3.63329   3.64139
 Alpha virt. eigenvalues --    3.66675   3.69478
          Condensed to atoms (all electrons):
 Mulliken charges:
               1
     1  Mg   0.933888
     2  C   -0.068118
     3  C   -0.067311
     4  C   -0.022326
     5  C   -0.034911
     6  N   -0.437679
     7  C    0.018498
     8  C   -0.066917
     9  C   -0.183990
    10  C    0.168131
    11  C   -0.000201
    12  C    0.043758
    13  C   -0.001603
    14  C    0.243866
    15  O   -0.239747
    16  O   -0.393948
    17  N   -0.529748
    18  C    0.150620
    19  C   -0.138254
    20  C   -0.054652
    21  C    0.195265
    22  C    0.040743
    23  C    0.039065
    24  O   -0.287406
    25  C   -0.007528
    26  N   -0.331393
    27  C    0.011973
    28  C   -0.111673
    29  C   -0.115331
    30  C    0.075047
    31  C    0.016114
    32  C   -0.016454
    33  C   -0.039266
    34  N   -0.454195
    35  C    0.089912
    36  C   -0.168550
    37  C   -0.079130
    38  C    0.209133
    39  C    0.070581
    40  C    0.151185
    41  O   -0.223943
    42  C   -0.081632
    43  C    0.280718
    44  O   -0.256600
    45  O   -0.340706
    46  C    0.126149
    47  C    0.240547
    48  C   -0.120775
    49  C   -0.200471
    50  C    0.003988
    51  C   -0.004222
    52  C   -0.028157
    53  C    0.006054
    54  C   -0.214266
    55  C   -0.026563
    56  C    0.009989
    57  C   -0.051770
    58  C    0.006363
    59  C   -0.246623
    60  C   -0.009809
    61  C   -0.031976
    62  C   -0.034810
    63  C   -0.057195
    64  C   -0.248222
    65  C   -0.012136
    66  C    0.001930
    67  H   -0.001476
    68  H    0.032239
    69  H   -0.001373
    70  H    0.047574
    71  H    0.057308
    72  H    0.040073
    73  H    0.043101
    74  H    0.040685
    75  H    0.053323
    76  H    0.045825
    77  H    0.058849
    78  H    0.056175
    79  H    0.047039
    80  H    0.043563
    81  H    0.072377
    82  H    0.015274
    83  H    0.064430
    84  H    0.074500
    85  H    0.036429
    86  H    0.043579
    87  H    0.051329
    88  H    0.041659
    89  H    0.044029
    90  H    0.032402
    91  H    0.039686
    92  H    0.045701
    93  H    0.046669
    94  H    0.053198
    95  H    0.068207
    96  H    0.071841
    97  H    0.031379
    98  H    0.071474
    99  H    0.050293
   100  H    0.073403
   101  H    0.035627
   102  H    0.063356
   103  H    0.018686
   104  H    0.021186
   105  H    0.040512
   106  H    0.071908
   107  H    0.040167
   108  H    0.029446
   109  H    0.037374
   110  H    0.030135
   111  H    0.026375
   112  H    0.026045
   113  H    0.021796
   114  H    0.033362
   115  H    0.017950
   116  H    0.027376
   117  H    0.033447
   118  H    0.035470
   119  H    0.028954
   120  H    0.042254
   121  H    0.038586
   122  H    0.012906
   123  H    0.014208
   124  H    0.035611
   125  H    0.034667
   126  H    0.022769
   127  H    0.028370
   128  H    0.027904
   129  H    0.042767
   130  H    0.045148
   131  H    0.023830
   132  H    0.036101
   133  H    0.040526
   134  H    0.033429
   135  H    0.030712
   136  H    0.037046
   137  H    0.029400
   138  H    0.036196
   139  H    0.022385
   140  H    0.041941
 Sum of Mulliken charges =  -0.00000
 Mulliken charges with hydrogens summed into heavy atoms:
               1
     1  Mg   0.933888
     2  C   -0.068118
     3  C   -0.068786
     4  C    0.009913
     5  C   -0.036284
     6  N   -0.437679
     7  C    0.018498
     8  C   -0.019343
     9  C   -0.126682
    10  C    0.168131
    11  C    0.123658
    12  C    0.142905
    13  C    0.113421
    14  C    0.243866
    15  O   -0.239747
    16  O   -0.393948
    17  N   -0.529748
    18  C    0.150620
    19  C   -0.138254
    20  C   -0.054652
    21  C    0.195265
    22  C    0.203722
    23  C    0.039065
    24  O   -0.287406
    25  C    0.146676
    26  N   -0.331393
    27  C    0.011973
    28  C   -0.075244
    29  C   -0.071752
    30  C    0.075047
    31  C    0.153131
    32  C    0.055635
    33  C    0.106302
    34  N   -0.454195
    35  C    0.089912
    36  C   -0.168550
    37  C   -0.079130
    38  C    0.209133
    39  C    0.242009
    40  C    0.151185
    41  O   -0.223943
    42  C   -0.010158
    43  C    0.280718
    44  O   -0.256600
    45  O   -0.340706
    46  C    0.285472
    47  C    0.322589
    48  C   -0.099589
    49  C   -0.200471
    50  C    0.156576
    51  C    0.062598
    52  C    0.028352
    53  C    0.053895
    54  C   -0.180904
    55  C    0.052209
    56  C    0.074414
    57  C    0.029070
    58  C    0.033477
    59  C   -0.211012
    60  C    0.075997
    61  C    0.038695
    62  C    0.034168
    63  C    0.019432
    64  C   -0.214793
    65  C    0.085022
    66  C    0.102451
 Electronic spatial extent (au):  <R**2>=         108272.4749
 Charge=             -0.0000 electrons
 Dipole moment (field-independent basis, Debye):
    X=              3.7581    Y=              3.3157    Z=             -1.3895  Tot=              5.2007
 Quadrupole moment (field-independent basis, Debye-Ang):
   XX=           -372.7690   YY=           -443.6256   ZZ=           -409.2770
   XY=            -20.9906   XZ=             12.9670   YZ=              0.9075
 Traceless Quadrupole moment (field-independent basis, Debye-Ang):
   XX=             35.7882   YY=            -35.0684   ZZ=             -0.7198
   XY=            -20.9906   XZ=             12.9670   YZ=              0.9075
 Octapole moment (field-independent basis, Debye-Ang**2):
  XXX=           -403.0139  YYY=             -9.0730  ZZZ=            -36.0387  XYY=            297.0446
  XXY=            181.4079  XXZ=           -139.5650  XZZ=              1.7496  YZZ=             12.6007
  YYZ=             73.8211  XYZ=            -90.4112
 Hexadecapole moment (field-independent basis, Debye-Ang**3):
 XXXX=        -105682.7500 YYYY=         -27460.7091 ZZZZ=         -12431.6173 XXXY=          -1813.3192
 XXXZ=           -526.7267 YYYX=             96.8893 YYYZ=           -249.4492 ZZZX=           -228.8179
 ZZZY=            -71.8954 XXYY=         -24191.8302 XXZZ=         -21019.4818 YYZZ=          -6284.4159
 XXYZ=            434.8418 YYXZ=            211.7808 ZZXY=           -147.3537
 N-N= 9.570824360815D+03 E-N=-2.613165017375D+04  KE= 2.974914618871D+03
 Leave Link  601 at Thu May  5 09:02:38 2022, MaxMem= 10066329600 cpu:              15.7 elap:               0.8
 (Enter /sw/apps/gaussian-16.0/g16/l9999.exe)
 1\1\GINC-BP1-COMPUTE141\SP\RPBE1PBE TD-FC\def2SVP\C55H74Mg1N4O6\OF1564
 1\05-May-2022\0\\#p PBE1PBE/Def2SVP td=(nstates=5)\\step_751_chromopho
 re_27 TDDFT with PBE1PBE functional\\0,1\Mg,0,-5.573,24.878,26.729\C,0
 ,-3.791,26.673,29.242\C,0,-6.56,22.653,29.117\C,0,-6.836,23.077,24.284
 \C,0,-3.825,26.867,24.349\N,0,-5.091,24.728,28.86\C,0,-4.506,25.634,29
 .754\C,0,-4.879,25.347,31.233\C,0,-5.619,23.929,31.136\C,0,-5.756,23.6
 81,29.581\C,0,-4.814,22.885,31.879\C,0,-5.717,26.372,32.002\C,0,-5.335
 ,26.522,33.503\C,0,-6.378,26.496,34.586\O,0,-6.371,27.338,35.463\O,0,-
 7.211,25.302,34.564\N,0,-6.679,23.132,26.734\C,0,-6.968,22.285,27.803\
 C,0,-7.692,21.193,27.345\C,0,-7.826,21.31,25.949\C,0,-7.111,22.568,25.
 549\C,0,-8.112,20.098,28.313\C,0,-8.412,20.385,24.946\O,0,-8.582,20.61
 3,23.722\C,0,-9.162,19.194,25.337\N,0,-5.124,24.757,24.575\C,0,-5.938,
 24.063,23.861\C,0,-5.525,24.249,22.338\C,0,-5.014,25.703,22.312\C,0,-4
 .645,25.816,23.808\C,0,-4.63,23.101,21.734\C,0,-6.152,26.694,21.904\C,
 0,-6.14,27.096,20.406\N,0,-4.173,26.567,26.739\C,0,-3.566,27.235,25.64
 1\C,0,-2.778,28.302,26.219\C,0,-2.803,28.076,27.644\C,0,-3.689,27.056,
 27.886\C,0,-2.083,29.474,25.529\C,0,-2.319,28.623,28.894\O,0,-1.503,29
 .507,29.158\C,0,-2.927,27.748,29.981\C,0,-1.85,27.042,30.712\O,0,-0.80
 8,26.63,30.2\O,0,-2.13,27.018,32.034\C,0,-1.052,26.593,32.86\C,0,-7.83
 8,25.245,35.864\C,0,-8.725,24.016,35.834\C,0,-8.629,22.888,36.594\C,0,
 -7.456,22.558,37.565\C,0,-9.77,21.898,36.601\C,0,-11.161,22.202,37.187
 \C,0,-11.771,21.21,38.187\C,0,-12.858,20.316,37.688\C,0,-14.263,20.976
 ,37.619\C,0,-12.925,18.9,38.361\C,0,-11.908,17.912,37.704\C,0,-11.234,
 16.907,38.748\C,0,-9.692,16.876,38.643\C,0,-8.98,17.809,39.634\C,0,-9.
 173,15.435,38.979\C,0,-7.679,15.395,38.571\C,0,-6.875,14.879,39.85\C,0
 ,-5.7,13.934,39.467\C,0,-5.321,13.135,40.704\C,0,-4.488,14.724,38.939\
 H,0,-6.894,21.937,29.871\H,0,-7.143,22.524,23.394\H,0,-3.288,27.605,23
 .749\H,0,-3.952,25.181,31.781\H,0,-6.525,23.863,31.739\H,0,-4.343,23.4
 06,32.713\H,0,-4.071,22.396,31.25\H,0,-5.454,22.074,32.226\H,0,-6.755,
 26.071,31.861\H,0,-5.606,27.346,31.525\H,0,-4.692,27.391,33.641\H,0,-4
 .592,25.753,33.716\H,0,-9.118,19.714,28.143\H,0,-8.176,20.519,29.317\H
 ,0,-7.487,19.205,28.308\H,0,-8.763,18.8,26.272\H,0,-9.194,18.392,24.60
 1\H,0,-10.146,19.611,25.555\H,0,-6.419,24.181,21.718\H,0,-4.059,25.785
 ,21.793\H,0,-4.344,22.393,22.512\H,0,-3.757,23.454,21.186\H,0,-5.172,2
 2.492,21.01\H,0,-6.031,27.548,22.57\H,0,-7.107,26.299,22.251\H,0,-5.25
 3,26.745,19.878\H,0,-6.101,28.185,20.38\H,0,-7.063,26.74,19.95\H,0,-1.
 053,29.155,25.373\H,0,-2.138,30.413,26.081\H,0,-2.52,29.625,24.542\H,0
 ,-3.498,28.355,30.683\H,0,-1.321,26.739,33.906\H,0,-0.047,26.952,32.64
 \H,0,-0.945,25.51,32.805\H,0,-8.339,26.138,36.237\H,0,-7.13,25.026,36.
 663\H,0,-9.61,24.12,35.206\H,0,-7.093,23.451,38.074\H,0,-6.623,22.039,
 37.09\H,0,-7.888,22.042,38.423\H,0,-9.512,20.88,36.892\H,0,-10.046,21.
 902,35.547\H,0,-11.862,22.295,36.358\H,0,-11.063,23.165,37.687\H,0,-12
 .157,21.798,39.02\H,0,-10.965,20.618,38.621\H,0,-12.687,20.149,36.624\
 H,0,-14.306,21.986,38.028\H,0,-15.089,20.555,38.192\H,0,-14.65,21.068,
 36.604\H,0,-13.924,18.473,38.45\H,0,-12.533,19.096,39.359\H,0,-11.148,
 18.4,37.094\H,0,-12.442,17.165,37.116\H,0,-11.518,15.857,38.69\H,0,-11
 .622,17.164,39.733\H,0,-9.452,17.048,37.594\H,0,-8.315,17.393,40.391\H
 ,0,-9.69,18.346,40.263\H,0,-8.421,18.633,39.19\H,0,-9.755,14.774,38.33
 6\H,0,-9.378,15.282,40.038\H,0,-7.273,16.344,38.223\H,0,-7.581,14.619,
 37.811\H,0,-7.554,14.325,40.499\H,0,-6.542,15.845,40.23\H,0,-6.007,13.
 262,38.666\H,0,-4.311,12.758,40.542\H,0,-6.076,12.374,40.902\H,0,-5.25
 4,13.718,41.623\H,0,-3.65,14.744,39.635\H,0,-4.854,15.749,38.873\H,0,-
 4.271,14.306,37.956\\Version=ES64L-G16RevA.03\State=1-A\HF=-3005.31815
 73\RMSD=3.481e-09\PG=C01 [X(C55H74Mg1N4O6)]\\@


 "PERFECTION IS NOT AN ACCIDENT"
         --  EAGLE ELECTRIC MANUFACTURING CO.,INC. NY
 Job cpu time:       0 days 12 hours 51 minutes 13.7 seconds.
 Elapsed time:       0 days  0 hours 32 minutes 11.8 seconds.
 File lengths (MBytes):  RWF=   8929 Int=      0 D2E=      0 Chk=    390 Scr=      1
 Normal termination of Gaussian 16 at Thu May  5 09:02:39 2022.
