 Entering Gaussian System, Link 0=g16
 Initial command:
 /sw/apps/gaussian-16.0/g16/l1.exe "/tmp/Gau-36296.inp" -scrdir="/tmp/"
 Entering Link 1 = /sw/apps/gaussian-16.0/g16/l1.exe PID=     36297.
  
 Copyright (c) 1988,1990,1992,1993,1995,1998,2003,2009,2016,
            Gaussian, Inc.  All Rights Reserved.
  
 This is part of the Gaussian(R) 16 program.  It is based on
 the Gaussian(R) 09 system (copyright 2009, Gaussian, Inc.),
 the Gaussian(R) 03 system (copyright 2003, Gaussian, Inc.),
 the Gaussian(R) 98 system (copyright 1998, Gaussian, Inc.),
 the Gaussian(R) 94 system (copyright 1995, Gaussian, Inc.),
 the Gaussian 92(TM) system (copyright 1992, Gaussian, Inc.),
 the Gaussian 90(TM) system (copyright 1990, Gaussian, Inc.),
 the Gaussian 88(TM) system (copyright 1988, Gaussian, Inc.),
 the Gaussian 86(TM) system (copyright 1986, Carnegie Mellon
 University), and the Gaussian 82(TM) system (copyright 1983,
 Carnegie Mellon University). Gaussian is a federally registered
 trademark of Gaussian, Inc.
  
 This software contains proprietary and confidential information,
 including trade secrets, belonging to Gaussian, Inc.
  
 This software is provided under written license and may be
 used, copied, transmitted, or stored only in accord with that
 written license.
  
 The following legend is applicable only to US Government
 contracts under FAR:
  
                    RESTRICTED RIGHTS LEGEND
  
 Use, reproduction and disclosure by the US Government is
 subject to restrictions as set forth in subparagraphs (a)
 and (c) of the Commercial Computer Software - Restricted
 Rights clause in FAR 52.227-19.
  
 Gaussian, Inc.
 340 Quinnipiac St., Bldg. 40, Wallingford CT 06492
  
  
 ---------------------------------------------------------------
 Warning -- This program may not be used in any manner that
 competes with the business of Gaussian, Inc. or will provide
 assistance to any competitor of Gaussian, Inc.  The licensee
 of this program is prohibited from giving any competitor of
 Gaussian, Inc. access to this program.  By using this program,
 the user acknowledges that Gaussian, Inc. is engaged in the
 business of creating and licensing software in the field of
 computational chemistry and represents and warrants to the
 licensee that it is not a competitor of Gaussian, Inc. and that
 it will not use this program in any manner prohibited above.
 ---------------------------------------------------------------
  

 Cite this work as:
 Gaussian 16, Revision A.03,
 M. J. Frisch, G. W. Trucks, H. B. Schlegel, G. E. Scuseria, 
 M. A. Robb, J. R. Cheeseman, G. Scalmani, V. Barone, 
 G. A. Petersson, H. Nakatsuji, X. Li, M. Caricato, A. V. Marenich, 
 J. Bloino, B. G. Janesko, R. Gomperts, B. Mennucci, H. P. Hratchian, 
 J. V. Ortiz, A. F. Izmaylov, J. L. Sonnenberg, D. Williams-Young, 
 F. Ding, F. Lipparini, F. Egidi, J. Goings, B. Peng, A. Petrone, 
 T. Henderson, D. Ranasinghe, V. G. Zakrzewski, J. Gao, N. Rega, 
 G. Zheng, W. Liang, M. Hada, M. Ehara, K. Toyota, R. Fukuda, 
 J. Hasegawa, M. Ishida, T. Nakajima, Y. Honda, O. Kitao, H. Nakai, 
 T. Vreven, K. Throssell, J. A. Montgomery, Jr., J. E. Peralta, 
 F. Ogliaro, M. J. Bearpark, J. J. Heyd, E. N. Brothers, K. N. Kudin, 
 V. N. Staroverov, T. A. Keith, R. Kobayashi, J. Normand, 
 K. Raghavachari, A. P. Rendell, J. C. Burant, S. S. Iyengar, 
 J. Tomasi, M. Cossi, J. M. Millam, M. Klene, C. Adamo, R. Cammi, 
 J. W. Ochterski, R. L. Martin, K. Morokuma, O. Farkas, 
 J. B. Foresman, and D. J. Fox, Gaussian, Inc., Wallingford CT, 2016.
 
 ******************************************
 Gaussian 16:  ES64L-G16RevA.03 25-Dec-2016
                 4-May-2022 
 ******************************************
 %nproc=24
 Will use up to   24 processors via shared memory.
 %mem=75GB
 -----------------------------------
 #p cam-b3lyp/Def2SVP td=(nstates=5)
 -----------------------------------
 1/38=1,172=1/1;
 2/12=2,17=6,18=5,40=1/2;
 3/5=43,7=101,11=9,25=1,30=1,74=-40/1,2,3,8;
 4//1;
 5/5=2,38=5/2;
 8/6=1,10=1,108=5/1;
 9/41=5,42=1,70=2/14;
 6/7=2,8=2,9=2,10=2/1;
 99/5=1,9=1/99;
 Leave Link    1 at Wed May  4 23:04:10 2022, MaxMem= 10066329600 cpu:               0.5 elap:               0.0
 (Enter /sw/apps/gaussian-16.0/g16/l101.exe)
 -------------------------------------------------------
 step_501_chromophore_20 TDDFT with cam-b3lyp functional
 -------------------------------------------------------
 Symbolic Z-matrix:
 Charge =  0 Multiplicity = 1
 Mg                    7.636     56.802    41.945 
 C                     6.625     53.446    41.385 
 C                     10.681    55.975    40.458 
 C                     8.032     60.025    41.405 
 C                     4.228     57.385    43.149 
 N                     8.45      54.913    40.781 
 C                     7.957     53.661    40.95 
 C                     8.99      52.648    40.49 
 C                     10.329    53.333    40.764 
 C                     9.814     54.854    40.608 
 C                     10.976    53.149    42.138 
 C                     8.688     52.223    38.987 
 C                     8.786     50.762    38.785 
 C                     9.472     50.264    37.498 
 O                     10.538    49.67     37.544 
 O                     8.683     50.519    36.406 
 N                     9.15      57.919    40.995 
 C                     10.372    57.384    40.517 
 C                     11.157    58.505    40.065 
 C                     10.496    59.72     40.387 
 C                     9.159     59.292    40.933 
 C                     12.516    58.288    39.407 
 C                     10.98     61.084    40.089 
 O                     12.058    61.217    39.523 
 C                     10.253    62.368    40.32 
 N                     6.193     58.496    42.173 
 C                     6.766     59.71     42.052 
 C                     5.813     60.813    42.547 
 C                     4.615     59.975    43.27 
 C                     5.024     58.526    42.899 
 C                     6.513     61.954    43.414 
 C                     3.166     60.373    42.848 
 C                     2.453     59.491    41.767 
 N                     5.854     55.731    42.223 
 C                     4.596     56.1      42.779 
 C                     3.778     54.831    43.012 
 C                     4.552     53.841    42.428 
 C                     5.79      54.434    41.99 
 C                     2.398     54.583    43.651 
 C                     4.627     52.438    42.17 
 O                     3.862     51.526    42.488 
 C                     5.871     52.243    41.379 
 C                     5.336     51.934    39.962 
 O                     4.911     52.738    39.135 
 O                     5.352     50.52     39.807 
 C                     4.796     49.972    38.637 
 C                     9.183     49.94     35.134 
 C                     8.236     50.218    33.933 
 C                     6.901     50.105    33.772 
 C                     5.984     49.48     34.833 
 C                     6.281     50.449    32.396 
 C                     6.181     51.883    32.112 
 C                     7.306     52.305    31.193 
 C                     6.878     53.454    30.233 
 C                     6.564     52.979    28.818 
 C                     7.998     54.449    30.113 
 C                     8.011     55.437    31.325 
 C                     9.41      55.508    32.002 
 C                     10.244    56.741    31.681 
 C                     9.522     58.135    32.016 
 C                     10.887    56.753    30.224 
 C                     12.372    56.193    30.207 
 C                     13.365    57.385    30.185 
 C                     14.461    57.12     29.142 
 C                     15.877    57.621    29.411 
 C                     13.922    57.642    27.781 
 H                     11.687    55.764    40.089 
 H                     8.332     61.073    41.344 
 H                     3.252     57.433    43.635 
 H                     9.018     51.75     41.107 
 H                     11.187    53.147    40.119 
 H                     10.601    52.287    42.689 
 H                     11.03     54.09     42.686 
 H                     12.003    52.894    41.874 
 H                     9.435     52.683    38.34 
 H                     7.775     52.653    38.575 
 H                     7.739     50.465    38.834 
 H                     9.336     50.338    39.625 
 H                     13.35     58.534    40.064 
 H                     12.538    58.834    38.465 
 H                     12.645    57.238    39.144 
 H                     10.18     62.528    41.396 
 H                     9.256     62.436    39.883 
 H                     10.868    63.229    40.061 
 H                     5.413     61.221    41.619 
 H                     4.751     60.04     44.349 
 H                     7.576     62.025    43.184 
 H                     6.349     61.977    44.492 
 H                     5.916     62.833    43.166 
 H                     3.099     61.41     42.52 
 H                     2.617     60.248    43.781 
 H                     1.869     60.304    41.335 
 H                     1.78      58.704    42.108 
 H                     3.217     59.142    41.072 
 H                     2.474     53.891    44.489 
 H                     1.984     53.997    42.831 
 H                     1.915     55.552    43.775 
 H                     6.406     51.37     41.753 
 H                     4.828     48.883    38.585 
 H                     5.365     50.362    37.794 
 H                     3.76      50.312    38.634 
 H                     9.168     48.853    35.206 
 H                     10.199    50.335    35.123 
 H                     8.791     50.624    33.087 
 H                     6.432     48.535    35.14 
 H                     5.014     49.178    34.438 
 H                     5.929     50.136    35.701 
 H                     5.264     50.139    32.157 
 H                     6.78      49.885    31.609 
 H                     6.288     52.4      33.066 
 H                     5.205     52.23     31.772 
 H                     7.812     51.543    30.601 
 H                     8.083     52.569    31.91 
 H                     5.938     53.814    30.651 
 H                     5.721     53.486    28.348 
 H                     6.379     51.905    28.82 
 H                     7.282     53.397    28.112 
 H                     7.908     55.121    29.259 
 H                     8.887     53.878    29.846 
 H                     7.284     55.183    32.096 
 H                     7.788     56.467    31.049 
 H                     10.049    54.633    31.882 
 H                     9.284     55.501    33.085 
 H                     11.105    56.5      32.304 
 H                     9.372     58.632    31.057 
 H                     10.165    58.656    32.726 
 H                     8.504     58.022    32.387 
 H                     10.782    57.743    29.78 
 H                     10.204    56.202    29.578 
 H                     12.454    55.515    29.357 
 H                     12.482    55.569    31.094 
 H                     14.017    57.444    31.056 
 H                     12.871    58.349    30.063 
 H                     14.647    56.069    28.92 
 H                     16.572    56.807    29.616 
 H                     15.956    58.346    30.222 
 H                     16.263    58.173    28.554 
 H                     14.619    57.528    26.951 
 H                     13.882    58.73     27.836 
 H                     13.027    57.043    27.612 
 
 ITRead=  0  0  0  0  0  0  0  0  0  0  0  0  0  0  0  0  0  0  0  0
 ITRead=  0  0  0  0  0  0  0  0  0  0  0  0  0  0  0  0  0  0  0  0
 ITRead=  0  0  0  0  0  0  0  0  0  0  0  0  0  0  0  0  0  0  0  0
 ITRead=  0  0  0  0  0  0  0  0  0  0  0  0  0  0  0  0  0  0  0  0
 ITRead=  0  0  0  0  0  0  0  0  0  0  0  0  0  0  0  0  0  0  0  0
 ITRead=  0  0  0  0  0  0  0  0  0  0  0  0  0  0  0  0  0  0  0  0
 ITRead=  0  0  0  0  0  0  0  0  0  0  0  0  0  0  0  0  0  0  0  0
 MicOpt= -1 -1 -1 -1 -1 -1 -1 -1 -1 -1 -1 -1 -1 -1 -1 -1 -1 -1 -1 -1
 MicOpt= -1 -1 -1 -1 -1 -1 -1 -1 -1 -1 -1 -1 -1 -1 -1 -1 -1 -1 -1 -1
 MicOpt= -1 -1 -1 -1 -1 -1 -1 -1 -1 -1 -1 -1 -1 -1 -1 -1 -1 -1 -1 -1
 MicOpt= -1 -1 -1 -1 -1 -1 -1 -1 -1 -1 -1 -1 -1 -1 -1 -1 -1 -1 -1 -1
 MicOpt= -1 -1 -1 -1 -1 -1 -1 -1 -1 -1 -1 -1 -1 -1 -1 -1 -1 -1 -1 -1
 MicOpt= -1 -1 -1 -1 -1 -1 -1 -1 -1 -1 -1 -1 -1 -1 -1 -1 -1 -1 -1 -1
 MicOpt= -1 -1 -1 -1 -1 -1 -1 -1 -1 -1 -1 -1 -1 -1 -1 -1 -1 -1 -1 -1
 NAtoms=    140 NQM=      140 NQMF=       0 NMMI=      0 NMMIF=      0
                NMic=       0 NMicF=      0.
                    Isotopes and Nuclear Properties:
 (Nuclear quadrupole moments (NQMom) in fm**2, nuclear magnetic moments (NMagM)
  in nuclear magnetons)

  Atom         1           2           3           4           5           6           7           8           9          10
 IAtWgt=          24          12          12          12          12          14          12          12          12          12
 AtmWgt=  23.9850450  12.0000000  12.0000000  12.0000000  12.0000000  14.0030740  12.0000000  12.0000000  12.0000000  12.0000000
 NucSpn=           0           0           0           0           0           2           0           0           0           0
 AtZEff=  -0.0000000  -0.0000000  -0.0000000  -0.0000000  -0.0000000  -0.0000000  -0.0000000  -0.0000000  -0.0000000  -0.0000000
 NQMom=    0.0000000   0.0000000   0.0000000   0.0000000   0.0000000   2.0440000   0.0000000   0.0000000   0.0000000   0.0000000
 NMagM=    0.0000000   0.0000000   0.0000000   0.0000000   0.0000000   0.4037610   0.0000000   0.0000000   0.0000000   0.0000000
 AtZNuc=  12.0000000   6.0000000   6.0000000   6.0000000   6.0000000   7.0000000   6.0000000   6.0000000   6.0000000   6.0000000

  Atom        11          12          13          14          15          16          17          18          19          20
 IAtWgt=          12          12          12          12          16          16          14          12          12          12
 AtmWgt=  12.0000000  12.0000000  12.0000000  12.0000000  15.9949146  15.9949146  14.0030740  12.0000000  12.0000000  12.0000000
 NucSpn=           0           0           0           0           0           0           2           0           0           0
 AtZEff=  -0.0000000  -0.0000000  -0.0000000  -0.0000000  -0.0000000  -0.0000000  -0.0000000  -0.0000000  -0.0000000  -0.0000000
 NQMom=    0.0000000   0.0000000   0.0000000   0.0000000   0.0000000   0.0000000   2.0440000   0.0000000   0.0000000   0.0000000
 NMagM=    0.0000000   0.0000000   0.0000000   0.0000000   0.0000000   0.0000000   0.4037610   0.0000000   0.0000000   0.0000000
 AtZNuc=   6.0000000   6.0000000   6.0000000   6.0000000   8.0000000   8.0000000   7.0000000   6.0000000   6.0000000   6.0000000

  Atom        21          22          23          24          25          26          27          28          29          30
 IAtWgt=          12          12          12          16          12          14          12          12          12          12
 AtmWgt=  12.0000000  12.0000000  12.0000000  15.9949146  12.0000000  14.0030740  12.0000000  12.0000000  12.0000000  12.0000000
 NucSpn=           0           0           0           0           0           2           0           0           0           0
 AtZEff=  -0.0000000  -0.0000000  -0.0000000  -0.0000000  -0.0000000  -0.0000000  -0.0000000  -0.0000000  -0.0000000  -0.0000000
 NQMom=    0.0000000   0.0000000   0.0000000   0.0000000   0.0000000   2.0440000   0.0000000   0.0000000   0.0000000   0.0000000
 NMagM=    0.0000000   0.0000000   0.0000000   0.0000000   0.0000000   0.4037610   0.0000000   0.0000000   0.0000000   0.0000000
 AtZNuc=   6.0000000   6.0000000   6.0000000   8.0000000   6.0000000   7.0000000   6.0000000   6.0000000   6.0000000   6.0000000

  Atom        31          32          33          34          35          36          37          38          39          40
 IAtWgt=          12          12          12          14          12          12          12          12          12          12
 AtmWgt=  12.0000000  12.0000000  12.0000000  14.0030740  12.0000000  12.0000000  12.0000000  12.0000000  12.0000000  12.0000000
 NucSpn=           0           0           0           2           0           0           0           0           0           0
 AtZEff=  -0.0000000  -0.0000000  -0.0000000  -0.0000000  -0.0000000  -0.0000000  -0.0000000  -0.0000000  -0.0000000  -0.0000000
 NQMom=    0.0000000   0.0000000   0.0000000   2.0440000   0.0000000   0.0000000   0.0000000   0.0000000   0.0000000   0.0000000
 NMagM=    0.0000000   0.0000000   0.0000000   0.4037610   0.0000000   0.0000000   0.0000000   0.0000000   0.0000000   0.0000000
 AtZNuc=   6.0000000   6.0000000   6.0000000   7.0000000   6.0000000   6.0000000   6.0000000   6.0000000   6.0000000   6.0000000

  Atom        41          42          43          44          45          46          47          48          49          50
 IAtWgt=          16          12          12          16          16          12          12          12          12          12
 AtmWgt=  15.9949146  12.0000000  12.0000000  15.9949146  15.9949146  12.0000000  12.0000000  12.0000000  12.0000000  12.0000000
 NucSpn=           0           0           0           0           0           0           0           0           0           0
 AtZEff=  -0.0000000  -0.0000000  -0.0000000  -0.0000000  -0.0000000  -0.0000000  -0.0000000  -0.0000000  -0.0000000  -0.0000000
 NQMom=    0.0000000   0.0000000   0.0000000   0.0000000   0.0000000   0.0000000   0.0000000   0.0000000   0.0000000   0.0000000
 NMagM=    0.0000000   0.0000000   0.0000000   0.0000000   0.0000000   0.0000000   0.0000000   0.0000000   0.0000000   0.0000000
 AtZNuc=   8.0000000   6.0000000   6.0000000   8.0000000   8.0000000   6.0000000   6.0000000   6.0000000   6.0000000   6.0000000

  Atom        51          52          53          54          55          56          57          58          59          60
 IAtWgt=          12          12          12          12          12          12          12          12          12          12
 AtmWgt=  12.0000000  12.0000000  12.0000000  12.0000000  12.0000000  12.0000000  12.0000000  12.0000000  12.0000000  12.0000000
 NucSpn=           0           0           0           0           0           0           0           0           0           0
 AtZEff=  -0.0000000  -0.0000000  -0.0000000  -0.0000000  -0.0000000  -0.0000000  -0.0000000  -0.0000000  -0.0000000  -0.0000000
 NQMom=    0.0000000   0.0000000   0.0000000   0.0000000   0.0000000   0.0000000   0.0000000   0.0000000   0.0000000   0.0000000
 NMagM=    0.0000000   0.0000000   0.0000000   0.0000000   0.0000000   0.0000000   0.0000000   0.0000000   0.0000000   0.0000000
 AtZNuc=   6.0000000   6.0000000   6.0000000   6.0000000   6.0000000   6.0000000   6.0000000   6.0000000   6.0000000   6.0000000

  Atom        61          62          63          64          65          66          67          68          69          70
 IAtWgt=          12          12          12          12          12          12           1           1           1           1
 AtmWgt=  12.0000000  12.0000000  12.0000000  12.0000000  12.0000000  12.0000000   1.0078250   1.0078250   1.0078250   1.0078250
 NucSpn=           0           0           0           0           0           0           1           1           1           1
 AtZEff=  -0.0000000  -0.0000000  -0.0000000  -0.0000000  -0.0000000  -0.0000000  -0.0000000  -0.0000000  -0.0000000  -0.0000000
 NQMom=    0.0000000   0.0000000   0.0000000   0.0000000   0.0000000   0.0000000   0.0000000   0.0000000   0.0000000   0.0000000
 NMagM=    0.0000000   0.0000000   0.0000000   0.0000000   0.0000000   0.0000000   2.7928460   2.7928460   2.7928460   2.7928460
 AtZNuc=   6.0000000   6.0000000   6.0000000   6.0000000   6.0000000   6.0000000   1.0000000   1.0000000   1.0000000   1.0000000

  Atom        71          72          73          74          75          76          77          78          79          80
 IAtWgt=           1           1           1           1           1           1           1           1           1           1
 AtmWgt=   1.0078250   1.0078250   1.0078250   1.0078250   1.0078250   1.0078250   1.0078250   1.0078250   1.0078250   1.0078250
 NucSpn=           1           1           1           1           1           1           1           1           1           1
 AtZEff=  -0.0000000  -0.0000000  -0.0000000  -0.0000000  -0.0000000  -0.0000000  -0.0000000  -0.0000000  -0.0000000  -0.0000000
 NQMom=    0.0000000   0.0000000   0.0000000   0.0000000   0.0000000   0.0000000   0.0000000   0.0000000   0.0000000   0.0000000
 NMagM=    2.7928460   2.7928460   2.7928460   2.7928460   2.7928460   2.7928460   2.7928460   2.7928460   2.7928460   2.7928460
 AtZNuc=   1.0000000   1.0000000   1.0000000   1.0000000   1.0000000   1.0000000   1.0000000   1.0000000   1.0000000   1.0000000

  Atom        81          82          83          84          85          86          87          88          89          90
 IAtWgt=           1           1           1           1           1           1           1           1           1           1
 AtmWgt=   1.0078250   1.0078250   1.0078250   1.0078250   1.0078250   1.0078250   1.0078250   1.0078250   1.0078250   1.0078250
 NucSpn=           1           1           1           1           1           1           1           1           1           1
 AtZEff=  -0.0000000  -0.0000000  -0.0000000  -0.0000000  -0.0000000  -0.0000000  -0.0000000  -0.0000000  -0.0000000  -0.0000000
 NQMom=    0.0000000   0.0000000   0.0000000   0.0000000   0.0000000   0.0000000   0.0000000   0.0000000   0.0000000   0.0000000
 NMagM=    2.7928460   2.7928460   2.7928460   2.7928460   2.7928460   2.7928460   2.7928460   2.7928460   2.7928460   2.7928460
 AtZNuc=   1.0000000   1.0000000   1.0000000   1.0000000   1.0000000   1.0000000   1.0000000   1.0000000   1.0000000   1.0000000

  Atom        91          92          93          94          95          96          97          98          99         100
 IAtWgt=           1           1           1           1           1           1           1           1           1           1
 AtmWgt=   1.0078250   1.0078250   1.0078250   1.0078250   1.0078250   1.0078250   1.0078250   1.0078250   1.0078250   1.0078250
 NucSpn=           1           1           1           1           1           1           1           1           1           1
 AtZEff=  -0.0000000  -0.0000000  -0.0000000  -0.0000000  -0.0000000  -0.0000000  -0.0000000  -0.0000000  -0.0000000  -0.0000000
 NQMom=    0.0000000   0.0000000   0.0000000   0.0000000   0.0000000   0.0000000   0.0000000   0.0000000   0.0000000   0.0000000
 NMagM=    2.7928460   2.7928460   2.7928460   2.7928460   2.7928460   2.7928460   2.7928460   2.7928460   2.7928460   2.7928460
 AtZNuc=   1.0000000   1.0000000   1.0000000   1.0000000   1.0000000   1.0000000   1.0000000   1.0000000   1.0000000   1.0000000

  Atom       101         102         103         104         105         106         107         108         109         110
 IAtWgt=           1           1           1           1           1           1           1           1           1           1
 AtmWgt=   1.0078250   1.0078250   1.0078250   1.0078250   1.0078250   1.0078250   1.0078250   1.0078250   1.0078250   1.0078250
 NucSpn=           1           1           1           1           1           1           1           1           1           1
 AtZEff=  -0.0000000  -0.0000000  -0.0000000  -0.0000000  -0.0000000  -0.0000000  -0.0000000  -0.0000000  -0.0000000  -0.0000000
 NQMom=    0.0000000   0.0000000   0.0000000   0.0000000   0.0000000   0.0000000   0.0000000   0.0000000   0.0000000   0.0000000
 NMagM=    2.7928460   2.7928460   2.7928460   2.7928460   2.7928460   2.7928460   2.7928460   2.7928460   2.7928460   2.7928460
 AtZNuc=   1.0000000   1.0000000   1.0000000   1.0000000   1.0000000   1.0000000   1.0000000   1.0000000   1.0000000   1.0000000

  Atom       111         112         113         114         115         116         117         118         119         120
 IAtWgt=           1           1           1           1           1           1           1           1           1           1
 AtmWgt=   1.0078250   1.0078250   1.0078250   1.0078250   1.0078250   1.0078250   1.0078250   1.0078250   1.0078250   1.0078250
 NucSpn=           1           1           1           1           1           1           1           1           1           1
 AtZEff=  -0.0000000  -0.0000000  -0.0000000  -0.0000000  -0.0000000  -0.0000000  -0.0000000  -0.0000000  -0.0000000  -0.0000000
 NQMom=    0.0000000   0.0000000   0.0000000   0.0000000   0.0000000   0.0000000   0.0000000   0.0000000   0.0000000   0.0000000
 NMagM=    2.7928460   2.7928460   2.7928460   2.7928460   2.7928460   2.7928460   2.7928460   2.7928460   2.7928460   2.7928460
 AtZNuc=   1.0000000   1.0000000   1.0000000   1.0000000   1.0000000   1.0000000   1.0000000   1.0000000   1.0000000   1.0000000

  Atom       121         122         123         124         125         126         127         128         129         130
 IAtWgt=           1           1           1           1           1           1           1           1           1           1
 AtmWgt=   1.0078250   1.0078250   1.0078250   1.0078250   1.0078250   1.0078250   1.0078250   1.0078250   1.0078250   1.0078250
 NucSpn=           1           1           1           1           1           1           1           1           1           1
 AtZEff=  -0.0000000  -0.0000000  -0.0000000  -0.0000000  -0.0000000  -0.0000000  -0.0000000  -0.0000000  -0.0000000  -0.0000000
 NQMom=    0.0000000   0.0000000   0.0000000   0.0000000   0.0000000   0.0000000   0.0000000   0.0000000   0.0000000   0.0000000
 NMagM=    2.7928460   2.7928460   2.7928460   2.7928460   2.7928460   2.7928460   2.7928460   2.7928460   2.7928460   2.7928460
 AtZNuc=   1.0000000   1.0000000   1.0000000   1.0000000   1.0000000   1.0000000   1.0000000   1.0000000   1.0000000   1.0000000

  Atom       131         132         133         134         135         136         137         138         139         140
 IAtWgt=           1           1           1           1           1           1           1           1           1           1
 AtmWgt=   1.0078250   1.0078250   1.0078250   1.0078250   1.0078250   1.0078250   1.0078250   1.0078250   1.0078250   1.0078250
 NucSpn=           1           1           1           1           1           1           1           1           1           1
 AtZEff=  -0.0000000  -0.0000000  -0.0000000  -0.0000000  -0.0000000  -0.0000000  -0.0000000  -0.0000000  -0.0000000  -0.0000000
 NQMom=    0.0000000   0.0000000   0.0000000   0.0000000   0.0000000   0.0000000   0.0000000   0.0000000   0.0000000   0.0000000
 NMagM=    2.7928460   2.7928460   2.7928460   2.7928460   2.7928460   2.7928460   2.7928460   2.7928460   2.7928460   2.7928460
 AtZNuc=   1.0000000   1.0000000   1.0000000   1.0000000   1.0000000   1.0000000   1.0000000   1.0000000   1.0000000   1.0000000
 Leave Link  101 at Wed May  4 23:04:10 2022, MaxMem= 10066329600 cpu:               4.6 elap:               0.2
 (Enter /sw/apps/gaussian-16.0/g16/l202.exe)
 Stoichiometry    C55H74MgN4O6
 Framework group  C1[X(C55H74MgN4O6)]
 Deg. of freedom   414
 Full point group                 C1      NOp   1
 Largest Abelian subgroup         C1      NOp   1
 Largest concise Abelian subgroup C1      NOp   1
                         Standard orientation:                         
 ---------------------------------------------------------------------
 Center     Atomic      Atomic             Coordinates (Angstroms)
 Number     Number       Type             X           Y           Z
 ---------------------------------------------------------------------
      1         12           0       -4.189749    1.116798    0.695616
      2          6           0       -3.400641   -2.331854    0.982957
      3          6           0       -1.593433    1.744215    2.938964
      4          6           0       -4.163920    4.189053   -0.486218
      5          6           0       -6.609265    0.113796   -1.862488
      6          7           0       -2.478478   -0.200228    1.656245
      7          6           0       -2.571251   -1.543293    1.819592
      8          6           0       -1.592790   -1.987704    2.891959
      9          6           0       -1.499132   -0.784456    3.830386
     10          6           0       -1.825964    0.353246    2.734112
     11          6           0       -2.493812   -0.681860    4.988154
     12          6           0       -0.242741   -2.481732    2.210680
     13          6           0        0.253029   -3.745358    2.795821
     14          6           0        1.768817   -3.870318    3.044299
     15          8           0        2.216323   -3.931452    4.178895
     16          8           0        2.441512   -3.976027    1.854207
     17          7           0       -2.994643    2.801702    1.114191
     18          6           0       -2.023099    2.869762    2.143494
     19          6           0       -1.542983    4.228584    2.159676
     20          6           0       -2.301509    5.020716    1.257458
     21          6           0       -3.194094    4.037454    0.546573
     22          6           0       -0.418152    4.644880    3.102218
     23          6           0       -2.114928    6.461984    0.990081
     24          8           0       -1.239981    7.066364    1.597798
     25          6           0       -2.826507    7.288004   -0.030650
     26          7           0       -5.229539    1.993383   -1.080420
     27          6           0       -5.145230    3.337144   -1.143388
     28          6           0       -6.144430    3.897183   -2.171881
     29          6           0       -7.072458    2.605461   -2.532986
     30          6           0       -6.314054    1.492634   -1.764244
     31          6           0       -6.906318    5.218116   -1.704726
     32          6           0       -7.274131    2.326468   -4.055346
     33          6           0       -6.369771    1.234925   -4.722820
     34          7           0       -4.872914   -0.636274   -0.231677
     35          6           0       -5.897281   -0.870172   -1.192835
     36          6           0       -6.160524   -2.373271   -1.264730
     37          6           0       -5.164527   -2.910039   -0.464665
     38          6           0       -4.437091   -1.824179    0.141867
     39          6           0       -7.187526   -3.215483   -2.045865
     40          6           0       -4.636566   -4.131080    0.055829
     41          8           0       -5.026355   -5.291828   -0.081368
     42          6           0       -3.434786   -3.744150    0.841481
     43          6           0       -2.267916   -4.238540   -0.043725
     44          8           0       -1.812810   -3.694536   -1.047671
     45          8           0       -1.853107   -5.496988    0.473885
     46          6           0       -0.874753   -6.218348   -0.233788
     47          6           0        3.893014   -4.256173    1.987939
     48          6           0        4.605263   -4.409723    0.614760
     49          6           0        4.301441   -5.099952   -0.504253
     50          6           0        3.123063   -6.080948   -0.583671
     51          6           0        5.277280   -5.047123   -1.704694
     52          6           0        5.231052   -3.801889   -2.475582
     53          6           0        6.391363   -2.912739   -2.086528
     54          6           0        6.902040   -2.058933   -3.284530
     55          6           0        8.176685   -2.604313   -3.920365
     56          6           0        7.220473   -0.669309   -2.808745
     57          6           0        5.928268    0.205496   -2.707839
     58          6           0        5.790057    0.879298   -1.312325
     59          6           0        6.146370    2.358421   -1.248118
     60          6           0        5.320519    3.283838   -2.267097
     61          6           0        7.706281    2.673985   -1.307602
     62          6           0        8.353410    2.829735    0.133259
     63          6           0        8.499894    4.338385    0.464792
     64          6           0        9.893321    4.600499    1.055508
     65          6           0       10.053587    5.672953    2.129089
     66          6           0       10.850465    4.848567   -0.143517
     67          1           0       -0.859419    2.005597    3.704223
     68          1           0       -4.199853    5.262280   -0.683492
     69          1           0       -7.409025   -0.282047   -2.490795
     70          1           0       -1.978340   -2.788879    3.522314
     71          1           0       -0.569438   -0.562392    4.353016
     72          1           0       -2.968388   -1.628300    5.245637
     73          1           0       -3.154432    0.178116    4.875359
     74          1           0       -1.840224   -0.452073    5.830454
     75          1           0        0.527426   -1.729643    2.382215
     76          1           0       -0.269856   -2.494832    1.121044
     77          1           0       -0.106412   -4.475913    2.072004
     78          1           0       -0.241530   -3.893516    3.755683
     79          1           0       -0.771142    5.225664    3.954162
     80          1           0        0.349291    5.157103    2.523752
     81          1           0        0.066808    3.764289    3.523741
     82          1           0       -3.868140    7.384290    0.276650
     83          1           0       -2.792063    6.913516   -1.054454
     84          1           0       -2.534228    8.335796    0.027081
     85          1           0       -5.513139    4.098630   -3.037062
     86          1           0       -8.024895    2.709083   -2.014250
     87          1           0       -6.332724    5.755638   -0.949763
     88          1           0       -7.956116    5.151256   -1.416690
     89          1           0       -7.056610    5.745215   -2.648194
     90          1           0       -7.193361    3.231005   -4.657617
     91          1           0       -8.299456    1.958444   -4.083308
     92          1           0       -6.334456    1.711148   -5.702929
     93          1           0       -6.771673    0.226663   -4.825094
     94          1           0       -5.396761    1.269924   -4.232362
     95          1           0       -7.797429   -3.813768   -1.369878
     96          1           0       -6.472299   -3.912857   -2.480964
     97          1           0       -7.655194   -2.562345   -2.782291
     98          1           0       -3.422987   -4.295061    1.782006
     99          1           0       -0.610030   -7.179764    0.208083
    100          1           0        0.025147   -5.605133   -0.259442
    101          1           0       -1.303031   -6.372237   -1.224647
    102          1           0        4.027142   -5.238317    2.440024
    103          1           0        4.188157   -3.452011    2.662190
    104          1           0        5.499930   -3.788321    0.569960
    105          1           0        3.179032   -6.734008    0.287167
    106          1           0        3.198507   -6.775769   -1.420128
    107          1           0        2.184600   -5.529154   -0.543713
    108          1           0        5.194708   -5.772078   -2.514096
    109          1           0        6.281360   -5.320949   -1.383280
    110          1           0        4.297436   -3.304162   -2.211986
    111          1           0        5.131368   -3.918288   -3.554980
    112          1           0        7.256724   -3.363663   -1.601800
    113          1           0        5.959835   -2.341885   -1.264686
    114          1           0        6.118358   -2.158185   -4.035473
    115          1           0        8.212929   -2.516585   -5.006454
    116          1           0        8.312287   -3.649114   -3.641603
    117          1           0        8.998561   -1.901906   -3.779552
    118          1           0        7.843853   -0.094933   -3.494667
    119          1           0        7.887659   -0.783885   -1.954704
    120          1           0        5.012682   -0.354764   -2.895712
    121          1           0        5.907502    1.033963   -3.414957
    122          1           0        6.291531    0.379455   -0.483454
    123          1           0        4.754802    0.802301   -0.978959
    124          1           0        5.926099    2.515028   -0.192426
    125          1           0        6.051898    3.676204   -2.974434
    126          1           0        4.799402    4.025857   -1.661428
    127          1           0        4.641644    2.726645   -2.911611
    128          1           0        7.888728    3.521159   -1.968867
    129          1           0        8.160284    1.886476   -1.908532
    130          1           0        9.289101    2.269926    0.131578
    131          1           0        7.697814    2.306793    0.829658
    132          1           0        7.921790    4.667982    1.327572
    133          1           0        8.254598    4.985561   -0.377354
    134          1           0       10.361097    3.743685    1.540831
    135          1           0       10.265678    5.248114    3.109994
    136          1           0        9.201737    6.346728    2.228920
    137          1           0       10.870911    6.350563    1.882158
    138          1           0       11.879005    5.066440    0.143439
    139          1           0       10.580351    5.805503   -0.590375
    140          1           0       10.801576    3.917577   -0.708542
 ---------------------------------------------------------------------
 Rotational constants (GHZ):           0.0301337           0.0177321           0.0136497
 Leave Link  202 at Wed May  4 23:04:10 2022, MaxMem= 10066329600 cpu:               0.2 elap:               0.0
 (Enter /sw/apps/gaussian-16.0/g16/l301.exe)
 Standard basis: def2SVP (5D, 7F)
 Ernie: Thresh=  0.10000D-02 Tol=  0.10000D-05 Strict=F.
 There are  1364 symmetry adapted cartesian basis functions of A   symmetry.
 There are  1298 symmetry adapted basis functions of A   symmetry.
  1298 basis functions,  2180 primitive gaussians,  1364 cartesian basis functions
   246 alpha electrons      246 beta electrons
       nuclear repulsion energy      9975.3893658635 Hartrees.
 IExCor=20419 DFT=T Ex+Corr=CAM-B3LYP ExCW=0 ScaHFX=  1.000000
 ScaDFX=  1.000000  1.000000  1.000000  0.810000 ScalE2=  1.000000  1.000000
 IRadAn=      5 IRanWt=     -1 IRanGd=            0 ICorTp=0 IEmpDi=  4
 HFx  wShort=  0.000000 wLong=  0.330000 cFull=  0.190000 cShort=  0.000000 cLong=  0.460000
 DFx  wShort=  0.000000 wLong=  0.330000 cFull=  0.190000 cShort=  0.000000 cLong=  0.460000
 NAtoms=  140 NActive=  140 NUniq=  140 SFac= 1.00D+00 NAtFMM=   60 NAOKFM=T Big=T
 Integral buffers will be    131072 words long.
 Raffenetti 1 integral format.
 Two-electron integral symmetry is turned on.
 Leave Link  301 at Wed May  4 23:04:10 2022, MaxMem= 10066329600 cpu:               1.2 elap:               0.1
 (Enter /sw/apps/gaussian-16.0/g16/l302.exe)
 NPDir=0 NMtPBC=     1 NCelOv=     1 NCel=       1 NClECP=     1 NCelD=      1
         NCelK=      1 NCelE2=     1 NClLst=     1 CellRange=     0.0.
 One-electron integrals computed using PRISM.
 One-electron integral symmetry used in STVInt
   1 Symmetry operations used in ECPInt.
 ECPInt:  NShTT=  192510 NPrTT=  683786 LenC2=  106743 LenP2D=  226735.
 LDataN:  DoStor=T MaxTD1= 4 Len=   56
 NBasis=  1298 RedAO= T EigKep=  2.92D-04  NBF=  1298
 NBsUse=  1298 1.00D-06 EigRej= -1.00D+00 NBFU=  1298
 Precomputing XC quadrature grid using
 IXCGrd= 4 IRadAn=           5 IRanWt=          -1 IRanGd=           0 AccXCQ= 0.00D+00.
 Generated NRdTot=       0 NPtTot=           0 NUsed=           0 NTot=          32
 NSgBfM=  1020  1006  1010  1012  1020 MxSgAt=   140 MxSgA2=   140.
 Leave Link  302 at Wed May  4 23:04:15 2022, MaxMem= 10066329600 cpu:             102.4 elap:               4.3
 (Enter /sw/apps/gaussian-16.0/g16/l303.exe)
 DipDrv:  MaxL=1.
 Leave Link  303 at Wed May  4 23:04:15 2022, MaxMem= 10066329600 cpu:               7.1 elap:               0.3
 (Enter /sw/apps/gaussian-16.0/g16/l308.exe)
 Leave Link  308 at Wed May  4 23:04:15 2022, MaxMem= 10066329600 cpu:              12.3 elap:               0.6
 (Enter /sw/apps/gaussian-16.0/g16/l401.exe)
 ExpMin= 3.36D-02 ExpMax= 4.95D+03 ExpMxC= 7.45D+02 IAcc=3 IRadAn=         5 AccDes= 0.00D+00
 Harris functional with IExCor=20419 and IRadAn=       5 diagonalized for initial guess.
 HarFok:  IExCor=20419 AccDes= 0.00D+00 IRadAn=         5 IDoV= 1 UseB2=F ITyADJ=14
 ICtDFT=  3500011 ScaDFX=  1.000000  1.000000  1.000000  1.000000
 FoFCou: FMM=F IPFlag=           0 FMFlag=      100000 FMFlg1=        2001
         NFxFlg=           0 DoJE=T BraDBF=F KetDBF=T FulRan=T
         wScrn=  0.000000 ICntrl=       500 IOpCl=  0 I1Cent=   200000004 NGrid=           0
         NMat0=    1 NMatS0=      1 NMatT0=    0 NMatD0=    1 NMtDS0=    0 NMtDT0=    0
 Petite list used in FoFCou.
 Harris En= -2890.82911629932    
 JPrj=0 DoOrth=F DoCkMO=F.
 Leave Link  401 at Wed May  4 23:04:23 2022, MaxMem= 10066329600 cpu:             171.6 elap:               7.2
 (Enter /sw/apps/gaussian-16.0/g16/l502.exe)
 Integral symmetry usage will be decided dynamically.
 Closed shell SCF:
 Using DIIS extrapolation, IDIIS=  1040.
 NGot= 10066329600 LenX= 10062561258 LenY= 10060699398
 Requested convergence on RMS density matrix=1.00D-08 within 128 cycles.
 Requested convergence on MAX density matrix=1.00D-06.
 Requested convergence on             energy=1.00D-06.
 No special actions if energy rises.
 Fock matrices will be formed incrementally for  20 cycles.

 Cycle   1  Pass 1  IDiag  1:
 FoFJK:  IHMeth= 1 ICntrl=       0 DoSepK=T KAlg= 0 I1Cent=           0 FoldK=F
 IRaf=         1 NMat=       1 IRICut=       1 DoRegI=T DoRafI=F ISym2E= 0 IDoP0=0 IntGTp=1.
 FoFCou: FMM=T IPFlag=           0 FMFlag=      100000 FMFlg1=        2001
         NFxFlg=           0 DoJE=T BraDBF=F KetDBF=F FulRan=T
         wScrn=  0.000000 ICntrl=       500 IOpCl=  0 I1Cent=           0 NGrid=           0
         NMat0=    1 NMatS0=      1 NMatT0=    0 NMatD0=    1 NMtDS0=    0 NMtDT0=    0
 Symmetry not used in FoFCou.
 FMM levels:  10  Number of levels for PrismC:   9
 E= -3006.41590626285    
 DIIS: error= 1.58D-02 at cycle   1 NSaved=   1.
 NSaved= 1 IEnMin= 1 EnMin= -3006.41590626285     IErMin= 1 ErrMin= 1.58D-02
 ErrMax= 1.58D-02  0.00D+00 EMaxC= 1.00D-01 BMatC= 1.27D+00 BMatP= 1.27D+00
 IDIUse=3 WtCom= 8.42D-01 WtEn= 1.58D-01
 Coeff-Com:  0.100D+01
 Coeff-En:   0.100D+01
 Coeff:      0.100D+01
 Gap=     0.131 Goal=   None    Shift=    0.000
 GapD=    0.131 DampG=1.000 DampE=0.500 DampFc=0.5000 IDamp=-1.
 Damping current iteration by 5.00D-01
 RMSDP=1.54D-03 MaxDP=1.78D-01              OVMax= 1.91D-01

 Cycle   2  Pass 1  IDiag  1:
 RMSU=  7.59D-04    CP:  9.85D-01
 E= -3006.73150547026     Delta-E=       -0.315599207412 Rises=F Damp=T
 DIIS: error= 9.20D-03 at cycle   2 NSaved=   2.
 NSaved= 2 IEnMin= 2 EnMin= -3006.73150547026     IErMin= 2 ErrMin= 9.20D-03
 ErrMax= 9.20D-03  0.00D+00 EMaxC= 1.00D-01 BMatC= 2.29D-01 BMatP= 1.27D+00
 IDIUse=3 WtCom= 9.08D-01 WtEn= 9.20D-02
 Coeff-Com: -0.235D+00 0.124D+01
 Coeff-En:   0.000D+00 0.100D+01
 Coeff:     -0.213D+00 0.121D+01
 Gap=     0.136 Goal=   None    Shift=    0.000
 RMSDP=6.93D-04 MaxDP=5.14D-02 DE=-3.16D-01 OVMax= 1.55D-01

 Cycle   3  Pass 1  IDiag  1:
 RMSU=  6.78D-04    CP:  9.77D-01  1.16D+00
 E= -3006.97161344119     Delta-E=       -0.240107970929 Rises=F Damp=F
 DIIS: error= 1.02D-02 at cycle   3 NSaved=   3.
 NSaved= 3 IEnMin= 3 EnMin= -3006.97161344119     IErMin= 2 ErrMin= 9.20D-03
 ErrMax= 1.02D-02  0.00D+00 EMaxC= 1.00D-01 BMatC= 1.36D-01 BMatP= 2.29D-01
 IDIUse=3 WtCom= 8.98D-01 WtEn= 1.02D-01
 Coeff-Com: -0.265D+00 0.643D+00 0.622D+00
 Coeff-En:   0.000D+00 0.000D+00 0.100D+01
 Coeff:     -0.238D+00 0.577D+00 0.661D+00
 Gap=     0.128 Goal=   None    Shift=    0.000
 RMSDP=4.68D-04 MaxDP=8.93D-02 DE=-2.40D-01 OVMax= 1.01D-01

 Cycle   4  Pass 1  IDiag  1:
 RMSU=  2.69D-04    CP:  9.72D-01  1.48D+00  5.63D-01
 E= -3007.06772297423     Delta-E=       -0.096109533048 Rises=F Damp=F
 DIIS: error= 4.44D-03 at cycle   4 NSaved=   4.
 NSaved= 4 IEnMin= 4 EnMin= -3007.06772297423     IErMin= 4 ErrMin= 4.44D-03
 ErrMax= 4.44D-03  0.00D+00 EMaxC= 1.00D-01 BMatC= 2.76D-02 BMatP= 1.36D-01
 IDIUse=3 WtCom= 9.56D-01 WtEn= 4.44D-02
 Coeff-Com: -0.113D+00 0.231D+00 0.390D+00 0.492D+00
 Coeff-En:   0.000D+00 0.000D+00 0.166D+00 0.834D+00
 Coeff:     -0.108D+00 0.220D+00 0.380D+00 0.507D+00
 Gap=     0.125 Goal=   None    Shift=    0.000
 RMSDP=1.58D-04 MaxDP=2.37D-02 DE=-9.61D-02 OVMax= 2.86D-02

 Cycle   5  Pass 1  IDiag  1:
 RMSU=  5.97D-05    CP:  9.73D-01  1.44D+00  6.98D-01  5.94D-01
 E= -3007.09156157997     Delta-E=       -0.023838605734 Rises=F Damp=F
 DIIS: error= 4.44D-04 at cycle   5 NSaved=   5.
 NSaved= 5 IEnMin= 5 EnMin= -3007.09156157997     IErMin= 5 ErrMin= 4.44D-04
 ErrMax= 4.44D-04  0.00D+00 EMaxC= 1.00D-01 BMatC= 4.38D-04 BMatP= 2.76D-02
 IDIUse=3 WtCom= 9.96D-01 WtEn= 4.44D-03
 Coeff-Com: -0.360D-01 0.703D-01 0.142D+00 0.221D+00 0.602D+00
 Coeff-En:   0.000D+00 0.000D+00 0.000D+00 0.000D+00 0.100D+01
 Coeff:     -0.358D-01 0.700D-01 0.141D+00 0.220D+00 0.604D+00
 Gap=     0.125 Goal=   None    Shift=    0.000
 RMSDP=3.06D-05 MaxDP=8.45D-03 DE=-2.38D-02 OVMax= 4.94D-03

 Cycle   6  Pass 1  IDiag  1:
 RMSU=  2.51D-05    CP:  9.72D-01  1.44D+00  7.00D-01  6.43D-01  8.23D-01
 E= -3007.09189129180     Delta-E=       -0.000329711831 Rises=F Damp=F
 DIIS: error= 2.35D-04 at cycle   6 NSaved=   6.
 NSaved= 6 IEnMin= 6 EnMin= -3007.09189129180     IErMin= 6 ErrMin= 2.35D-04
 ErrMax= 2.35D-04  0.00D+00 EMaxC= 1.00D-01 BMatC= 8.28D-05 BMatP= 4.38D-04
 IDIUse=3 WtCom= 9.98D-01 WtEn= 2.35D-03
 Coeff-Com:  0.194D-02-0.562D-02 0.506D-02 0.241D-01 0.319D+00 0.656D+00
 Coeff-En:   0.000D+00 0.000D+00 0.000D+00 0.000D+00 0.858D-01 0.914D+00
 Coeff:      0.193D-02-0.561D-02 0.505D-02 0.240D-01 0.318D+00 0.656D+00
 Gap=     0.125 Goal=   None    Shift=    0.000
 RMSDP=1.14D-05 MaxDP=1.47D-03 DE=-3.30D-04 OVMax= 3.07D-03

 Cycle   7  Pass 1  IDiag  1:
 RMSU=  7.83D-06    CP:  9.72D-01  1.44D+00  7.04D-01  6.46D-01  9.12D-01
                    CP:  7.83D-01
 E= -3007.09196967387     Delta-E=       -0.000078382067 Rises=F Damp=F
 DIIS: error= 7.10D-05 at cycle   7 NSaved=   7.
 NSaved= 7 IEnMin= 7 EnMin= -3007.09196967387     IErMin= 7 ErrMin= 7.10D-05
 ErrMax= 7.10D-05  0.00D+00 EMaxC= 1.00D-01 BMatC= 7.83D-06 BMatP= 8.28D-05
 IDIUse=1 WtCom= 1.00D+00 WtEn= 0.00D+00
 Coeff-Com:  0.425D-02-0.903D-02-0.105D-01-0.111D-01 0.796D-01 0.297D+00
 Coeff-Com:  0.650D+00
 Coeff:      0.425D-02-0.903D-02-0.105D-01-0.111D-01 0.796D-01 0.297D+00
 Coeff:      0.650D+00
 Gap=     0.125 Goal=   None    Shift=    0.000
 RMSDP=5.71D-06 MaxDP=2.15D-03 DE=-7.84D-05 OVMax= 1.70D-03

 Cycle   8  Pass 1  IDiag  1:
 RMSU=  3.74D-06    CP:  9.72D-01  1.44D+00  7.05D-01  6.52D-01  9.32D-01
                    CP:  9.25D-01  9.08D-01
 E= -3007.09197874662     Delta-E=       -0.000009072755 Rises=F Damp=F
 DIIS: error= 2.59D-05 at cycle   8 NSaved=   8.
 NSaved= 8 IEnMin= 8 EnMin= -3007.09197874662     IErMin= 8 ErrMin= 2.59D-05
 ErrMax= 2.59D-05  0.00D+00 EMaxC= 1.00D-01 BMatC= 1.71D-06 BMatP= 7.83D-06
 IDIUse=1 WtCom= 1.00D+00 WtEn= 0.00D+00
 Coeff-Com:  0.205D-02-0.401D-02-0.681D-02-0.115D-01-0.215D-01 0.350D-01
 Coeff-Com:  0.349D+00 0.658D+00
 Coeff:      0.205D-02-0.401D-02-0.681D-02-0.115D-01-0.215D-01 0.350D-01
 Coeff:      0.349D+00 0.658D+00
 Gap=     0.125 Goal=   None    Shift=    0.000
 RMSDP=2.26D-06 MaxDP=1.46D-04 DE=-9.07D-06 OVMax= 1.06D-03

 Cycle   9  Pass 1  IDiag  1:
 RMSU=  1.59D-06    CP:  9.72D-01  1.44D+00  7.05D-01  6.53D-01  9.45D-01
                    CP:  9.38D-01  1.08D+00  9.35D-01
 E= -3007.09198146379     Delta-E=       -0.000002717165 Rises=F Damp=F
 DIIS: error= 9.94D-06 at cycle   9 NSaved=   9.
 NSaved= 9 IEnMin= 9 EnMin= -3007.09198146379     IErMin= 9 ErrMin= 9.94D-06
 ErrMax= 9.94D-06  0.00D+00 EMaxC= 1.00D-01 BMatC= 3.11D-07 BMatP= 1.71D-06
 IDIUse=1 WtCom= 1.00D+00 WtEn= 0.00D+00
 Coeff-Com:  0.410D-03-0.701D-03-0.186D-02-0.442D-02-0.245D-01-0.276D-01
 Coeff-Com:  0.890D-01 0.347D+00 0.623D+00
 Coeff:      0.410D-03-0.701D-03-0.186D-02-0.442D-02-0.245D-01-0.276D-01
 Coeff:      0.890D-01 0.347D+00 0.623D+00
 Gap=     0.125 Goal=   None    Shift=    0.000
 RMSDP=1.31D-06 MaxDP=3.94D-04 DE=-2.72D-06 OVMax= 6.52D-04

 Cycle  10  Pass 1  IDiag  1:
 RMSU=  7.64D-07    CP:  9.72D-01  1.44D+00  7.05D-01  6.54D-01  9.47D-01
                    CP:  9.61D-01  1.12D+00  1.14D+00  9.96D-01
 E= -3007.09198215060     Delta-E=       -0.000000686814 Rises=F Damp=F
 DIIS: error= 4.59D-06 at cycle  10 NSaved=  10.
 NSaved=10 IEnMin=10 EnMin= -3007.09198215060     IErMin=10 ErrMin= 4.59D-06
 ErrMax= 4.59D-06  0.00D+00 EMaxC= 1.00D-01 BMatC= 6.30D-08 BMatP= 3.11D-07
 IDIUse=1 WtCom= 1.00D+00 WtEn= 0.00D+00
 Coeff-Com: -0.404D-03 0.837D-03 0.112D-02 0.115D-02-0.641D-02-0.254D-01
 Coeff-Com: -0.557D-01-0.156D-01 0.287D+00 0.814D+00
 Coeff:     -0.404D-03 0.837D-03 0.112D-02 0.115D-02-0.641D-02-0.254D-01
 Coeff:     -0.557D-01-0.156D-01 0.287D+00 0.814D+00
 Gap=     0.125 Goal=   None    Shift=    0.000
 RMSDP=9.11D-07 MaxDP=1.62D-04 DE=-6.87D-07 OVMax= 5.04D-04

 Cycle  11  Pass 1  IDiag  1:
 RMSU=  4.26D-07    CP:  9.72D-01  1.44D+00  7.05D-01  6.55D-01  9.49D-01
                    CP:  9.70D-01  1.17D+00  1.23D+00  1.31D+00  1.25D+00
 E= -3007.09198244462     Delta-E=       -0.000000294016 Rises=F Damp=F
 DIIS: error= 4.22D-06 at cycle  11 NSaved=  11.
 NSaved=11 IEnMin=11 EnMin= -3007.09198244462     IErMin=11 ErrMin= 4.22D-06
 ErrMax= 4.22D-06  0.00D+00 EMaxC= 1.00D-01 BMatC= 2.14D-08 BMatP= 6.30D-08
 IDIUse=1 WtCom= 1.00D+00 WtEn= 0.00D+00
 Coeff-Com: -0.297D-03 0.581D-03 0.102D-02 0.169D-02 0.313D-02-0.518D-02
 Coeff-Com: -0.479D-01-0.970D-01-0.328D-01 0.422D+00 0.755D+00
 Coeff:     -0.297D-03 0.581D-03 0.102D-02 0.169D-02 0.313D-02-0.518D-02
 Coeff:     -0.479D-01-0.970D-01-0.328D-01 0.422D+00 0.755D+00
 Gap=     0.125 Goal=   None    Shift=    0.000
 RMSDP=5.68D-07 MaxDP=1.02D-04 DE=-2.94D-07 OVMax= 3.25D-04

 Cycle  12  Pass 1  IDiag  1:
 RMSU=  2.22D-07    CP:  9.72D-01  1.44D+00  7.05D-01  6.55D-01  9.50D-01
                    CP:  9.73D-01  1.19D+00  1.31D+00  1.44D+00  1.66D+00
                    CP:  1.16D+00
 E= -3007.09198254954     Delta-E=       -0.000000104925 Rises=F Damp=F
 DIIS: error= 1.55D-06 at cycle  12 NSaved=  12.
 NSaved=12 IEnMin=12 EnMin= -3007.09198254954     IErMin=12 ErrMin= 1.55D-06
 ErrMax= 1.55D-06  0.00D+00 EMaxC= 1.00D-01 BMatC= 5.68D-09 BMatP= 2.14D-08
 IDIUse=1 WtCom= 1.00D+00 WtEn= 0.00D+00
 Coeff-Com: -0.276D-04 0.420D-04 0.168D-03 0.474D-03 0.301D-02 0.448D-02
 Coeff-Com: -0.520D-02-0.395D-01-0.888D-01-0.633D-01 0.311D+00 0.877D+00
 Coeff:     -0.276D-04 0.420D-04 0.168D-03 0.474D-03 0.301D-02 0.448D-02
 Coeff:     -0.520D-02-0.395D-01-0.888D-01-0.633D-01 0.311D+00 0.877D+00
 Gap=     0.125 Goal=   None    Shift=    0.000
 RMSDP=3.73D-07 MaxDP=5.97D-05 DE=-1.05D-07 OVMax= 2.01D-04

 Cycle  13  Pass 1  IDiag  1:
 RMSU=  1.13D-07    CP:  9.72D-01  1.44D+00  7.05D-01  6.55D-01  9.51D-01
                    CP:  9.75D-01  1.20D+00  1.34D+00  1.55D+00  1.89D+00
                    CP:  1.54D+00  1.35D+00
 E= -3007.09198258588     Delta-E=       -0.000000036336 Rises=F Damp=F
 DIIS: error= 1.51D-06 at cycle  13 NSaved=  13.
 NSaved=13 IEnMin=13 EnMin= -3007.09198258588     IErMin=13 ErrMin= 1.51D-06
 ErrMax= 1.51D-06  0.00D+00 EMaxC= 1.00D-01 BMatC= 1.63D-09 BMatP= 5.68D-09
 IDIUse=1 WtCom= 1.00D+00 WtEn= 0.00D+00
 Coeff-Com:  0.104D-03-0.211D-03-0.318D-03-0.412D-03 0.273D-03 0.429D-02
 Coeff-Com:  0.170D-01 0.174D-01-0.236D-01-0.196D+00-0.111D+00 0.442D+00
 Coeff-Com:  0.850D+00
 Coeff:      0.104D-03-0.211D-03-0.318D-03-0.412D-03 0.273D-03 0.429D-02
 Coeff:      0.170D-01 0.174D-01-0.236D-01-0.196D+00-0.111D+00 0.442D+00
 Coeff:      0.850D+00
 Gap=     0.125 Goal=   None    Shift=    0.000
 RMSDP=2.13D-07 MaxDP=1.55D-05 DE=-3.63D-08 OVMax= 1.40D-04

 Cycle  14  Pass 1  IDiag  1:
 RMSU=  6.54D-08    CP:  9.72D-01  1.44D+00  7.05D-01  6.55D-01  9.51D-01
                    CP:  9.75D-01  1.20D+00  1.35D+00  1.59D+00  2.04D+00
                    CP:  1.76D+00  1.82D+00  1.01D+00
 E= -3007.09198259592     Delta-E=       -0.000000010043 Rises=F Damp=F
 DIIS: error= 4.67D-07 at cycle  14 NSaved=  14.
 NSaved=14 IEnMin=14 EnMin= -3007.09198259592     IErMin=14 ErrMin= 4.67D-07
 ErrMax= 4.67D-07  0.00D+00 EMaxC= 1.00D-01 BMatC= 6.54D-10 BMatP= 1.63D-09
 IDIUse=1 WtCom= 1.00D+00 WtEn= 0.00D+00
 Coeff-Com:  0.688D-04-0.136D-03-0.229D-03-0.346D-03-0.479D-03 0.151D-02
 Coeff-Com:  0.112D-01 0.177D-01 0.655D-02-0.107D+00-0.131D+00 0.516D-01
 Coeff-Com:  0.515D+00 0.635D+00
 Coeff:      0.688D-04-0.136D-03-0.229D-03-0.346D-03-0.479D-03 0.151D-02
 Coeff:      0.112D-01 0.177D-01 0.655D-02-0.107D+00-0.131D+00 0.516D-01
 Coeff:      0.515D+00 0.635D+00
 Gap=     0.125 Goal=   None    Shift=    0.000
 RMSDP=9.17D-08 MaxDP=9.77D-06 DE=-1.00D-08 OVMax= 5.10D-05

 Cycle  15  Pass 1  IDiag  1:
 RMSU=  2.70D-08    CP:  9.72D-01  1.44D+00  7.05D-01  6.55D-01  9.51D-01
                    CP:  9.75D-01  1.21D+00  1.36D+00  1.61D+00  2.09D+00
                    CP:  1.86D+00  1.97D+00  1.29D+00  9.23D-01
 E= -3007.09198259757     Delta-E=       -0.000000001653 Rises=F Damp=F
 DIIS: error= 2.26D-07 at cycle  15 NSaved=  15.
 NSaved=15 IEnMin=15 EnMin= -3007.09198259757     IErMin=15 ErrMin= 2.26D-07
 ErrMax= 2.26D-07  0.00D+00 EMaxC= 1.00D-01 BMatC= 7.02D-11 BMatP= 6.54D-10
 IDIUse=1 WtCom= 1.00D+00 WtEn= 0.00D+00
 Coeff-Com:  0.700D-05-0.126D-04-0.296D-04-0.596D-04-0.273D-03-0.320D-03
 Coeff-Com:  0.126D-02 0.341D-02 0.946D-02-0.809D-02-0.295D-01-0.782D-01
 Coeff-Com:  0.602D-01 0.265D+00 0.777D+00
 Coeff:      0.700D-05-0.126D-04-0.296D-04-0.596D-04-0.273D-03-0.320D-03
 Coeff:      0.126D-02 0.341D-02 0.946D-02-0.809D-02-0.295D-01-0.782D-01
 Coeff:      0.602D-01 0.265D+00 0.777D+00
 Gap=     0.125 Goal=   None    Shift=    0.000
 RMSDP=3.03D-08 MaxDP=2.04D-06 DE=-1.65D-09 OVMax= 1.94D-05

 Cycle  16  Pass 1  IDiag  1:
 RMSU=  1.21D-08    CP:  9.72D-01  1.44D+00  7.05D-01  6.55D-01  9.51D-01
                    CP:  9.75D-01  1.21D+00  1.36D+00  1.62D+00  2.11D+00
                    CP:  1.88D+00  2.04D+00  1.34D+00  1.10D+00  1.01D+00
 E= -3007.09198259782     Delta-E=       -0.000000000246 Rises=F Damp=F
 DIIS: error= 1.03D-07 at cycle  16 NSaved=  16.
 NSaved=16 IEnMin=16 EnMin= -3007.09198259782     IErMin=16 ErrMin= 1.03D-07
 ErrMax= 1.03D-07  0.00D+00 EMaxC= 1.00D-01 BMatC= 2.28D-11 BMatP= 7.02D-11
 IDIUse=1 WtCom= 1.00D+00 WtEn= 0.00D+00
 Coeff-Com: -0.863D-05 0.177D-04 0.257D-04 0.305D-04-0.573D-04-0.436D-03
 Coeff-Com: -0.131D-02-0.165D-02 0.441D-02 0.134D-01 0.107D-01-0.524D-01
 Coeff-Com: -0.554D-01 0.148D-01 0.418D+00 0.650D+00
 Coeff:     -0.863D-05 0.177D-04 0.257D-04 0.305D-04-0.573D-04-0.436D-03
 Coeff:     -0.131D-02-0.165D-02 0.441D-02 0.134D-01 0.107D-01-0.524D-01
 Coeff:     -0.554D-01 0.148D-01 0.418D+00 0.650D+00
 Gap=     0.125 Goal=   None    Shift=    0.000
 RMSDP=1.06D-08 MaxDP=6.42D-07 DE=-2.46D-10 OVMax= 5.78D-06

 Cycle  17  Pass 1  IDiag  1:
 RMSU=  5.89D-09    CP:  9.72D-01  1.44D+00  7.05D-01  6.55D-01  9.51D-01
                    CP:  9.75D-01  1.21D+00  1.36D+00  1.62D+00  2.11D+00
                    CP:  1.89D+00  2.05D+00  1.37D+00  1.14D+00  1.19D+00
                    CP:  1.06D+00
 E= -3007.09198259788     Delta-E=       -0.000000000062 Rises=F Damp=F
 DIIS: error= 5.00D-08 at cycle  17 NSaved=  17.
 NSaved=17 IEnMin=17 EnMin= -3007.09198259788     IErMin=17 ErrMin= 5.00D-08
 ErrMax= 5.00D-08  0.00D+00 EMaxC= 1.00D-01 BMatC= 4.87D-12 BMatP= 2.28D-11
 IDIUse=1 WtCom= 1.00D+00 WtEn= 0.00D+00
 Coeff-Com: -0.540D-05 0.107D-04 0.179D-04 0.251D-04 0.228D-04-0.151D-03
 Coeff-Com: -0.843D-03-0.157D-02 0.976D-03 0.759D-02 0.129D-01-0.122D-01
 Coeff-Com: -0.361D-01-0.552D-01 0.615D-01 0.313D+00 0.710D+00
 Coeff:     -0.540D-05 0.107D-04 0.179D-04 0.251D-04 0.228D-04-0.151D-03
 Coeff:     -0.843D-03-0.157D-02 0.976D-03 0.759D-02 0.129D-01-0.122D-01
 Coeff:     -0.361D-01-0.552D-01 0.615D-01 0.313D+00 0.710D+00
 Gap=     0.125 Goal=   None    Shift=    0.000
 RMSDP=5.69D-09 MaxDP=6.99D-07 DE=-6.18D-11 OVMax= 3.50D-06

 SCF Done:  E(RCAM-B3LYP) =  -3007.09198260     A.U. after   17 cycles
            NFock= 17  Conv=0.57D-08     -V/T= 2.0108
 KE= 2.974899123942D+03 PE=-2.694192305458D+04 EE= 1.098454258217D+04
 Leave Link  502 at Wed May  4 23:13:45 2022, MaxMem= 10066329600 cpu:           13133.1 elap:             562.5
 (Enter /sw/apps/gaussian-16.0/g16/l801.exe)
 DoSCS=F DFT=T ScalE2(SS,OS)=  1.000000  1.000000
 ExpMin= 3.36D-02 ExpMax= 4.95D+03 ExpMxC= 7.45D+02 IAcc=3 IRadAn=         5 AccDes= 0.00D+00
 HarFok:  IExCor=  205 AccDes= 0.00D+00 IRadAn=         5 IDoV=-2 UseB2=F ITyADJ=14
 ICtDFT= 12500011 ScaDFX=  1.000000  1.000000  1.000000  1.000000
 GSVD:  LWork=       -5460 too small for GESVD, short by       25550 words or       25550 for optimal perf.
 Largest valence mixing into a core orbital is  1.23D-04
 Largest core mixing into a valence orbital is  5.14D-05
 Range of M.O.s used for correlation:    71  1298
 NBasis=  1298 NAE=   246 NBE=   246 NFC=    70 NFV=     0
 NROrb=   1228 NOA=   176 NOB=   176 NVA=  1052 NVB=  1052
 Leave Link  801 at Wed May  4 23:13:46 2022, MaxMem= 10066329600 cpu:               6.7 elap:               0.3
 (Enter /sw/apps/gaussian-16.0/g16/l914.exe)
 RHF ground state
 Two-electron integrals replicated using symmetry.
 MDV= 10066329600 DFT=T DoStab=F Mixed=T DoRPA=T DoScal=F NonHer=T
 Making orbital integer symmetry assigments:
 Orbital symmetries:
       Occupied  (A) (A) (A) (A) (A) (A) (A) (A) (A) (A) (A) (A)
                 (A) (A) (A) (A) (A) (A) (A) (A) (A) (A) (A) (A)
                 (A) (A) (A) (A) (A) (A) (A) (A) (A) (A) (A) (A)
                 (A) (A) (A) (A) (A) (A) (A) (A) (A) (A) (A) (A)
                 (A) (A) (A) (A) (A) (A) (A) (A) (A) (A) (A) (A)
                 (A) (A) (A) (A) (A) (A) (A) (A) (A) (A) (A) (A)
                 (A) (A) (A) (A) (A) (A) (A) (A) (A) (A) (A) (A)
                 (A) (A) (A) (A) (A) (A) (A) (A) (A) (A) (A) (A)
                 (A) (A) (A) (A) (A) (A) (A) (A) (A) (A) (A) (A)
                 (A) (A) (A) (A) (A) (A) (A) (A) (A) (A) (A) (A)
                 (A) (A) (A) (A) (A) (A) (A) (A) (A) (A) (A) (A)
                 (A) (A) (A) (A) (A) (A) (A) (A) (A) (A) (A) (A)
                 (A) (A) (A) (A) (A) (A) (A) (A) (A) (A) (A) (A)
                 (A) (A) (A) (A) (A) (A) (A) (A) (A) (A) (A) (A)
                 (A) (A) (A) (A) (A) (A) (A) (A) (A) (A) (A) (A)
                 (A) (A) (A) (A) (A) (A) (A) (A) (A) (A) (A) (A)
                 (A) (A) (A) (A) (A) (A) (A) (A) (A) (A) (A) (A)
                 (A) (A) (A) (A) (A) (A) (A) (A) (A) (A) (A) (A)
                 (A) (A) (A) (A) (A) (A) (A) (A) (A) (A) (A) (A)
                 (A) (A) (A) (A) (A) (A) (A) (A) (A) (A) (A) (A)
                 (A) (A) (A) (A) (A) (A)
       Virtual   (A) (A) (A) (A) (A) (A) (A) (A) (A) (A) (A) (A)
                 (A) (A) (A) (A) (A) (A) (A) (A) (A) (A) (A) (A)
                 (A) (A) (A) (A) (A) (A) (A) (A) (A) (A) (A) (A)
                 (A) (A) (A) (A) (A) (A) (A) (A) (A) (A) (A) (A)
                 (A) (A) (A) (A) (A) (A) (A) (A) (A) (A) (A) (A)
                 (A) (A) (A) (A) (A) (A) (A) (A) (A) (A) (A) (A)
                 (A) (A) (A) (A) (A) (A) (A) (A) (A) (A) (A) (A)
                 (A) (A) (A) (A) (A) (A) (A) (A) (A) (A) (A) (A)
                 (A) (A) (A) (A) (A) (A) (A) (A) (A) (A) (A) (A)
                 (A) (A) (A) (A) (A) (A) (A) (A) (A) (A) (A) (A)
                 (A) (A) (A) (A) (A) (A) (A) (A) (A) (A) (A) (A)
                 (A) (A) (A) (A) (A) (A) (A) (A) (A) (A) (A) (A)
                 (A) (A) (A) (A) (A) (A) (A) (A) (A) (A) (A) (A)
                 (A) (A) (A) (A) (A) (A) (A) (A) (A) (A) (A) (A)
                 (A) (A) (A) (A) (A) (A) (A) (A) (A) (A) (A) (A)
                 (A) (A) (A) (A) (A) (A) (A) (A) (A) (A) (A) (A)
                 (A) (A) (A) (A) (A) (A) (A) (A) (A) (A) (A) (A)
                 (A) (A) (A) (A) (A) (A) (A) (A) (A) (A) (A) (A)
                 (A) (A) (A) (A) (A) (A) (A) (A) (A) (A) (A) (A)
                 (A) (A) (A) (A) (A) (A) (A) (A) (A) (A) (A) (A)
                 (A) (A) (A) (A) (A) (A) (A) (A) (A) (A) (A) (A)
                 (A) (A) (A) (A) (A) (A) (A) (A) (A) (A) (A) (A)
                 (A) (A) (A) (A) (A) (A) (A) (A) (A) (A) (A) (A)
                 (A) (A) (A) (A) (A) (A) (A) (A) (A) (A) (A) (A)
                 (A) (A) (A) (A) (A) (A) (A) (A) (A) (A) (A) (A)
                 (A) (A) (A) (A) (A) (A) (A) (A) (A) (A) (A) (A)
                 (A) (A) (A) (A) (A) (A) (A) (A) (A) (A) (A) (A)
                 (A) (A) (A) (A) (A) (A) (A) (A) (A) (A) (A) (A)
                 (A) (A) (A) (A) (A) (A) (A) (A) (A) (A) (A) (A)
                 (A) (A) (A) (A) (A) (A) (A) (A) (A) (A) (A) (A)
                 (A) (A) (A) (A) (A) (A) (A) (A) (A) (A) (A) (A)
                 (A) (A) (A) (A) (A) (A) (A) (A) (A) (A) (A) (A)
                 (A) (A) (A) (A) (A) (A) (A) (A) (A) (A) (A) (A)
                 (A) (A) (A) (A) (A) (A) (A) (A) (A) (A) (A) (A)
                 (A) (A) (A) (A) (A) (A) (A) (A) (A) (A) (A) (A)
                 (A) (A) (A) (A) (A) (A) (A) (A) (A) (A) (A) (A)
                 (A) (A) (A) (A) (A) (A) (A) (A) (A) (A) (A) (A)
                 (A) (A) (A) (A) (A) (A) (A) (A) (A) (A) (A) (A)
                 (A) (A) (A) (A) (A) (A) (A) (A) (A) (A) (A) (A)
                 (A) (A) (A) (A) (A) (A) (A) (A) (A) (A) (A) (A)
                 (A) (A) (A) (A) (A) (A) (A) (A) (A) (A) (A) (A)
                 (A) (A) (A) (A) (A) (A) (A) (A) (A) (A) (A) (A)
                 (A) (A) (A) (A) (A) (A) (A) (A) (A) (A) (A) (A)
                 (A) (A) (A) (A) (A) (A) (A) (A) (A) (A) (A) (A)
                 (A) (A) (A) (A) (A) (A) (A) (A) (A) (A) (A) (A)
                 (A) (A) (A) (A) (A) (A) (A) (A) (A) (A) (A) (A)
                 (A) (A) (A) (A) (A) (A) (A) (A) (A) (A) (A) (A)
                 (A) (A) (A) (A) (A) (A) (A) (A) (A) (A) (A) (A)
                 (A) (A) (A) (A) (A) (A) (A) (A) (A) (A) (A) (A)
                 (A) (A) (A) (A) (A) (A) (A) (A) (A) (A) (A) (A)
                 (A) (A) (A) (A) (A) (A) (A) (A) (A) (A) (A) (A)
                 (A) (A) (A) (A) (A) (A) (A) (A) (A) (A) (A) (A)
                 (A) (A) (A) (A) (A) (A) (A) (A) (A) (A) (A) (A)
                 (A) (A) (A) (A) (A) (A) (A) (A) (A) (A) (A) (A)
                 (A) (A) (A) (A) (A) (A) (A) (A) (A) (A) (A) (A)
                 (A) (A) (A) (A) (A) (A) (A) (A) (A) (A) (A) (A)
                 (A) (A) (A) (A) (A) (A) (A) (A) (A) (A) (A) (A)
                 (A) (A) (A) (A) (A) (A) (A) (A) (A) (A) (A) (A)
                 (A) (A) (A) (A) (A) (A) (A) (A) (A) (A) (A) (A)
                 (A) (A) (A) (A) (A) (A) (A) (A) (A) (A) (A) (A)
                 (A) (A) (A) (A) (A) (A) (A) (A) (A) (A) (A) (A)
                 (A) (A) (A) (A) (A) (A) (A) (A) (A) (A) (A) (A)
                 (A) (A) (A) (A) (A) (A) (A) (A) (A) (A) (A) (A)
                 (A) (A) (A) (A) (A) (A) (A) (A) (A) (A) (A) (A)
                 (A) (A) (A) (A) (A) (A) (A) (A) (A) (A) (A) (A)
                 (A) (A) (A) (A) (A) (A) (A) (A) (A) (A) (A) (A)
                 (A) (A) (A) (A) (A) (A) (A) (A) (A) (A) (A) (A)
                 (A) (A) (A) (A) (A) (A) (A) (A) (A) (A) (A) (A)
                 (A) (A) (A) (A) (A) (A) (A) (A) (A) (A) (A) (A)
                 (A) (A) (A) (A) (A) (A) (A) (A) (A) (A) (A) (A)
                 (A) (A) (A) (A) (A) (A) (A) (A) (A) (A) (A) (A)
                 (A) (A) (A) (A) (A) (A) (A) (A) (A) (A) (A) (A)
                 (A) (A) (A) (A) (A) (A) (A) (A) (A) (A) (A) (A)
                 (A) (A) (A) (A) (A) (A) (A) (A) (A) (A) (A) (A)
                 (A) (A) (A) (A) (A) (A) (A) (A) (A) (A) (A) (A)
                 (A) (A) (A) (A) (A) (A) (A) (A) (A) (A) (A) (A)
                 (A) (A) (A) (A) (A) (A) (A) (A) (A) (A) (A) (A)
                 (A) (A) (A) (A) (A) (A) (A) (A) (A) (A) (A) (A)
                 (A) (A) (A) (A) (A) (A) (A) (A) (A) (A) (A) (A)
                 (A) (A) (A) (A) (A) (A) (A) (A) (A) (A) (A) (A)
                 (A) (A) (A) (A) (A) (A) (A) (A) (A) (A) (A) (A)
                 (A) (A) (A) (A) (A) (A) (A) (A) (A) (A) (A) (A)
                 (A) (A) (A) (A) (A) (A) (A) (A) (A) (A) (A) (A)
                 (A) (A) (A) (A) (A) (A) (A) (A) (A) (A) (A) (A)
                 (A) (A) (A) (A) (A) (A) (A) (A) (A) (A) (A) (A)
                 (A) (A) (A) (A) (A) (A) (A) (A) (A) (A) (A) (A)
                 (A) (A) (A) (A) (A) (A) (A) (A) (A) (A) (A) (A)
                 (A) (A) (A) (A) (A) (A) (A) (A)
    20 initial guesses have been made.
 Convergence on wavefunction:    0.001000000000000
 Davidson Disk Diagonalization:  ConvIn= 1.00D-03 SkipCon=T Conv= 1.00D-03.
 Max sub-space:  2000 roots to seek:    20 dimension of matrix:       370304
 Iteration     1 Dimension    20 NMult     0 NNew     20
 CISAX will form    20 AO SS matrices at one time.
 NMat=    20 NSing=    20 JSym2X= 0.
 FoFJK:  IHMeth= 1 ICntrl=       0 DoSepK=T KAlg= 0 I1Cent=           0 FoldK=F
 IRaf=         1 NMat=      40 IRICut=       1 DoRegI=T DoRafI=F ISym2E= 0 IDoP0=3 IntGTp=3.
 FoFCou: FMM=T IPFlag=           0 FMFlag=      100000 FMFlg1=        2001
         NFxFlg=           0 DoJE=F BraDBF=F KetDBF=F FulRan=T
         wScrn=  0.000000 ICntrl=       500 IOpCl=  0 I1Cent=           0 NGrid=           0
         NMat0=   20 NMatS0=     20 NMatT0=    0 NMatD0=   20 NMtDS0=    0 NMtDT0=    0
 Symmetry not used in FoFCou.
 FMM levels:  10  Number of levels for PrismC:   9
 New state      3 was old state      4
 New state      4 was old state      5
 New state      5 was old state     10
 Excitation Energies [eV] at current iteration:
 Root      1 :     2.181180031354351
 Root      2 :     2.576964471139357
 Root      3 :     3.329845147473236
 Root      4 :     3.785971688310410
 Root      5 :     4.000187194361646
 Root      6 :     4.062413028198584
 Root      7 :     4.127318621662898
 Root      8 :     4.208709953597333
 Root      9 :     4.252369458477460
 Root     10 :     4.286206333022391
 Root     11 :     4.425054419294975
 Root     12 :     4.605853185008434
 Root     13 :     4.945507129587487
 Root     14 :     4.967630789245336
 Root     15 :     5.081071174535887
 Root     16 :     5.243145349934994
 Root     17 :     5.535939518057030
 Root     18 :     5.671341732624997
 Root     19 :     5.795509580220360
 Root     20 :     6.000554229941883
 Iteration     2 Dimension    30 NMult    20 NNew     10
 CISAX will form    10 AO SS matrices at one time.
 NMat=    10 NSing=    10 JSym2X= 0.
 Root      1 not converged, maximum delta is    0.071583624161418
 Root      2 not converged, maximum delta is    0.051597232770106
 Root      3 not converged, maximum delta is    0.057216299788241
 Root      4 not converged, maximum delta is    0.136206632661461
 Root      5 not converged, maximum delta is    0.245213990233455
 Excitation Energies [eV] at current iteration:
 Root      1 :     1.723325460192870   Change is   -0.457854571161482
 Root      2 :     2.213191708642190   Change is   -0.363772762497167
 Root      3 :     3.264879114922426   Change is   -0.064966032550810
 Root      4 :     3.417102856468590   Change is   -0.368868831841820
 Root      5 :     3.544491278223184   Change is   -0.455695916138462
 Iteration     3 Dimension    40 NMult    30 NNew     10
 CISAX will form    10 AO SS matrices at one time.
 NMat=    10 NSing=    10 JSym2X= 0.
 Root      1 not converged, maximum delta is    0.018540240105381
 Root      2 not converged, maximum delta is    0.012064793050250
 Root      3 not converged, maximum delta is    0.060110200685861
 Root      4 not converged, maximum delta is    0.192950087738895
 Root      5 not converged, maximum delta is    0.252283850401065
 Excitation Energies [eV] at current iteration:
 Root      1 :     1.687419561194134   Change is   -0.035905898998735
 Root      2 :     2.194682534220586   Change is   -0.018509174421604
 Root      3 :     3.257024965217634   Change is   -0.007854149704793
 Root      4 :     3.369646417317313   Change is   -0.047456439151278
 Root      5 :     3.462023364201082   Change is   -0.082467914022102
 Iteration     4 Dimension    50 NMult    40 NNew     10
 CISAX will form    10 AO SS matrices at one time.
 NMat=    10 NSing=    10 JSym2X= 0.
 Root      1 not converged, maximum delta is    0.002726553019589
 Root      2 not converged, maximum delta is    0.003944237851798
 Root      3 not converged, maximum delta is    0.014863344530988
 Root      4 not converged, maximum delta is    0.045784375088341
 Root      5 not converged, maximum delta is    0.054198896995219
 Excitation Energies [eV] at current iteration:
 Root      1 :     1.683723455777037   Change is   -0.003696105417097
 Root      2 :     2.191779165037281   Change is   -0.002903369183305
 Root      3 :     3.255419098112371   Change is   -0.001605867105263
 Root      4 :     3.357407436387243   Change is   -0.012238980930070
 Root      5 :     3.440922018682309   Change is   -0.021101345518774
 Iteration     5 Dimension    60 NMult    50 NNew     10
 CISAX will form    10 AO SS matrices at one time.
 NMat=    10 NSing=    10 JSym2X= 0.
 Root      1 not converged, maximum delta is    0.001368037597271
 Root      2 not converged, maximum delta is    0.001632885078223
 Root      3 not converged, maximum delta is    0.002376837573792
 Root      4 not converged, maximum delta is    0.011153571293962
 Root      5 not converged, maximum delta is    0.065205464015441
 Excitation Energies [eV] at current iteration:
 Root      1 :     1.683378226929683   Change is   -0.000345228847355
 Root      2 :     2.191530489827378   Change is   -0.000248675209903
 Root      3 :     3.255169922950586   Change is   -0.000249175161785
 Root      4 :     3.355224311895397   Change is   -0.002183124491846
 Root      5 :     3.428571700402404   Change is   -0.012350318279905
 Iteration     6 Dimension    70 NMult    60 NNew     10
 CISAX will form    10 AO SS matrices at one time.
 NMat=    10 NSing=    10 JSym2X= 0.
 Root      1 has converged.
 Root      2 has converged.
 Root      3 not converged, maximum delta is    0.001516783108702
 Root      4 not converged, maximum delta is    0.017186357913119
 Root      5 not converged, maximum delta is    0.037266620131038
 Excitation Energies [eV] at current iteration:
 Root      1 :     1.683349403739961   Change is   -0.000028823189722
 Root      2 :     2.191495618768738   Change is   -0.000034871058640
 Root      3 :     3.255135167378213   Change is   -0.000034755572373
 Root      4 :     3.354462535381355   Change is   -0.000761776514042
 Root      5 :     3.424290064857690   Change is   -0.004281635544713
 Iteration     7 Dimension    76 NMult    70 NNew      6
 CISAX will form     6 AO SS matrices at one time.
 NMat=     6 NSing=     6 JSym2X= 0.
 Root      1 has converged.
 Root      2 has converged.
 Root      3 not converged, maximum delta is    0.001039064383573
 Root      4 not converged, maximum delta is    0.018053089047520
 Root      5 not converged, maximum delta is    0.040580614484830
 Excitation Energies [eV] at current iteration:
 Root      1 :     1.683349299354274   Change is   -0.000000104385687
 Root      2 :     2.191494969185911   Change is   -0.000000649582828
 Root      3 :     3.255126909120217   Change is   -0.000008258257996
 Root      4 :     3.353942246005326   Change is   -0.000520289376029
 Root      5 :     3.423082610014057   Change is   -0.001207454843633
 Iteration     8 Dimension    82 NMult    76 NNew      6
 CISAX will form     6 AO SS matrices at one time.
 NMat=     6 NSing=     6 JSym2X= 0.
 Root      1 has converged.
 Root      2 has converged.
 Root      3 has converged.
 Root      4 not converged, maximum delta is    0.005803444301989
 Root      5 not converged, maximum delta is    0.019271993531829
 Excitation Energies [eV] at current iteration:
 Root      1 :     1.683349242613165   Change is   -0.000000056741109
 Root      2 :     2.191494194499116   Change is   -0.000000774686795
 Root      3 :     3.255125548954401   Change is   -0.000001360165817
 Root      4 :     3.353802815930135   Change is   -0.000139430075191
 Root      5 :     3.422719673546574   Change is   -0.000362936467483
 Iteration     9 Dimension    86 NMult    82 NNew      4
 CISAX will form     4 AO SS matrices at one time.
 NMat=     4 NSing=     4 JSym2X= 0.
 Root      1 has converged.
 Root      2 has converged.
 Root      3 has converged.
 Root      4 not converged, maximum delta is    0.001127951292827
 Root      5 not converged, maximum delta is    0.005178867200608
 Excitation Energies [eV] at current iteration:
 Root      1 :     1.683349133789476   Change is   -0.000000108823689
 Root      2 :     2.191494146743005   Change is   -0.000000047756110
 Root      3 :     3.255125449177594   Change is   -0.000000099776807
 Root      4 :     3.353780788507803   Change is   -0.000022027422332
 Root      5 :     3.422641182752597   Change is   -0.000078490793978
 Iteration    10 Dimension    90 NMult    86 NNew      4
 CISAX will form     4 AO SS matrices at one time.
 NMat=     4 NSing=     4 JSym2X= 0.
 Root      1 has converged.
 Root      2 has converged.
 Root      3 has converged.
 Root      4 has converged.
 Root      5 not converged, maximum delta is    0.001138490492409
 Excitation Energies [eV] at current iteration:
 Root      1 :     1.683349098130045   Change is   -0.000000035659430
 Root      2 :     2.191494048801349   Change is   -0.000000097941657
 Root      3 :     3.255125439730332   Change is   -0.000000009447262
 Root      4 :     3.353777530490387   Change is   -0.000003258017416
 Root      5 :     3.422628084848659   Change is   -0.000013097903938
 Iteration    11 Dimension    92 NMult    90 NNew      2
 CISAX will form     2 AO SS matrices at one time.
 NMat=     2 NSing=     2 JSym2X= 0.
 Root      1 has converged.
 Root      2 has converged.
 Root      3 has converged.
 Root      4 has converged.
 Root      5 has converged.
 Excitation Energies [eV] at current iteration:
 Root      1 :     1.683349002251078   Change is   -0.000000095878968
 Root      2 :     2.191494031654948   Change is   -0.000000017146400
 Root      3 :     3.255125438617328   Change is   -0.000000001113004
 Root      4 :     3.353777259941246   Change is   -0.000000270549141
 Root      5 :     3.422626305383937   Change is   -0.000001779464722
 Convergence achieved on expansion vectors.
 ***********************************************************************
 Excited states from <AA,BB:AA,BB> singles matrix:
 ***********************************************************************
 
 1PDM for each excited state written to RWF  633
 Ground to excited state transition densities written to RWF  633
 Ground to excited state transition electric dipole moments (Au):
       state          X           Y           Z        Dip. S.      Osc.
         1        -1.2963     -2.3615     -1.0425      8.3437      0.3441
         2         0.5078     -0.7424      0.4918      1.0508      0.0564
         3         0.4571     -0.4040      0.4382      0.5642      0.0450
         4        -1.2023      1.3031     -1.1879      4.5545      0.3742
         5         0.7510     -0.9744      0.7458      2.0697      0.1735
 Ground to excited state transition velocity dipole moments (Au):
       state          X           Y           Z        Dip. S.      Osc.
         1         0.0759      0.1417      0.0618      0.0296      0.3194
         2        -0.0369      0.0559     -0.0356      0.0058      0.0477
         3        -0.0532      0.0474     -0.0503      0.0076      0.0424
         4         0.1414     -0.1562      0.1387      0.0636      0.3443
         5        -0.0907      0.1185     -0.0893      0.0302      0.1602
 Ground to excited state transition magnetic dipole moments (Au):
       state          X           Y           Z
         1         0.1291      0.5122     -1.4414
         2        -0.1815     -0.3155     -0.4521
         3         0.2751     -0.4622     -0.7801
         4         0.5261      1.3683      1.2789
         5        -0.5941     -0.1547     -0.2018
 Ground to excited state transition velocity quadrupole moments (Au):
       state          XX          YY          ZZ          XY          XZ          YZ
         1        -1.1572      0.5425      0.1172     -0.8174     -0.4339      0.2458
         2         0.5014      0.2376     -0.0977     -0.2980      0.2624      0.0123
         3         0.7488     -0.1900     -0.0466     -0.6558      0.4073     -0.2187
         4        -1.9523      0.0554      0.1115      1.4714     -1.1590      0.2325
         5         1.1926      0.5407     -0.1312     -0.9260      0.6827     -0.1216
 <0|del|b> * <b|rxdel|0> + <0|del|b> * <b|delr+rdel|0>
 Rotatory Strengths (R) in cgs (10**-40 erg-esu-cm/Gauss)
       state          XX          YY          ZZ    R(velocity)    E-M Angle
         1       -31.7206    -57.7700     12.8047    -25.5619       91.45
         2       -24.6533     51.5173     18.3698     15.0779       83.28
         3        91.4907      9.5900    -85.3905      5.2301       88.16
         4       -38.5225    231.2031     25.3335     72.6714       85.56
         5         4.2016      0.6465    296.3071    100.3851       61.53
 1/2[<0|r|b>*<b|rxdel|0> + (<0|rxdel|b>*<b|r|0>)*]
 Rotatory Strengths (R) in cgs (10**-40 erg-esu-cm/Gauss)
       state          XX          YY          ZZ     R(length)
         1       118.3332    855.3580  -1062.5855    -29.6314
         2        65.1600   -165.6123    157.2263     18.9247
         3       -88.9129   -132.0546    241.7435      6.9253
         4       447.3143  -1260.8439   1074.2508     86.9071
         5       315.5155   -106.6156    106.4134    105.1045
  1/2[<0|del|b>*<b|r|0> + (<0|r|b>*<b|del|0>)*] (Au)
       state          X           Y           Z        Dip. S.   Osc.(frdel)
         1        -0.0984     -0.3345     -0.0644      0.4973      0.3315
         2        -0.0188     -0.0415     -0.0175      0.0778      0.0519
         3        -0.0243     -0.0192     -0.0220      0.0655      0.0437
         4        -0.1701     -0.2036     -0.1647      0.5384      0.3589
         5        -0.0681     -0.1154     -0.0666      0.2501      0.1668

 Excitation energies and oscillator strengths:
 
 Excited State   1:      Singlet-A      1.6833 eV  736.53 nm  f=0.3441  <S**2>=0.000
     245 -> 248       -0.19715
     246 -> 247        0.68025
     245 <- 248       -0.11213
 This state for optimization and/or second-order correction.
 Total Energy, E(TD-HF/TD-DFT) =  -3007.03012066    
 Copying the excited state density for this state as the 1-particle RhoCI density.
 
 Excited State   2:      Singlet-A      2.1915 eV  565.75 nm  f=0.0564  <S**2>=0.000
     245 -> 247        0.61459
     246 -> 248        0.33929
 
 Excited State   3:      Singlet-A      3.2551 eV  380.89 nm  f=0.0450  <S**2>=0.000
     246 -> 248       -0.20807
     246 -> 249        0.59498
     246 -> 250        0.28284
 
 Excited State   4:      Singlet-A      3.3538 eV  369.69 nm  f=0.3742  <S**2>=0.000
     244 -> 247        0.36825
     245 -> 247       -0.23993
     246 -> 248        0.46825
     246 -> 249        0.22696
 
[...]
 Alpha virt. eigenvalues --    1.17820   1.18254   1.18424   1.18867   1.19689
 Alpha virt. eigenvalues --    1.20010   1.20435   1.20888   1.21648   1.22015
 Alpha virt. eigenvalues --    1.23029   1.23559   1.23822   1.24196   1.24672
 Alpha virt. eigenvalues --    1.24873   1.25205   1.25731   1.25958   1.26356
 Alpha virt. eigenvalues --    1.26883   1.27436   1.27969   1.28111   1.28770
 Alpha virt. eigenvalues --    1.29037   1.29135   1.29276   1.29602   1.30083
 Alpha virt. eigenvalues --    1.30911   1.31097   1.31349   1.32251   1.32764
 Alpha virt. eigenvalues --    1.33272   1.34089   1.34633   1.35578   1.36451
 Alpha virt. eigenvalues --    1.37028   1.37104   1.37549   1.37611   1.37920
 Alpha virt. eigenvalues --    1.38095   1.38322   1.38797   1.38914   1.39618
 Alpha virt. eigenvalues --    1.40268   1.40810   1.41010   1.41143   1.41226
 Alpha virt. eigenvalues --    1.41826   1.41965   1.42955   1.43326   1.43704
 Alpha virt. eigenvalues --    1.44174   1.44667   1.45352   1.45500   1.45885
 Alpha virt. eigenvalues --    1.46444   1.47183   1.47920   1.48221   1.48691
 Alpha virt. eigenvalues --    1.49017   1.49101   1.49477   1.49749   1.50831
 Alpha virt. eigenvalues --    1.51086   1.51146   1.51673   1.51901   1.52503
 Alpha virt. eigenvalues --    1.52847   1.53538   1.53644   1.54330   1.54814
 Alpha virt. eigenvalues --    1.54975   1.55571   1.55755   1.56210   1.57006
 Alpha virt. eigenvalues --    1.57716   1.57987   1.58312   1.58504   1.58659
 Alpha virt. eigenvalues --    1.58854   1.58995   1.59089   1.59454   1.59637
 Alpha virt. eigenvalues --    1.59675   1.60347   1.60459   1.60706   1.60961
 Alpha virt. eigenvalues --    1.61533   1.61627   1.61820   1.61909   1.62368
 Alpha virt. eigenvalues --    1.62636   1.62742   1.63104   1.63348   1.63403
 Alpha virt. eigenvalues --    1.63598   1.63678   1.63845   1.63870   1.64815
 Alpha virt. eigenvalues --    1.65309   1.65393   1.65674   1.66230   1.67100
 Alpha virt. eigenvalues --    1.67745   1.67860   1.68255   1.68431   1.68977
 Alpha virt. eigenvalues --    1.69360   1.70075   1.70314   1.70586   1.70809
 Alpha virt. eigenvalues --    1.71517   1.72313   1.72487   1.72800   1.73037
 Alpha virt. eigenvalues --    1.73190   1.73635   1.73780   1.74582   1.75390
 Alpha virt. eigenvalues --    1.75812   1.75997   1.76351   1.76524   1.76668
 Alpha virt. eigenvalues --    1.77141   1.77496   1.77907   1.78209   1.78308
 Alpha virt. eigenvalues --    1.78400   1.78736   1.78982   1.79090   1.79253
 Alpha virt. eigenvalues --    1.79421   1.79492   1.79730   1.80187   1.80382
 Alpha virt. eigenvalues --    1.80663   1.81001   1.81231   1.81499   1.82060
 Alpha virt. eigenvalues --    1.82207   1.82439   1.82840   1.83066   1.83303
 Alpha virt. eigenvalues --    1.83492   1.83614   1.83990   1.84184   1.84429
 Alpha virt. eigenvalues --    1.84816   1.84910   1.85141   1.85293   1.85545
 Alpha virt. eigenvalues --    1.85695   1.85866   1.85994   1.86244   1.86478
 Alpha virt. eigenvalues --    1.86612   1.86791   1.87104   1.87285   1.87535
 Alpha virt. eigenvalues --    1.87732   1.88011   1.88093   1.88144   1.88933
 Alpha virt. eigenvalues --    1.89007   1.89507   1.89648   1.89707   1.89758
 Alpha virt. eigenvalues --    1.89954   1.90030   1.90057   1.90388   1.90527
 Alpha virt. eigenvalues --    1.90909   1.91479   1.91569   1.91738   1.92056
 Alpha virt. eigenvalues --    1.92132   1.92197   1.92404   1.92679   1.92995
 Alpha virt. eigenvalues --    1.93200   1.93479   1.93566   1.93991   1.94422
 Alpha virt. eigenvalues --    1.94514   1.94524   1.94971   1.95349   1.95465
 Alpha virt. eigenvalues --    1.95583   1.95798   1.95992   1.96298   1.96503
 Alpha virt. eigenvalues --    1.96644   1.96861   1.96927   1.97601   1.97891
 Alpha virt. eigenvalues --    1.98063   1.98350   1.98386   1.98785   1.99103
 Alpha virt. eigenvalues --    1.99344   1.99552   1.99654   1.99908   2.00496
 Alpha virt. eigenvalues --    2.00742   2.00896   2.01145   2.02058   2.02113
 Alpha virt. eigenvalues --    2.02351   2.02430   2.02708   2.02948   2.03251
 Alpha virt. eigenvalues --    2.03552   2.03767   2.04047   2.04407   2.04929
 Alpha virt. eigenvalues --    2.05272   2.05618   2.05752   2.05912   2.06320
 Alpha virt. eigenvalues --    2.06629   2.06729   2.07134   2.07358   2.07593
 Alpha virt. eigenvalues --    2.07958   2.07999   2.08166   2.08562   2.08794
 Alpha virt. eigenvalues --    2.08982   2.09870   2.10002   2.10274   2.10478
 Alpha virt. eigenvalues --    2.10656   2.11023   2.11148   2.11420   2.11846
 Alpha virt. eigenvalues --    2.11974   2.12793   2.12960   2.13435   2.13578
 Alpha virt. eigenvalues --    2.13761   2.13989   2.14464   2.14676   2.14936
 Alpha virt. eigenvalues --    2.15121   2.15321   2.15759   2.15972   2.16023
 Alpha virt. eigenvalues --    2.16426   2.16895   2.16973   2.17153   2.17333
 Alpha virt. eigenvalues --    2.17814   2.17960   2.18455   2.18897   2.19307
 Alpha virt. eigenvalues --    2.19728   2.20135   2.20306   2.20423   2.20992
 Alpha virt. eigenvalues --    2.21038   2.21285   2.21686   2.22168   2.22366
 Alpha virt. eigenvalues --    2.22498   2.22913   2.23599   2.24138   2.24620
 Alpha virt. eigenvalues --    2.24867   2.25271   2.25534   2.25833   2.26677
 Alpha virt. eigenvalues --    2.26893   2.27173   2.27356   2.27746   2.27973
 Alpha virt. eigenvalues --    2.28620   2.29308   2.30014   2.30801   2.31326
 Alpha virt. eigenvalues --    2.31578   2.32020   2.32175   2.32600   2.32694
 Alpha virt. eigenvalues --    2.33287   2.33355   2.33817   2.34099   2.34328
 Alpha virt. eigenvalues --    2.34952   2.35111   2.35656   2.35725   2.35935
 Alpha virt. eigenvalues --    2.36288   2.37016   2.38329   2.38468   2.38625
 Alpha virt. eigenvalues --    2.39407   2.39590   2.39662   2.39809   2.40480
 Alpha virt. eigenvalues --    2.40824   2.40892   2.41097   2.41896   2.42240
 Alpha virt. eigenvalues --    2.42658   2.42794   2.43200   2.43331   2.43521
 Alpha virt. eigenvalues --    2.43641   2.43930   2.45028   2.45337   2.45507
 Alpha virt. eigenvalues --    2.45875   2.46439   2.46899   2.47137   2.47284
 Alpha virt. eigenvalues --    2.47420   2.48003   2.48519   2.48827   2.48901
 Alpha virt. eigenvalues --    2.49561   2.50362   2.51026   2.51473   2.51861
 Alpha virt. eigenvalues --    2.52020   2.52146   2.52767   2.52804   2.52819
 Alpha virt. eigenvalues --    2.53600   2.53667   2.54328   2.54952   2.55077
 Alpha virt. eigenvalues --    2.55616   2.56511   2.57030   2.57358   2.57606
 Alpha virt. eigenvalues --    2.57774   2.58345   2.58843   2.59237   2.59529
 Alpha virt. eigenvalues --    2.60349   2.60462   2.60781   2.61767   2.62374
 Alpha virt. eigenvalues --    2.62883   2.62949   2.63210   2.63451   2.63695
 Alpha virt. eigenvalues --    2.63806   2.64129   2.64228   2.64761   2.65107
 Alpha virt. eigenvalues --    2.65195   2.65642   2.66161   2.66894   2.67416
 Alpha virt. eigenvalues --    2.67639   2.68860   2.69452   2.69714   2.69832
 Alpha virt. eigenvalues --    2.70052   2.70232   2.70572   2.70934   2.71335
 Alpha virt. eigenvalues --    2.71387   2.71645   2.72167   2.72590   2.73134
 Alpha virt. eigenvalues --    2.73957   2.74295   2.74879   2.75046   2.75634
 Alpha virt. eigenvalues --    2.76247   2.76551   2.76989   2.77177   2.77289
 Alpha virt. eigenvalues --    2.77920   2.78147   2.78270   2.79122   2.79478
 Alpha virt. eigenvalues --    2.79869   2.80040   2.80253   2.80467   2.81149
 Alpha virt. eigenvalues --    2.81321   2.82468   2.82542   2.82910   2.83338
 Alpha virt. eigenvalues --    2.84442   2.85807   2.86101   2.86176   2.86648
 Alpha virt. eigenvalues --    2.87211   2.87289   2.87671   2.88993   2.89382
 Alpha virt. eigenvalues --    2.89734   2.90454   2.91154   2.91366   2.91725
 Alpha virt. eigenvalues --    2.92094   2.92101   2.92993   2.93800   2.94376
 Alpha virt. eigenvalues --    2.94973   2.95284   2.95719   2.95749   2.96314
 Alpha virt. eigenvalues --    2.96407   2.96649   2.96851   2.97548   2.97735
 Alpha virt. eigenvalues --    2.98097   2.98509   2.98570   2.98852   2.98874
 Alpha virt. eigenvalues --    2.99253   2.99680   3.00291   3.00374   3.00606
 Alpha virt. eigenvalues --    3.00643   3.01457   3.01684   3.01907   3.02302
 Alpha virt. eigenvalues --    3.02608   3.03177   3.03459   3.03735   3.04360
 Alpha virt. eigenvalues --    3.04407   3.04902   3.05032   3.05219   3.05468
 Alpha virt. eigenvalues --    3.05641   3.05788   3.06071   3.06673   3.07464
 Alpha virt. eigenvalues --    3.07824   3.08279   3.08505   3.08954   3.09112
 Alpha virt. eigenvalues --    3.09300   3.09627   3.09969   3.10617   3.10944
 Alpha virt. eigenvalues --    3.11179   3.11545   3.11569   3.11871   3.13171
 Alpha virt. eigenvalues --    3.13897   3.14266   3.14449   3.14488   3.14726
 Alpha virt. eigenvalues --    3.15715   3.15986   3.17369   3.18802   3.19221
 Alpha virt. eigenvalues --    3.19321   3.19617   3.20268   3.21030   3.21414
 Alpha virt. eigenvalues --    3.21716   3.22887   3.23239   3.24190   3.24485
 Alpha virt. eigenvalues --    3.24637   3.25929   3.26841   3.27927   3.30080
 Alpha virt. eigenvalues --    3.30319   3.31722   3.42460   3.42838   3.45563
 Alpha virt. eigenvalues --    3.46021   3.48099   3.50454   3.53370   3.55564
 Alpha virt. eigenvalues --    3.61102   3.64771   3.65942   3.70569   3.71174
 Alpha virt. eigenvalues --    3.72358   3.74159
          Condensed to atoms (all electrons):
 Mulliken charges:
               1
     1  Mg   0.808884
     2  C    0.025282
     3  C   -0.060574
     4  C   -0.021918
     5  C   -0.054714
     6  N   -0.238488
     7  C   -0.064557
     8  C   -0.003745
     9  C   -0.084867
    10  C    0.023890
    11  C    0.085506
    12  C    0.064957
    13  C    0.095233
    14  C    0.146831
    15  O   -0.232948
    16  O   -0.346050
    17  N   -0.411543
    18  C    0.127559
    19  C   -0.147841
    20  C    0.024304
    21  C    0.084198
    22  C    0.141640
    23  C   -0.053872
    24  O   -0.216645
    25  C    0.078789
    26  N   -0.260321
    27  C    0.038796
    28  C   -0.046239
    29  C    0.025467
    30  C   -0.014367
    31  C    0.052458
    32  C    0.002695
    33  C    0.007462
    34  N   -0.333178
    35  C    0.096513
    36  C   -0.206657
    37  C    0.019324
    38  C    0.125371
    39  C    0.134696
    40  C    0.005911
    41  O   -0.180253
    42  C    0.016563
    43  C    0.215581
    44  O   -0.201987
    45  O   -0.348368
    46  C    0.189373
    47  C    0.271649
    48  C   -0.128262
    49  C   -0.162275
    50  C    0.085563
    51  C    0.075919
    52  C    0.022656
    53  C    0.013534
    54  C   -0.106359
    55  C    0.067744
    56  C    0.038426
    57  C    0.050196
    58  C    0.022393
    59  C   -0.136650
    60  C    0.047640
    61  C    0.021860
    62  C    0.024585
    63  C    0.100328
    64  C   -0.184207
    65  C    0.052056
    66  C    0.032839
    67  H   -0.019518
    68  H   -0.066357
    69  H   -0.026112
    70  H   -0.006122
    71  H    0.006047
    72  H    0.020838
    73  H    0.025229
    74  H    0.008415
    75  H    0.002742
    76  H    0.035271
    77  H    0.019764
    78  H    0.014903
    79  H    0.034942
    80  H    0.037832
    81  H   -0.011620
    82  H    0.019314
    83  H    0.050430
    84  H    0.019777
    85  H    0.023766
    86  H    0.010441
    87  H    0.032554
    88  H    0.011894
    89  H    0.010056
    90  H    0.015640
    91  H    0.005435
    92  H    0.012212
    93  H    0.025402
    94  H    0.039949
    95  H    0.049629
    96  H    0.045428
    97  H    0.017017
    98  H    0.030437
    99  H    0.038585
   100  H    0.021139
   101  H    0.034466
   102  H    0.035856
   103  H    0.033855
   104  H    0.006252
   105  H    0.013965
   106  H    0.012486
   107  H    0.047773
   108  H   -0.017659
   109  H    0.007705
   110  H    0.007596
   111  H    0.000705
   112  H   -0.008384
   113  H   -0.000173
   114  H   -0.006754
   115  H   -0.006263
   116  H    0.006312
   117  H   -0.003733
   118  H   -0.008303
   119  H    0.002341
   120  H    0.000762
   121  H   -0.011163
   122  H   -0.017914
   123  H   -0.014917
   124  H   -0.010814
   125  H    0.004746
   126  H    0.027768
   127  H    0.011717
   128  H   -0.011421
   129  H   -0.022848
   130  H    0.005031
   131  H    0.003090
   132  H   -0.011663
   133  H    0.008800
   134  H   -0.003380
   135  H    0.010703
   136  H   -0.001619
   137  H   -0.007199
   138  H   -0.004200
   139  H    0.002463
   140  H    0.010866
 Sum of Mulliken charges =  -0.00000
 Mulliken charges with hydrogens summed into heavy atoms:
               1
     1  Mg   0.808884
     2  C    0.025282
     3  C   -0.080092
     4  C   -0.088275
     5  C   -0.080826
     6  N   -0.238488
     7  C   -0.064557
     8  C   -0.009867
     9  C   -0.078820
    10  C    0.023890
    11  C    0.139989
    12  C    0.102971
    13  C    0.129900
    14  C    0.146831
    15  O   -0.232948
    16  O   -0.346050
    17  N   -0.411543
    18  C    0.127559
    19  C   -0.147841
    20  C    0.024304
    21  C    0.084198
    22  C    0.202794
    23  C   -0.053872
    24  O   -0.216645
    25  C    0.168311
    26  N   -0.260321
    27  C    0.038796
    28  C   -0.022473
    29  C    0.035908
    30  C   -0.014367
    31  C    0.106963
    32  C    0.023770
    33  C    0.085025
    34  N   -0.333178
    35  C    0.096513
    36  C   -0.206657
    37  C    0.019324
    38  C    0.125371
    39  C    0.246770
    40  C    0.005911
    41  O   -0.180253
    42  C    0.047000
    43  C    0.215581
    44  O   -0.201987
    45  O   -0.348368
    46  C    0.283562
    47  C    0.341361
    48  C   -0.122010
    49  C   -0.162275
    50  C    0.159787
    51  C    0.065965
    52  C    0.030957
    53  C    0.004977
    54  C   -0.113113
    55  C    0.064061
    56  C    0.032463
    57  C    0.039795
    58  C   -0.010439
    59  C   -0.147465
    60  C    0.091871
    61  C   -0.012408
    62  C    0.032706
    63  C    0.097465
    64  C   -0.187587
    65  C    0.053942
    66  C    0.041968
 Electronic spatial extent (au):  <R**2>=          82743.4831
 Charge=             -0.0000 electrons
 Dipole moment (field-independent basis, Debye):
    X=             -3.4471    Y=              0.3943    Z=             -1.5442  Tot=              3.7977
 Quadrupole moment (field-independent basis, Debye-Ang):
   XX=           -364.6050   YY=           -427.9047   ZZ=           -399.6153
   XY=            -39.0406   XZ=              4.0197   YZ=             -6.1827
 Traceless Quadrupole moment (field-independent basis, Debye-Ang):
   XX=             32.7700   YY=            -30.5297   ZZ=             -2.2403
   XY=            -39.0406   XZ=              4.0197   YZ=             -6.1827
 Octapole moment (field-independent basis, Debye-Ang**2):
  XXX=           -324.2838  YYY=           -209.8461  ZZZ=            -31.3365  XYY=             51.5591
  XXY=            143.7862  XXZ=            -85.4715  XZZ=           -109.6717  YZZ=             26.1533
  YYZ=           -146.6206  XYZ=             76.3417
 Hexadecapole moment (field-independent basis, Debye-Ang**3):
 XXXX=         -66880.9706 YYYY=         -35127.2862 ZZZZ=         -12018.6841 XXXY=          -1299.3801
 XXXZ=           1202.0909 YYYX=          -1511.6878 YYYZ=           -536.1052 ZZZX=            -45.9569
 ZZZY=            171.2599 XXYY=         -17168.6202 XXZZ=         -12992.2429 YYZZ=          -7924.7949
 XXYZ=            -70.8376 YYXZ=            149.6877 ZZXY=             82.1137
 N-N= 9.975389365864D+03 E-N=-2.694192306791D+04  KE= 2.974899123942D+03
 Leave Link  601 at Wed May  4 23:50:31 2022, MaxMem= 10066329600 cpu:              10.8 elap:               0.6
 (Enter /sw/apps/gaussian-16.0/g16/l9999.exe)
 1\1\GINC-BP1-COMPUTE168\SP\RCAM-B3LYP TD-FC\def2SVP\C55H74Mg1N4O6\OF15
 641\04-May-2022\0\\#p cam-b3lyp/Def2SVP td=(nstates=5)\\step_501_chrom
 ophore_20 TDDFT with cam-b3lyp functional\\0,1\Mg,0,7.636,56.802,41.94
 5\C,0,6.625,53.446,41.385\C,0,10.681,55.975,40.458\C,0,8.032,60.025,41
 .405\C,0,4.228,57.385,43.149\N,0,8.45,54.913,40.781\C,0,7.957,53.661,4
 0.95\C,0,8.99,52.648,40.49\C,0,10.329,53.333,40.764\C,0,9.814,54.854,4
 0.608\C,0,10.976,53.149,42.138\C,0,8.688,52.223,38.987\C,0,8.786,50.76
 2,38.785\C,0,9.472,50.264,37.498\O,0,10.538,49.67,37.544\O,0,8.683,50.
 519,36.406\N,0,9.15,57.919,40.995\C,0,10.372,57.384,40.517\C,0,11.157,
 58.505,40.065\C,0,10.496,59.72,40.387\C,0,9.159,59.292,40.933\C,0,12.5
 16,58.288,39.407\C,0,10.98,61.084,40.089\O,0,12.058,61.217,39.523\C,0,
 10.253,62.368,40.32\N,0,6.193,58.496,42.173\C,0,6.766,59.71,42.052\C,0
 ,5.813,60.813,42.547\C,0,4.615,59.975,43.27\C,0,5.024,58.526,42.899\C,
 0,6.513,61.954,43.414\C,0,3.166,60.373,42.848\C,0,2.453,59.491,41.767\
 N,0,5.854,55.731,42.223\C,0,4.596,56.1,42.779\C,0,3.778,54.831,43.012\
 C,0,4.552,53.841,42.428\C,0,5.79,54.434,41.99\C,0,2.398,54.583,43.651\
 C,0,4.627,52.438,42.17\O,0,3.862,51.526,42.488\C,0,5.871,52.243,41.379
 \C,0,5.336,51.934,39.962\O,0,4.911,52.738,39.135\O,0,5.352,50.52,39.80
 7\C,0,4.796,49.972,38.637\C,0,9.183,49.94,35.134\C,0,8.236,50.218,33.9
 33\C,0,6.901,50.105,33.772\C,0,5.984,49.48,34.833\C,0,6.281,50.449,32.
 396\C,0,6.181,51.883,32.112\C,0,7.306,52.305,31.193\C,0,6.878,53.454,3
 0.233\C,0,6.564,52.979,28.818\C,0,7.998,54.449,30.113\C,0,8.011,55.437
 ,31.325\C,0,9.41,55.508,32.002\C,0,10.244,56.741,31.681\C,0,9.522,58.1
 35,32.016\C,0,10.887,56.753,30.224\C,0,12.372,56.193,30.207\C,0,13.365
 ,57.385,30.185\C,0,14.461,57.12,29.142\C,0,15.877,57.621,29.411\C,0,13
 .922,57.642,27.781\H,0,11.687,55.764,40.089\H,0,8.332,61.073,41.344\H,
 0,3.252,57.433,43.635\H,0,9.018,51.75,41.107\H,0,11.187,53.147,40.119\
 H,0,10.601,52.287,42.689\H,0,11.03,54.09,42.686\H,0,12.003,52.894,41.8
 74\H,0,9.435,52.683,38.34\H,0,7.775,52.653,38.575\H,0,7.739,50.465,38.
 834\H,0,9.336,50.338,39.625\H,0,13.35,58.534,40.064\H,0,12.538,58.834,
 38.465\H,0,12.645,57.238,39.144\H,0,10.18,62.528,41.396\H,0,9.256,62.4
 36,39.883\H,0,10.868,63.229,40.061\H,0,5.413,61.221,41.619\H,0,4.751,6
 0.04,44.349\H,0,7.576,62.025,43.184\H,0,6.349,61.977,44.492\H,0,5.916,
 62.833,43.166\H,0,3.099,61.41,42.52\H,0,2.617,60.248,43.781\H,0,1.869,
 60.304,41.335\H,0,1.78,58.704,42.108\H,0,3.217,59.142,41.072\H,0,2.474
 ,53.891,44.489\H,0,1.984,53.997,42.831\H,0,1.915,55.552,43.775\H,0,6.4
 06,51.37,41.753\H,0,4.828,48.883,38.585\H,0,5.365,50.362,37.794\H,0,3.
 76,50.312,38.634\H,0,9.168,48.853,35.206\H,0,10.199,50.335,35.123\H,0,
 8.791,50.624,33.087\H,0,6.432,48.535,35.14\H,0,5.014,49.178,34.438\H,0
 ,5.929,50.136,35.701\H,0,5.264,50.139,32.157\H,0,6.78,49.885,31.609\H,
 0,6.288,52.4,33.066\H,0,5.205,52.23,31.772\H,0,7.812,51.543,30.601\H,0
 ,8.083,52.569,31.91\H,0,5.938,53.814,30.651\H,0,5.721,53.486,28.348\H,
 0,6.379,51.905,28.82\H,0,7.282,53.397,28.112\H,0,7.908,55.121,29.259\H
 ,0,8.887,53.878,29.846\H,0,7.284,55.183,32.096\H,0,7.788,56.467,31.049
 \H,0,10.049,54.633,31.882\H,0,9.284,55.501,33.085\H,0,11.105,56.5,32.3
 04\H,0,9.372,58.632,31.057\H,0,10.165,58.656,32.726\H,0,8.504,58.022,3
 2.387\H,0,10.782,57.743,29.78\H,0,10.204,56.202,29.578\H,0,12.454,55.5
 15,29.357\H,0,12.482,55.569,31.094\H,0,14.017,57.444,31.056\H,0,12.871
 ,58.349,30.063\H,0,14.647,56.069,28.92\H,0,16.572,56.807,29.616\H,0,15
 .956,58.346,30.222\H,0,16.263,58.173,28.554\H,0,14.619,57.528,26.951\H
 ,0,13.882,58.73,27.836\H,0,13.027,57.043,27.612\\Version=ES64L-G16RevA
 .03\State=1-A\HF=-3007.0919826\RMSD=5.687e-09\PG=C01 [X(C55H74Mg1N4O6)
 ]\\@


 Just remember, when you're over the hill, you begin to pick up speed.
 -- Charles Schulz
 Job cpu time:       0 days 18 hours 21 minutes 14.4 seconds.
 Elapsed time:       0 days  0 hours 46 minutes 21.5 seconds.
 File lengths (MBytes):  RWF=   8929 Int=      0 D2E=      0 Chk=    390 Scr=      1
 Normal termination of Gaussian 16 at Wed May  4 23:50:32 2022.
