 Entering Gaussian System, Link 0=g16
 Initial command:
 /sw/apps/gaussian-16.0/g16/l1.exe "/tmp/Gau-40401.inp" -scrdir="/tmp/"
 Entering Link 1 = /sw/apps/gaussian-16.0/g16/l1.exe PID=     40402.
  
 Copyright (c) 1988,1990,1992,1993,1995,1998,2003,2009,2016,
            Gaussian, Inc.  All Rights Reserved.
  
 This is part of the Gaussian(R) 16 program.  It is based on
 the Gaussian(R) 09 system (copyright 2009, Gaussian, Inc.),
 the Gaussian(R) 03 system (copyright 2003, Gaussian, Inc.),
 the Gaussian(R) 98 system (copyright 1998, Gaussian, Inc.),
 the Gaussian(R) 94 system (copyright 1995, Gaussian, Inc.),
 the Gaussian 92(TM) system (copyright 1992, Gaussian, Inc.),
 the Gaussian 90(TM) system (copyright 1990, Gaussian, Inc.),
 the Gaussian 88(TM) system (copyright 1988, Gaussian, Inc.),
 the Gaussian 86(TM) system (copyright 1986, Carnegie Mellon
 University), and the Gaussian 82(TM) system (copyright 1983,
 Carnegie Mellon University). Gaussian is a federally registered
 trademark of Gaussian, Inc.
  
 This software contains proprietary and confidential information,
 including trade secrets, belonging to Gaussian, Inc.
  
 This software is provided under written license and may be
 used, copied, transmitted, or stored only in accord with that
 written license.
  
 The following legend is applicable only to US Government
 contracts under FAR:
  
                    RESTRICTED RIGHTS LEGEND
  
 Use, reproduction and disclosure by the US Government is
 subject to restrictions as set forth in subparagraphs (a)
 and (c) of the Commercial Computer Software - Restricted
 Rights clause in FAR 52.227-19.
  
 Gaussian, Inc.
 340 Quinnipiac St., Bldg. 40, Wallingford CT 06492
  
  
 ---------------------------------------------------------------
 Warning -- This program may not be used in any manner that
 competes with the business of Gaussian, Inc. or will provide
 assistance to any competitor of Gaussian, Inc.  The licensee
 of this program is prohibited from giving any competitor of
 Gaussian, Inc. access to this program.  By using this program,
 the user acknowledges that Gaussian, Inc. is engaged in the
 business of creating and licensing software in the field of
 computational chemistry and represents and warrants to the
 licensee that it is not a competitor of Gaussian, Inc. and that
 it will not use this program in any manner prohibited above.
 ---------------------------------------------------------------
  

 Cite this work as:
 Gaussian 16, Revision A.03,
 M. J. Frisch, G. W. Trucks, H. B. Schlegel, G. E. Scuseria, 
 M. A. Robb, J. R. Cheeseman, G. Scalmani, V. Barone, 
 G. A. Petersson, H. Nakatsuji, X. Li, M. Caricato, A. V. Marenich, 
 J. Bloino, B. G. Janesko, R. Gomperts, B. Mennucci, H. P. Hratchian, 
 J. V. Ortiz, A. F. Izmaylov, J. L. Sonnenberg, D. Williams-Young, 
 F. Ding, F. Lipparini, F. Egidi, J. Goings, B. Peng, A. Petrone, 
 T. Henderson, D. Ranasinghe, V. G. Zakrzewski, J. Gao, N. Rega, 
 G. Zheng, W. Liang, M. Hada, M. Ehara, K. Toyota, R. Fukuda, 
 J. Hasegawa, M. Ishida, T. Nakajima, Y. Honda, O. Kitao, H. Nakai, 
 T. Vreven, K. Throssell, J. A. Montgomery, Jr., J. E. Peralta, 
 F. Ogliaro, M. J. Bearpark, J. J. Heyd, E. N. Brothers, K. N. Kudin, 
 V. N. Staroverov, T. A. Keith, R. Kobayashi, J. Normand, 
 K. Raghavachari, A. P. Rendell, J. C. Burant, S. S. Iyengar, 
 J. Tomasi, M. Cossi, J. M. Millam, M. Klene, C. Adamo, R. Cammi, 
 J. W. Ochterski, R. L. Martin, K. Morokuma, O. Farkas, 
 J. B. Foresman, and D. J. Fox, Gaussian, Inc., Wallingford CT, 2016.
 
 ******************************************
 Gaussian 16:  ES64L-G16RevA.03 25-Dec-2016
                 4-May-2022 
 ******************************************
 %nproc=24
 Will use up to   24 processors via shared memory.
 %mem=75GB
 ---------------------------------
 #p PBE1PBE/Def2SVP td=(nstates=5)
 ---------------------------------
 1/38=1,172=1/1;
 2/12=2,17=6,18=5,40=1/2;
 3/5=43,7=101,11=9,25=1,30=1,74=-13/1,2,3,8;
 4//1;
 5/5=2,38=5/2;
 8/6=1,10=1,108=5/1;
 9/41=5,42=1,70=2/14;
 6/7=2,8=2,9=2,10=2/1;
 99/5=1,9=1/99;
 Leave Link    1 at Wed May  4 23:50:32 2022, MaxMem= 10066329600 cpu:               0.6 elap:               0.0
 (Enter /sw/apps/gaussian-16.0/g16/l101.exe)
 -----------------------------------------------------
 step_501_chromophore_20 TDDFT with PBE1PBE functional
 -----------------------------------------------------
 Symbolic Z-matrix:
 Charge =  0 Multiplicity = 1
 Mg                    7.636     56.802    41.945 
 C                     6.625     53.446    41.385 
 C                     10.681    55.975    40.458 
 C                     8.032     60.025    41.405 
 C                     4.228     57.385    43.149 
 N                     8.45      54.913    40.781 
 C                     7.957     53.661    40.95 
 C                     8.99      52.648    40.49 
 C                     10.329    53.333    40.764 
 C                     9.814     54.854    40.608 
 C                     10.976    53.149    42.138 
 C                     8.688     52.223    38.987 
 C                     8.786     50.762    38.785 
 C                     9.472     50.264    37.498 
 O                     10.538    49.67     37.544 
 O                     8.683     50.519    36.406 
 N                     9.15      57.919    40.995 
 C                     10.372    57.384    40.517 
 C                     11.157    58.505    40.065 
 C                     10.496    59.72     40.387 
 C                     9.159     59.292    40.933 
 C                     12.516    58.288    39.407 
 C                     10.98     61.084    40.089 
 O                     12.058    61.217    39.523 
 C                     10.253    62.368    40.32 
 N                     6.193     58.496    42.173 
 C                     6.766     59.71     42.052 
 C                     5.813     60.813    42.547 
 C                     4.615     59.975    43.27 
 C                     5.024     58.526    42.899 
 C                     6.513     61.954    43.414 
 C                     3.166     60.373    42.848 
 C                     2.453     59.491    41.767 
 N                     5.854     55.731    42.223 
 C                     4.596     56.1      42.779 
 C                     3.778     54.831    43.012 
 C                     4.552     53.841    42.428 
 C                     5.79      54.434    41.99 
 C                     2.398     54.583    43.651 
 C                     4.627     52.438    42.17 
 O                     3.862     51.526    42.488 
 C                     5.871     52.243    41.379 
 C                     5.336     51.934    39.962 
 O                     4.911     52.738    39.135 
 O                     5.352     50.52     39.807 
 C                     4.796     49.972    38.637 
 C                     9.183     49.94     35.134 
 C                     8.236     50.218    33.933 
 C                     6.901     50.105    33.772 
 C                     5.984     49.48     34.833 
 C                     6.281     50.449    32.396 
 C                     6.181     51.883    32.112 
 C                     7.306     52.305    31.193 
 C                     6.878     53.454    30.233 
 C                     6.564     52.979    28.818 
 C                     7.998     54.449    30.113 
 C                     8.011     55.437    31.325 
 C                     9.41      55.508    32.002 
 C                     10.244    56.741    31.681 
 C                     9.522     58.135    32.016 
 C                     10.887    56.753    30.224 
 C                     12.372    56.193    30.207 
 C                     13.365    57.385    30.185 
 C                     14.461    57.12     29.142 
 C                     15.877    57.621    29.411 
 C                     13.922    57.642    27.781 
 H                     11.687    55.764    40.089 
 H                     8.332     61.073    41.344 
 H                     3.252     57.433    43.635 
 H                     9.018     51.75     41.107 
 H                     11.187    53.147    40.119 
 H                     10.601    52.287    42.689 
 H                     11.03     54.09     42.686 
 H                     12.003    52.894    41.874 
 H                     9.435     52.683    38.34 
 H                     7.775     52.653    38.575 
 H                     7.739     50.465    38.834 
 H                     9.336     50.338    39.625 
 H                     13.35     58.534    40.064 
 H                     12.538    58.834    38.465 
 H                     12.645    57.238    39.144 
 H                     10.18     62.528    41.396 
 H                     9.256     62.436    39.883 
 H                     10.868    63.229    40.061 
 H                     5.413     61.221    41.619 
 H                     4.751     60.04     44.349 
 H                     7.576     62.025    43.184 
 H                     6.349     61.977    44.492 
 H                     5.916     62.833    43.166 
 H                     3.099     61.41     42.52 
 H                     2.617     60.248    43.781 
 H                     1.869     60.304    41.335 
 H                     1.78      58.704    42.108 
 H                     3.217     59.142    41.072 
 H                     2.474     53.891    44.489 
 H                     1.984     53.997    42.831 
 H                     1.915     55.552    43.775 
 H                     6.406     51.37     41.753 
 H                     4.828     48.883    38.585 
 H                     5.365     50.362    37.794 
 H                     3.76      50.312    38.634 
 H                     9.168     48.853    35.206 
 H                     10.199    50.335    35.123 
 H                     8.791     50.624    33.087 
 H                     6.432     48.535    35.14 
 H                     5.014     49.178    34.438 
 H                     5.929     50.136    35.701 
 H                     5.264     50.139    32.157 
 H                     6.78      49.885    31.609 
 H                     6.288     52.4      33.066 
 H                     5.205     52.23     31.772 
 H                     7.812     51.543    30.601 
 H                     8.083     52.569    31.91 
 H                     5.938     53.814    30.651 
 H                     5.721     53.486    28.348 
 H                     6.379     51.905    28.82 
 H                     7.282     53.397    28.112 
 H                     7.908     55.121    29.259 
 H                     8.887     53.878    29.846 
 H                     7.284     55.183    32.096 
 H                     7.788     56.467    31.049 
 H                     10.049    54.633    31.882 
 H                     9.284     55.501    33.085 
 H                     11.105    56.5      32.304 
 H                     9.372     58.632    31.057 
 H                     10.165    58.656    32.726 
 H                     8.504     58.022    32.387 
 H                     10.782    57.743    29.78 
 H                     10.204    56.202    29.578 
 H                     12.454    55.515    29.357 
 H                     12.482    55.569    31.094 
 H                     14.017    57.444    31.056 
 H                     12.871    58.349    30.063 
 H                     14.647    56.069    28.92 
 H                     16.572    56.807    29.616 
 H                     15.956    58.346    30.222 
 H                     16.263    58.173    28.554 
 H                     14.619    57.528    26.951 
 H                     13.882    58.73     27.836 
 H                     13.027    57.043    27.612 
 
 ITRead=  0  0  0  0  0  0  0  0  0  0  0  0  0  0  0  0  0  0  0  0
 ITRead=  0  0  0  0  0  0  0  0  0  0  0  0  0  0  0  0  0  0  0  0
 ITRead=  0  0  0  0  0  0  0  0  0  0  0  0  0  0  0  0  0  0  0  0
 ITRead=  0  0  0  0  0  0  0  0  0  0  0  0  0  0  0  0  0  0  0  0
 ITRead=  0  0  0  0  0  0  0  0  0  0  0  0  0  0  0  0  0  0  0  0
 ITRead=  0  0  0  0  0  0  0  0  0  0  0  0  0  0  0  0  0  0  0  0
 ITRead=  0  0  0  0  0  0  0  0  0  0  0  0  0  0  0  0  0  0  0  0
 MicOpt= -1 -1 -1 -1 -1 -1 -1 -1 -1 -1 -1 -1 -1 -1 -1 -1 -1 -1 -1 -1
 MicOpt= -1 -1 -1 -1 -1 -1 -1 -1 -1 -1 -1 -1 -1 -1 -1 -1 -1 -1 -1 -1
 MicOpt= -1 -1 -1 -1 -1 -1 -1 -1 -1 -1 -1 -1 -1 -1 -1 -1 -1 -1 -1 -1
 MicOpt= -1 -1 -1 -1 -1 -1 -1 -1 -1 -1 -1 -1 -1 -1 -1 -1 -1 -1 -1 -1
 MicOpt= -1 -1 -1 -1 -1 -1 -1 -1 -1 -1 -1 -1 -1 -1 -1 -1 -1 -1 -1 -1
 MicOpt= -1 -1 -1 -1 -1 -1 -1 -1 -1 -1 -1 -1 -1 -1 -1 -1 -1 -1 -1 -1
 MicOpt= -1 -1 -1 -1 -1 -1 -1 -1 -1 -1 -1 -1 -1 -1 -1 -1 -1 -1 -1 -1
 NAtoms=    140 NQM=      140 NQMF=       0 NMMI=      0 NMMIF=      0
                NMic=       0 NMicF=      0.
                    Isotopes and Nuclear Properties:
 (Nuclear quadrupole moments (NQMom) in fm**2, nuclear magnetic moments (NMagM)
  in nuclear magnetons)

  Atom         1           2           3           4           5           6           7           8           9          10
 IAtWgt=          24          12          12          12          12          14          12          12          12          12
 AtmWgt=  23.9850450  12.0000000  12.0000000  12.0000000  12.0000000  14.0030740  12.0000000  12.0000000  12.0000000  12.0000000
 NucSpn=           0           0           0           0           0           2           0           0           0           0
 AtZEff=  -0.0000000  -0.0000000  -0.0000000  -0.0000000  -0.0000000  -0.0000000  -0.0000000  -0.0000000  -0.0000000  -0.0000000
 NQMom=    0.0000000   0.0000000   0.0000000   0.0000000   0.0000000   2.0440000   0.0000000   0.0000000   0.0000000   0.0000000
 NMagM=    0.0000000   0.0000000   0.0000000   0.0000000   0.0000000   0.4037610   0.0000000   0.0000000   0.0000000   0.0000000
 AtZNuc=  12.0000000   6.0000000   6.0000000   6.0000000   6.0000000   7.0000000   6.0000000   6.0000000   6.0000000   6.0000000

  Atom        11          12          13          14          15          16          17          18          19          20
 IAtWgt=          12          12          12          12          16          16          14          12          12          12
 AtmWgt=  12.0000000  12.0000000  12.0000000  12.0000000  15.9949146  15.9949146  14.0030740  12.0000000  12.0000000  12.0000000
 NucSpn=           0           0           0           0           0           0           2           0           0           0
 AtZEff=  -0.0000000  -0.0000000  -0.0000000  -0.0000000  -0.0000000  -0.0000000  -0.0000000  -0.0000000  -0.0000000  -0.0000000
 NQMom=    0.0000000   0.0000000   0.0000000   0.0000000   0.0000000   0.0000000   2.0440000   0.0000000   0.0000000   0.0000000
 NMagM=    0.0000000   0.0000000   0.0000000   0.0000000   0.0000000   0.0000000   0.4037610   0.0000000   0.0000000   0.0000000
 AtZNuc=   6.0000000   6.0000000   6.0000000   6.0000000   8.0000000   8.0000000   7.0000000   6.0000000   6.0000000   6.0000000

  Atom        21          22          23          24          25          26          27          28          29          30
 IAtWgt=          12          12          12          16          12          14          12          12          12          12
 AtmWgt=  12.0000000  12.0000000  12.0000000  15.9949146  12.0000000  14.0030740  12.0000000  12.0000000  12.0000000  12.0000000
 NucSpn=           0           0           0           0           0           2           0           0           0           0
 AtZEff=  -0.0000000  -0.0000000  -0.0000000  -0.0000000  -0.0000000  -0.0000000  -0.0000000  -0.0000000  -0.0000000  -0.0000000
 NQMom=    0.0000000   0.0000000   0.0000000   0.0000000   0.0000000   2.0440000   0.0000000   0.0000000   0.0000000   0.0000000
 NMagM=    0.0000000   0.0000000   0.0000000   0.0000000   0.0000000   0.4037610   0.0000000   0.0000000   0.0000000   0.0000000
 AtZNuc=   6.0000000   6.0000000   6.0000000   8.0000000   6.0000000   7.0000000   6.0000000   6.0000000   6.0000000   6.0000000

  Atom        31          32          33          34          35          36          37          38          39          40
 IAtWgt=          12          12          12          14          12          12          12          12          12          12
 AtmWgt=  12.0000000  12.0000000  12.0000000  14.0030740  12.0000000  12.0000000  12.0000000  12.0000000  12.0000000  12.0000000
 NucSpn=           0           0           0           2           0           0           0           0           0           0
 AtZEff=  -0.0000000  -0.0000000  -0.0000000  -0.0000000  -0.0000000  -0.0000000  -0.0000000  -0.0000000  -0.0000000  -0.0000000
 NQMom=    0.0000000   0.0000000   0.0000000   2.0440000   0.0000000   0.0000000   0.0000000   0.0000000   0.0000000   0.0000000
 NMagM=    0.0000000   0.0000000   0.0000000   0.4037610   0.0000000   0.0000000   0.0000000   0.0000000   0.0000000   0.0000000
 AtZNuc=   6.0000000   6.0000000   6.0000000   7.0000000   6.0000000   6.0000000   6.0000000   6.0000000   6.0000000   6.0000000

  Atom        41          42          43          44          45          46          47          48          49          50
 IAtWgt=          16          12          12          16          16          12          12          12          12          12
 AtmWgt=  15.9949146  12.0000000  12.0000000  15.9949146  15.9949146  12.0000000  12.0000000  12.0000000  12.0000000  12.0000000
 NucSpn=           0           0           0           0           0           0           0           0           0           0
 AtZEff=  -0.0000000  -0.0000000  -0.0000000  -0.0000000  -0.0000000  -0.0000000  -0.0000000  -0.0000000  -0.0000000  -0.0000000
 NQMom=    0.0000000   0.0000000   0.0000000   0.0000000   0.0000000   0.0000000   0.0000000   0.0000000   0.0000000   0.0000000
 NMagM=    0.0000000   0.0000000   0.0000000   0.0000000   0.0000000   0.0000000   0.0000000   0.0000000   0.0000000   0.0000000
 AtZNuc=   8.0000000   6.0000000   6.0000000   8.0000000   8.0000000   6.0000000   6.0000000   6.0000000   6.0000000   6.0000000

  Atom        51          52          53          54          55          56          57          58          59          60
 IAtWgt=          12          12          12          12          12          12          12          12          12          12
 AtmWgt=  12.0000000  12.0000000  12.0000000  12.0000000  12.0000000  12.0000000  12.0000000  12.0000000  12.0000000  12.0000000
 NucSpn=           0           0           0           0           0           0           0           0           0           0
 AtZEff=  -0.0000000  -0.0000000  -0.0000000  -0.0000000  -0.0000000  -0.0000000  -0.0000000  -0.0000000  -0.0000000  -0.0000000
 NQMom=    0.0000000   0.0000000   0.0000000   0.0000000   0.0000000   0.0000000   0.0000000   0.0000000   0.0000000   0.0000000
 NMagM=    0.0000000   0.0000000   0.0000000   0.0000000   0.0000000   0.0000000   0.0000000   0.0000000   0.0000000   0.0000000
 AtZNuc=   6.0000000   6.0000000   6.0000000   6.0000000   6.0000000   6.0000000   6.0000000   6.0000000   6.0000000   6.0000000

  Atom        61          62          63          64          65          66          67          68          69          70
 IAtWgt=          12          12          12          12          12          12           1           1           1           1
 AtmWgt=  12.0000000  12.0000000  12.0000000  12.0000000  12.0000000  12.0000000   1.0078250   1.0078250   1.0078250   1.0078250
 NucSpn=           0           0           0           0           0           0           1           1           1           1
 AtZEff=  -0.0000000  -0.0000000  -0.0000000  -0.0000000  -0.0000000  -0.0000000  -0.0000000  -0.0000000  -0.0000000  -0.0000000
 NQMom=    0.0000000   0.0000000   0.0000000   0.0000000   0.0000000   0.0000000   0.0000000   0.0000000   0.0000000   0.0000000
 NMagM=    0.0000000   0.0000000   0.0000000   0.0000000   0.0000000   0.0000000   2.7928460   2.7928460   2.7928460   2.7928460
 AtZNuc=   6.0000000   6.0000000   6.0000000   6.0000000   6.0000000   6.0000000   1.0000000   1.0000000   1.0000000   1.0000000

  Atom        71          72          73          74          75          76          77          78          79          80
 IAtWgt=           1           1           1           1           1           1           1           1           1           1
 AtmWgt=   1.0078250   1.0078250   1.0078250   1.0078250   1.0078250   1.0078250   1.0078250   1.0078250   1.0078250   1.0078250
 NucSpn=           1           1           1           1           1           1           1           1           1           1
 AtZEff=  -0.0000000  -0.0000000  -0.0000000  -0.0000000  -0.0000000  -0.0000000  -0.0000000  -0.0000000  -0.0000000  -0.0000000
 NQMom=    0.0000000   0.0000000   0.0000000   0.0000000   0.0000000   0.0000000   0.0000000   0.0000000   0.0000000   0.0000000
 NMagM=    2.7928460   2.7928460   2.7928460   2.7928460   2.7928460   2.7928460   2.7928460   2.7928460   2.7928460   2.7928460
 AtZNuc=   1.0000000   1.0000000   1.0000000   1.0000000   1.0000000   1.0000000   1.0000000   1.0000000   1.0000000   1.0000000

  Atom        81          82          83          84          85          86          87          88          89          90
 IAtWgt=           1           1           1           1           1           1           1           1           1           1
 AtmWgt=   1.0078250   1.0078250   1.0078250   1.0078250   1.0078250   1.0078250   1.0078250   1.0078250   1.0078250   1.0078250
 NucSpn=           1           1           1           1           1           1           1           1           1           1
 AtZEff=  -0.0000000  -0.0000000  -0.0000000  -0.0000000  -0.0000000  -0.0000000  -0.0000000  -0.0000000  -0.0000000  -0.0000000
 NQMom=    0.0000000   0.0000000   0.0000000   0.0000000   0.0000000   0.0000000   0.0000000   0.0000000   0.0000000   0.0000000
 NMagM=    2.7928460   2.7928460   2.7928460   2.7928460   2.7928460   2.7928460   2.7928460   2.7928460   2.7928460   2.7928460
 AtZNuc=   1.0000000   1.0000000   1.0000000   1.0000000   1.0000000   1.0000000   1.0000000   1.0000000   1.0000000   1.0000000

  Atom        91          92          93          94          95          96          97          98          99         100
 IAtWgt=           1           1           1           1           1           1           1           1           1           1
 AtmWgt=   1.0078250   1.0078250   1.0078250   1.0078250   1.0078250   1.0078250   1.0078250   1.0078250   1.0078250   1.0078250
 NucSpn=           1           1           1           1           1           1           1           1           1           1
 AtZEff=  -0.0000000  -0.0000000  -0.0000000  -0.0000000  -0.0000000  -0.0000000  -0.0000000  -0.0000000  -0.0000000  -0.0000000
 NQMom=    0.0000000   0.0000000   0.0000000   0.0000000   0.0000000   0.0000000   0.0000000   0.0000000   0.0000000   0.0000000
 NMagM=    2.7928460   2.7928460   2.7928460   2.7928460   2.7928460   2.7928460   2.7928460   2.7928460   2.7928460   2.7928460
 AtZNuc=   1.0000000   1.0000000   1.0000000   1.0000000   1.0000000   1.0000000   1.0000000   1.0000000   1.0000000   1.0000000

  Atom       101         102         103         104         105         106         107         108         109         110
 IAtWgt=           1           1           1           1           1           1           1           1           1           1
 AtmWgt=   1.0078250   1.0078250   1.0078250   1.0078250   1.0078250   1.0078250   1.0078250   1.0078250   1.0078250   1.0078250
 NucSpn=           1           1           1           1           1           1           1           1           1           1
 AtZEff=  -0.0000000  -0.0000000  -0.0000000  -0.0000000  -0.0000000  -0.0000000  -0.0000000  -0.0000000  -0.0000000  -0.0000000
 NQMom=    0.0000000   0.0000000   0.0000000   0.0000000   0.0000000   0.0000000   0.0000000   0.0000000   0.0000000   0.0000000
 NMagM=    2.7928460   2.7928460   2.7928460   2.7928460   2.7928460   2.7928460   2.7928460   2.7928460   2.7928460   2.7928460
 AtZNuc=   1.0000000   1.0000000   1.0000000   1.0000000   1.0000000   1.0000000   1.0000000   1.0000000   1.0000000   1.0000000

  Atom       111         112         113         114         115         116         117         118         119         120
 IAtWgt=           1           1           1           1           1           1           1           1           1           1
 AtmWgt=   1.0078250   1.0078250   1.0078250   1.0078250   1.0078250   1.0078250   1.0078250   1.0078250   1.0078250   1.0078250
 NucSpn=           1           1           1           1           1           1           1           1           1           1
 AtZEff=  -0.0000000  -0.0000000  -0.0000000  -0.0000000  -0.0000000  -0.0000000  -0.0000000  -0.0000000  -0.0000000  -0.0000000
 NQMom=    0.0000000   0.0000000   0.0000000   0.0000000   0.0000000   0.0000000   0.0000000   0.0000000   0.0000000   0.0000000
 NMagM=    2.7928460   2.7928460   2.7928460   2.7928460   2.7928460   2.7928460   2.7928460   2.7928460   2.7928460   2.7928460
 AtZNuc=   1.0000000   1.0000000   1.0000000   1.0000000   1.0000000   1.0000000   1.0000000   1.0000000   1.0000000   1.0000000

  Atom       121         122         123         124         125         126         127         128         129         130
 IAtWgt=           1           1           1           1           1           1           1           1           1           1
 AtmWgt=   1.0078250   1.0078250   1.0078250   1.0078250   1.0078250   1.0078250   1.0078250   1.0078250   1.0078250   1.0078250
 NucSpn=           1           1           1           1           1           1           1           1           1           1
 AtZEff=  -0.0000000  -0.0000000  -0.0000000  -0.0000000  -0.0000000  -0.0000000  -0.0000000  -0.0000000  -0.0000000  -0.0000000
 NQMom=    0.0000000   0.0000000   0.0000000   0.0000000   0.0000000   0.0000000   0.0000000   0.0000000   0.0000000   0.0000000
 NMagM=    2.7928460   2.7928460   2.7928460   2.7928460   2.7928460   2.7928460   2.7928460   2.7928460   2.7928460   2.7928460
 AtZNuc=   1.0000000   1.0000000   1.0000000   1.0000000   1.0000000   1.0000000   1.0000000   1.0000000   1.0000000   1.0000000

  Atom       131         132         133         134         135         136         137         138         139         140
 IAtWgt=           1           1           1           1           1           1           1           1           1           1
 AtmWgt=   1.0078250   1.0078250   1.0078250   1.0078250   1.0078250   1.0078250   1.0078250   1.0078250   1.0078250   1.0078250
 NucSpn=           1           1           1           1           1           1           1           1           1           1
 AtZEff=  -0.0000000  -0.0000000  -0.0000000  -0.0000000  -0.0000000  -0.0000000  -0.0000000  -0.0000000  -0.0000000  -0.0000000
 NQMom=    0.0000000   0.0000000   0.0000000   0.0000000   0.0000000   0.0000000   0.0000000   0.0000000   0.0000000   0.0000000
 NMagM=    2.7928460   2.7928460   2.7928460   2.7928460   2.7928460   2.7928460   2.7928460   2.7928460   2.7928460   2.7928460
 AtZNuc=   1.0000000   1.0000000   1.0000000   1.0000000   1.0000000   1.0000000   1.0000000   1.0000000   1.0000000   1.0000000
 Leave Link  101 at Wed May  4 23:50:32 2022, MaxMem= 10066329600 cpu:               2.7 elap:               0.1
 (Enter /sw/apps/gaussian-16.0/g16/l202.exe)
 Stoichiometry    C55H74MgN4O6
 Framework group  C1[X(C55H74MgN4O6)]
 Deg. of freedom   414
 Full point group                 C1      NOp   1
 Largest Abelian subgroup         C1      NOp   1
 Largest concise Abelian subgroup C1      NOp   1
                         Standard orientation:                         
 ---------------------------------------------------------------------
 Center     Atomic      Atomic             Coordinates (Angstroms)
 Number     Number       Type             X           Y           Z
 ---------------------------------------------------------------------
      1         12           0       -4.189749    1.116798    0.695616
      2          6           0       -3.400641   -2.331854    0.982957
      3          6           0       -1.593433    1.744215    2.938964
      4          6           0       -4.163920    4.189053   -0.486218
      5          6           0       -6.609265    0.113796   -1.862488
      6          7           0       -2.478478   -0.200228    1.656245
      7          6           0       -2.571251   -1.543293    1.819592
      8          6           0       -1.592790   -1.987704    2.891959
      9          6           0       -1.499132   -0.784456    3.830386
     10          6           0       -1.825964    0.353246    2.734112
     11          6           0       -2.493812   -0.681860    4.988154
     12          6           0       -0.242741   -2.481732    2.210680
     13          6           0        0.253029   -3.745358    2.795821
     14          6           0        1.768817   -3.870318    3.044299
     15          8           0        2.216323   -3.931452    4.178895
     16          8           0        2.441512   -3.976027    1.854207
     17          7           0       -2.994643    2.801702    1.114191
     18          6           0       -2.023099    2.869762    2.143494
     19          6           0       -1.542983    4.228584    2.159676
     20          6           0       -2.301509    5.020716    1.257458
     21          6           0       -3.194094    4.037454    0.546573
     22          6           0       -0.418152    4.644880    3.102218
     23          6           0       -2.114928    6.461984    0.990081
     24          8           0       -1.239981    7.066364    1.597798
     25          6           0       -2.826507    7.288004   -0.030650
     26          7           0       -5.229539    1.993383   -1.080420
     27          6           0       -5.145230    3.337144   -1.143388
     28          6           0       -6.144430    3.897183   -2.171881
     29          6           0       -7.072458    2.605461   -2.532986
     30          6           0       -6.314054    1.492634   -1.764244
     31          6           0       -6.906318    5.218116   -1.704726
     32          6           0       -7.274131    2.326468   -4.055346
     33          6           0       -6.369771    1.234925   -4.722820
     34          7           0       -4.872914   -0.636274   -0.231677
     35          6           0       -5.897281   -0.870172   -1.192835
     36          6           0       -6.160524   -2.373271   -1.264730
     37          6           0       -5.164527   -2.910039   -0.464665
     38          6           0       -4.437091   -1.824179    0.141867
     39          6           0       -7.187526   -3.215483   -2.045865
     40          6           0       -4.636566   -4.131080    0.055829
     41          8           0       -5.026355   -5.291828   -0.081368
     42          6           0       -3.434786   -3.744150    0.841481
     43          6           0       -2.267916   -4.238540   -0.043725
     44          8           0       -1.812810   -3.694536   -1.047671
     45          8           0       -1.853107   -5.496988    0.473885
     46          6           0       -0.874753   -6.218348   -0.233788
     47          6           0        3.893014   -4.256173    1.987939
     48          6           0        4.605263   -4.409723    0.614760
     49          6           0        4.301441   -5.099952   -0.504253
     50          6           0        3.123063   -6.080948   -0.583671
     51          6           0        5.277280   -5.047123   -1.704694
     52          6           0        5.231052   -3.801889   -2.475582
     53          6           0        6.391363   -2.912739   -2.086528
     54          6           0        6.902040   -2.058933   -3.284530
     55          6           0        8.176685   -2.604313   -3.920365
     56          6           0        7.220473   -0.669309   -2.808745
     57          6           0        5.928268    0.205496   -2.707839
     58          6           0        5.790057    0.879298   -1.312325
     59          6           0        6.146370    2.358421   -1.248118
     60          6           0        5.320519    3.283838   -2.267097
     61          6           0        7.706281    2.673985   -1.307602
     62          6           0        8.353410    2.829735    0.133259
     63          6           0        8.499894    4.338385    0.464792
     64          6           0        9.893321    4.600499    1.055508
     65          6           0       10.053587    5.672953    2.129089
     66          6           0       10.850465    4.848567   -0.143517
     67          1           0       -0.859419    2.005597    3.704223
     68          1           0       -4.199853    5.262280   -0.683492
     69          1           0       -7.409025   -0.282047   -2.490795
     70          1           0       -1.978340   -2.788879    3.522314
     71          1           0       -0.569438   -0.562392    4.353016
     72          1           0       -2.968388   -1.628300    5.245637
     73          1           0       -3.154432    0.178116    4.875359
     74          1           0       -1.840224   -0.452073    5.830454
     75          1           0        0.527426   -1.729643    2.382215
     76          1           0       -0.269856   -2.494832    1.121044
     77          1           0       -0.106412   -4.475913    2.072004
     78          1           0       -0.241530   -3.893516    3.755683
     79          1           0       -0.771142    5.225664    3.954162
     80          1           0        0.349291    5.157103    2.523752
     81          1           0        0.066808    3.764289    3.523741
     82          1           0       -3.868140    7.384290    0.276650
     83          1           0       -2.792063    6.913516   -1.054454
     84          1           0       -2.534228    8.335796    0.027081
     85          1           0       -5.513139    4.098630   -3.037062
     86          1           0       -8.024895    2.709083   -2.014250
     87          1           0       -6.332724    5.755638   -0.949763
     88          1           0       -7.956116    5.151256   -1.416690
     89          1           0       -7.056610    5.745215   -2.648194
     90          1           0       -7.193361    3.231005   -4.657617
     91          1           0       -8.299456    1.958444   -4.083308
     92          1           0       -6.334456    1.711148   -5.702929
     93          1           0       -6.771673    0.226663   -4.825094
     94          1           0       -5.396761    1.269924   -4.232362
     95          1           0       -7.797429   -3.813768   -1.369878
     96          1           0       -6.472299   -3.912857   -2.480964
     97          1           0       -7.655194   -2.562345   -2.782291
     98          1           0       -3.422987   -4.295061    1.782006
     99          1           0       -0.610030   -7.179764    0.208083
    100          1           0        0.025147   -5.605133   -0.259442
    101          1           0       -1.303031   -6.372237   -1.224647
    102          1           0        4.027142   -5.238317    2.440024
    103          1           0        4.188157   -3.452011    2.662190
    104          1           0        5.499930   -3.788321    0.569960
    105          1           0        3.179032   -6.734008    0.287167
    106          1           0        3.198507   -6.775769   -1.420128
    107          1           0        2.184600   -5.529154   -0.543713
    108          1           0        5.194708   -5.772078   -2.514096
    109          1           0        6.281360   -5.320949   -1.383280
    110          1           0        4.297436   -3.304162   -2.211986
    111          1           0        5.131368   -3.918288   -3.554980
    112          1           0        7.256724   -3.363663   -1.601800
    113          1           0        5.959835   -2.341885   -1.264686
    114          1           0        6.118358   -2.158185   -4.035473
    115          1           0        8.212929   -2.516585   -5.006454
    116          1           0        8.312287   -3.649114   -3.641603
    117          1           0        8.998561   -1.901906   -3.779552
    118          1           0        7.843853   -0.094933   -3.494667
    119          1           0        7.887659   -0.783885   -1.954704
    120          1           0        5.012682   -0.354764   -2.895712
    121          1           0        5.907502    1.033963   -3.414957
    122          1           0        6.291531    0.379455   -0.483454
    123          1           0        4.754802    0.802301   -0.978959
    124          1           0        5.926099    2.515028   -0.192426
    125          1           0        6.051898    3.676204   -2.974434
    126          1           0        4.799402    4.025857   -1.661428
    127          1           0        4.641644    2.726645   -2.911611
    128          1           0        7.888728    3.521159   -1.968867
    129          1           0        8.160284    1.886476   -1.908532
    130          1           0        9.289101    2.269926    0.131578
    131          1           0        7.697814    2.306793    0.829658
    132          1           0        7.921790    4.667982    1.327572
    133          1           0        8.254598    4.985561   -0.377354
    134          1           0       10.361097    3.743685    1.540831
    135          1           0       10.265678    5.248114    3.109994
    136          1           0        9.201737    6.346728    2.228920
    137          1           0       10.870911    6.350563    1.882158
    138          1           0       11.879005    5.066440    0.143439
    139          1           0       10.580351    5.805503   -0.590375
    140          1           0       10.801576    3.917577   -0.708542
 ---------------------------------------------------------------------
 Rotational constants (GHZ):           0.0301337           0.0177321           0.0136497
 Leave Link  202 at Wed May  4 23:50:32 2022, MaxMem= 10066329600 cpu:               0.5 elap:               0.0
 (Enter /sw/apps/gaussian-16.0/g16/l301.exe)
 Standard basis: def2SVP (5D, 7F)
 Ernie: Thresh=  0.10000D-02 Tol=  0.10000D-05 Strict=F.
 There are  1364 symmetry adapted cartesian basis functions of A   symmetry.
 There are  1298 symmetry adapted basis functions of A   symmetry.
  1298 basis functions,  2180 primitive gaussians,  1364 cartesian basis functions
   246 alpha electrons      246 beta electrons
       nuclear repulsion energy      9975.3893658635 Hartrees.
 IExCor= 1009 DFT=T Ex+Corr=PBE1PBE ExCW=0 ScaHFX=  0.250000
 ScaDFX=  0.750000  0.750000  1.000000  1.000000 ScalE2=  1.000000  1.000000
 IRadAn=      5 IRanWt=     -1 IRanGd=            0 ICorTp=0 IEmpDi=  4
 NAtoms=  140 NActive=  140 NUniq=  140 SFac= 1.00D+00 NAtFMM=   60 NAOKFM=T Big=T
 Integral buffers will be    131072 words long.
 Regular integral format.
 Two-electron integral symmetry is turned on.
 Leave Link  301 at Wed May  4 23:50:32 2022, MaxMem= 10066329600 cpu:               1.3 elap:               0.1
 (Enter /sw/apps/gaussian-16.0/g16/l302.exe)
 NPDir=0 NMtPBC=     1 NCelOv=     1 NCel=       1 NClECP=     1 NCelD=      1
         NCelK=      1 NCelE2=     1 NClLst=     1 CellRange=     0.0.
 One-electron integrals computed using PRISM.
 One-electron integral symmetry used in STVInt
   1 Symmetry operations used in ECPInt.
 ECPInt:  NShTT=  192510 NPrTT=  683786 LenC2=  106743 LenP2D=  226735.
 LDataN:  DoStor=T MaxTD1= 4 Len=   56
 NBasis=  1298 RedAO= T EigKep=  2.92D-04  NBF=  1298
 NBsUse=  1298 1.00D-06 EigRej= -1.00D+00 NBFU=  1298
 Precomputing XC quadrature grid using
 IXCGrd= 4 IRadAn=           5 IRanWt=          -1 IRanGd=           0 AccXCQ= 0.00D+00.
 Generated NRdTot=       0 NPtTot=           0 NUsed=           0 NTot=          32
 NSgBfM=  1020  1006  1010  1012  1020 MxSgAt=   140 MxSgA2=   140.
 Leave Link  302 at Wed May  4 23:50:36 2022, MaxMem= 10066329600 cpu:              82.3 elap:               3.5
 (Enter /sw/apps/gaussian-16.0/g16/l303.exe)
 DipDrv:  MaxL=1.
 Leave Link  303 at Wed May  4 23:50:36 2022, MaxMem= 10066329600 cpu:               6.9 elap:               0.3
 (Enter /sw/apps/gaussian-16.0/g16/l308.exe)
 Leave Link  308 at Wed May  4 23:50:37 2022, MaxMem= 10066329600 cpu:              10.2 elap:               0.5
 (Enter /sw/apps/gaussian-16.0/g16/l401.exe)
 ExpMin= 3.36D-02 ExpMax= 4.95D+03 ExpMxC= 7.45D+02 IAcc=3 IRadAn=         5 AccDes= 0.00D+00
 Harris functional with IExCor= 1009 and IRadAn=       5 diagonalized for initial guess.
 HarFok:  IExCor= 1009 AccDes= 0.00D+00 IRadAn=         5 IDoV= 1 UseB2=F ITyADJ=14
 ICtDFT=  3500011 ScaDFX=  1.000000  1.000000  1.000000  1.000000
 FoFCou: FMM=F IPFlag=           0 FMFlag=      100000 FMFlg1=        2001
         NFxFlg=           0 DoJE=T BraDBF=F KetDBF=T FulRan=T
         wScrn=  0.000000 ICntrl=       500 IOpCl=  0 I1Cent=   200000004 NGrid=           0
         NMat0=    1 NMatS0=      1 NMatT0=    0 NMatD0=    1 NMtDS0=    0 NMtDT0=    0
 Petite list used in FoFCou.
 Harris En= -3006.08983027080    
 JPrj=0 DoOrth=F DoCkMO=F.
 Leave Link  401 at Wed May  4 23:50:44 2022, MaxMem= 10066329600 cpu:             182.3 elap:               7.6
 (Enter /sw/apps/gaussian-16.0/g16/l502.exe)
 Integral symmetry usage will be decided dynamically.
 Closed shell SCF:
 Using DIIS extrapolation, IDIIS=  1040.
 NGot= 10066329600 LenX= 10062561258 LenY= 10060699398
 Requested convergence on RMS density matrix=1.00D-08 within 128 cycles.
 Requested convergence on MAX density matrix=1.00D-06.
 Requested convergence on             energy=1.00D-06.
 No special actions if energy rises.
 Fock matrices will be formed incrementally for  20 cycles.

 Cycle   1  Pass 1  IDiag  1:
 FoFJK:  IHMeth= 1 ICntrl=       0 DoSepK=F KAlg= 0 I1Cent=           0 FoldK=F
 IRaf= 560000000 NMat=       1 IRICut=       1 DoRegI=T DoRafI=F ISym2E= 0 IDoP0=0 IntGTp=1.
 FoFCou: FMM=T IPFlag=           0 FMFlag=      100000 FMFlg1=        2001
         NFxFlg=           0 DoJE=F BraDBF=F KetDBF=F FulRan=T
         wScrn=  0.000000 ICntrl=         0 IOpCl=  0 I1Cent=           0 NGrid=           0
         NMat0=    1 NMatS0=      1 NMatT0=    0 NMatD0=    1 NMtDS0=    0 NMtDT0=    0
 Symmetry not used in FoFCou.
 FMM levels:  10  Number of levels for PrismC:   9
 E= -3003.73913272625    
 DIIS: error= 1.95D-02 at cycle   1 NSaved=   1.
 NSaved= 1 IEnMin= 1 EnMin= -3003.73913272625     IErMin= 1 ErrMin= 1.95D-02
 ErrMax= 1.95D-02  0.00D+00 EMaxC= 1.00D-01 BMatC= 1.46D+00 BMatP= 1.46D+00
 IDIUse=3 WtCom= 8.05D-01 WtEn= 1.95D-01
 Coeff-Com:  0.100D+01
 Coeff-En:   0.100D+01
 Coeff:      0.100D+01
 Gap=     0.096 Goal=   None    Shift=    0.000
 GapD=    0.096 DampG=0.500 DampE=0.500 DampFc=0.2500 IDamp=-1.
 Damping current iteration by 2.50D-01
 RMSDP=2.89D-03 MaxDP=6.98D-01              OVMax= 2.99D-01

 Cycle   2  Pass 1  IDiag  1:
 RMSU=  7.17D-04    CP:  9.91D-01
 E= -3004.29258451168     Delta-E=       -0.553451785432 Rises=F Damp=T
 DIIS: error= 8.67D-03 at cycle   2 NSaved=   2.
 NSaved= 2 IEnMin= 2 EnMin= -3004.29258451168     IErMin= 2 ErrMin= 8.67D-03
 ErrMax= 8.67D-03  0.00D+00 EMaxC= 1.00D-01 BMatC= 3.63D-01 BMatP= 1.46D+00
 IDIUse=3 WtCom= 9.13D-01 WtEn= 8.67D-02
 Coeff-Com: -0.780D+00 0.178D+01
 Coeff-En:   0.000D+00 0.100D+01
 Coeff:     -0.712D+00 0.171D+01
 Gap=     0.192 Goal=   None    Shift=    0.000
 RMSDP=9.60D-04 MaxDP=5.67D-02 DE=-5.53D-01 OVMax= 2.01D-01

 Cycle   3  Pass 1  IDiag  1:
 RMSU=  8.29D-04    CP:  9.66D-01  1.60D+00
 E= -3005.15521530505     Delta-E=       -0.862630793370 Rises=F Damp=F
 DIIS: error= 8.64D-03 at cycle   3 NSaved=   3.
 NSaved= 3 IEnMin= 3 EnMin= -3005.15521530505     IErMin= 3 ErrMin= 8.64D-03
 ErrMax= 8.64D-03  0.00D+00 EMaxC= 1.00D-01 BMatC= 1.45D-01 BMatP= 3.63D-01
 IDIUse=3 WtCom= 9.14D-01 WtEn= 8.64D-02
 Coeff-Com: -0.485D+00 0.103D+01 0.456D+00
 Coeff-En:   0.000D+00 0.000D+00 0.100D+01
 Coeff:     -0.443D+00 0.940D+00 0.503D+00
 Gap=     0.078 Goal=   None    Shift=    0.000
 RMSDP=5.05D-04 MaxDP=1.20D-01 DE=-8.63D-01 OVMax= 8.57D-02

 Cycle   4  Pass 1  IDiag  1:
 RMSU=  3.41D-04    CP:  9.73D-01  1.85D+00  6.14D-01
 E= -3005.26061964927     Delta-E=       -0.105404344220 Rises=F Damp=F
 DIIS: error= 4.25D-03 at cycle   4 NSaved=   4.
 NSaved= 4 IEnMin= 4 EnMin= -3005.26061964927     IErMin= 4 ErrMin= 4.25D-03
 ErrMax= 4.25D-03  0.00D+00 EMaxC= 1.00D-01 BMatC= 2.66D-02 BMatP= 1.45D-01
 IDIUse=3 WtCom= 9.57D-01 WtEn= 4.25D-02
 Coeff-Com: -0.894D-01 0.188D+00 0.305D+00 0.597D+00
 Coeff-En:   0.000D+00 0.000D+00 0.176D+00 0.824D+00
 Coeff:     -0.856D-01 0.180D+00 0.300D+00 0.606D+00
 Gap=     0.077 Goal=   None    Shift=    0.000
 RMSDP=1.89D-04 MaxDP=5.54D-02 DE=-1.05D-01 OVMax= 2.61D-02

 Cycle   5  Pass 1  IDiag  1:
 RMSU=  8.60D-05    CP:  9.71D-01  1.75D+00  7.20D-01  6.40D-01
 E= -3005.28129031616     Delta-E=       -0.020670666885 Rises=F Damp=F
 DIIS: error= 9.80D-04 at cycle   5 NSaved=   5.
 NSaved= 5 IEnMin= 5 EnMin= -3005.28129031616     IErMin= 5 ErrMin= 9.80D-04
 ErrMax= 9.80D-04  0.00D+00 EMaxC= 1.00D-01 BMatC= 1.79D-03 BMatP= 2.66D-02
 IDIUse=3 WtCom= 9.90D-01 WtEn= 9.80D-03
 Coeff-Com: -0.188D-01 0.394D-01 0.139D+00 0.344D+00 0.497D+00
 Coeff-En:   0.000D+00 0.000D+00 0.000D+00 0.000D+00 0.100D+01
 Coeff:     -0.186D-01 0.391D-01 0.137D+00 0.340D+00 0.502D+00
 Gap=     0.076 Goal=   None    Shift=    0.000
 RMSDP=6.25D-05 MaxDP=7.77D-03 DE=-2.07D-02 OVMax= 2.09D-02

 Cycle   6  Pass 1  IDiag  1:
 RMSU=  4.11D-05    CP:  9.71D-01  1.75D+00  7.20D-01  6.85D-01  4.84D-01
 E= -3005.28272961490     Delta-E=       -0.001439298745 Rises=F Damp=F
 DIIS: error= 5.50D-04 at cycle   6 NSaved=   6.
 NSaved= 6 IEnMin= 6 EnMin= -3005.28272961490     IErMin= 6 ErrMin= 5.50D-04
 ErrMax= 5.50D-04  0.00D+00 EMaxC= 1.00D-01 BMatC= 3.49D-04 BMatP= 1.79D-03
 IDIUse=3 WtCom= 9.95D-01 WtEn= 5.50D-03
 Coeff-Com: -0.702D-03 0.164D-02 0.522D-01 0.146D+00 0.336D+00 0.464D+00
 Coeff-En:   0.000D+00 0.000D+00 0.000D+00 0.000D+00 0.200D+00 0.800D+00
 Coeff:     -0.698D-03 0.163D-02 0.520D-01 0.146D+00 0.335D+00 0.466D+00
 Gap=     0.077 Goal=   None    Shift=    0.000
 RMSDP=3.04D-05 MaxDP=3.69D-03 DE=-1.44D-03 OVMax= 1.55D-02

 Cycle   7  Pass 1  IDiag  1:
 RMSU=  1.58D-05    CP:  9.71D-01  1.75D+00  7.22D-01  6.78D-01  6.28D-01
                    CP:  4.51D-01
 E= -3005.28307886156     Delta-E=       -0.000349246657 Rises=F Damp=F
 DIIS: error= 1.66D-04 at cycle   7 NSaved=   7.
 NSaved= 7 IEnMin= 7 EnMin= -3005.28307886156     IErMin= 7 ErrMin= 1.66D-04
 ErrMax= 1.66D-04  0.00D+00 EMaxC= 1.00D-01 BMatC= 5.29D-05 BMatP= 3.49D-04
 IDIUse=3 WtCom= 9.98D-01 WtEn= 1.66D-03
 Coeff-Com:  0.172D-02-0.352D-02 0.189D-01 0.572D-01 0.170D+00 0.324D+00
 Coeff-Com:  0.432D+00
 Coeff-En:   0.000D+00 0.000D+00 0.000D+00 0.000D+00 0.000D+00 0.154D+00
 Coeff-En:   0.846D+00
 Coeff:      0.171D-02-0.351D-02 0.189D-01 0.571D-01 0.170D+00 0.324D+00
 Coeff:      0.432D+00
 Gap=     0.077 Goal=   None    Shift=    0.000
 RMSDP=1.23D-05 MaxDP=1.68D-03 DE=-3.49D-04 OVMax= 8.72D-03

 Cycle   8  Pass 1  IDiag  1:
 RMSU=  6.36D-06    CP:  9.71D-01  1.75D+00  7.22D-01  6.83D-01  5.98D-01
                    CP:  5.68D-01  4.44D-01
 E= -3005.28313348667     Delta-E=       -0.000054625112 Rises=F Damp=F
 DIIS: error= 7.29D-05 at cycle   8 NSaved=   8.
 NSaved= 8 IEnMin= 8 EnMin= -3005.28313348667     IErMin= 8 ErrMin= 7.29D-05
 ErrMax= 7.29D-05  0.00D+00 EMaxC= 1.00D-01 BMatC= 9.45D-06 BMatP= 5.29D-05
 IDIUse=1 WtCom= 1.00D+00 WtEn= 0.00D+00
 Coeff-Com:  0.136D-02-0.279D-02 0.679D-02 0.216D-01 0.795D-01 0.177D+00
 Coeff-Com:  0.318D+00 0.398D+00
 Coeff:      0.136D-02-0.279D-02 0.679D-02 0.216D-01 0.795D-01 0.177D+00
 Coeff:      0.318D+00 0.398D+00
 Gap=     0.077 Goal=   None    Shift=    0.000
 RMSDP=5.02D-06 MaxDP=4.88D-04 DE=-5.46D-05 OVMax= 3.59D-03

 Cycle   9  Pass 1  IDiag  1:
 RMSU=  2.21D-06    CP:  9.71D-01  1.75D+00  7.23D-01  6.82D-01  6.06D-01
                    CP:  5.60D-01  5.73D-01  3.91D-01
 E= -3005.28314534440     Delta-E=       -0.000011857725 Rises=F Damp=F
 DIIS: error= 1.99D-05 at cycle   9 NSaved=   9.
 NSaved= 9 IEnMin= 9 EnMin= -3005.28314534440     IErMin= 9 ErrMin= 1.99D-05
 ErrMax= 1.99D-05  0.00D+00 EMaxC= 1.00D-01 BMatC= 1.05D-06 BMatP= 9.45D-06
 IDIUse=1 WtCom= 1.00D+00 WtEn= 0.00D+00
 Coeff-Com:  0.606D-03-0.121D-02 0.140D-02 0.427D-02 0.239D-01 0.632D-01
 Coeff-Com:  0.139D+00 0.273D+00 0.496D+00
 Coeff:      0.606D-03-0.121D-02 0.140D-02 0.427D-02 0.239D-01 0.632D-01
 Coeff:      0.139D+00 0.273D+00 0.496D+00
 Gap=     0.077 Goal=   None    Shift=    0.000
 RMSDP=1.49D-06 MaxDP=1.39D-04 DE=-1.19D-05 OVMax= 9.51D-04

 Cycle  10  Pass 1  IDiag  1:
 RMSU=  7.76D-07    CP:  9.71D-01  1.75D+00  7.23D-01  6.82D-01  6.09D-01
                    CP:  5.65D-01  5.49D-01  5.35D-01  6.83D-01
 E= -3005.28314658540     Delta-E=       -0.000001241000 Rises=F Damp=F
 DIIS: error= 8.05D-06 at cycle  10 NSaved=  10.
 NSaved=10 IEnMin=10 EnMin= -3005.28314658540     IErMin=10 ErrMin= 8.05D-06
 ErrMax= 8.05D-06  0.00D+00 EMaxC= 1.00D-01 BMatC= 1.12D-07 BMatP= 1.05D-06
 IDIUse=1 WtCom= 1.00D+00 WtEn= 0.00D+00
 Coeff-Com:  0.114D-03-0.206D-03-0.404D-03-0.168D-02-0.857D-03 0.406D-02
 Coeff-Com:  0.232D-01 0.864D-01 0.293D+00 0.597D+00
 Coeff:      0.114D-03-0.206D-03-0.404D-03-0.168D-02-0.857D-03 0.406D-02
 Coeff:      0.232D-01 0.864D-01 0.293D+00 0.597D+00
 Gap=     0.077 Goal=   None    Shift=    0.000
 RMSDP=4.94D-07 MaxDP=3.22D-05 DE=-1.24D-06 OVMax= 2.14D-04

 Cycle  11  Pass 1  IDiag  1:
 RMSU=  3.33D-07    CP:  9.71D-01  1.75D+00  7.23D-01  6.82D-01  6.08D-01
                    CP:  5.67D-01  5.57D-01  5.26D-01  7.74D-01  6.73D-01
 E= -3005.28314668326     Delta-E=       -0.000000097858 Rises=F Damp=F
 DIIS: error= 3.53D-06 at cycle  11 NSaved=  11.
 NSaved=11 IEnMin=11 EnMin= -3005.28314668326     IErMin=11 ErrMin= 3.53D-06
 ErrMax= 3.53D-06  0.00D+00 EMaxC= 1.00D-01 BMatC= 2.34D-08 BMatP= 1.12D-07
 IDIUse=1 WtCom= 1.00D+00 WtEn= 0.00D+00
 Coeff-Com:  0.205D-04-0.211D-04-0.375D-03-0.149D-02-0.289D-02-0.372D-02
 Coeff-Com:  0.129D-02 0.267D-01 0.136D+00 0.391D+00 0.454D+00
 Coeff:      0.205D-04-0.211D-04-0.375D-03-0.149D-02-0.289D-02-0.372D-02
 Coeff:      0.129D-02 0.267D-01 0.136D+00 0.391D+00 0.454D+00
 Gap=     0.077 Goal=   None    Shift=    0.000
 RMSDP=2.71D-07 MaxDP=7.62D-05 DE=-9.79D-08 OVMax= 1.11D-04

 Cycle  12  Pass 1  IDiag  1:
 RMSU=  1.52D-07    CP:  9.71D-01  1.75D+00  7.23D-01  6.82D-01  6.09D-01
                    CP:  5.67D-01  5.60D-01  5.33D-01  7.77D-01  7.94D-01
                    CP:  5.01D-01
 E= -3005.28314670578     Delta-E=       -0.000000022521 Rises=F Damp=F
 DIIS: error= 1.73D-06 at cycle  12 NSaved=  12.
 NSaved=12 IEnMin=12 EnMin= -3005.28314670578     IErMin=12 ErrMin= 1.73D-06
 ErrMax= 1.73D-06  0.00D+00 EMaxC= 1.00D-01 BMatC= 3.69D-09 BMatP= 2.34D-08
 IDIUse=1 WtCom= 1.00D+00 WtEn= 0.00D+00
 Coeff-Com: -0.459D-06 0.129D-04-0.180D-03-0.727D-03-0.179D-02-0.309D-02
 Coeff-Com: -0.243D-02 0.404D-02 0.441D-01 0.166D+00 0.306D+00 0.488D+00
 Coeff:     -0.459D-06 0.129D-04-0.180D-03-0.727D-03-0.179D-02-0.309D-02
 Coeff:     -0.243D-02 0.404D-02 0.441D-01 0.166D+00 0.306D+00 0.488D+00
 Gap=     0.077 Goal=   None    Shift=    0.000
 RMSDP=1.00D-07 MaxDP=7.65D-06 DE=-2.25D-08 OVMax= 6.59D-05

 Cycle  13  Pass 1  IDiag  1:
 RMSU=  5.67D-08    CP:  9.71D-01  1.75D+00  7.23D-01  6.82D-01  6.09D-01
                    CP:  5.67D-01  5.60D-01  5.34D-01  7.86D-01  7.87D-01
                    CP:  6.48D-01  5.93D-01
 E= -3005.28314671022     Delta-E=       -0.000000004447 Rises=F Damp=F
 DIIS: error= 5.36D-07 at cycle  13 NSaved=  13.
 NSaved=13 IEnMin=13 EnMin= -3005.28314671022     IErMin=13 ErrMin= 5.36D-07
 ErrMax= 5.36D-07  0.00D+00 EMaxC= 1.00D-01 BMatC= 6.69D-10 BMatP= 3.69D-09
 IDIUse=1 WtCom= 1.00D+00 WtEn= 0.00D+00
 Coeff-Com: -0.282D-05 0.110D-04-0.525D-04-0.222D-03-0.725D-03-0.153D-02
 Coeff-Com: -0.204D-02-0.306D-02 0.249D-02 0.370D-01 0.120D+00 0.336D+00
 Coeff-Com:  0.512D+00
 Coeff:     -0.282D-05 0.110D-04-0.525D-04-0.222D-03-0.725D-03-0.153D-02
 Coeff:     -0.204D-02-0.306D-02 0.249D-02 0.370D-01 0.120D+00 0.336D+00
 Coeff:      0.512D+00
 Gap=     0.077 Goal=   None    Shift=    0.000
 RMSDP=3.92D-08 MaxDP=6.50D-06 DE=-4.45D-09 OVMax= 1.80D-05

 Cycle  14  Pass 1  IDiag  1:
 RMSU=  2.15D-08    CP:  9.71D-01  1.75D+00  7.23D-01  6.82D-01  6.09D-01
                    CP:  5.67D-01  5.60D-01  5.34D-01  7.88D-01  8.03D-01
                    CP:  6.30D-01  7.43D-01  7.19D-01
 E= -3005.28314671083     Delta-E=       -0.000000000602 Rises=F Damp=F
 DIIS: error= 1.87D-07 at cycle  14 NSaved=  14.
 NSaved=14 IEnMin=14 EnMin= -3005.28314671083     IErMin=14 ErrMin= 1.87D-07
 ErrMax= 1.87D-07  0.00D+00 EMaxC= 1.00D-01 BMatC= 8.93D-11 BMatP= 6.69D-10
 IDIUse=1 WtCom= 1.00D+00 WtEn= 0.00D+00
 Coeff-Com: -0.756D-06 0.327D-05 0.141D-05-0.483D-05-0.130D-03-0.400D-03
 Coeff-Com: -0.800D-03-0.284D-02-0.687D-02-0.763D-02 0.179D-01 0.126D+00
 Coeff-Com:  0.317D+00 0.557D+00
 Coeff:     -0.756D-06 0.327D-05 0.141D-05-0.483D-05-0.130D-03-0.400D-03
 Coeff:     -0.800D-03-0.284D-02-0.687D-02-0.763D-02 0.179D-01 0.126D+00
 Coeff:      0.317D+00 0.557D+00
 Gap=     0.077 Goal=   None    Shift=    0.000
 RMSDP=1.50D-08 MaxDP=2.90D-06 DE=-6.02D-10 OVMax= 8.24D-06

 Cycle  15  Pass 1  IDiag  1:
 RMSU=  9.10D-09    CP:  9.71D-01  1.75D+00  7.23D-01  6.82D-01  6.09D-01
                    CP:  5.67D-01  5.60D-01  5.34D-01  7.89D-01  8.05D-01
                    CP:  6.45D-01  7.52D-01  8.31D-01  8.22D-01
 E= -3005.28314671107     Delta-E=       -0.000000000244 Rises=F Damp=F
 DIIS: error= 7.81D-08 at cycle  15 NSaved=  15.
 NSaved=15 IEnMin=15 EnMin= -3005.28314671107     IErMin=15 ErrMin= 7.81D-08
 ErrMax= 7.81D-08  0.00D+00 EMaxC= 1.00D-01 BMatC= 1.28D-11 BMatP= 8.93D-11
 IDIUse=1 WtCom= 1.00D+00 WtEn= 0.00D+00
 Coeff-Com:  0.598D-06-0.831D-06 0.983D-05 0.324D-04 0.485D-04 0.432D-04
 Coeff-Com: -0.228D-04-0.927D-03-0.364D-02-0.879D-02-0.994D-02 0.134D-01
 Coeff-Com:  0.731D-01 0.316D+00 0.621D+00
 Coeff:      0.598D-06-0.831D-06 0.983D-05 0.324D-04 0.485D-04 0.432D-04
 Coeff:     -0.228D-04-0.927D-03-0.364D-02-0.879D-02-0.994D-02 0.134D-01
 Coeff:      0.731D-01 0.316D+00 0.621D+00
 Gap=     0.077 Goal=   None    Shift=    0.000
 RMSDP=5.86D-09 MaxDP=6.78D-07 DE=-2.44D-10 OVMax= 2.64D-06

 SCF Done:  E(RPBE1PBE) =  -3005.28314671     A.U. after   15 cycles
            NFock= 15  Conv=0.59D-08     -V/T= 2.0104
 KE= 2.974427698255D+03 PE=-2.694116551582D+04 EE= 1.098606530499D+04
 Leave Link  502 at Wed May  4 23:57:27 2022, MaxMem= 10066329600 cpu:            9611.7 elap:             402.1
 (Enter /sw/apps/gaussian-16.0/g16/l801.exe)
 DoSCS=F DFT=T ScalE2(SS,OS)=  1.000000  1.000000
 ExpMin= 3.36D-02 ExpMax= 4.95D+03 ExpMxC= 7.45D+02 IAcc=3 IRadAn=         5 AccDes= 0.00D+00
 HarFok:  IExCor=  205 AccDes= 0.00D+00 IRadAn=         5 IDoV=-2 UseB2=F ITyADJ=14
 ICtDFT= 12500011 ScaDFX=  1.000000  1.000000  1.000000  1.000000
 GSVD:  LWork=       -5460 too small for GESVD, short by       25550 words or       25550 for optimal perf.
 Largest valence mixing into a core orbital is  1.15D-04
 Largest core mixing into a valence orbital is  5.69D-05
 Range of M.O.s used for correlation:    71  1298
 NBasis=  1298 NAE=   246 NBE=   246 NFC=    70 NFV=     0
 NROrb=   1228 NOA=   176 NOB=   176 NVA=  1052 NVB=  1052

 **** Warning!!: The smallest alpha delta epsilon is  0.76703903D-01

 Leave Link  801 at Wed May  4 23:57:27 2022, MaxMem= 10066329600 cpu:               6.6 elap:               0.3
 (Enter /sw/apps/gaussian-16.0/g16/l914.exe)
 RHF ground state
 Two-electron integrals replicated using symmetry.
 MDV= 10066329600 DFT=T DoStab=F Mixed=T DoRPA=T DoScal=F NonHer=T
 Making orbital integer symmetry assigments:
 Orbital symmetries:
       Occupied  (A) (A) (A) (A) (A) (A) (A) (A) (A) (A) (A) (A)
                 (A) (A) (A) (A) (A) (A) (A) (A) (A) (A) (A) (A)
                 (A) (A) (A) (A) (A) (A) (A) (A) (A) (A) (A) (A)
                 (A) (A) (A) (A) (A) (A) (A) (A) (A) (A) (A) (A)
                 (A) (A) (A) (A) (A) (A) (A) (A) (A) (A) (A) (A)
                 (A) (A) (A) (A) (A) (A) (A) (A) (A) (A) (A) (A)
                 (A) (A) (A) (A) (A) (A) (A) (A) (A) (A) (A) (A)
                 (A) (A) (A) (A) (A) (A) (A) (A) (A) (A) (A) (A)
                 (A) (A) (A) (A) (A) (A) (A) (A) (A) (A) (A) (A)
                 (A) (A) (A) (A) (A) (A) (A) (A) (A) (A) (A) (A)
                 (A) (A) (A) (A) (A) (A) (A) (A) (A) (A) (A) (A)
                 (A) (A) (A) (A) (A) (A) (A) (A) (A) (A) (A) (A)
                 (A) (A) (A) (A) (A) (A) (A) (A) (A) (A) (A) (A)
                 (A) (A) (A) (A) (A) (A) (A) (A) (A) (A) (A) (A)
                 (A) (A) (A) (A) (A) (A) (A) (A) (A) (A) (A) (A)
                 (A) (A) (A) (A) (A) (A) (A) (A) (A) (A) (A) (A)
                 (A) (A) (A) (A) (A) (A) (A) (A) (A) (A) (A) (A)
                 (A) (A) (A) (A) (A) (A) (A) (A) (A) (A) (A) (A)
                 (A) (A) (A) (A) (A) (A) (A) (A) (A) (A) (A) (A)
                 (A) (A) (A) (A) (A) (A) (A) (A) (A) (A) (A) (A)
                 (A) (A) (A) (A) (A) (A)
       Virtual   (A) (A) (A) (A) (A) (A) (A) (A) (A) (A) (A) (A)
                 (A) (A) (A) (A) (A) (A) (A) (A) (A) (A) (A) (A)
                 (A) (A) (A) (A) (A) (A) (A) (A) (A) (A) (A) (A)
                 (A) (A) (A) (A) (A) (A) (A) (A) (A) (A) (A) (A)
                 (A) (A) (A) (A) (A) (A) (A) (A) (A) (A) (A) (A)
                 (A) (A) (A) (A) (A) (A) (A) (A) (A) (A) (A) (A)
                 (A) (A) (A) (A) (A) (A) (A) (A) (A) (A) (A) (A)
                 (A) (A) (A) (A) (A) (A) (A) (A) (A) (A) (A) (A)
                 (A) (A) (A) (A) (A) (A) (A) (A) (A) (A) (A) (A)
                 (A) (A) (A) (A) (A) (A) (A) (A) (A) (A) (A) (A)
                 (A) (A) (A) (A) (A) (A) (A) (A) (A) (A) (A) (A)
                 (A) (A) (A) (A) (A) (A) (A) (A) (A) (A) (A) (A)
                 (A) (A) (A) (A) (A) (A) (A) (A) (A) (A) (A) (A)
                 (A) (A) (A) (A) (A) (A) (A) (A) (A) (A) (A) (A)
                 (A) (A) (A) (A) (A) (A) (A) (A) (A) (A) (A) (A)
                 (A) (A) (A) (A) (A) (A) (A) (A) (A) (A) (A) (A)
                 (A) (A) (A) (A) (A) (A) (A) (A) (A) (A) (A) (A)
                 (A) (A) (A) (A) (A) (A) (A) (A) (A) (A) (A) (A)
                 (A) (A) (A) (A) (A) (A) (A) (A) (A) (A) (A) (A)
                 (A) (A) (A) (A) (A) (A) (A) (A) (A) (A) (A) (A)
                 (A) (A) (A) (A) (A) (A) (A) (A) (A) (A) (A) (A)
                 (A) (A) (A) (A) (A) (A) (A) (A) (A) (A) (A) (A)
                 (A) (A) (A) (A) (A) (A) (A) (A) (A) (A) (A) (A)
                 (A) (A) (A) (A) (A) (A) (A) (A) (A) (A) (A) (A)
                 (A) (A) (A) (A) (A) (A) (A) (A) (A) (A) (A) (A)
                 (A) (A) (A) (A) (A) (A) (A) (A) (A) (A) (A) (A)
                 (A) (A) (A) (A) (A) (A) (A) (A) (A) (A) (A) (A)
                 (A) (A) (A) (A) (A) (A) (A) (A) (A) (A) (A) (A)
                 (A) (A) (A) (A) (A) (A) (A) (A) (A) (A) (A) (A)
                 (A) (A) (A) (A) (A) (A) (A) (A) (A) (A) (A) (A)
                 (A) (A) (A) (A) (A) (A) (A) (A) (A) (A) (A) (A)
                 (A) (A) (A) (A) (A) (A) (A) (A) (A) (A) (A) (A)
                 (A) (A) (A) (A) (A) (A) (A) (A) (A) (A) (A) (A)
                 (A) (A) (A) (A) (A) (A) (A) (A) (A) (A) (A) (A)
                 (A) (A) (A) (A) (A) (A) (A) (A) (A) (A) (A) (A)
                 (A) (A) (A) (A) (A) (A) (A) (A) (A) (A) (A) (A)
                 (A) (A) (A) (A) (A) (A) (A) (A) (A) (A) (A) (A)
                 (A) (A) (A) (A) (A) (A) (A) (A) (A) (A) (A) (A)
                 (A) (A) (A) (A) (A) (A) (A) (A) (A) (A) (A) (A)
                 (A) (A) (A) (A) (A) (A) (A) (A) (A) (A) (A) (A)
                 (A) (A) (A) (A) (A) (A) (A) (A) (A) (A) (A) (A)
                 (A) (A) (A) (A) (A) (A) (A) (A) (A) (A) (A) (A)
                 (A) (A) (A) (A) (A) (A) (A) (A) (A) (A) (A) (A)
                 (A) (A) (A) (A) (A) (A) (A) (A) (A) (A) (A) (A)
                 (A) (A) (A) (A) (A) (A) (A) (A) (A) (A) (A) (A)
                 (A) (A) (A) (A) (A) (A) (A) (A) (A) (A) (A) (A)
                 (A) (A) (A) (A) (A) (A) (A) (A) (A) (A) (A) (A)
                 (A) (A) (A) (A) (A) (A) (A) (A) (A) (A) (A) (A)
                 (A) (A) (A) (A) (A) (A) (A) (A) (A) (A) (A) (A)
                 (A) (A) (A) (A) (A) (A) (A) (A) (A) (A) (A) (A)
                 (A) (A) (A) (A) (A) (A) (A) (A) (A) (A) (A) (A)
                 (A) (A) (A) (A) (A) (A) (A) (A) (A) (A) (A) (A)
                 (A) (A) (A) (A) (A) (A) (A) (A) (A) (A) (A) (A)
                 (A) (A) (A) (A) (A) (A) (A) (A) (A) (A) (A) (A)
                 (A) (A) (A) (A) (A) (A) (A) (A) (A) (A) (A) (A)
                 (A) (A) (A) (A) (A) (A) (A) (A) (A) (A) (A) (A)
                 (A) (A) (A) (A) (A) (A) (A) (A) (A) (A) (A) (A)
                 (A) (A) (A) (A) (A) (A) (A) (A) (A) (A) (A) (A)
                 (A) (A) (A) (A) (A) (A) (A) (A) (A) (A) (A) (A)
                 (A) (A) (A) (A) (A) (A) (A) (A) (A) (A) (A) (A)
                 (A) (A) (A) (A) (A) (A) (A) (A) (A) (A) (A) (A)
                 (A) (A) (A) (A) (A) (A) (A) (A) (A) (A) (A) (A)
                 (A) (A) (A) (A) (A) (A) (A) (A) (A) (A) (A) (A)
                 (A) (A) (A) (A) (A) (A) (A) (A) (A) (A) (A) (A)
                 (A) (A) (A) (A) (A) (A) (A) (A) (A) (A) (A) (A)
                 (A) (A) (A) (A) (A) (A) (A) (A) (A) (A) (A) (A)
                 (A) (A) (A) (A) (A) (A) (A) (A) (A) (A) (A) (A)
                 (A) (A) (A) (A) (A) (A) (A) (A) (A) (A) (A) (A)
                 (A) (A) (A) (A) (A) (A) (A) (A) (A) (A) (A) (A)
                 (A) (A) (A) (A) (A) (A) (A) (A) (A) (A) (A) (A)
                 (A) (A) (A) (A) (A) (A) (A) (A) (A) (A) (A) (A)
                 (A) (A) (A) (A) (A) (A) (A) (A) (A) (A) (A) (A)
                 (A) (A) (A) (A) (A) (A) (A) (A) (A) (A) (A) (A)
                 (A) (A) (A) (A) (A) (A) (A) (A) (A) (A) (A) (A)
                 (A) (A) (A) (A) (A) (A) (A) (A) (A) (A) (A) (A)
                 (A) (A) (A) (A) (A) (A) (A) (A) (A) (A) (A) (A)
                 (A) (A) (A) (A) (A) (A) (A) (A) (A) (A) (A) (A)
                 (A) (A) (A) (A) (A) (A) (A) (A) (A) (A) (A) (A)
                 (A) (A) (A) (A) (A) (A) (A) (A) (A) (A) (A) (A)
                 (A) (A) (A) (A) (A) (A) (A) (A) (A) (A) (A) (A)
                 (A) (A) (A) (A) (A) (A) (A) (A) (A) (A) (A) (A)
                 (A) (A) (A) (A) (A) (A) (A) (A) (A) (A) (A) (A)
                 (A) (A) (A) (A) (A) (A) (A) (A) (A) (A) (A) (A)
                 (A) (A) (A) (A) (A) (A) (A) (A) (A) (A) (A) (A)
                 (A) (A) (A) (A) (A) (A) (A) (A) (A) (A) (A) (A)
                 (A) (A) (A) (A) (A) (A) (A) (A) (A) (A) (A) (A)
                 (A) (A) (A) (A) (A) (A) (A) (A) (A) (A) (A) (A)
                 (A) (A) (A) (A) (A) (A) (A) (A)
    20 initial guesses have been made.
 Convergence on wavefunction:    0.001000000000000
 Davidson Disk Diagonalization:  ConvIn= 1.00D-03 SkipCon=T Conv= 1.00D-03.
 Max sub-space:  2000 roots to seek:    20 dimension of matrix:       370304
 Iteration     1 Dimension    20 NMult     0 NNew     20
 CISAX will form    20 AO SS matrices at one time.
 NMat=    20 NSing=    20 JSym2X= 0.
 FoFJK:  IHMeth= 1 ICntrl=       0 DoSepK=F KAlg= 0 I1Cent=           0 FoldK=F
 IRaf= 560000000 NMat=      40 IRICut=       1 DoRegI=T DoRafI=F ISym2E= 0 IDoP0=3 IntGTp=3.
 FoFCou: FMM=T IPFlag=           0 FMFlag=      100000 FMFlg1=        2001
         NFxFlg=           0 DoJE=F BraDBF=F KetDBF=F FulRan=T
         wScrn=  0.000000 ICntrl=         0 IOpCl=  0 I1Cent=           0 NGrid=           0
         NMat0=   40 NMatS0=     20 NMatT0=    0 NMatD0=   40 NMtDS0=    0 NMtDT0=    0
 Symmetry not used in FoFCou.
 FMM levels:  10  Number of levels for PrismC:   9
 New state      3 was old state      4
 New state      4 was old state      8
 New state      5 was old state     11
 Excitation Energies [eV] at current iteration:
 Root      1 :     2.195463845481617
 Root      2 :     2.480750972518191
 Root      3 :     3.044724664850633
 Root      4 :     3.224826699682316
 Root      5 :     3.346695947271000
 Root      6 :     3.386187368798121
 Root      7 :     3.610551636824645
 Root      8 :     3.660016333048352
 Root      9 :     3.698350483269865
 Root     10 :     3.817380340368408
 Root     11 :     3.875887777134446
 Root     12 :     3.959403952196923
 Root     13 :     4.210431094503226
 Root     14 :     4.237673975716884
 Root     15 :     4.323666506935295
 Root     16 :     4.412869857310922
 Root     17 :     4.487245003615500
 Root     18 :     4.635034473187528
 Root     19 :     4.659427176273150
 Root     20 :     4.800042073415656
 Iteration     2 Dimension    30 NMult    20 NNew     10
 CISAX will form    10 AO SS matrices at one time.
 NMat=    10 NSing=    10 JSym2X= 0.
 Root      1 not converged, maximum delta is    0.053497010620763
 Root      2 not converged, maximum delta is    0.048552363853621
 Root      3 not converged, maximum delta is    0.111970679023544
 Root      4 not converged, maximum delta is    0.123036852872790
 New state      5 was old state      6
 Root      5 not converged, maximum delta is    0.173691003774523
 Excitation Energies [eV] at current iteration:
 Root      1 :     1.873183374180107   Change is   -0.322280471301510
 Root      2 :     2.213662743410742   Change is   -0.267088229107449
 Root      3 :     2.907162438821920   Change is   -0.137562226028713
 Root      4 :     3.040499457957895   Change is   -0.184327241724421
 Root      5 :     3.191354888586090   Change is   -0.194832480212031
 Iteration     3 Dimension    40 NMult    30 NNew     10
 CISAX will form    10 AO SS matrices at one time.
 NMat=    10 NSing=    10 JSym2X= 0.
 Root      1 not converged, maximum delta is    0.026661318572578
 Root      2 not converged, maximum delta is    0.020020261631560
 Root      3 not converged, maximum delta is    0.018724108579452
 Root      4 not converged, maximum delta is    0.014549981425565
 Root      5 not converged, maximum delta is    0.062412597779711
 Excitation Energies [eV] at current iteration:
 Root      1 :     1.843197180936275   Change is   -0.029986193243832
 Root      2 :     2.197719776748535   Change is   -0.015942966662207
 Root      3 :     2.892759339143621   Change is   -0.014403099678299
 Root      4 :     3.025304773687266   Change is   -0.015194684270628
 Root      5 :     3.122318763208191   Change is   -0.069036125377899
 Iteration     4 Dimension    50 NMult    40 NNew     10
 CISAX will form    10 AO SS matrices at one time.
 NMat=    10 NSing=    10 JSym2X= 0.
 Root      1 not converged, maximum delta is    0.003185562252301
 Root      2 not converged, maximum delta is    0.007694886350672
 Root      3 not converged, maximum delta is    0.005171138578044
 Root      4 not converged, maximum delta is    0.012293993486728
 Root      5 not converged, maximum delta is    0.058825173599849
 Excitation Energies [eV] at current iteration:
 Root      1 :     1.840241080549192   Change is   -0.002956100387084
 Root      2 :     2.194911162541334   Change is   -0.002808614207202
 Root      3 :     2.891296675277267   Change is   -0.001462663866355
 Root      4 :     3.022537899342931   Change is   -0.002766874344336
 Root      5 :     3.109622203593098   Change is   -0.012696559615093
 Iteration     5 Dimension    60 NMult    50 NNew     10
 CISAX will form    10 AO SS matrices at one time.
 NMat=    10 NSing=    10 JSym2X= 0.
 Root      1 has converged.
 Root      2 has converged.
 Root      3 has converged.
 Root      4 not converged, maximum delta is    0.001209747092685
 Root      5 not converged, maximum delta is    0.034407182224546
 Excitation Energies [eV] at current iteration:
 Root      1 :     1.839923669803782   Change is   -0.000317410745409
 Root      2 :     2.194676183410534   Change is   -0.000234979130799
 Root      3 :     2.891106651929861   Change is   -0.000190023347405
 Root      4 :     3.022216939177077   Change is   -0.000320960165853
 Root      5 :     3.105874803621652   Change is   -0.003747399971446
 Iteration     6 Dimension    64 NMult    60 NNew      4
 CISAX will form     4 AO SS matrices at one time.
 NMat=     4 NSing=     4 JSym2X= 0.
 Root      1 has converged.
 Root      2 has converged.
 Root      3 has converged.
 Root      4 has converged.
 Root      5 not converged, maximum delta is    0.014284496025198
 Excitation Energies [eV] at current iteration:
 Root      1 :     1.839922523877433   Change is   -0.000001145926349
 Root      2 :     2.194673167605171   Change is   -0.000003015805363
 Root      3 :     2.891105200119445   Change is   -0.000001451810416
 Root      4 :     3.022175930086747   Change is   -0.000041009090330
 Root      5 :     3.104952578537479   Change is   -0.000922225084174
 Iteration     7 Dimension    66 NMult    64 NNew      2
 CISAX will form     2 AO SS matrices at one time.
 NMat=     2 NSing=     2 JSym2X= 0.
 Root      1 has converged.
 Root      2 has converged.
 Root      3 has converged.
 Root      4 has converged.
 Root      5 not converged, maximum delta is    0.004170725406740
 Excitation Energies [eV] at current iteration:
 Root      1 :     1.839922481157123   Change is   -0.000000042720310
 Root      2 :     2.194672384026612   Change is   -0.000000783578559
 Root      3 :     2.891105164373016   Change is   -0.000000035746429
 Root      4 :     3.022175689814114   Change is   -0.000000240272633
 Root      5 :     3.104821422888794   Change is   -0.000131155648685
 Iteration     8 Dimension    68 NMult    66 NNew      2
 CISAX will form     2 AO SS matrices at one time.
 NMat=     2 NSing=     2 JSym2X= 0.
 Root      1 has converged.
 Root      2 has converged.
 Root      3 has converged.
 Root      4 has converged.
 Root      5 not converged, maximum delta is    0.001107520464283
 Excitation Energies [eV] at current iteration:
 Root      1 :     1.839921812370863   Change is   -0.000000668786260
 Root      2 :     2.194671525746893   Change is   -0.000000858279720
 Root      3 :     2.891104562787185   Change is   -0.000000601585832
 Root      4 :     3.022175523344999   Change is   -0.000000166469115
 Root      5 :     3.104799713649592   Change is   -0.000021709239201
 Iteration     9 Dimension    70 NMult    68 NNew      2
 CISAX will form     2 AO SS matrices at one time.
 NMat=     2 NSing=     2 JSym2X= 0.
 Root      1 has converged.
 Root      2 has converged.
 Root      3 has converged.
 Root      4 has converged.
 Root      5 has converged.
 Excitation Energies [eV] at current iteration:
 Root      1 :     1.839921494315072   Change is   -0.000000318055791
 Root      2 :     2.194671048297546   Change is   -0.000000477449347
 Root      3 :     2.891104443036774   Change is   -0.000000119750411
 Root      4 :     3.022175440159469   Change is   -0.000000083185530
 Root      5 :     3.104797285468094   Change is   -0.000002428181498
 Convergence achieved on expansion vectors.
 ***********************************************************************
 Excited states from <AA,BB:AA,BB> singles matrix:
 ***********************************************************************
 
 1PDM for each excited state written to RWF  633
 Ground to excited state transition densities written to RWF  633
 Ground to excited state transition electric dipole moments (Au):
       state          X           Y           Z        Dip. S.      Osc.
         1        -1.1888     -2.2611     -0.9594      7.4462      0.3357
         2         0.5470     -0.7899      0.5323      1.2066      0.0649
         3        -0.0208     -0.0652     -0.0239      0.0053      0.0004
         4         0.0527     -0.1890      0.0781      0.0446      0.0033
         5        -0.4324      0.3042     -0.4404      0.4734      0.0360
 Ground to excited state transition velocity dipole moments (Au):
       state          X           Y           Z        Dip. S.      Osc.
         1         0.0764      0.1481      0.0624      0.0317      0.3123
         2        -0.0402      0.0601     -0.0389      0.0067      0.0557
         3         0.0037      0.0060      0.0002      0.0000      0.0003
         4        -0.0079      0.0207     -0.0065      0.0005      0.0032
         5         0.0473     -0.0343      0.0471      0.0056      0.0329
 Ground to excited state transition magnetic dipole moments (Au):
       state          X           Y           Z
         1         0.1011      0.5208     -1.4837
         2        -0.2261     -0.3374     -0.4452
         3         0.1358      0.3809      0.3016
         4        -0.3280      0.3919      0.2074
         5        -0.3537      0.1528      0.5277
 Ground to excited state transition velocity quadrupole moments (Au):
       state          XX          YY          ZZ          XY          XZ          YZ
         1        -1.1687      0.5522      0.1233     -0.8587     -0.4346      0.2464
         2         0.5462      0.2237     -0.0918     -0.3517      0.2984      0.0076
         3        -0.0556      0.1820     -0.0455      0.0165     -0.0246      0.0035
         4         0.0953      0.1706      0.0084     -0.1347      0.0365     -0.0059
         5        -0.7464      0.4280     -0.0079      0.5228     -0.4424      0.1156
 <0|del|b> * <b|rxdel|0> + <0|del|b> * <b|delr+rdel|0>
 Rotatory Strengths (R) in cgs (10**-40 erg-esu-cm/Gauss)
       state          XX          YY          ZZ    R(velocity)    E-M Angle
         1       -24.0892    -65.1479      8.7739    -26.8211       91.57
         2       -31.4491     54.4374     30.8657     17.9513       82.87
         3         8.3085      1.8673      8.7435      6.3064       36.88
         4        21.9641      1.3169     36.3503     19.8771       42.69
         5        90.1327    -34.1478    -37.9292      6.0185       86.59
 1/2[<0|r|b>*<b|rxdel|0> + (<0|rxdel|b>*<b|r|0>)*]
 Rotatory Strengths (R) in cgs (10**-40 erg-esu-cm/Gauss)
       state          XX          YY          ZZ     R(length)
         1        85.0190    832.7542  -1006.6261    -29.6176
         2        87.4561   -188.4443    167.5949     22.2023
         3         1.9980     17.5742      5.1084      8.2269
         4        12.2304     52.3862    -11.4526     17.7213
         5      -108.1338    -32.8779    164.3467      7.7783
  1/2[<0|del|b>*<b|r|0> + (<0|r|b>*<b|del|0>)*] (Au)
       state          X           Y           Z        Dip. S.   Osc.(frdel)
         1        -0.0908     -0.3350     -0.0599      0.4856      0.3238
         2        -0.0220     -0.0475     -0.0207      0.0902      0.0601
         3        -0.0001     -0.0004     -0.0000      0.0005      0.0003
         4        -0.0004     -0.0039     -0.0005      0.0048      0.0032
         5        -0.0204     -0.0104     -0.0208      0.0516      0.0344

 Excitation energies and oscillator strengths:
 
 Excited State   1:      Singlet-A      1.8399 eV  673.86 nm  f=0.3357  <S**2>=0.000
     245 -> 248       -0.18868
     246 -> 247        0.68709
 This state for optimization and/or second-order correction.
 Total Energy, E(TD-HF/TD-DFT) =  -3005.21553084    
 Copying the excited state density for this state as the 1-particle RhoCI density.
 
 Excited State   2:      Singlet-A      2.1947 eV  564.93 nm  f=0.0649  <S**2>=0.000
     245 -> 247        0.63451
     246 -> 248        0.29954
 
 Excited State   3:      Singlet-A      2.8911 eV  428.85 nm  f=0.0004  <S**2>=0.000
     243 -> 247       -0.14222
     244 -> 247        0.65232
     244 -> 249       -0.11588
     244 -> 251        0.12721
 
 Excited State   4:      Singlet-A      3.0222 eV  410.25 nm  f=0.0033  <S**2>=0.000
     239 -> 247        0.12974
     241 -> 247       -0.39559
     241 -> 249       -0.14463
     242 -> 247       -0.12092
     243 -> 247        0.50649
 
 Excited State   5:      Singlet-A      3.1048 eV  399.33 nm  f=0.0360  <S**2>=0.000
     241 -> 247        0.40290
     242 -> 247        0.15245
     243 -> 247        0.42537
     244 -> 247        0.11464
     246 -> 248        0.27216
 SavETr:  write IOETrn=   770 NScale= 10 NData=  16 NLR=1 NState=    5 LETran=     100.
 Leave Link  914 at Thu May  5 00:24:14 2022, MaxMem= 10066329600 cpu:           38514.1 elap:            1607.3
 (Enter /sw/apps/gaussian-16.0/g16/l601.exe)
 Copying SCF densities to generalized density rwf, IOpCl= 0 IROHF=0.
 Hyperfine terms turned off by default for NAtoms > 100.

 **********************************************************************

            Population analysis using the SCF density.

 **********************************************************************

 Orbital symmetries:
       Occupied  (A) (A) (A) (A) (A) (A) (A) (A) (A) (A) (A) (A)
                 (A) (A) (A) (A) (A) (A) (A) (A) (A) (A) (A) (A)
                 (A) (A) (A) (A) (A) (A) (A) (A) (A) (A) (A) (A)
                 (A) (A) (A) (A) (A) (A) (A) (A) (A) (A) (A) (A)
                 (A) (A) (A) (A) (A) (A) (A) (A) (A) (A) (A) (A)
                 (A) (A) (A) (A) (A) (A) (A) (A) (A) (A) (A) (A)
                 (A) (A) (A) (A) (A) (A) (A) (A) (A) (A) (A) (A)
                 (A) (A) (A) (A) (A) (A) (A) (A) (A) (A) (A) (A)
                 (A) (A) (A) (A) (A) (A) (A) (A) (A) (A) (A) (A)
                 (A) (A) (A) (A) (A) (A) (A) (A) (A) (A) (A) (A)
                 (A) (A) (A) (A) (A) (A) (A) (A) (A) (A) (A) (A)
                 (A) (A) (A) (A) (A) (A) (A) (A) (A) (A) (A) (A)
                 (A) (A) (A) (A) (A) (A) (A) (A) (A) (A) (A) (A)
                 (A) (A) (A) (A) (A) (A) (A) (A) (A) (A) (A) (A)
                 (A) (A) (A) (A) (A) (A) (A) (A) (A) (A) (A) (A)
                 (A) (A) (A) (A) (A) (A) (A) (A) (A) (A) (A) (A)
                 (A) (A) (A) (A) (A) (A) (A) (A) (A) (A) (A) (A)
                 (A) (A) (A) (A) (A) (A) (A) (A) (A) (A) (A) (A)
                 (A) (A) (A) (A) (A) (A) (A) (A) (A) (A) (A) (A)
                 (A) (A) (A) (A) (A) (A) (A) (A) (A) (A) (A) (A)
                 (A) (A) (A) (A) (A) (A)
       Virtual   (A) (A) (A) (A) (A) (A) (A) (A) (A) (A) (A) (A)
                 (A) (A) (A) (A) (A) (A) (A) (A) (A) (A) (A) (A)
                 (A) (A) (A) (A) (A) (A) (A) (A) (A) (A) (A) (A)
                 (A) (A) (A) (A) (A) (A) (A) (A) (A) (A) (A) (A)
                 (A) (A) (A) (A) (A) (A) (A) (A) (A) (A) (A) (A)
                 (A) (A) (A) (A) (A) (A) (A) (A) (A) (A) (A) (A)
                 (A) (A) (A) (A) (A) (A) (A) (A) (A) (A) (A) (A)
                 (A) (A) (A) (A) (A) (A) (A) (A) (A) (A) (A) (A)
                 (A) (A) (A) (A) (A) (A) (A) (A) (A) (A) (A) (A)
                 (A) (A) (A) (A) (A) (A) (A) (A) (A) (A) (A) (A)
                 (A) (A) (A) (A) (A) (A) (A) (A) (A) (A) (A) (A)
                 (A) (A) (A) (A) (A) (A) (A) (A) (A) (A) (A) (A)
                 (A) (A) (A) (A) (A) (A) (A) (A) (A) (A) (A) (A)
                 (A) (A) (A) (A) (A) (A) (A) (A) (A) (A) (A) (A)
                 (A) (A) (A) (A) (A) (A) (A) (A) (A) (A) (A) (A)
                 (A) (A) (A) (A) (A) (A) (A) (A) (A) (A) (A) (A)
                 (A) (A) (A) (A) (A) (A) (A) (A) (A) (A) (A) (A)
                 (A) (A) (A) (A) (A) (A) (A) (A) (A) (A) (A) (A)
                 (A) (A) (A) (A) (A) (A) (A) (A) (A) (A) (A) (A)
                 (A) (A) (A) (A) (A) (A) (A) (A) (A) (A) (A) (A)
                 (A) (A) (A) (A) (A) (A) (A) (A) (A) (A) (A) (A)
                 (A) (A) (A) (A) (A) (A) (A) (A) (A) (A) (A) (A)
                 (A) (A) (A) (A) (A) (A) (A) (A) (A) (A) (A) (A)
                 (A) (A) (A) (A) (A) (A) (A) (A) (A) (A) (A) (A)
                 (A) (A) (A) (A) (A) (A) (A) (A) (A) (A) (A) (A)
                 (A) (A) (A) (A) (A) (A) (A) (A) (A) (A) (A) (A)
                 (A) (A) (A) (A) (A) (A) (A) (A) (A) (A) (A) (A)
                 (A) (A) (A) (A) (A) (A) (A) (A) (A) (A) (A) (A)
[...]
 Alpha virt. eigenvalues --    1.12927   1.13310   1.13386   1.14041   1.14672
 Alpha virt. eigenvalues --    1.15124   1.15409   1.16324   1.16632   1.17154
 Alpha virt. eigenvalues --    1.17962   1.18369   1.18650   1.18966   1.19709
 Alpha virt. eigenvalues --    1.20105   1.20321   1.20662   1.20805   1.21110
 Alpha virt. eigenvalues --    1.21780   1.22042   1.22962   1.23084   1.23424
 Alpha virt. eigenvalues --    1.23633   1.23939   1.24098   1.24497   1.24715
 Alpha virt. eigenvalues --    1.25478   1.25589   1.25818   1.26719   1.27101
 Alpha virt. eigenvalues --    1.28040   1.28634   1.29274   1.30020   1.30874
 Alpha virt. eigenvalues --    1.31102   1.31412   1.31879   1.32059   1.32224
 Alpha virt. eigenvalues --    1.32381   1.32652   1.33196   1.33494   1.34031
 Alpha virt. eigenvalues --    1.34588   1.35123   1.35261   1.35339   1.35499
 Alpha virt. eigenvalues --    1.35787   1.36280   1.37242   1.37565   1.37846
 Alpha virt. eigenvalues --    1.38562   1.39188   1.39304   1.39461   1.40189
 Alpha virt. eigenvalues --    1.41057   1.41526   1.41956   1.42221   1.42806
 Alpha virt. eigenvalues --    1.43026   1.43111   1.43817   1.44056   1.44949
 Alpha virt. eigenvalues --    1.45028   1.45276   1.45781   1.46390   1.46411
 Alpha virt. eigenvalues --    1.47106   1.47588   1.47906   1.48487   1.48774
 Alpha virt. eigenvalues --    1.48914   1.49635   1.49880   1.50296   1.51113
 Alpha virt. eigenvalues --    1.51625   1.51896   1.52306   1.52415   1.52702
 Alpha virt. eigenvalues --    1.52807   1.52878   1.52983   1.53270   1.53627
 Alpha virt. eigenvalues --    1.53652   1.54187   1.54514   1.54571   1.54991
 Alpha virt. eigenvalues --    1.55458   1.55647   1.55747   1.55856   1.56351
 Alpha virt. eigenvalues --    1.56505   1.56676   1.56974   1.57254   1.57270
 Alpha virt. eigenvalues --    1.57407   1.57765   1.58005   1.58084   1.58966
 Alpha virt. eigenvalues --    1.59228   1.59345   1.59763   1.60023   1.61307
 Alpha virt. eigenvalues --    1.61535   1.61655   1.62189   1.62259   1.63232
 Alpha virt. eigenvalues --    1.63331   1.64176   1.64281   1.64664   1.64836
 Alpha virt. eigenvalues --    1.65337   1.66390   1.66627   1.66788   1.67027
 Alpha virt. eigenvalues --    1.67242   1.67502   1.67799   1.68527   1.69385
 Alpha virt. eigenvalues --    1.69987   1.70031   1.70415   1.70549   1.70857
 Alpha virt. eigenvalues --    1.71150   1.71570   1.71990   1.72232   1.72331
 Alpha virt. eigenvalues --    1.72567   1.72740   1.72991   1.73208   1.73357
 Alpha virt. eigenvalues --    1.73566   1.73691   1.73766   1.74301   1.74480
 Alpha virt. eigenvalues --    1.74800   1.75063   1.75228   1.75597   1.76052
 Alpha virt. eigenvalues --    1.76267   1.76419   1.76822   1.77136   1.77275
 Alpha virt. eigenvalues --    1.77593   1.77678   1.78115   1.78239   1.78431
 Alpha virt. eigenvalues --    1.78807   1.79059   1.79294   1.79346   1.79659
 Alpha virt. eigenvalues --    1.79688   1.79993   1.80115   1.80268   1.80592
 Alpha virt. eigenvalues --    1.80686   1.80833   1.81136   1.81352   1.81600
 Alpha virt. eigenvalues --    1.81771   1.82077   1.82159   1.82217   1.82996
 Alpha virt. eigenvalues --    1.83155   1.83596   1.83733   1.83806   1.83902
 Alpha virt. eigenvalues --    1.84086   1.84146   1.84213   1.84468   1.84663
 Alpha virt. eigenvalues --    1.85037   1.85561   1.85670   1.85837   1.86151
 Alpha virt. eigenvalues --    1.86204   1.86314   1.86422   1.86787   1.87144
 Alpha virt. eigenvalues --    1.87337   1.87617   1.87633   1.88128   1.88552
 Alpha virt. eigenvalues --    1.88660   1.88736   1.89039   1.89423   1.89518
 Alpha virt. eigenvalues --    1.89764   1.89855   1.90119   1.90451   1.90572
 Alpha virt. eigenvalues --    1.90787   1.90900   1.91048   1.91824   1.92009
 Alpha virt. eigenvalues --    1.92162   1.92422   1.92518   1.92903   1.93240
 Alpha virt. eigenvalues --    1.93427   1.93608   1.93796   1.93990   1.94714
 Alpha virt. eigenvalues --    1.94813   1.95009   1.95273   1.96134   1.96272
 Alpha virt. eigenvalues --    1.96445   1.96580   1.96865   1.97183   1.97373
 Alpha virt. eigenvalues --    1.97625   1.97850   1.98212   1.98396   1.98894
 Alpha virt. eigenvalues --    1.99453   1.99680   1.99723   1.99955   2.00431
 Alpha virt. eigenvalues --    2.00618   2.00911   2.01070   2.01494   2.01652
 Alpha virt. eigenvalues --    2.02047   2.02186   2.02266   2.02691   2.02840
 Alpha virt. eigenvalues --    2.03175   2.04096   2.04179   2.04470   2.04613
 Alpha virt. eigenvalues --    2.04875   2.05163   2.05354   2.05566   2.05850
 Alpha virt. eigenvalues --    2.06222   2.06837   2.07063   2.07685   2.07733
 Alpha virt. eigenvalues --    2.08012   2.08152   2.08707   2.08910   2.08979
 Alpha virt. eigenvalues --    2.09440   2.09490   2.09917   2.09981   2.10209
 Alpha virt. eigenvalues --    2.10524   2.10883   2.11123   2.11208   2.11646
 Alpha virt. eigenvalues --    2.11813   2.12201   2.12561   2.13096   2.13519
 Alpha virt. eigenvalues --    2.13797   2.14240   2.14302   2.14657   2.15018
 Alpha virt. eigenvalues --    2.15194   2.15490   2.15794   2.16215   2.16466
 Alpha virt. eigenvalues --    2.16693   2.16999   2.17778   2.18229   2.18682
 Alpha virt. eigenvalues --    2.18868   2.19240   2.19716   2.19836   2.20689
 Alpha virt. eigenvalues --    2.20908   2.21257   2.21589   2.21797   2.21993
 Alpha virt. eigenvalues --    2.22577   2.23469   2.24171   2.24698   2.25441
 Alpha virt. eigenvalues --    2.25674   2.26093   2.26297   2.26604   2.26805
 Alpha virt. eigenvalues --    2.27405   2.27493   2.28005   2.28192   2.28383
 Alpha virt. eigenvalues --    2.28900   2.29278   2.29679   2.29867   2.30097
 Alpha virt. eigenvalues --    2.30378   2.31176   2.32422   2.32532   2.32580
 Alpha virt. eigenvalues --    2.33444   2.33629   2.33682   2.33936   2.34550
 Alpha virt. eigenvalues --    2.34722   2.34841   2.35236   2.35779   2.36327
 Alpha virt. eigenvalues --    2.36666   2.36815   2.37174   2.37322   2.37570
 Alpha virt. eigenvalues --    2.37594   2.38049   2.38894   2.39276   2.39440
 Alpha virt. eigenvalues --    2.39797   2.40502   2.40819   2.41237   2.41412
 Alpha virt. eigenvalues --    2.41488   2.42041   2.42459   2.42769   2.42927
 Alpha virt. eigenvalues --    2.43670   2.44430   2.45104   2.45334   2.45827
 Alpha virt. eigenvalues --    2.46007   2.46210   2.46809   2.46900   2.46948
 Alpha virt. eigenvalues --    2.47570   2.47713   2.48436   2.48871   2.49209
 Alpha virt. eigenvalues --    2.49690   2.50578   2.51039   2.51316   2.51800
 Alpha virt. eigenvalues --    2.51898   2.52181   2.52904   2.53247   2.53626
 Alpha virt. eigenvalues --    2.54313   2.54639   2.54829   2.55839   2.56413
 Alpha virt. eigenvalues --    2.56688   2.56856   2.57242   2.57433   2.57689
 Alpha virt. eigenvalues --    2.57824   2.58053   2.58352   2.58740   2.58958
 Alpha virt. eigenvalues --    2.59373   2.59876   2.60214   2.60696   2.61196
 Alpha virt. eigenvalues --    2.61869   2.63159   2.63535   2.63605   2.63889
 Alpha virt. eigenvalues --    2.64099   2.64390   2.64523   2.64867   2.64957
 Alpha virt. eigenvalues --    2.65235   2.65771   2.65960   2.66566   2.66924
 Alpha virt. eigenvalues --    2.68105   2.68122   2.68911   2.69449   2.69693
 Alpha virt. eigenvalues --    2.70463   2.70722   2.70881   2.71094   2.71370
 Alpha virt. eigenvalues --    2.71801   2.72325   2.72555   2.73222   2.73474
 Alpha virt. eigenvalues --    2.73777   2.74257   2.74451   2.74642   2.75056
 Alpha virt. eigenvalues --    2.75288   2.76254   2.76726   2.76994   2.77445
 Alpha virt. eigenvalues --    2.78432   2.80377   2.80515   2.80625   2.80886
 Alpha virt. eigenvalues --    2.81578   2.81801   2.82017   2.83235   2.83892
 Alpha virt. eigenvalues --    2.84031   2.85095   2.85558   2.85742   2.86057
 Alpha virt. eigenvalues --    2.86426   2.86937   2.87331   2.88636   2.88743
 Alpha virt. eigenvalues --    2.89205   2.89521   2.90041   2.90234   2.90966
 Alpha virt. eigenvalues --    2.91180   2.91361   2.91583   2.92141   2.92401
 Alpha virt. eigenvalues --    2.92697   2.93157   2.93315   2.93478   2.93612
 Alpha virt. eigenvalues --    2.93924   2.94175   2.94924   2.94996   2.95369
 Alpha virt. eigenvalues --    2.95519   2.96262   2.96273   2.96728   2.96939
 Alpha virt. eigenvalues --    2.97234   2.98007   2.98266   2.98369   2.98996
 Alpha virt. eigenvalues --    2.99177   2.99565   2.99855   3.00011   3.00108
 Alpha virt. eigenvalues --    3.00125   3.00603   3.00676   3.01434   3.02082
 Alpha virt. eigenvalues --    3.02437   3.03072   3.03167   3.03650   3.03711
 Alpha virt. eigenvalues --    3.04178   3.04412   3.04754   3.05321   3.05513
 Alpha virt. eigenvalues --    3.05863   3.05960   3.06419   3.06554   3.07990
 Alpha virt. eigenvalues --    3.08335   3.08808   3.08912   3.09069   3.09290
 Alpha virt. eigenvalues --    3.10069   3.10815   3.12072   3.13377   3.13479
 Alpha virt. eigenvalues --    3.13866   3.14208   3.15128   3.15471   3.15892
 Alpha virt. eigenvalues --    3.16571   3.16876   3.17024   3.18211   3.18625
 Alpha virt. eigenvalues --    3.19268   3.19649   3.20772   3.21538   3.24325
 Alpha virt. eigenvalues --    3.24784   3.25764   3.36546   3.36833   3.39652
 Alpha virt. eigenvalues --    3.40105   3.42440   3.44633   3.47590   3.49625
 Alpha virt. eigenvalues --    3.55394   3.58886   3.60129   3.65033   3.65654
 Alpha virt. eigenvalues --    3.66612   3.68678
          Condensed to atoms (all electrons):
 Mulliken charges:
               1
     1  Mg   0.939961
     2  C    0.012795
     3  C   -0.061064
     4  C   -0.030644
     5  C   -0.047958
     6  N   -0.324695
     7  C    0.015892
     8  C   -0.080267
     9  C   -0.157572
    10  C    0.053230
    11  C    0.032928
    12  C    0.026407
    13  C    0.007733
    14  C    0.212010
    15  O   -0.266203
    16  O   -0.373943
    17  N   -0.519349
    18  C    0.157087
    19  C   -0.174631
    20  C   -0.036013
    21  C    0.125169
    22  C    0.085314
    23  C   -0.001946
    24  O   -0.250104
    25  C    0.001049
    26  N   -0.358063
    27  C    0.079042
    28  C   -0.121901
    29  C   -0.041000
    30  C    0.020159
    31  C   -0.007476
    32  C   -0.059341
    33  C   -0.068326
    34  N   -0.460298
    35  C    0.107522
    36  C   -0.206320
    37  C   -0.024711
    38  C    0.180194
    39  C    0.076631
    40  C    0.089403
    41  O   -0.227841
    42  C   -0.100066
    43  C    0.302980
    44  O   -0.235898
    45  O   -0.379674
    46  C    0.129536
    47  C    0.233226
    48  C   -0.138246
    49  C   -0.212836
    50  C    0.016173
    51  C    0.016946
    52  C   -0.039397
    53  C   -0.033197
    54  C   -0.198131
    55  C    0.011301
    56  C   -0.019845
    57  C   -0.012542
    58  C   -0.030380
    59  C   -0.219971
    60  C   -0.016035
    61  C   -0.028129
    62  C   -0.041285
    63  C    0.042108
    64  C   -0.275366
    65  C   -0.007605
    66  C   -0.029785
    67  H    0.012315
    68  H   -0.025803
    69  H    0.005950
    70  H    0.030995
    71  H    0.040703
    72  H    0.047887
    73  H    0.053145
    74  H    0.036008
    75  H    0.036262
    76  H    0.066686
    77  H    0.062609
    78  H    0.047604
    79  H    0.062648
    80  H    0.065483
    81  H    0.016276
    82  H    0.047190
    83  H    0.075174
    84  H    0.048122
    85  H    0.061502
    86  H    0.048294
    87  H    0.059240
    88  H    0.038949
    89  H    0.037969
    90  H    0.047062
    91  H    0.038625
    92  H    0.041023
    93  H    0.052266
    94  H    0.070495
    95  H    0.076179
    96  H    0.072990
    97  H    0.043960
    98  H    0.066058
    99  H    0.060610
   100  H    0.046734
   101  H    0.057456
   102  H    0.062197
   103  H    0.058441
   104  H    0.037084
   105  H    0.041785
   106  H    0.039049
   107  H    0.080976
   108  H    0.014306
   109  H    0.040176
   110  H    0.042078
   111  H    0.031566
   112  H    0.021887
   113  H    0.034629
   114  H    0.030209
   115  H    0.022295
   116  H    0.033463
   117  H    0.023132
   118  H    0.024621
   119  H    0.033265
   120  H    0.032955
   121  H    0.022978
   122  H    0.014047
   123  H    0.019088
   124  H    0.028078
   125  H    0.031692
   126  H    0.055564
   127  H    0.038574
   128  H    0.019275
   129  H    0.014188
   130  H    0.035716
   131  H    0.035219
   132  H    0.022923
   133  H    0.039369
   134  H    0.034809
   135  H    0.037833
   136  H    0.025658
   137  H    0.020360
   138  H    0.024282
   139  H    0.030716
   140  H    0.040110
 Sum of Mulliken charges =  -0.00000
 Mulliken charges with hydrogens summed into heavy atoms:
               1
     1  Mg   0.939961
     2  C    0.012795
     3  C   -0.048748
     4  C   -0.056447
     5  C   -0.042009
     6  N   -0.324695
     7  C    0.015892
     8  C   -0.049272
     9  C   -0.116869
    10  C    0.053230
    11  C    0.169968
    12  C    0.129355
    13  C    0.117946
    14  C    0.212010
    15  O   -0.266203
    16  O   -0.373943
    17  N   -0.519349
    18  C    0.157087
    19  C   -0.174631
    20  C   -0.036013
    21  C    0.125169
    22  C    0.229720
    23  C   -0.001946
    24  O   -0.250104
    25  C    0.171536
    26  N   -0.358063
    27  C    0.079042
    28  C   -0.060399
    29  C    0.007294
    30  C    0.020159
    31  C    0.128681
    32  C    0.026345
    33  C    0.095458
    34  N   -0.460298
    35  C    0.107522
    36  C   -0.206320
    37  C   -0.024711
    38  C    0.180194
    39  C    0.269759
    40  C    0.089403
    41  O   -0.227841
    42  C   -0.034008
    43  C    0.302980
    44  O   -0.235898
    45  O   -0.379674
    46  C    0.294335
    47  C    0.353863
    48  C   -0.101162
    49  C   -0.212836
    50  C    0.177984
    51  C    0.071428
    52  C    0.034247
    53  C    0.023320
    54  C   -0.167922
    55  C    0.090191
    56  C    0.038042
    57  C    0.043391
    58  C    0.002755
    59  C   -0.191893
    60  C    0.109796
    61  C    0.005334
    62  C    0.029650
    63  C    0.104400
    64  C   -0.240557
    65  C    0.076245
    66  C    0.065322
 Electronic spatial extent (au):  <R**2>=          82735.6353
 Charge=             -0.0000 electrons
 Dipole moment (field-independent basis, Debye):
    X=             -3.4179    Y=              0.4984    Z=             -1.5254  Tot=              3.7759
 Quadrupole moment (field-independent basis, Debye-Ang):
   XX=           -361.1457   YY=           -424.8161   ZZ=           -395.6076
   XY=            -39.7173   XZ=              4.9870   YZ=             -6.2799
 Traceless Quadrupole moment (field-independent basis, Debye-Ang):
   XX=             32.7107   YY=            -30.9596   ZZ=             -1.7511
   XY=            -39.7173   XZ=              4.9870   YZ=             -6.2799
 Octapole moment (field-independent basis, Debye-Ang**2):
  XXX=           -317.7117  YYY=           -206.5993  ZZZ=            -32.4944  XYY=             54.1658
  XXY=            151.8306  XXZ=            -95.3769  XZZ=           -107.7729  YZZ=             27.5222
  YYZ=           -149.2431  XYZ=             80.6272
 Hexadecapole moment (field-independent basis, Debye-Ang**3):
 XXXX=         -66192.7090 YYYY=         -34824.6219 ZZZZ=         -11871.4162 XXXY=          -1315.8805
 XXXZ=           1265.7483 YYYX=          -1501.6542 YYYZ=           -534.7988 ZZZX=            -41.5929
 ZZZY=            167.5242 XXYY=         -17002.9840 XXZZ=         -12846.5109 YYZZ=          -7851.5757
 XXYZ=            -74.2844 YYXZ=            167.5519 ZZXY=             80.2620
 N-N= 9.975389365864D+03 E-N=-2.694116549695D+04  KE= 2.974427698255D+03
 Leave Link  601 at Thu May  5 00:24:15 2022, MaxMem= 10066329600 cpu:              10.6 elap:               0.5
 (Enter /sw/apps/gaussian-16.0/g16/l9999.exe)
 1\1\GINC-BP1-COMPUTE168\SP\RPBE1PBE TD-FC\def2SVP\C55H74Mg1N4O6\OF1564
 1\05-May-2022\0\\#p PBE1PBE/Def2SVP td=(nstates=5)\\step_501_chromopho
 re_20 TDDFT with PBE1PBE functional\\0,1\Mg,0,7.636,56.802,41.945\C,0,
 6.625,53.446,41.385\C,0,10.681,55.975,40.458\C,0,8.032,60.025,41.405\C
 ,0,4.228,57.385,43.149\N,0,8.45,54.913,40.781\C,0,7.957,53.661,40.95\C
 ,0,8.99,52.648,40.49\C,0,10.329,53.333,40.764\C,0,9.814,54.854,40.608\
 C,0,10.976,53.149,42.138\C,0,8.688,52.223,38.987\C,0,8.786,50.762,38.7
 85\C,0,9.472,50.264,37.498\O,0,10.538,49.67,37.544\O,0,8.683,50.519,36
 .406\N,0,9.15,57.919,40.995\C,0,10.372,57.384,40.517\C,0,11.157,58.505
 ,40.065\C,0,10.496,59.72,40.387\C,0,9.159,59.292,40.933\C,0,12.516,58.
 288,39.407\C,0,10.98,61.084,40.089\O,0,12.058,61.217,39.523\C,0,10.253
 ,62.368,40.32\N,0,6.193,58.496,42.173\C,0,6.766,59.71,42.052\C,0,5.813
 ,60.813,42.547\C,0,4.615,59.975,43.27\C,0,5.024,58.526,42.899\C,0,6.51
 3,61.954,43.414\C,0,3.166,60.373,42.848\C,0,2.453,59.491,41.767\N,0,5.
 854,55.731,42.223\C,0,4.596,56.1,42.779\C,0,3.778,54.831,43.012\C,0,4.
 552,53.841,42.428\C,0,5.79,54.434,41.99\C,0,2.398,54.583,43.651\C,0,4.
 627,52.438,42.17\O,0,3.862,51.526,42.488\C,0,5.871,52.243,41.379\C,0,5
 .336,51.934,39.962\O,0,4.911,52.738,39.135\O,0,5.352,50.52,39.807\C,0,
 4.796,49.972,38.637\C,0,9.183,49.94,35.134\C,0,8.236,50.218,33.933\C,0
 ,6.901,50.105,33.772\C,0,5.984,49.48,34.833\C,0,6.281,50.449,32.396\C,
 0,6.181,51.883,32.112\C,0,7.306,52.305,31.193\C,0,6.878,53.454,30.233\
 C,0,6.564,52.979,28.818\C,0,7.998,54.449,30.113\C,0,8.011,55.437,31.32
 5\C,0,9.41,55.508,32.002\C,0,10.244,56.741,31.681\C,0,9.522,58.135,32.
 016\C,0,10.887,56.753,30.224\C,0,12.372,56.193,30.207\C,0,13.365,57.38
 5,30.185\C,0,14.461,57.12,29.142\C,0,15.877,57.621,29.411\C,0,13.922,5
 7.642,27.781\H,0,11.687,55.764,40.089\H,0,8.332,61.073,41.344\H,0,3.25
 2,57.433,43.635\H,0,9.018,51.75,41.107\H,0,11.187,53.147,40.119\H,0,10
 .601,52.287,42.689\H,0,11.03,54.09,42.686\H,0,12.003,52.894,41.874\H,0
 ,9.435,52.683,38.34\H,0,7.775,52.653,38.575\H,0,7.739,50.465,38.834\H,
 0,9.336,50.338,39.625\H,0,13.35,58.534,40.064\H,0,12.538,58.834,38.465
 \H,0,12.645,57.238,39.144\H,0,10.18,62.528,41.396\H,0,9.256,62.436,39.
 883\H,0,10.868,63.229,40.061\H,0,5.413,61.221,41.619\H,0,4.751,60.04,4
 4.349\H,0,7.576,62.025,43.184\H,0,6.349,61.977,44.492\H,0,5.916,62.833
 ,43.166\H,0,3.099,61.41,42.52\H,0,2.617,60.248,43.781\H,0,1.869,60.304
 ,41.335\H,0,1.78,58.704,42.108\H,0,3.217,59.142,41.072\H,0,2.474,53.89
 1,44.489\H,0,1.984,53.997,42.831\H,0,1.915,55.552,43.775\H,0,6.406,51.
 37,41.753\H,0,4.828,48.883,38.585\H,0,5.365,50.362,37.794\H,0,3.76,50.
 312,38.634\H,0,9.168,48.853,35.206\H,0,10.199,50.335,35.123\H,0,8.791,
 50.624,33.087\H,0,6.432,48.535,35.14\H,0,5.014,49.178,34.438\H,0,5.929
 ,50.136,35.701\H,0,5.264,50.139,32.157\H,0,6.78,49.885,31.609\H,0,6.28
 8,52.4,33.066\H,0,5.205,52.23,31.772\H,0,7.812,51.543,30.601\H,0,8.083
 ,52.569,31.91\H,0,5.938,53.814,30.651\H,0,5.721,53.486,28.348\H,0,6.37
 9,51.905,28.82\H,0,7.282,53.397,28.112\H,0,7.908,55.121,29.259\H,0,8.8
 87,53.878,29.846\H,0,7.284,55.183,32.096\H,0,7.788,56.467,31.049\H,0,1
 0.049,54.633,31.882\H,0,9.284,55.501,33.085\H,0,11.105,56.5,32.304\H,0
 ,9.372,58.632,31.057\H,0,10.165,58.656,32.726\H,0,8.504,58.022,32.387\
 H,0,10.782,57.743,29.78\H,0,10.204,56.202,29.578\H,0,12.454,55.515,29.
 357\H,0,12.482,55.569,31.094\H,0,14.017,57.444,31.056\H,0,12.871,58.34
 9,30.063\H,0,14.647,56.069,28.92\H,0,16.572,56.807,29.616\H,0,15.956,5
 8.346,30.222\H,0,16.263,58.173,28.554\H,0,14.619,57.528,26.951\H,0,13.
 882,58.73,27.836\H,0,13.027,57.043,27.612\\Version=ES64L-G16RevA.03\St
 ate=1-A\HF=-3005.2831467\RMSD=5.855e-09\PG=C01 [X(C55H74Mg1N4O6)]\\@


 ROSE IS A RED
 TY COBB IS BLUE
 'CAUSE PETE JUST HIT
 NO. 4592.
 Job cpu time:       0 days 13 hours 27 minutes 16.6 seconds.
 Elapsed time:       0 days  0 hours 33 minutes 42.7 seconds.
 File lengths (MBytes):  RWF=   8929 Int=      0 D2E=      0 Chk=    390 Scr=      1
 Normal termination of Gaussian 16 at Thu May  5 00:24:16 2022.
