 Entering Gaussian System, Link 0=g16
 Initial command:
 /sw/apps/gaussian-16.0/g16/l1.exe "/tmp/Gau-43486.inp" -scrdir="/tmp/"
 Entering Link 1 = /sw/apps/gaussian-16.0/g16/l1.exe PID=     43487.
  
 Copyright (c) 1988,1990,1992,1993,1995,1998,2003,2009,2016,
            Gaussian, Inc.  All Rights Reserved.
  
 This is part of the Gaussian(R) 16 program.  It is based on
 the Gaussian(R) 09 system (copyright 2009, Gaussian, Inc.),
 the Gaussian(R) 03 system (copyright 2003, Gaussian, Inc.),
 the Gaussian(R) 98 system (copyright 1998, Gaussian, Inc.),
 the Gaussian(R) 94 system (copyright 1995, Gaussian, Inc.),
 the Gaussian 92(TM) system (copyright 1992, Gaussian, Inc.),
 the Gaussian 90(TM) system (copyright 1990, Gaussian, Inc.),
 the Gaussian 88(TM) system (copyright 1988, Gaussian, Inc.),
 the Gaussian 86(TM) system (copyright 1986, Carnegie Mellon
 University), and the Gaussian 82(TM) system (copyright 1983,
 Carnegie Mellon University). Gaussian is a federally registered
 trademark of Gaussian, Inc.
  
 This software contains proprietary and confidential information,
 including trade secrets, belonging to Gaussian, Inc.
  
 This software is provided under written license and may be
 used, copied, transmitted, or stored only in accord with that
 written license.
  
 The following legend is applicable only to US Government
 contracts under FAR:
  
                    RESTRICTED RIGHTS LEGEND
  
 Use, reproduction and disclosure by the US Government is
 subject to restrictions as set forth in subparagraphs (a)
 and (c) of the Commercial Computer Software - Restricted
 Rights clause in FAR 52.227-19.
  
 Gaussian, Inc.
 340 Quinnipiac St., Bldg. 40, Wallingford CT 06492
  
  
 ---------------------------------------------------------------
 Warning -- This program may not be used in any manner that
 competes with the business of Gaussian, Inc. or will provide
 assistance to any competitor of Gaussian, Inc.  The licensee
 of this program is prohibited from giving any competitor of
 Gaussian, Inc. access to this program.  By using this program,
 the user acknowledges that Gaussian, Inc. is engaged in the
 business of creating and licensing software in the field of
 computational chemistry and represents and warrants to the
 licensee that it is not a competitor of Gaussian, Inc. and that
 it will not use this program in any manner prohibited above.
 ---------------------------------------------------------------
  

 Cite this work as:
 Gaussian 16, Revision A.03,
 M. J. Frisch, G. W. Trucks, H. B. Schlegel, G. E. Scuseria, 
 M. A. Robb, J. R. Cheeseman, G. Scalmani, V. Barone, 
 G. A. Petersson, H. Nakatsuji, X. Li, M. Caricato, A. V. Marenich, 
 J. Bloino, B. G. Janesko, R. Gomperts, B. Mennucci, H. P. Hratchian, 
 J. V. Ortiz, A. F. Izmaylov, J. L. Sonnenberg, D. Williams-Young, 
 F. Ding, F. Lipparini, F. Egidi, J. Goings, B. Peng, A. Petrone, 
 T. Henderson, D. Ranasinghe, V. G. Zakrzewski, J. Gao, N. Rega, 
 G. Zheng, W. Liang, M. Hada, M. Ehara, K. Toyota, R. Fukuda, 
 J. Hasegawa, M. Ishida, T. Nakajima, Y. Honda, O. Kitao, H. Nakai, 
 T. Vreven, K. Throssell, J. A. Montgomery, Jr., J. E. Peralta, 
 F. Ogliaro, M. J. Bearpark, J. J. Heyd, E. N. Brothers, K. N. Kudin, 
 V. N. Staroverov, T. A. Keith, R. Kobayashi, J. Normand, 
 K. Raghavachari, A. P. Rendell, J. C. Burant, S. S. Iyengar, 
 J. Tomasi, M. Cossi, J. M. Millam, M. Klene, C. Adamo, R. Cammi, 
 J. W. Ochterski, R. L. Martin, K. Morokuma, O. Farkas, 
 J. B. Foresman, and D. J. Fox, Gaussian, Inc., Wallingford CT, 2016.
 
 ******************************************
 Gaussian 16:  ES64L-G16RevA.03 25-Dec-2016
                 5-May-2022 
 ******************************************
 %nproc=24
 Will use up to   24 processors via shared memory.
 %mem=75GB
 --------------------------------
 #p wB97XD/Def2SVP td=(nstates=5)
 --------------------------------
 1/38=1,172=1/1;
 2/12=2,17=6,18=5,40=1/2;
 3/5=43,7=101,11=9,25=1,30=1,74=-58/1,2,3,8;
 4//1;
 5/5=2,38=5/2;
 8/6=1,10=1,108=5/1;
 9/41=5,42=1,70=2/14;
 6/7=2,8=2,9=2,10=2/1;
 99/5=1,9=1/99;
 Leave Link    1 at Thu May  5 00:24:16 2022, MaxMem= 10066329600 cpu:               0.6 elap:               0.0
 (Enter /sw/apps/gaussian-16.0/g16/l101.exe)
 ----------------------------------------------------
 step_501_chromophore_20 TDDFT with wB97XD functional
 ----------------------------------------------------
 Symbolic Z-matrix:
 Charge =  0 Multiplicity = 1
 Mg                    7.636     56.802    41.945 
 C                     6.625     53.446    41.385 
 C                     10.681    55.975    40.458 
 C                     8.032     60.025    41.405 
 C                     4.228     57.385    43.149 
 N                     8.45      54.913    40.781 
 C                     7.957     53.661    40.95 
 C                     8.99      52.648    40.49 
 C                     10.329    53.333    40.764 
 C                     9.814     54.854    40.608 
 C                     10.976    53.149    42.138 
 C                     8.688     52.223    38.987 
 C                     8.786     50.762    38.785 
 C                     9.472     50.264    37.498 
 O                     10.538    49.67     37.544 
 O                     8.683     50.519    36.406 
 N                     9.15      57.919    40.995 
 C                     10.372    57.384    40.517 
 C                     11.157    58.505    40.065 
 C                     10.496    59.72     40.387 
 C                     9.159     59.292    40.933 
 C                     12.516    58.288    39.407 
 C                     10.98     61.084    40.089 
 O                     12.058    61.217    39.523 
 C                     10.253    62.368    40.32 
 N                     6.193     58.496    42.173 
 C                     6.766     59.71     42.052 
 C                     5.813     60.813    42.547 
 C                     4.615     59.975    43.27 
 C                     5.024     58.526    42.899 
 C                     6.513     61.954    43.414 
 C                     3.166     60.373    42.848 
 C                     2.453     59.491    41.767 
 N                     5.854     55.731    42.223 
 C                     4.596     56.1      42.779 
 C                     3.778     54.831    43.012 
 C                     4.552     53.841    42.428 
 C                     5.79      54.434    41.99 
 C                     2.398     54.583    43.651 
 C                     4.627     52.438    42.17 
 O                     3.862     51.526    42.488 
 C                     5.871     52.243    41.379 
 C                     5.336     51.934    39.962 
 O                     4.911     52.738    39.135 
 O                     5.352     50.52     39.807 
 C                     4.796     49.972    38.637 
 C                     9.183     49.94     35.134 
 C                     8.236     50.218    33.933 
 C                     6.901     50.105    33.772 
 C                     5.984     49.48     34.833 
 C                     6.281     50.449    32.396 
 C                     6.181     51.883    32.112 
 C                     7.306     52.305    31.193 
 C                     6.878     53.454    30.233 
 C                     6.564     52.979    28.818 
 C                     7.998     54.449    30.113 
 C                     8.011     55.437    31.325 
 C                     9.41      55.508    32.002 
 C                     10.244    56.741    31.681 
 C                     9.522     58.135    32.016 
 C                     10.887    56.753    30.224 
 C                     12.372    56.193    30.207 
 C                     13.365    57.385    30.185 
 C                     14.461    57.12     29.142 
 C                     15.877    57.621    29.411 
 C                     13.922    57.642    27.781 
 H                     11.687    55.764    40.089 
 H                     8.332     61.073    41.344 
 H                     3.252     57.433    43.635 
 H                     9.018     51.75     41.107 
 H                     11.187    53.147    40.119 
 H                     10.601    52.287    42.689 
 H                     11.03     54.09     42.686 
 H                     12.003    52.894    41.874 
 H                     9.435     52.683    38.34 
 H                     7.775     52.653    38.575 
 H                     7.739     50.465    38.834 
 H                     9.336     50.338    39.625 
 H                     13.35     58.534    40.064 
 H                     12.538    58.834    38.465 
 H                     12.645    57.238    39.144 
 H                     10.18     62.528    41.396 
 H                     9.256     62.436    39.883 
 H                     10.868    63.229    40.061 
 H                     5.413     61.221    41.619 
 H                     4.751     60.04     44.349 
 H                     7.576     62.025    43.184 
 H                     6.349     61.977    44.492 
 H                     5.916     62.833    43.166 
 H                     3.099     61.41     42.52 
 H                     2.617     60.248    43.781 
 H                     1.869     60.304    41.335 
 H                     1.78      58.704    42.108 
 H                     3.217     59.142    41.072 
 H                     2.474     53.891    44.489 
 H                     1.984     53.997    42.831 
 H                     1.915     55.552    43.775 
 H                     6.406     51.37     41.753 
 H                     4.828     48.883    38.585 
 H                     5.365     50.362    37.794 
 H                     3.76      50.312    38.634 
 H                     9.168     48.853    35.206 
 H                     10.199    50.335    35.123 
 H                     8.791     50.624    33.087 
 H                     6.432     48.535    35.14 
 H                     5.014     49.178    34.438 
 H                     5.929     50.136    35.701 
 H                     5.264     50.139    32.157 
 H                     6.78      49.885    31.609 
 H                     6.288     52.4      33.066 
 H                     5.205     52.23     31.772 
 H                     7.812     51.543    30.601 
 H                     8.083     52.569    31.91 
 H                     5.938     53.814    30.651 
 H                     5.721     53.486    28.348 
 H                     6.379     51.905    28.82 
 H                     7.282     53.397    28.112 
 H                     7.908     55.121    29.259 
 H                     8.887     53.878    29.846 
 H                     7.284     55.183    32.096 
 H                     7.788     56.467    31.049 
 H                     10.049    54.633    31.882 
 H                     9.284     55.501    33.085 
 H                     11.105    56.5      32.304 
 H                     9.372     58.632    31.057 
 H                     10.165    58.656    32.726 
 H                     8.504     58.022    32.387 
 H                     10.782    57.743    29.78 
 H                     10.204    56.202    29.578 
 H                     12.454    55.515    29.357 
 H                     12.482    55.569    31.094 
 H                     14.017    57.444    31.056 
 H                     12.871    58.349    30.063 
 H                     14.647    56.069    28.92 
 H                     16.572    56.807    29.616 
 H                     15.956    58.346    30.222 
 H                     16.263    58.173    28.554 
 H                     14.619    57.528    26.951 
 H                     13.882    58.73     27.836 
 H                     13.027    57.043    27.612 
 
 ITRead=  0  0  0  0  0  0  0  0  0  0  0  0  0  0  0  0  0  0  0  0
 ITRead=  0  0  0  0  0  0  0  0  0  0  0  0  0  0  0  0  0  0  0  0
 ITRead=  0  0  0  0  0  0  0  0  0  0  0  0  0  0  0  0  0  0  0  0
 ITRead=  0  0  0  0  0  0  0  0  0  0  0  0  0  0  0  0  0  0  0  0
 ITRead=  0  0  0  0  0  0  0  0  0  0  0  0  0  0  0  0  0  0  0  0
 ITRead=  0  0  0  0  0  0  0  0  0  0  0  0  0  0  0  0  0  0  0  0
 ITRead=  0  0  0  0  0  0  0  0  0  0  0  0  0  0  0  0  0  0  0  0
 MicOpt= -1 -1 -1 -1 -1 -1 -1 -1 -1 -1 -1 -1 -1 -1 -1 -1 -1 -1 -1 -1
 MicOpt= -1 -1 -1 -1 -1 -1 -1 -1 -1 -1 -1 -1 -1 -1 -1 -1 -1 -1 -1 -1
 MicOpt= -1 -1 -1 -1 -1 -1 -1 -1 -1 -1 -1 -1 -1 -1 -1 -1 -1 -1 -1 -1
 MicOpt= -1 -1 -1 -1 -1 -1 -1 -1 -1 -1 -1 -1 -1 -1 -1 -1 -1 -1 -1 -1
 MicOpt= -1 -1 -1 -1 -1 -1 -1 -1 -1 -1 -1 -1 -1 -1 -1 -1 -1 -1 -1 -1
 MicOpt= -1 -1 -1 -1 -1 -1 -1 -1 -1 -1 -1 -1 -1 -1 -1 -1 -1 -1 -1 -1
 MicOpt= -1 -1 -1 -1 -1 -1 -1 -1 -1 -1 -1 -1 -1 -1 -1 -1 -1 -1 -1 -1
 NAtoms=    140 NQM=      140 NQMF=       0 NMMI=      0 NMMIF=      0
                NMic=       0 NMicF=      0.
                    Isotopes and Nuclear Properties:
 (Nuclear quadrupole moments (NQMom) in fm**2, nuclear magnetic moments (NMagM)
  in nuclear magnetons)

  Atom         1           2           3           4           5           6           7           8           9          10
 IAtWgt=          24          12          12          12          12          14          12          12          12          12
 AtmWgt=  23.9850450  12.0000000  12.0000000  12.0000000  12.0000000  14.0030740  12.0000000  12.0000000  12.0000000  12.0000000
 NucSpn=           0           0           0           0           0           2           0           0           0           0
 AtZEff=  -0.0000000  -0.0000000  -0.0000000  -0.0000000  -0.0000000  -0.0000000  -0.0000000  -0.0000000  -0.0000000  -0.0000000
 NQMom=    0.0000000   0.0000000   0.0000000   0.0000000   0.0000000   2.0440000   0.0000000   0.0000000   0.0000000   0.0000000
 NMagM=    0.0000000   0.0000000   0.0000000   0.0000000   0.0000000   0.4037610   0.0000000   0.0000000   0.0000000   0.0000000
 AtZNuc=  12.0000000   6.0000000   6.0000000   6.0000000   6.0000000   7.0000000   6.0000000   6.0000000   6.0000000   6.0000000

  Atom        11          12          13          14          15          16          17          18          19          20
 IAtWgt=          12          12          12          12          16          16          14          12          12          12
 AtmWgt=  12.0000000  12.0000000  12.0000000  12.0000000  15.9949146  15.9949146  14.0030740  12.0000000  12.0000000  12.0000000
 NucSpn=           0           0           0           0           0           0           2           0           0           0
 AtZEff=  -0.0000000  -0.0000000  -0.0000000  -0.0000000  -0.0000000  -0.0000000  -0.0000000  -0.0000000  -0.0000000  -0.0000000
 NQMom=    0.0000000   0.0000000   0.0000000   0.0000000   0.0000000   0.0000000   2.0440000   0.0000000   0.0000000   0.0000000
 NMagM=    0.0000000   0.0000000   0.0000000   0.0000000   0.0000000   0.0000000   0.4037610   0.0000000   0.0000000   0.0000000
 AtZNuc=   6.0000000   6.0000000   6.0000000   6.0000000   8.0000000   8.0000000   7.0000000   6.0000000   6.0000000   6.0000000

  Atom        21          22          23          24          25          26          27          28          29          30
 IAtWgt=          12          12          12          16          12          14          12          12          12          12
 AtmWgt=  12.0000000  12.0000000  12.0000000  15.9949146  12.0000000  14.0030740  12.0000000  12.0000000  12.0000000  12.0000000
 NucSpn=           0           0           0           0           0           2           0           0           0           0
 AtZEff=  -0.0000000  -0.0000000  -0.0000000  -0.0000000  -0.0000000  -0.0000000  -0.0000000  -0.0000000  -0.0000000  -0.0000000
 NQMom=    0.0000000   0.0000000   0.0000000   0.0000000   0.0000000   2.0440000   0.0000000   0.0000000   0.0000000   0.0000000
 NMagM=    0.0000000   0.0000000   0.0000000   0.0000000   0.0000000   0.4037610   0.0000000   0.0000000   0.0000000   0.0000000
 AtZNuc=   6.0000000   6.0000000   6.0000000   8.0000000   6.0000000   7.0000000   6.0000000   6.0000000   6.0000000   6.0000000

  Atom        31          32          33          34          35          36          37          38          39          40
 IAtWgt=          12          12          12          14          12          12          12          12          12          12
 AtmWgt=  12.0000000  12.0000000  12.0000000  14.0030740  12.0000000  12.0000000  12.0000000  12.0000000  12.0000000  12.0000000
 NucSpn=           0           0           0           2           0           0           0           0           0           0
 AtZEff=  -0.0000000  -0.0000000  -0.0000000  -0.0000000  -0.0000000  -0.0000000  -0.0000000  -0.0000000  -0.0000000  -0.0000000
 NQMom=    0.0000000   0.0000000   0.0000000   2.0440000   0.0000000   0.0000000   0.0000000   0.0000000   0.0000000   0.0000000
 NMagM=    0.0000000   0.0000000   0.0000000   0.4037610   0.0000000   0.0000000   0.0000000   0.0000000   0.0000000   0.0000000
 AtZNuc=   6.0000000   6.0000000   6.0000000   7.0000000   6.0000000   6.0000000   6.0000000   6.0000000   6.0000000   6.0000000

  Atom        41          42          43          44          45          46          47          48          49          50
 IAtWgt=          16          12          12          16          16          12          12          12          12          12
 AtmWgt=  15.9949146  12.0000000  12.0000000  15.9949146  15.9949146  12.0000000  12.0000000  12.0000000  12.0000000  12.0000000
 NucSpn=           0           0           0           0           0           0           0           0           0           0
 AtZEff=  -0.0000000  -0.0000000  -0.0000000  -0.0000000  -0.0000000  -0.0000000  -0.0000000  -0.0000000  -0.0000000  -0.0000000
 NQMom=    0.0000000   0.0000000   0.0000000   0.0000000   0.0000000   0.0000000   0.0000000   0.0000000   0.0000000   0.0000000
 NMagM=    0.0000000   0.0000000   0.0000000   0.0000000   0.0000000   0.0000000   0.0000000   0.0000000   0.0000000   0.0000000
 AtZNuc=   8.0000000   6.0000000   6.0000000   8.0000000   8.0000000   6.0000000   6.0000000   6.0000000   6.0000000   6.0000000

  Atom        51          52          53          54          55          56          57          58          59          60
 IAtWgt=          12          12          12          12          12          12          12          12          12          12
 AtmWgt=  12.0000000  12.0000000  12.0000000  12.0000000  12.0000000  12.0000000  12.0000000  12.0000000  12.0000000  12.0000000
 NucSpn=           0           0           0           0           0           0           0           0           0           0
 AtZEff=  -0.0000000  -0.0000000  -0.0000000  -0.0000000  -0.0000000  -0.0000000  -0.0000000  -0.0000000  -0.0000000  -0.0000000
 NQMom=    0.0000000   0.0000000   0.0000000   0.0000000   0.0000000   0.0000000   0.0000000   0.0000000   0.0000000   0.0000000
 NMagM=    0.0000000   0.0000000   0.0000000   0.0000000   0.0000000   0.0000000   0.0000000   0.0000000   0.0000000   0.0000000
 AtZNuc=   6.0000000   6.0000000   6.0000000   6.0000000   6.0000000   6.0000000   6.0000000   6.0000000   6.0000000   6.0000000

  Atom        61          62          63          64          65          66          67          68          69          70
 IAtWgt=          12          12          12          12          12          12           1           1           1           1
 AtmWgt=  12.0000000  12.0000000  12.0000000  12.0000000  12.0000000  12.0000000   1.0078250   1.0078250   1.0078250   1.0078250
 NucSpn=           0           0           0           0           0           0           1           1           1           1
 AtZEff=  -0.0000000  -0.0000000  -0.0000000  -0.0000000  -0.0000000  -0.0000000  -0.0000000  -0.0000000  -0.0000000  -0.0000000
 NQMom=    0.0000000   0.0000000   0.0000000   0.0000000   0.0000000   0.0000000   0.0000000   0.0000000   0.0000000   0.0000000
 NMagM=    0.0000000   0.0000000   0.0000000   0.0000000   0.0000000   0.0000000   2.7928460   2.7928460   2.7928460   2.7928460
 AtZNuc=   6.0000000   6.0000000   6.0000000   6.0000000   6.0000000   6.0000000   1.0000000   1.0000000   1.0000000   1.0000000

  Atom        71          72          73          74          75          76          77          78          79          80
 IAtWgt=           1           1           1           1           1           1           1           1           1           1
 AtmWgt=   1.0078250   1.0078250   1.0078250   1.0078250   1.0078250   1.0078250   1.0078250   1.0078250   1.0078250   1.0078250
 NucSpn=           1           1           1           1           1           1           1           1           1           1
 AtZEff=  -0.0000000  -0.0000000  -0.0000000  -0.0000000  -0.0000000  -0.0000000  -0.0000000  -0.0000000  -0.0000000  -0.0000000
 NQMom=    0.0000000   0.0000000   0.0000000   0.0000000   0.0000000   0.0000000   0.0000000   0.0000000   0.0000000   0.0000000
 NMagM=    2.7928460   2.7928460   2.7928460   2.7928460   2.7928460   2.7928460   2.7928460   2.7928460   2.7928460   2.7928460
 AtZNuc=   1.0000000   1.0000000   1.0000000   1.0000000   1.0000000   1.0000000   1.0000000   1.0000000   1.0000000   1.0000000

  Atom        81          82          83          84          85          86          87          88          89          90
 IAtWgt=           1           1           1           1           1           1           1           1           1           1
 AtmWgt=   1.0078250   1.0078250   1.0078250   1.0078250   1.0078250   1.0078250   1.0078250   1.0078250   1.0078250   1.0078250
 NucSpn=           1           1           1           1           1           1           1           1           1           1
 AtZEff=  -0.0000000  -0.0000000  -0.0000000  -0.0000000  -0.0000000  -0.0000000  -0.0000000  -0.0000000  -0.0000000  -0.0000000
 NQMom=    0.0000000   0.0000000   0.0000000   0.0000000   0.0000000   0.0000000   0.0000000   0.0000000   0.0000000   0.0000000
 NMagM=    2.7928460   2.7928460   2.7928460   2.7928460   2.7928460   2.7928460   2.7928460   2.7928460   2.7928460   2.7928460
 AtZNuc=   1.0000000   1.0000000   1.0000000   1.0000000   1.0000000   1.0000000   1.0000000   1.0000000   1.0000000   1.0000000

  Atom        91          92          93          94          95          96          97          98          99         100
 IAtWgt=           1           1           1           1           1           1           1           1           1           1
 AtmWgt=   1.0078250   1.0078250   1.0078250   1.0078250   1.0078250   1.0078250   1.0078250   1.0078250   1.0078250   1.0078250
 NucSpn=           1           1           1           1           1           1           1           1           1           1
 AtZEff=  -0.0000000  -0.0000000  -0.0000000  -0.0000000  -0.0000000  -0.0000000  -0.0000000  -0.0000000  -0.0000000  -0.0000000
 NQMom=    0.0000000   0.0000000   0.0000000   0.0000000   0.0000000   0.0000000   0.0000000   0.0000000   0.0000000   0.0000000
 NMagM=    2.7928460   2.7928460   2.7928460   2.7928460   2.7928460   2.7928460   2.7928460   2.7928460   2.7928460   2.7928460
 AtZNuc=   1.0000000   1.0000000   1.0000000   1.0000000   1.0000000   1.0000000   1.0000000   1.0000000   1.0000000   1.0000000

  Atom       101         102         103         104         105         106         107         108         109         110
 IAtWgt=           1           1           1           1           1           1           1           1           1           1
 AtmWgt=   1.0078250   1.0078250   1.0078250   1.0078250   1.0078250   1.0078250   1.0078250   1.0078250   1.0078250   1.0078250
 NucSpn=           1           1           1           1           1           1           1           1           1           1
 AtZEff=  -0.0000000  -0.0000000  -0.0000000  -0.0000000  -0.0000000  -0.0000000  -0.0000000  -0.0000000  -0.0000000  -0.0000000
 NQMom=    0.0000000   0.0000000   0.0000000   0.0000000   0.0000000   0.0000000   0.0000000   0.0000000   0.0000000   0.0000000
 NMagM=    2.7928460   2.7928460   2.7928460   2.7928460   2.7928460   2.7928460   2.7928460   2.7928460   2.7928460   2.7928460
 AtZNuc=   1.0000000   1.0000000   1.0000000   1.0000000   1.0000000   1.0000000   1.0000000   1.0000000   1.0000000   1.0000000

  Atom       111         112         113         114         115         116         117         118         119         120
 IAtWgt=           1           1           1           1           1           1           1           1           1           1
 AtmWgt=   1.0078250   1.0078250   1.0078250   1.0078250   1.0078250   1.0078250   1.0078250   1.0078250   1.0078250   1.0078250
 NucSpn=           1           1           1           1           1           1           1           1           1           1
 AtZEff=  -0.0000000  -0.0000000  -0.0000000  -0.0000000  -0.0000000  -0.0000000  -0.0000000  -0.0000000  -0.0000000  -0.0000000
 NQMom=    0.0000000   0.0000000   0.0000000   0.0000000   0.0000000   0.0000000   0.0000000   0.0000000   0.0000000   0.0000000
 NMagM=    2.7928460   2.7928460   2.7928460   2.7928460   2.7928460   2.7928460   2.7928460   2.7928460   2.7928460   2.7928460
 AtZNuc=   1.0000000   1.0000000   1.0000000   1.0000000   1.0000000   1.0000000   1.0000000   1.0000000   1.0000000   1.0000000

  Atom       121         122         123         124         125         126         127         128         129         130
 IAtWgt=           1           1           1           1           1           1           1           1           1           1
 AtmWgt=   1.0078250   1.0078250   1.0078250   1.0078250   1.0078250   1.0078250   1.0078250   1.0078250   1.0078250   1.0078250
 NucSpn=           1           1           1           1           1           1           1           1           1           1
 AtZEff=  -0.0000000  -0.0000000  -0.0000000  -0.0000000  -0.0000000  -0.0000000  -0.0000000  -0.0000000  -0.0000000  -0.0000000
 NQMom=    0.0000000   0.0000000   0.0000000   0.0000000   0.0000000   0.0000000   0.0000000   0.0000000   0.0000000   0.0000000
 NMagM=    2.7928460   2.7928460   2.7928460   2.7928460   2.7928460   2.7928460   2.7928460   2.7928460   2.7928460   2.7928460
 AtZNuc=   1.0000000   1.0000000   1.0000000   1.0000000   1.0000000   1.0000000   1.0000000   1.0000000   1.0000000   1.0000000

  Atom       131         132         133         134         135         136         137         138         139         140
 IAtWgt=           1           1           1           1           1           1           1           1           1           1
 AtmWgt=   1.0078250   1.0078250   1.0078250   1.0078250   1.0078250   1.0078250   1.0078250   1.0078250   1.0078250   1.0078250
 NucSpn=           1           1           1           1           1           1           1           1           1           1
 AtZEff=  -0.0000000  -0.0000000  -0.0000000  -0.0000000  -0.0000000  -0.0000000  -0.0000000  -0.0000000  -0.0000000  -0.0000000
 NQMom=    0.0000000   0.0000000   0.0000000   0.0000000   0.0000000   0.0000000   0.0000000   0.0000000   0.0000000   0.0000000
 NMagM=    2.7928460   2.7928460   2.7928460   2.7928460   2.7928460   2.7928460   2.7928460   2.7928460   2.7928460   2.7928460
 AtZNuc=   1.0000000   1.0000000   1.0000000   1.0000000   1.0000000   1.0000000   1.0000000   1.0000000   1.0000000   1.0000000
 Leave Link  101 at Thu May  5 00:24:16 2022, MaxMem= 10066329600 cpu:               2.7 elap:               0.1
 (Enter /sw/apps/gaussian-16.0/g16/l202.exe)
 Stoichiometry    C55H74MgN4O6
 Framework group  C1[X(C55H74MgN4O6)]
 Deg. of freedom   414
 Full point group                 C1      NOp   1
 Largest Abelian subgroup         C1      NOp   1
 Largest concise Abelian subgroup C1      NOp   1
                         Standard orientation:                         
 ---------------------------------------------------------------------
 Center     Atomic      Atomic             Coordinates (Angstroms)
 Number     Number       Type             X           Y           Z
 ---------------------------------------------------------------------
      1         12           0       -4.189749    1.116798    0.695616
      2          6           0       -3.400641   -2.331854    0.982957
      3          6           0       -1.593433    1.744215    2.938964
      4          6           0       -4.163920    4.189053   -0.486218
      5          6           0       -6.609265    0.113796   -1.862488
      6          7           0       -2.478478   -0.200228    1.656245
      7          6           0       -2.571251   -1.543293    1.819592
      8          6           0       -1.592790   -1.987704    2.891959
      9          6           0       -1.499132   -0.784456    3.830386
     10          6           0       -1.825964    0.353246    2.734112
     11          6           0       -2.493812   -0.681860    4.988154
     12          6           0       -0.242741   -2.481732    2.210680
     13          6           0        0.253029   -3.745358    2.795821
     14          6           0        1.768817   -3.870318    3.044299
     15          8           0        2.216323   -3.931452    4.178895
     16          8           0        2.441512   -3.976027    1.854207
     17          7           0       -2.994643    2.801702    1.114191
     18          6           0       -2.023099    2.869762    2.143494
     19          6           0       -1.542983    4.228584    2.159676
     20          6           0       -2.301509    5.020716    1.257458
     21          6           0       -3.194094    4.037454    0.546573
     22          6           0       -0.418152    4.644880    3.102218
     23          6           0       -2.114928    6.461984    0.990081
     24          8           0       -1.239981    7.066364    1.597798
     25          6           0       -2.826507    7.288004   -0.030650
     26          7           0       -5.229539    1.993383   -1.080420
     27          6           0       -5.145230    3.337144   -1.143388
     28          6           0       -6.144430    3.897183   -2.171881
     29          6           0       -7.072458    2.605461   -2.532986
     30          6           0       -6.314054    1.492634   -1.764244
     31          6           0       -6.906318    5.218116   -1.704726
     32          6           0       -7.274131    2.326468   -4.055346
     33          6           0       -6.369771    1.234925   -4.722820
     34          7           0       -4.872914   -0.636274   -0.231677
     35          6           0       -5.897281   -0.870172   -1.192835
     36          6           0       -6.160524   -2.373271   -1.264730
     37          6           0       -5.164527   -2.910039   -0.464665
     38          6           0       -4.437091   -1.824179    0.141867
     39          6           0       -7.187526   -3.215483   -2.045865
     40          6           0       -4.636566   -4.131080    0.055829
     41          8           0       -5.026355   -5.291828   -0.081368
     42          6           0       -3.434786   -3.744150    0.841481
     43          6           0       -2.267916   -4.238540   -0.043725
     44          8           0       -1.812810   -3.694536   -1.047671
     45          8           0       -1.853107   -5.496988    0.473885
     46          6           0       -0.874753   -6.218348   -0.233788
     47          6           0        3.893014   -4.256173    1.987939
     48          6           0        4.605263   -4.409723    0.614760
     49          6           0        4.301441   -5.099952   -0.504253
     50          6           0        3.123063   -6.080948   -0.583671
     51          6           0        5.277280   -5.047123   -1.704694
     52          6           0        5.231052   -3.801889   -2.475582
     53          6           0        6.391363   -2.912739   -2.086528
     54          6           0        6.902040   -2.058933   -3.284530
     55          6           0        8.176685   -2.604313   -3.920365
     56          6           0        7.220473   -0.669309   -2.808745
     57          6           0        5.928268    0.205496   -2.707839
     58          6           0        5.790057    0.879298   -1.312325
     59          6           0        6.146370    2.358421   -1.248118
     60          6           0        5.320519    3.283838   -2.267097
     61          6           0        7.706281    2.673985   -1.307602
     62          6           0        8.353410    2.829735    0.133259
     63          6           0        8.499894    4.338385    0.464792
     64          6           0        9.893321    4.600499    1.055508
     65          6           0       10.053587    5.672953    2.129089
     66          6           0       10.850465    4.848567   -0.143517
     67          1           0       -0.859419    2.005597    3.704223
     68          1           0       -4.199853    5.262280   -0.683492
     69          1           0       -7.409025   -0.282047   -2.490795
     70          1           0       -1.978340   -2.788879    3.522314
     71          1           0       -0.569438   -0.562392    4.353016
     72          1           0       -2.968388   -1.628300    5.245637
     73          1           0       -3.154432    0.178116    4.875359
     74          1           0       -1.840224   -0.452073    5.830454
     75          1           0        0.527426   -1.729643    2.382215
     76          1           0       -0.269856   -2.494832    1.121044
     77          1           0       -0.106412   -4.475913    2.072004
     78          1           0       -0.241530   -3.893516    3.755683
     79          1           0       -0.771142    5.225664    3.954162
     80          1           0        0.349291    5.157103    2.523752
     81          1           0        0.066808    3.764289    3.523741
     82          1           0       -3.868140    7.384290    0.276650
     83          1           0       -2.792063    6.913516   -1.054454
     84          1           0       -2.534228    8.335796    0.027081
     85          1           0       -5.513139    4.098630   -3.037062
     86          1           0       -8.024895    2.709083   -2.014250
     87          1           0       -6.332724    5.755638   -0.949763
     88          1           0       -7.956116    5.151256   -1.416690
     89          1           0       -7.056610    5.745215   -2.648194
     90          1           0       -7.193361    3.231005   -4.657617
     91          1           0       -8.299456    1.958444   -4.083308
     92          1           0       -6.334456    1.711148   -5.702929
     93          1           0       -6.771673    0.226663   -4.825094
     94          1           0       -5.396761    1.269924   -4.232362
     95          1           0       -7.797429   -3.813768   -1.369878
     96          1           0       -6.472299   -3.912857   -2.480964
     97          1           0       -7.655194   -2.562345   -2.782291
     98          1           0       -3.422987   -4.295061    1.782006
     99          1           0       -0.610030   -7.179764    0.208083
    100          1           0        0.025147   -5.605133   -0.259442
    101          1           0       -1.303031   -6.372237   -1.224647
    102          1           0        4.027142   -5.238317    2.440024
    103          1           0        4.188157   -3.452011    2.662190
    104          1           0        5.499930   -3.788321    0.569960
    105          1           0        3.179032   -6.734008    0.287167
    106          1           0        3.198507   -6.775769   -1.420128
    107          1           0        2.184600   -5.529154   -0.543713
    108          1           0        5.194708   -5.772078   -2.514096
    109          1           0        6.281360   -5.320949   -1.383280
    110          1           0        4.297436   -3.304162   -2.211986
    111          1           0        5.131368   -3.918288   -3.554980
    112          1           0        7.256724   -3.363663   -1.601800
    113          1           0        5.959835   -2.341885   -1.264686
    114          1           0        6.118358   -2.158185   -4.035473
    115          1           0        8.212929   -2.516585   -5.006454
    116          1           0        8.312287   -3.649114   -3.641603
    117          1           0        8.998561   -1.901906   -3.779552
    118          1           0        7.843853   -0.094933   -3.494667
    119          1           0        7.887659   -0.783885   -1.954704
    120          1           0        5.012682   -0.354764   -2.895712
    121          1           0        5.907502    1.033963   -3.414957
    122          1           0        6.291531    0.379455   -0.483454
    123          1           0        4.754802    0.802301   -0.978959
    124          1           0        5.926099    2.515028   -0.192426
    125          1           0        6.051898    3.676204   -2.974434
    126          1           0        4.799402    4.025857   -1.661428
    127          1           0        4.641644    2.726645   -2.911611
    128          1           0        7.888728    3.521159   -1.968867
    129          1           0        8.160284    1.886476   -1.908532
    130          1           0        9.289101    2.269926    0.131578
    131          1           0        7.697814    2.306793    0.829658
    132          1           0        7.921790    4.667982    1.327572
    133          1           0        8.254598    4.985561   -0.377354
    134          1           0       10.361097    3.743685    1.540831
    135          1           0       10.265678    5.248114    3.109994
    136          1           0        9.201737    6.346728    2.228920
    137          1           0       10.870911    6.350563    1.882158
    138          1           0       11.879005    5.066440    0.143439
    139          1           0       10.580351    5.805503   -0.590375
    140          1           0       10.801576    3.917577   -0.708542
 ---------------------------------------------------------------------
 Rotational constants (GHZ):           0.0301337           0.0177321           0.0136497
 Leave Link  202 at Thu May  5 00:24:16 2022, MaxMem= 10066329600 cpu:               0.2 elap:               0.0
 (Enter /sw/apps/gaussian-16.0/g16/l301.exe)
 Standard basis: def2SVP (5D, 7F)
 Ernie: Thresh=  0.10000D-02 Tol=  0.10000D-05 Strict=F.
 There are  1364 symmetry adapted cartesian basis functions of A   symmetry.
 There are  1298 symmetry adapted basis functions of A   symmetry.
  1298 basis functions,  2180 primitive gaussians,  1364 cartesian basis functions
   246 alpha electrons      246 beta electrons
       nuclear repulsion energy      9975.3893658635 Hartrees.
 IExCor= 4639 DFT=T Ex+Corr=wB97XD ExCW=0 ScaHFX=  1.000000
 ScaDFX=  1.000000  1.000000  1.000000  1.000000 ScalE2=  1.000000  1.000000
 IRadAn=      5 IRanWt=     -1 IRanGd=            0 ICorTp=0 IEmpDi=121
 HFx  wShort=  0.000000 wLong=  0.200000 cFull=  0.222036 cShort=  0.000000 cLong=  0.777964
 DFx  wShort=  0.000000 wLong=  0.200000 cFull=  0.000000 cShort=  0.000000 cLong=  1.000000
 NAtoms=  140 NActive=  140 NUniq=  140 SFac= 1.00D+00 NAtFMM=   60 NAOKFM=T Big=T
 Integral buffers will be    131072 words long.
 Raffenetti 1 integral format.
 Two-electron integral symmetry is turned on.
 R6Disp:  Grimme-D2 Dispersion energy=       -0.1365674324 Hartrees.
 Nuclear repulsion after empirical dispersion term =     9975.2527984311 Hartrees.
 Leave Link  301 at Thu May  5 00:24:16 2022, MaxMem= 10066329600 cpu:               1.3 elap:               0.1
 (Enter /sw/apps/gaussian-16.0/g16/l302.exe)
 NPDir=0 NMtPBC=     1 NCelOv=     1 NCel=       1 NClECP=     1 NCelD=      1
         NCelK=      1 NCelE2=     1 NClLst=     1 CellRange=     0.0.
 One-electron integrals computed using PRISM.
 One-electron integral symmetry used in STVInt
   1 Symmetry operations used in ECPInt.
 ECPInt:  NShTT=  192510 NPrTT=  683786 LenC2=  106743 LenP2D=  226735.
 LDataN:  DoStor=T MaxTD1= 4 Len=   56
 NBasis=  1298 RedAO= T EigKep=  2.92D-04  NBF=  1298
 NBsUse=  1298 1.00D-06 EigRej= -1.00D+00 NBFU=  1298
 Precomputing XC quadrature grid using
 IXCGrd= 4 IRadAn=           5 IRanWt=          -1 IRanGd=           0 AccXCQ= 0.00D+00.
 Generated NRdTot=       0 NPtTot=           0 NUsed=           0 NTot=          32
 NSgBfM=  1020  1006  1010  1012  1020 MxSgAt=   140 MxSgA2=   140.
 Leave Link  302 at Thu May  5 00:24:20 2022, MaxMem= 10066329600 cpu:             101.9 elap:               4.3
 (Enter /sw/apps/gaussian-16.0/g16/l303.exe)
 DipDrv:  MaxL=1.
 Leave Link  303 at Thu May  5 00:24:21 2022, MaxMem= 10066329600 cpu:               6.5 elap:               0.3
 (Enter /sw/apps/gaussian-16.0/g16/l308.exe)
 Leave Link  308 at Thu May  5 00:24:21 2022, MaxMem= 10066329600 cpu:               8.6 elap:               0.4
 (Enter /sw/apps/gaussian-16.0/g16/l401.exe)
 ExpMin= 3.36D-02 ExpMax= 4.95D+03 ExpMxC= 7.45D+02 IAcc=3 IRadAn=         5 AccDes= 0.00D+00
 Harris functional with IExCor= 4639 and IRadAn=       5 diagonalized for initial guess.
 HarFok:  IExCor= 4639 AccDes= 0.00D+00 IRadAn=         5 IDoV= 1 UseB2=F ITyADJ=14
 ICtDFT=  3500011 ScaDFX=  1.000000  1.000000  1.000000  1.000000
 FoFCou: FMM=F IPFlag=           0 FMFlag=      100000 FMFlg1=        2001
         NFxFlg=           0 DoJE=T BraDBF=F KetDBF=T FulRan=T
         wScrn=  0.000000 ICntrl=       500 IOpCl=  0 I1Cent=   200000004 NGrid=           0
         NMat0=    1 NMatS0=      1 NMatT0=    0 NMatD0=    1 NMtDS0=    0 NMtDT0=    0
 Petite list used in FoFCou.
 Harris En= -2877.97846361499    
 JPrj=0 DoOrth=F DoCkMO=F.
 Leave Link  401 at Thu May  5 00:24:28 2022, MaxMem= 10066329600 cpu:             171.8 elap:               7.2
 (Enter /sw/apps/gaussian-16.0/g16/l502.exe)
 Integral symmetry usage will be decided dynamically.
 Closed shell SCF:
 Using DIIS extrapolation, IDIIS=  1040.
 NGot= 10066329600 LenX= 10062561258 LenY= 10060699398
 Requested convergence on RMS density matrix=1.00D-08 within 128 cycles.
 Requested convergence on MAX density matrix=1.00D-06.
 Requested convergence on             energy=1.00D-06.
 No special actions if energy rises.
 Fock matrices will be formed incrementally for  20 cycles.

 Cycle   1  Pass 1  IDiag  1:
 FoFJK:  IHMeth= 1 ICntrl=       0 DoSepK=T KAlg= 0 I1Cent=           0 FoldK=F
 IRaf=         1 NMat=       1 IRICut=       1 DoRegI=T DoRafI=F ISym2E= 0 IDoP0=0 IntGTp=1.
 FoFCou: FMM=T IPFlag=           0 FMFlag=      100000 FMFlg1=        2001
         NFxFlg=           0 DoJE=T BraDBF=F KetDBF=F FulRan=T
         wScrn=  0.000000 ICntrl=       500 IOpCl=  0 I1Cent=           0 NGrid=           0
         NMat0=    1 NMatS0=      1 NMatT0=    0 NMatD0=    1 NMtDS0=    0 NMtDT0=    0
 Symmetry not used in FoFCou.
 FMM levels:  10  Number of levels for PrismC:   9
 E= -3007.10675391655    
 DIIS: error= 1.89D-02 at cycle   1 NSaved=   1.
 NSaved= 1 IEnMin= 1 EnMin= -3007.10675391655     IErMin= 1 ErrMin= 1.89D-02
 ErrMax= 1.89D-02  0.00D+00 EMaxC= 1.00D-01 BMatC= 1.50D+00 BMatP= 1.50D+00
 IDIUse=3 WtCom= 8.11D-01 WtEn= 1.89D-01
 Coeff-Com:  0.100D+01
 Coeff-En:   0.100D+01
 Coeff:      0.100D+01
 Gap=     0.163 Goal=   None    Shift=    0.000
 GapD=    0.163 DampG=1.000 DampE=0.500 DampFc=0.5000 IDamp=-1.
 Damping current iteration by 5.00D-01
 RMSDP=1.54D-03 MaxDP=2.43D-01              OVMax= 1.73D-01

 Cycle   2  Pass 1  IDiag  1:
 RMSU=  7.61D-04    CP:  9.87D-01
 E= -3007.43627352311     Delta-E=       -0.329519606559 Rises=F Damp=T
 DIIS: error= 1.05D-02 at cycle   2 NSaved=   2.
 NSaved= 2 IEnMin= 2 EnMin= -3007.43627352311     IErMin= 2 ErrMin= 1.05D-02
 ErrMax= 1.05D-02  0.00D+00 EMaxC= 1.00D-01 BMatC= 2.89D-01 BMatP= 1.50D+00
 IDIUse=3 WtCom= 8.95D-01 WtEn= 1.05D-01
 Coeff-Com: -0.357D+00 0.136D+01
 Coeff-En:   0.000D+00 0.100D+01
 Coeff:     -0.320D+00 0.132D+01
 Gap=     0.172 Goal=   None    Shift=    0.000
 RMSDP=7.00D-04 MaxDP=6.88D-02 DE=-3.30D-01 OVMax= 1.28D-01

 Cycle   3  Pass 1  IDiag  1:
 RMSU=  6.64D-04    CP:  9.81D-01  1.28D+00
 E= -3007.67515193976     Delta-E=       -0.238878416651 Rises=F Damp=F
 DIIS: error= 1.05D-02 at cycle   3 NSaved=   3.
 NSaved= 3 IEnMin= 3 EnMin= -3007.67515193976     IErMin= 3 ErrMin= 1.05D-02
 ErrMax= 1.05D-02  0.00D+00 EMaxC= 1.00D-01 BMatC= 1.38D-01 BMatP= 2.89D-01
 IDIUse=3 WtCom= 8.95D-01 WtEn= 1.05D-01
 Coeff-Com: -0.312D+00 0.692D+00 0.620D+00
 Coeff-En:   0.000D+00 0.000D+00 0.100D+01
 Coeff:     -0.279D+00 0.619D+00 0.660D+00
 Gap=     0.161 Goal=   None    Shift=    0.000
 RMSDP=4.39D-04 MaxDP=1.00D-01 DE=-2.39D-01 OVMax= 7.96D-02

 Cycle   4  Pass 1  IDiag  1:
 RMSU=  2.30D-04    CP:  9.75D-01  1.59D+00  5.73D-01
 E= -3007.77954078455     Delta-E=       -0.104388844789 Rises=F Damp=F
 DIIS: error= 3.69D-03 at cycle   4 NSaved=   4.
 NSaved= 4 IEnMin= 4 EnMin= -3007.77954078455     IErMin= 4 ErrMin= 3.69D-03
 ErrMax= 3.69D-03  0.00D+00 EMaxC= 1.00D-01 BMatC= 1.76D-02 BMatP= 1.38D-01
 IDIUse=3 WtCom= 9.63D-01 WtEn= 3.69D-02
 Coeff-Com: -0.119D+00 0.239D+00 0.358D+00 0.522D+00
 Coeff-En:   0.000D+00 0.000D+00 0.635D-01 0.937D+00
 Coeff:     -0.115D+00 0.230D+00 0.347D+00 0.537D+00
 Gap=     0.159 Goal=   None    Shift=    0.000
 RMSDP=1.26D-04 MaxDP=2.50D-02 DE=-1.04D-01 OVMax= 1.85D-02

 Cycle   5  Pass 1  IDiag  1:
 RMSU=  5.90D-05    CP:  9.76D-01  1.56D+00  6.88D-01  6.71D-01
 E= -3007.79407858365     Delta-E=       -0.014537799098 Rises=F Damp=F
 DIIS: error= 4.71D-04 at cycle   5 NSaved=   5.
 NSaved= 5 IEnMin= 5 EnMin= -3007.79407858365     IErMin= 5 ErrMin= 4.71D-04
 ErrMax= 4.71D-04  0.00D+00 EMaxC= 1.00D-01 BMatC= 3.80D-04 BMatP= 1.76D-02
 IDIUse=3 WtCom= 9.95D-01 WtEn= 4.71D-03
 Coeff-Com: -0.313D-01 0.598D-01 0.114D+00 0.225D+00 0.633D+00
 Coeff-En:   0.000D+00 0.000D+00 0.000D+00 0.000D+00 0.100D+01
 Coeff:     -0.312D-01 0.595D-01 0.114D+00 0.224D+00 0.634D+00
 Gap=     0.159 Goal=   None    Shift=    0.000
 RMSDP=2.84D-05 MaxDP=8.96D-03 DE=-1.45D-02 OVMax= 4.09D-03

 Cycle   6  Pass 1  IDiag  1:
 RMSU=  2.31D-05    CP:  9.75D-01  1.57D+00  6.92D-01  7.31D-01  8.87D-01
 E= -3007.79438496349     Delta-E=       -0.000306379841 Rises=F Damp=F
 DIIS: error= 2.16D-04 at cycle   6 NSaved=   6.
 NSaved= 6 IEnMin= 6 EnMin= -3007.79438496349     IErMin= 6 ErrMin= 2.16D-04
 ErrMax= 2.16D-04  0.00D+00 EMaxC= 1.00D-01 BMatC= 6.69D-05 BMatP= 3.80D-04
 IDIUse=3 WtCom= 9.98D-01 WtEn= 2.16D-03
 Coeff-Com:  0.931D-02-0.202D-01-0.149D-01 0.620D-04 0.299D+00 0.726D+00
 Coeff-En:   0.000D+00 0.000D+00 0.000D+00 0.000D+00 0.000D+00 0.100D+01
 Coeff:      0.929D-02-0.201D-01-0.149D-01 0.619D-04 0.299D+00 0.727D+00
 Gap=     0.159 Goal=   None    Shift=    0.000
 RMSDP=1.20D-05 MaxDP=1.30D-03 DE=-3.06D-04 OVMax= 4.02D-03

 Cycle   7  Pass 1  IDiag  1:
 RMSU=  8.11D-06    CP:  9.75D-01  1.57D+00  6.97D-01  7.45D-01  1.01D+00
                    CP:  9.13D-01
 E= -3007.79446397008     Delta-E=       -0.000079006591 Rises=F Damp=F
 DIIS: error= 5.39D-05 at cycle   7 NSaved=   7.
 NSaved= 7 IEnMin= 7 EnMin= -3007.79446397008     IErMin= 7 ErrMin= 5.39D-05
 ErrMax= 5.39D-05  0.00D+00 EMaxC= 1.00D-01 BMatC= 6.56D-06 BMatP= 6.69D-05
 IDIUse=1 WtCom= 1.00D+00 WtEn= 0.00D+00
 Coeff-Com:  0.659D-02-0.134D-01-0.162D-01-0.233D-01 0.415D-01 0.277D+00
 Coeff-Com:  0.728D+00
 Coeff:      0.659D-02-0.134D-01-0.162D-01-0.233D-01 0.415D-01 0.277D+00
 Coeff:      0.728D+00
 Gap=     0.159 Goal=   None    Shift=    0.000
 RMSDP=5.86D-06 MaxDP=2.05D-03 DE=-7.90D-05 OVMax= 1.85D-03

 Cycle   8  Pass 1  IDiag  1:
 RMSU=  3.68D-06    CP:  9.75D-01  1.57D+00  6.98D-01  7.55D-01  1.03D+00
                    CP:  1.07D+00  1.05D+00
 E= -3007.79447612616     Delta-E=       -0.000012156082 Rises=F Damp=F
 DIIS: error= 2.47D-05 at cycle   8 NSaved=   8.
 NSaved= 8 IEnMin= 8 EnMin= -3007.79447612616     IErMin= 8 ErrMin= 2.47D-05
 ErrMax= 2.47D-05  0.00D+00 EMaxC= 1.00D-01 BMatC= 1.47D-06 BMatP= 6.56D-06
 IDIUse=1 WtCom= 1.00D+00 WtEn= 0.00D+00
 Coeff-Com:  0.142D-02-0.263D-02-0.466D-02-0.111D-01-0.368D-01-0.195D-02
 Coeff-Com:  0.332D+00 0.724D+00
 Coeff:      0.142D-02-0.263D-02-0.466D-02-0.111D-01-0.368D-01-0.195D-02
 Coeff:      0.332D+00 0.724D+00
 Gap=     0.159 Goal=   None    Shift=    0.000
 RMSDP=2.69D-06 MaxDP=3.02D-04 DE=-1.22D-05 OVMax= 1.35D-03

 Cycle   9  Pass 1  IDiag  1:
 RMSU=  1.64D-06    CP:  9.75D-01  1.57D+00  6.98D-01  7.57D-01  1.04D+00
                    CP:  1.10D+00  1.25D+00  1.16D+00
 E= -3007.79448031153     Delta-E=       -0.000004185369 Rises=F Damp=F
 DIIS: error= 1.46D-05 at cycle   9 NSaved=   9.
 NSaved= 9 IEnMin= 9 EnMin= -3007.79448031153     IErMin= 9 ErrMin= 1.46D-05
 ErrMax= 1.46D-05  0.00D+00 EMaxC= 1.00D-01 BMatC= 3.14D-07 BMatP= 1.47D-06
 IDIUse=1 WtCom= 1.00D+00 WtEn= 0.00D+00
 Coeff-Com: -0.830D-03 0.175D-02 0.168D-02 0.520D-03-0.236D-01-0.570D-01
 Coeff-Com: -0.122D-01 0.269D+00 0.821D+00
 Coeff:     -0.830D-03 0.175D-02 0.168D-02 0.520D-03-0.236D-01-0.570D-01
 Coeff:     -0.122D-01 0.269D+00 0.821D+00
 Gap=     0.159 Goal=   None    Shift=    0.000
 RMSDP=2.03D-06 MaxDP=5.64D-04 DE=-4.19D-06 OVMax= 1.01D-03

 Cycle  10  Pass 1  IDiag  1:
 RMSU=  8.71D-07    CP:  9.75D-01  1.57D+00  6.98D-01  7.59D-01  1.04D+00
                    CP:  1.13D+00  1.35D+00  1.49D+00  1.35D+00
 E= -3007.79448198977     Delta-E=       -0.000001678241 Rises=F Damp=F
 DIIS: error= 1.09D-05 at cycle  10 NSaved=  10.
 NSaved=10 IEnMin=10 EnMin= -3007.79448198977     IErMin=10 ErrMin= 1.09D-05
 ErrMax= 1.09D-05  0.00D+00 EMaxC= 1.00D-01 BMatC= 9.78D-08 BMatP= 3.14D-07
 IDIUse=1 WtCom= 1.00D+00 WtEn= 0.00D+00
 Coeff-Com: -0.803D-03 0.157D-02 0.225D-02 0.388D-02 0.205D-02-0.229D-01
 Coeff-Com: -0.109D+00-0.126D+00 0.317D+00 0.932D+00
 Coeff:     -0.803D-03 0.157D-02 0.225D-02 0.388D-02 0.205D-02-0.229D-01
 Coeff:     -0.109D+00-0.126D+00 0.317D+00 0.932D+00
 Gap=     0.160 Goal=   None    Shift=    0.000
 RMSDP=1.57D-06 MaxDP=2.33D-04 DE=-1.68D-06 OVMax= 9.49D-04

 Cycle  11  Pass 1  IDiag  1:
 RMSU=  5.07D-07    CP:  9.75D-01  1.57D+00  6.98D-01  7.60D-01  1.05D+00
                    CP:  1.15D+00  1.43D+00  1.71D+00  1.88D+00  1.50D+00
 E= -3007.79448287018     Delta-E=       -0.000000880413 Rises=F Damp=F
 DIIS: error= 6.81D-06 at cycle  11 NSaved=  11.
 NSaved=11 IEnMin=11 EnMin= -3007.79448287018     IErMin=11 ErrMin= 6.81D-06
 ErrMax= 6.81D-06  0.00D+00 EMaxC= 1.00D-01 BMatC= 4.16D-08 BMatP= 9.78D-08
 IDIUse=1 WtCom= 1.00D+00 WtEn= 0.00D+00
 Coeff-Com: -0.139D-03 0.244D-03 0.573D-03 0.169D-02 0.721D-02 0.530D-02
 Coeff-Com: -0.448D-01-0.136D+00-0.101D+00 0.438D+00 0.830D+00
 Coeff:     -0.139D-03 0.244D-03 0.573D-03 0.169D-02 0.721D-02 0.530D-02
 Coeff:     -0.448D-01-0.136D+00-0.101D+00 0.438D+00 0.830D+00
 Gap=     0.160 Goal=   None    Shift=    0.000
 RMSDP=1.03D-06 MaxDP=2.07D-04 DE=-8.80D-07 OVMax= 5.71D-04

 Cycle  12  Pass 1  IDiag  1:
 RMSU=  2.88D-07    CP:  9.75D-01  1.57D+00  6.98D-01  7.61D-01  1.05D+00
                    CP:  1.15D+00  1.47D+00  1.85D+00  2.18D+00  2.06D+00
                    CP:  1.39D+00
 E= -3007.79448320798     Delta-E=       -0.000000337801 Rises=F Damp=F
 DIIS: error= 3.97D-06 at cycle  12 NSaved=  12.
 NSaved=12 IEnMin=12 EnMin= -3007.79448320798     IErMin=12 ErrMin= 3.97D-06
 ErrMax= 3.97D-06  0.00D+00 EMaxC= 1.00D-01 BMatC= 1.29D-08 BMatP= 4.16D-08
 IDIUse=1 WtCom= 1.00D+00 WtEn= 0.00D+00
 Coeff-Com:  0.307D-03-0.612D-03-0.798D-03-0.110D-02 0.117D-02 0.116D-01
 Coeff-Com:  0.365D-01 0.140D-01-0.170D+00-0.314D+00 0.260D+00 0.116D+01
 Coeff:      0.307D-03-0.612D-03-0.798D-03-0.110D-02 0.117D-02 0.116D-01
 Coeff:      0.365D-01 0.140D-01-0.170D+00-0.314D+00 0.260D+00 0.116D+01
 Gap=     0.160 Goal=   None    Shift=    0.000
 RMSDP=9.01D-07 MaxDP=9.64D-05 DE=-3.38D-07 OVMax= 5.61D-04

 Cycle  13  Pass 1  IDiag  1:
 RMSU=  1.51D-07    CP:  9.75D-01  1.57D+00  6.98D-01  7.61D-01  1.05D+00
                    CP:  1.15D+00  1.50D+00  1.95D+00  2.46D+00  2.57D+00
                    CP:  2.13D+00  1.62D+00
 E= -3007.79448336701     Delta-E=       -0.000000159022 Rises=F Damp=F
 DIIS: error= 1.50D-06 at cycle  13 NSaved=  13.
 NSaved=13 IEnMin=13 EnMin= -3007.79448336701     IErMin=13 ErrMin= 1.50D-06
 ErrMax= 1.50D-06  0.00D+00 EMaxC= 1.00D-01 BMatC= 3.32D-09 BMatP= 1.29D-08
 IDIUse=1 WtCom= 1.00D+00 WtEn= 0.00D+00
 Coeff-Com:  0.188D-03-0.368D-03-0.551D-03-0.100D-02-0.158D-02 0.350D-02
 Coeff-Com:  0.308D-01 0.467D-01-0.371D-01-0.276D+00-0.120D+00 0.515D+00
 Coeff-Com:  0.840D+00
 Coeff:      0.188D-03-0.368D-03-0.551D-03-0.100D-02-0.158D-02 0.350D-02
 Coeff:      0.308D-01 0.467D-01-0.371D-01-0.276D+00-0.120D+00 0.515D+00
 Coeff:      0.840D+00
 Gap=     0.160 Goal=   None    Shift=    0.000
 RMSDP=3.61D-07 MaxDP=3.57D-05 DE=-1.59D-07 OVMax= 2.12D-04

 Cycle  14  Pass 1  IDiag  1:
 RMSU=  7.45D-08    CP:  9.75D-01  1.57D+00  6.98D-01  7.61D-01  1.05D+00
                    CP:  1.15D+00  1.51D+00  1.98D+00  2.56D+00  2.78D+00
                    CP:  2.47D+00  2.03D+00  1.21D+00
 E= -3007.79448339203     Delta-E=       -0.000000025020 Rises=F Damp=F
 DIIS: error= 4.67D-07 at cycle  14 NSaved=  14.
 NSaved=14 IEnMin=14 EnMin= -3007.79448339203     IErMin=14 ErrMin= 4.67D-07
 ErrMax= 4.67D-07  0.00D+00 EMaxC= 1.00D-01 BMatC= 5.22D-10 BMatP= 3.32D-09
 IDIUse=1 WtCom= 1.00D+00 WtEn= 0.00D+00
 Coeff-Com:  0.167D-05-0.311D-06-0.210D-04-0.101D-03-0.659D-03-0.121D-02
 Coeff-Com:  0.270D-02 0.104D-01 0.220D-01-0.325D-01-0.797D-01-0.630D-01
 Coeff-Com:  0.257D+00 0.885D+00
 Coeff:      0.167D-05-0.311D-06-0.210D-04-0.101D-03-0.659D-03-0.121D-02
 Coeff:      0.270D-02 0.104D-01 0.220D-01-0.325D-01-0.797D-01-0.630D-01
 Coeff:      0.257D+00 0.885D+00
 Gap=     0.160 Goal=   None    Shift=    0.000
 RMSDP=1.25D-07 MaxDP=9.75D-06 DE=-2.50D-08 OVMax= 7.05D-05

 Cycle  15  Pass 1  IDiag  1:
 RMSU=  3.36D-08    CP:  9.75D-01  1.57D+00  6.98D-01  7.61D-01  1.05D+00
                    CP:  1.15D+00  1.52D+00  1.99D+00  2.58D+00  2.85D+00
                    CP:  2.58D+00  2.19D+00  1.46D+00  1.18D+00
 E= -3007.79448339518     Delta-E=       -0.000000003154 Rises=F Damp=F
 DIIS: error= 4.01D-07 at cycle  15 NSaved=  15.
 NSaved=15 IEnMin=15 EnMin= -3007.79448339518     IErMin=15 ErrMin= 4.01D-07
 ErrMax= 4.01D-07  0.00D+00 EMaxC= 1.00D-01 BMatC= 1.89D-10 BMatP= 5.22D-10
 IDIUse=1 WtCom= 1.00D+00 WtEn= 0.00D+00
 Coeff-Com: -0.402D-04 0.802D-04 0.110D-03 0.164D-03 0.288D-05-0.140D-02
 Coeff-Com: -0.517D-02-0.552D-02 0.193D-01 0.402D-01-0.949D-02-0.143D+00
 Coeff-Com: -0.511D-01 0.460D+00 0.695D+00
 Coeff:     -0.402D-04 0.802D-04 0.110D-03 0.164D-03 0.288D-05-0.140D-02
 Coeff:     -0.517D-02-0.552D-02 0.193D-01 0.402D-01-0.949D-02-0.143D+00
 Coeff:     -0.511D-01 0.460D+00 0.695D+00
 Gap=     0.160 Goal=   None    Shift=    0.000
 RMSDP=4.06D-08 MaxDP=2.98D-06 DE=-3.15D-09 OVMax= 2.17D-05

 Cycle  16  Pass 1  IDiag  1:
 RMSU=  1.63D-08    CP:  9.75D-01  1.57D+00  6.98D-01  7.61D-01  1.05D+00
                    CP:  1.15D+00  1.52D+00  1.99D+00  2.59D+00  2.87D+00
                    CP:  2.61D+00  2.24D+00  1.55D+00  1.38D+00  1.08D+00
 E= -3007.79448339542     Delta-E=       -0.000000000235 Rises=F Damp=F
 DIIS: error= 1.44D-07 at cycle  16 NSaved=  16.
 NSaved=16 IEnMin=16 EnMin= -3007.79448339542     IErMin=16 ErrMin= 1.44D-07
 ErrMax= 1.44D-07  0.00D+00 EMaxC= 1.00D-01 BMatC= 2.45D-11 BMatP= 1.89D-10
 IDIUse=1 WtCom= 1.00D+00 WtEn= 0.00D+00
 Coeff-Com: -0.137D-04 0.268D-04 0.415D-04 0.709D-04 0.114D-03-0.274D-03
 Coeff-Com: -0.217D-02-0.398D-02 0.429D-02 0.197D-01 0.123D-01-0.422D-01
 Coeff-Com: -0.654D-01 0.139D-01 0.222D+00 0.842D+00
 Coeff:     -0.137D-04 0.268D-04 0.415D-04 0.709D-04 0.114D-03-0.274D-03
 Coeff:     -0.217D-02-0.398D-02 0.429D-02 0.197D-01 0.123D-01-0.422D-01
 Coeff:     -0.654D-01 0.139D-01 0.222D+00 0.842D+00
 Gap=     0.160 Goal=   None    Shift=    0.000
 RMSDP=1.74D-08 MaxDP=2.71D-06 DE=-2.35D-10 OVMax= 1.14D-05

 Cycle  17  Pass 1  IDiag  1:
 RMSU=  8.80D-09    CP:  9.75D-01  1.57D+00  6.98D-01  7.61D-01  1.05D+00
                    CP:  1.15D+00  1.52D+00  1.99D+00  2.59D+00  2.87D+00
                    CP:  2.62D+00  2.24D+00  1.59D+00  1.48D+00  1.33D+00
                    CP:  1.37D+00
 E= -3007.79448339558     Delta-E=       -0.000000000169 Rises=F Damp=F
 DIIS: error= 1.17D-07 at cycle  17 NSaved=  17.
 NSaved=17 IEnMin=17 EnMin= -3007.79448339558     IErMin=17 ErrMin= 1.17D-07
 ErrMax= 1.17D-07  0.00D+00 EMaxC= 1.00D-01 BMatC= 1.08D-11 BMatP= 2.45D-11
 IDIUse=1 WtCom= 1.00D+00 WtEn= 0.00D+00
 Coeff-Com:  0.499D-05-0.102D-04-0.124D-04-0.173D-04 0.393D-04 0.243D-03
 Coeff-Com:  0.601D-03-0.303D-03-0.288D-02-0.413D-02 0.739D-02 0.183D-01
 Coeff-Com: -0.883D-02-0.984D-01-0.115D+00 0.323D+00 0.880D+00
 Coeff:      0.499D-05-0.102D-04-0.124D-04-0.173D-04 0.393D-04 0.243D-03
 Coeff:      0.601D-03-0.303D-03-0.288D-02-0.413D-02 0.739D-02 0.183D-01
 Coeff:     -0.883D-02-0.984D-01-0.115D+00 0.323D+00 0.880D+00
 Gap=     0.160 Goal=   None    Shift=    0.000
 RMSDP=1.34D-08 MaxDP=7.82D-07 DE=-1.69D-10 OVMax= 8.66D-06

 Cycle  18  Pass 1  IDiag  1:
 RMSU=  4.51D-09    CP:  9.75D-01  1.57D+00  6.98D-01  7.61D-01  1.05D+00
                    CP:  1.15D+00  1.52D+00  1.99D+00  2.59D+00  2.87D+00
                    CP:  2.62D+00  2.25D+00  1.60D+00  1.53D+00  1.51D+00
                    CP:  1.85D+00  1.54D+00
 E= -3007.79448339554     Delta-E=        0.000000000047 Rises=F Damp=F
 DIIS: error= 7.21D-08 at cycle  18 NSaved=  18.
 NSaved=18 IEnMin=17 EnMin= -3007.79448339558     IErMin=18 ErrMin= 7.21D-08
 ErrMax= 7.21D-08  0.00D+00 EMaxC= 1.00D-01 BMatC= 4.15D-12 BMatP= 1.08D-11
 IDIUse=1 WtCom= 1.00D+00 WtEn= 0.00D+00
 Coeff-Com:  0.816D-05-0.161D-04-0.236D-04-0.390D-04-0.298D-04 0.223D-03
 Coeff-Com:  0.127D-02 0.140D-02-0.274D-02-0.108D-01-0.625D-03 0.251D-01
 Coeff-Com:  0.251D-01-0.496D-01-0.159D+00-0.157D+00 0.333D+00 0.994D+00
 Coeff:      0.816D-05-0.161D-04-0.236D-04-0.390D-04-0.298D-04 0.223D-03
 Coeff:      0.127D-02 0.140D-02-0.274D-02-0.108D-01-0.625D-03 0.251D-01
 Coeff:      0.251D-01-0.496D-01-0.159D+00-0.157D+00 0.333D+00 0.994D+00
 Gap=     0.160 Goal=   None    Shift=    0.000
 RMSDP=1.22D-08 MaxDP=9.31D-07 DE= 4.73D-11 OVMax= 8.53D-06

 Cycle  19  Pass 1  IDiag  1:
 RMSU=  3.12D-09    CP:  9.75D-01  1.57D+00  6.98D-01  7.61D-01  1.05D+00
                    CP:  1.15D+00  1.52D+00  1.99D+00  2.59D+00  2.87D+00
                    CP:  2.62D+00  2.25D+00  1.61D+00  1.57D+00  1.65D+00
                    CP:  2.30D+00  2.27D+00  1.62D+00
 E= -3007.79448339581     Delta-E=       -0.000000000275 Rises=F Damp=F
 DIIS: error= 4.69D-08 at cycle  19 NSaved=  19.
 NSaved=19 IEnMin=19 EnMin= -3007.79448339581     IErMin=19 ErrMin= 4.69D-08
 ErrMax= 4.69D-08  0.00D+00 EMaxC= 1.00D-01 BMatC= 1.99D-12 BMatP= 4.15D-12
 IDIUse=1 WtCom= 1.00D+00 WtEn= 0.00D+00
 Coeff-Com:  0.117D-05-0.213D-05-0.468D-05-0.870D-05-0.323D-04-0.239D-04
 Coeff-Com:  0.297D-03 0.651D-03 0.380D-03-0.317D-02-0.280D-02 0.714D-03
 Coeff-Com:  0.165D-01 0.271D-01-0.169D-01-0.197D+00-0.341D+00 0.455D+00
 Coeff-Com:  0.106D+01
 Coeff:      0.117D-05-0.213D-05-0.468D-05-0.870D-05-0.323D-04-0.239D-04
 Coeff:      0.297D-03 0.651D-03 0.380D-03-0.317D-02-0.280D-02 0.714D-03
 Coeff:      0.165D-01 0.271D-01-0.169D-01-0.197D+00-0.341D+00 0.455D+00
 Coeff:      0.106D+01
 Gap=     0.160 Goal=   None    Shift=    0.000
 RMSDP=1.08D-08 MaxDP=7.93D-07 DE=-2.75D-10 OVMax= 7.42D-06

 Cycle  20  Pass 1  IDiag  1:
 RMSU=  1.77D-09    CP:  9.75D-01  1.57D+00  6.98D-01  7.61D-01  1.05D+00
                    CP:  1.15D+00  1.52D+00  1.99D+00  2.59D+00  2.87D+00
                    CP:  2.62D+00  2.25D+00  1.62D+00  1.60D+00  1.78D+00
                    CP:  2.68D+00  2.93D+00  2.54D+00  1.49D+00
 E= -3007.79448339571     Delta-E=        0.000000000100 Rises=F Damp=F
 DIIS: error= 2.06D-08 at cycle  20 NSaved=  20.
 NSaved=20 IEnMin=19 EnMin= -3007.79448339581     IErMin=20 ErrMin= 2.06D-08
 ErrMax= 2.06D-08  0.00D+00 EMaxC= 1.00D-01 BMatC= 5.59D-13 BMatP= 1.99D-12
 IDIUse=1 WtCom= 1.00D+00 WtEn= 0.00D+00
 Coeff-Com: -0.324D-05 0.643D-05 0.882D-05 0.146D-04-0.817D-06-0.114D-03
 Coeff-Com: -0.446D-03-0.404D-03 0.159D-02 0.344D-02-0.249D-03-0.121D-01
 Coeff-Com: -0.417D-02 0.329D-01 0.646D-01-0.891D-02-0.322D+00-0.238D+00
 Coeff-Com:  0.465D+00 0.102D+01
 Coeff:     -0.324D-05 0.643D-05 0.882D-05 0.146D-04-0.817D-06-0.114D-03
 Coeff:     -0.446D-03-0.404D-03 0.159D-02 0.344D-02-0.249D-03-0.121D-01
 Coeff:     -0.417D-02 0.329D-01 0.646D-01-0.891D-02-0.322D+00-0.238D+00
 Coeff:      0.465D+00 0.102D+01
 Gap=     0.160 Goal=   None    Shift=    0.000
 RMSDP=7.33D-09 MaxDP=5.69D-07 DE= 1.00D-10 OVMax= 5.09D-06

 SCF Done:  E(RwB97XD) =  -3007.79448340     A.U. after   20 cycles
            NFock= 20  Conv=0.73D-08     -V/T= 2.0110
 KE= 2.975145685585D+03 PE=-2.694260043781D+04 EE= 1.098440747040D+04
 Leave Link  502 at Thu May  5 00:35:18 2022, MaxMem= 10066329600 cpu:           15171.9 elap:             649.9
 (Enter /sw/apps/gaussian-16.0/g16/l801.exe)
 DoSCS=F DFT=T ScalE2(SS,OS)=  1.000000  1.000000
 ExpMin= 3.36D-02 ExpMax= 4.95D+03 ExpMxC= 7.45D+02 IAcc=3 IRadAn=         5 AccDes= 0.00D+00
 HarFok:  IExCor=  205 AccDes= 0.00D+00 IRadAn=         5 IDoV=-2 UseB2=F ITyADJ=14
 ICtDFT= 12500011 ScaDFX=  1.000000  1.000000  1.000000  1.000000
 GSVD:  LWork=       -5460 too small for GESVD, short by       25550 words or       25550 for optimal perf.
 Largest valence mixing into a core orbital is  1.27D-04
 Largest core mixing into a valence orbital is  5.66D-05
 Range of M.O.s used for correlation:    71  1298
 NBasis=  1298 NAE=   246 NBE=   246 NFC=    70 NFV=     0
 NROrb=   1228 NOA=   176 NOB=   176 NVA=  1052 NVB=  1052
 Leave Link  801 at Thu May  5 00:35:19 2022, MaxMem= 10066329600 cpu:               7.0 elap:               0.3
 (Enter /sw/apps/gaussian-16.0/g16/l914.exe)
 RHF ground state
 Two-electron integrals replicated using symmetry.
 MDV= 10066329600 DFT=T DoStab=F Mixed=T DoRPA=T DoScal=F NonHer=T
 Making orbital integer symmetry assigments:
 Orbital symmetries:
       Occupied  (A) (A) (A) (A) (A) (A) (A) (A) (A) (A) (A) (A)
                 (A) (A) (A) (A) (A) (A) (A) (A) (A) (A) (A) (A)
                 (A) (A) (A) (A) (A) (A) (A) (A) (A) (A) (A) (A)
                 (A) (A) (A) (A) (A) (A) (A) (A) (A) (A) (A) (A)
                 (A) (A) (A) (A) (A) (A) (A) (A) (A) (A) (A) (A)
                 (A) (A) (A) (A) (A) (A) (A) (A) (A) (A) (A) (A)
                 (A) (A) (A) (A) (A) (A) (A) (A) (A) (A) (A) (A)
                 (A) (A) (A) (A) (A) (A) (A) (A) (A) (A) (A) (A)
                 (A) (A) (A) (A) (A) (A) (A) (A) (A) (A) (A) (A)
                 (A) (A) (A) (A) (A) (A) (A) (A) (A) (A) (A) (A)
                 (A) (A) (A) (A) (A) (A) (A) (A) (A) (A) (A) (A)
                 (A) (A) (A) (A) (A) (A) (A) (A) (A) (A) (A) (A)
                 (A) (A) (A) (A) (A) (A) (A) (A) (A) (A) (A) (A)
                 (A) (A) (A) (A) (A) (A) (A) (A) (A) (A) (A) (A)
                 (A) (A) (A) (A) (A) (A) (A) (A) (A) (A) (A) (A)
                 (A) (A) (A) (A) (A) (A) (A) (A) (A) (A) (A) (A)
                 (A) (A) (A) (A) (A) (A) (A) (A) (A) (A) (A) (A)
                 (A) (A) (A) (A) (A) (A) (A) (A) (A) (A) (A) (A)
                 (A) (A) (A) (A) (A) (A) (A) (A) (A) (A) (A) (A)
                 (A) (A) (A) (A) (A) (A) (A) (A) (A) (A) (A) (A)
                 (A) (A) (A) (A) (A) (A)
       Virtual   (A) (A) (A) (A) (A) (A) (A) (A) (A) (A) (A) (A)
                 (A) (A) (A) (A) (A) (A) (A) (A) (A) (A) (A) (A)
                 (A) (A) (A) (A) (A) (A) (A) (A) (A) (A) (A) (A)
                 (A) (A) (A) (A) (A) (A) (A) (A) (A) (A) (A) (A)
                 (A) (A) (A) (A) (A) (A) (A) (A) (A) (A) (A) (A)
                 (A) (A) (A) (A) (A) (A) (A) (A) (A) (A) (A) (A)
                 (A) (A) (A) (A) (A) (A) (A) (A) (A) (A) (A) (A)
                 (A) (A) (A) (A) (A) (A) (A) (A) (A) (A) (A) (A)
                 (A) (A) (A) (A) (A) (A) (A) (A) (A) (A) (A) (A)
                 (A) (A) (A) (A) (A) (A) (A) (A) (A) (A) (A) (A)
                 (A) (A) (A) (A) (A) (A) (A) (A) (A) (A) (A) (A)
                 (A) (A) (A) (A) (A) (A) (A) (A) (A) (A) (A) (A)
                 (A) (A) (A) (A) (A) (A) (A) (A) (A) (A) (A) (A)
                 (A) (A) (A) (A) (A) (A) (A) (A) (A) (A) (A) (A)
                 (A) (A) (A) (A) (A) (A) (A) (A) (A) (A) (A) (A)
                 (A) (A) (A) (A) (A) (A) (A) (A) (A) (A) (A) (A)
                 (A) (A) (A) (A) (A) (A) (A) (A) (A) (A) (A) (A)
                 (A) (A) (A) (A) (A) (A) (A) (A) (A) (A) (A) (A)
                 (A) (A) (A) (A) (A) (A) (A) (A) (A) (A) (A) (A)
                 (A) (A) (A) (A) (A) (A) (A) (A) (A) (A) (A) (A)
                 (A) (A) (A) (A) (A) (A) (A) (A) (A) (A) (A) (A)
                 (A) (A) (A) (A) (A) (A) (A) (A) (A) (A) (A) (A)
                 (A) (A) (A) (A) (A) (A) (A) (A) (A) (A) (A) (A)
                 (A) (A) (A) (A) (A) (A) (A) (A) (A) (A) (A) (A)
                 (A) (A) (A) (A) (A) (A) (A) (A) (A) (A) (A) (A)
                 (A) (A) (A) (A) (A) (A) (A) (A) (A) (A) (A) (A)
                 (A) (A) (A) (A) (A) (A) (A) (A) (A) (A) (A) (A)
                 (A) (A) (A) (A) (A) (A) (A) (A) (A) (A) (A) (A)
                 (A) (A) (A) (A) (A) (A) (A) (A) (A) (A) (A) (A)
                 (A) (A) (A) (A) (A) (A) (A) (A) (A) (A) (A) (A)
                 (A) (A) (A) (A) (A) (A) (A) (A) (A) (A) (A) (A)
                 (A) (A) (A) (A) (A) (A) (A) (A) (A) (A) (A) (A)
                 (A) (A) (A) (A) (A) (A) (A) (A) (A) (A) (A) (A)
                 (A) (A) (A) (A) (A) (A) (A) (A) (A) (A) (A) (A)
                 (A) (A) (A) (A) (A) (A) (A) (A) (A) (A) (A) (A)
                 (A) (A) (A) (A) (A) (A) (A) (A) (A) (A) (A) (A)
                 (A) (A) (A) (A) (A) (A) (A) (A) (A) (A) (A) (A)
                 (A) (A) (A) (A) (A) (A) (A) (A) (A) (A) (A) (A)
                 (A) (A) (A) (A) (A) (A) (A) (A) (A) (A) (A) (A)
                 (A) (A) (A) (A) (A) (A) (A) (A) (A) (A) (A) (A)
                 (A) (A) (A) (A) (A) (A) (A) (A) (A) (A) (A) (A)
                 (A) (A) (A) (A) (A) (A) (A) (A) (A) (A) (A) (A)
                 (A) (A) (A) (A) (A) (A) (A) (A) (A) (A) (A) (A)
                 (A) (A) (A) (A) (A) (A) (A) (A) (A) (A) (A) (A)
                 (A) (A) (A) (A) (A) (A) (A) (A) (A) (A) (A) (A)
                 (A) (A) (A) (A) (A) (A) (A) (A) (A) (A) (A) (A)
                 (A) (A) (A) (A) (A) (A) (A) (A) (A) (A) (A) (A)
                 (A) (A) (A) (A) (A) (A) (A) (A) (A) (A) (A) (A)
                 (A) (A) (A) (A) (A) (A) (A) (A) (A) (A) (A) (A)
                 (A) (A) (A) (A) (A) (A) (A) (A) (A) (A) (A) (A)
                 (A) (A) (A) (A) (A) (A) (A) (A) (A) (A) (A) (A)
                 (A) (A) (A) (A) (A) (A) (A) (A) (A) (A) (A) (A)
                 (A) (A) (A) (A) (A) (A) (A) (A) (A) (A) (A) (A)
                 (A) (A) (A) (A) (A) (A) (A) (A) (A) (A) (A) (A)
                 (A) (A) (A) (A) (A) (A) (A) (A) (A) (A) (A) (A)
                 (A) (A) (A) (A) (A) (A) (A) (A) (A) (A) (A) (A)
                 (A) (A) (A) (A) (A) (A) (A) (A) (A) (A) (A) (A)
                 (A) (A) (A) (A) (A) (A) (A) (A) (A) (A) (A) (A)
                 (A) (A) (A) (A) (A) (A) (A) (A) (A) (A) (A) (A)
                 (A) (A) (A) (A) (A) (A) (A) (A) (A) (A) (A) (A)
                 (A) (A) (A) (A) (A) (A) (A) (A) (A) (A) (A) (A)
                 (A) (A) (A) (A) (A) (A) (A) (A) (A) (A) (A) (A)
                 (A) (A) (A) (A) (A) (A) (A) (A) (A) (A) (A) (A)
                 (A) (A) (A) (A) (A) (A) (A) (A) (A) (A) (A) (A)
                 (A) (A) (A) (A) (A) (A) (A) (A) (A) (A) (A) (A)
                 (A) (A) (A) (A) (A) (A) (A) (A) (A) (A) (A) (A)
                 (A) (A) (A) (A) (A) (A) (A) (A) (A) (A) (A) (A)
                 (A) (A) (A) (A) (A) (A) (A) (A) (A) (A) (A) (A)
                 (A) (A) (A) (A) (A) (A) (A) (A) (A) (A) (A) (A)
                 (A) (A) (A) (A) (A) (A) (A) (A) (A) (A) (A) (A)
                 (A) (A) (A) (A) (A) (A) (A) (A) (A) (A) (A) (A)
                 (A) (A) (A) (A) (A) (A) (A) (A) (A) (A) (A) (A)
                 (A) (A) (A) (A) (A) (A) (A) (A) (A) (A) (A) (A)
                 (A) (A) (A) (A) (A) (A) (A) (A) (A) (A) (A) (A)
                 (A) (A) (A) (A) (A) (A) (A) (A) (A) (A) (A) (A)
                 (A) (A) (A) (A) (A) (A) (A) (A) (A) (A) (A) (A)
                 (A) (A) (A) (A) (A) (A) (A) (A) (A) (A) (A) (A)
                 (A) (A) (A) (A) (A) (A) (A) (A) (A) (A) (A) (A)
                 (A) (A) (A) (A) (A) (A) (A) (A) (A) (A) (A) (A)
                 (A) (A) (A) (A) (A) (A) (A) (A) (A) (A) (A) (A)
                 (A) (A) (A) (A) (A) (A) (A) (A) (A) (A) (A) (A)
                 (A) (A) (A) (A) (A) (A) (A) (A) (A) (A) (A) (A)
                 (A) (A) (A) (A) (A) (A) (A) (A) (A) (A) (A) (A)
                 (A) (A) (A) (A) (A) (A) (A) (A) (A) (A) (A) (A)
                 (A) (A) (A) (A) (A) (A) (A) (A) (A) (A) (A) (A)
                 (A) (A) (A) (A) (A) (A) (A) (A) (A) (A) (A) (A)
                 (A) (A) (A) (A) (A) (A) (A) (A) (A) (A) (A) (A)
                 (A) (A) (A) (A) (A) (A) (A) (A)
    20 initial guesses have been made.
 Convergence on wavefunction:    0.001000000000000
 Davidson Disk Diagonalization:  ConvIn= 1.00D-03 SkipCon=T Conv= 1.00D-03.
 Max sub-space:  2000 roots to seek:    20 dimension of matrix:       370304
 Iteration     1 Dimension    20 NMult     0 NNew     20
 CISAX will form    20 AO SS matrices at one time.
 NMat=    20 NSing=    20 JSym2X= 0.
 FoFJK:  IHMeth= 1 ICntrl=       0 DoSepK=T KAlg= 0 I1Cent=           0 FoldK=F
 IRaf=         1 NMat=      40 IRICut=       1 DoRegI=T DoRafI=F ISym2E= 0 IDoP0=3 IntGTp=3.
 FoFCou: FMM=T IPFlag=           0 FMFlag=      100000 FMFlg1=        2001
         NFxFlg=           0 DoJE=F BraDBF=F KetDBF=F FulRan=T
         wScrn=  0.000000 ICntrl=       500 IOpCl=  0 I1Cent=           0 NGrid=           0
         NMat0=   20 NMatS0=     20 NMatT0=    0 NMatD0=   20 NMtDS0=    0 NMtDT0=    0
 Symmetry not used in FoFCou.
 FMM levels:  10  Number of levels for PrismC:   9
 New state      3 was old state      9
 New state      4 was old state      5
 New state      5 was old state     10
 Excitation Energies [eV] at current iteration:
 Root      1 :     2.157314064068179
 Root      2 :     2.558581696610414
 Root      3 :     3.652408826844428
 Root      4 :     3.869461181147728
 Root      5 :     4.054393095493332
 Root      6 :     4.282571129776355
 Root      7 :     4.305478514000484
 Root      8 :     4.345974292686727
 Root      9 :     4.386142120516052
 Root     10 :     4.412844429516511
 Root     11 :     4.528500385490854
 Root     12 :     4.829951154009026
 Root     13 :     5.015198585195924
 Root     14 :     5.088725645148727
 Root     15 :     5.285295850465359
 Root     16 :     5.581105218224313
 Root     17 :     5.883528129661297
 Root     18 :     6.023413861226704
 Root     19 :     6.289044200372384
 Root     20 :     6.516390293923936
 Iteration     2 Dimension    30 NMult    20 NNew     10
 CISAX will form    10 AO SS matrices at one time.
 NMat=    10 NSing=    10 JSym2X= 0.
 Root      1 not converged, maximum delta is    0.076526872200785
 Root      2 not converged, maximum delta is    0.053523901453380
 New state      3 was old state      4
 Root      3 not converged, maximum delta is    0.226232929365527
 New state      4 was old state      5
 Root      4 not converged, maximum delta is    0.353870427951465
 New state      5 was old state      3
 Root      5 not converged, maximum delta is    0.162832742260337
 Excitation Energies [eV] at current iteration:
 Root      1 :     1.664764986868430   Change is   -0.492549077199749
 Root      2 :     2.154976036633000   Change is   -0.403605659977414
 Root      3 :     3.418615952785611   Change is   -0.450845228362117
 Root      4 :     3.541274906955252   Change is   -0.513118188538079
 Root      5 :     3.574116398933127   Change is   -0.078292427911302
 Iteration     3 Dimension    40 NMult    30 NNew     10
 CISAX will form    10 AO SS matrices at one time.
 NMat=    10 NSing=    10 JSym2X= 0.
 Root      1 not converged, maximum delta is    0.018161643127547
 Root      2 not converged, maximum delta is    0.009983537297285
 Root      3 not converged, maximum delta is    0.145755678591372
 Root      4 not converged, maximum delta is    0.176167214838829
 Root      5 not converged, maximum delta is    0.081489953438048
 Excitation Energies [eV] at current iteration:
 Root      1 :     1.627107747158990   Change is   -0.037657239709440
 Root      2 :     2.136564623041927   Change is   -0.018411413591073
 Root      3 :     3.365198796722176   Change is   -0.053417156063435
 Root      4 :     3.488480330432437   Change is   -0.052794576522815
 Root      5 :     3.564505910431350   Change is   -0.009610488501777
 Iteration     4 Dimension    50 NMult    40 NNew     10
 CISAX will form    10 AO SS matrices at one time.
 NMat=    10 NSing=    10 JSym2X= 0.
 Root      1 not converged, maximum delta is    0.003630737240008
 Root      2 not converged, maximum delta is    0.005116048268374
 Root      3 not converged, maximum delta is    0.023029827327277
 Root      4 not converged, maximum delta is    0.054313390901549
 Root      5 not converged, maximum delta is    0.010204496140225
 Excitation Energies [eV] at current iteration:
 Root      1 :     1.623258802649978   Change is   -0.003848944509012
 Root      2 :     2.133850724720168   Change is   -0.002713898321759
 Root      3 :     3.355219040627559   Change is   -0.009979756094617
 Root      4 :     3.469555555321857   Change is   -0.018924775110580
 Root      5 :     3.562805469510434   Change is   -0.001700440920916
 Iteration     5 Dimension    60 NMult    50 NNew     10
 CISAX will form    10 AO SS matrices at one time.
 NMat=    10 NSing=    10 JSym2X= 0.
 Root      1 not converged, maximum delta is    0.001347200229260
 Root      2 not converged, maximum delta is    0.001186109379068
 Root      3 not converged, maximum delta is    0.011243942196991
 Root      4 not converged, maximum delta is    0.075360965510606
 Root      5 not converged, maximum delta is    0.012861514677181
 Excitation Energies [eV] at current iteration:
 Root      1 :     1.622880780124700   Change is   -0.000378022525277
 Root      2 :     2.133605381125316   Change is   -0.000245343594852
 Root      3 :     3.353421334535724   Change is   -0.001797706091836
 Root      4 :     3.451821865741694   Change is   -0.017733689580163
 Root      5 :     3.562329508800471   Change is   -0.000475960709963
 Iteration     6 Dimension    70 NMult    60 NNew     10
 CISAX will form    10 AO SS matrices at one time.
 NMat=    10 NSing=    10 JSym2X= 0.
 Root      1 has converged.
 Root      2 has converged.
 Root      3 not converged, maximum delta is    0.021918540559100
 Root      4 not converged, maximum delta is    0.050843135368801
 Root      5 not converged, maximum delta is    0.341928575267262
 Excitation Energies [eV] at current iteration:
 Root      1 :     1.622850229287109   Change is   -0.000030550837592
 Root      2 :     2.133572557499952   Change is   -0.000032823625364
 Root      3 :     3.352361063361695   Change is   -0.001060271174028
 Root      4 :     3.443573620539549   Change is   -0.008248245202145
 Root      5 :     3.556386593447591   Change is   -0.005942915352880
 Iteration     7 Dimension    76 NMult    70 NNew      6
 CISAX will form     6 AO SS matrices at one time.
 NMat=     6 NSing=     6 JSym2X= 0.
 Root      1 has converged.
 Root      2 has converged.
 Root      3 not converged, maximum delta is    0.018688543764294
 Root      4 not converged, maximum delta is    0.050113809648864
 Root      5 not converged, maximum delta is    0.358951458355711
 Excitation Energies [eV] at current iteration:
 Root      1 :     1.622850148137508   Change is   -0.000000081149601
 Root      2 :     2.133571886264765   Change is   -0.000000671235187
 Root      3 :     3.351669944198578   Change is   -0.000691119163117
 Root      4 :     3.441636097130989   Change is   -0.001937523408561
 Root      5 :     3.497106070182908   Change is   -0.059280523264683
 Iteration     8 Dimension    82 NMult    76 NNew      6
 CISAX will form     6 AO SS matrices at one time.
 NMat=     6 NSing=     6 JSym2X= 0.
 Root      1 has converged.
 Root      2 has converged.
 Root      3 not converged, maximum delta is    0.003607451241811
 Root      4 not converged, maximum delta is    0.015878681611410
 Root      5 not converged, maximum delta is    0.022325124180215
 Excitation Energies [eV] at current iteration:
 Root      1 :     1.622850107421881   Change is   -0.000000040715627
 Root      2 :     2.133571671976729   Change is   -0.000000214288037
 Root      3 :     3.351535221017048   Change is   -0.000134723181530
 Root      4 :     3.441228103138199   Change is   -0.000407993992790
 Root      5 :     3.486852522688666   Change is   -0.010253547494242
 Iteration     9 Dimension    88 NMult    82 NNew      6
 CISAX will form     6 AO SS matrices at one time.
 NMat=     6 NSing=     6 JSym2X= 0.
 Root      1 has converged.
 Root      2 has converged.
 Root      3 has converged.
 Root      4 not converged, maximum delta is    0.002424108997407
 Root      5 not converged, maximum delta is    0.004177219080631
 Excitation Energies [eV] at current iteration:
 Root      1 :     1.622849990514170   Change is   -0.000000116907711
 Root      2 :     2.133571536525329   Change is   -0.000000135451400
 Root      3 :     3.351517230704102   Change is   -0.000017990312946
 Root      4 :     3.441170290870157   Change is   -0.000057812268042
 Root      5 :     3.485515805612388   Change is   -0.001336717076278
 Iteration    10 Dimension    92 NMult    88 NNew      4
 CISAX will form     4 AO SS matrices at one time.
 NMat=     4 NSing=     4 JSym2X= 0.
 Root      1 has converged.
 Root      2 has converged.
 Root      3 has converged.
 Root      4 has converged.
 Root      5 not converged, maximum delta is    0.001357410342337
 Excitation Energies [eV] at current iteration:
 Root      1 :     1.622849845230026   Change is   -0.000000145284144
 Root      2 :     2.133571349273551   Change is   -0.000000187251777
 Root      3 :     3.351515633324412   Change is   -0.000001597379691
 Root      4 :     3.441161829143565   Change is   -0.000008461726592
 Root      5 :     3.485350560764934   Change is   -0.000165244847454
 Iteration    11 Dimension    94 NMult    92 NNew      2
 CISAX will form     2 AO SS matrices at one time.
 NMat=     2 NSing=     2 JSym2X= 0.
 Root      1 has converged.
 Root      2 has converged.
 Root      3 has converged.
 Root      4 has converged.
 Root      5 has converged.
 Excitation Energies [eV] at current iteration:
 Root      1 :     1.622849833522856   Change is   -0.000000011707170
 Root      2 :     2.133571341881980   Change is   -0.000000007391571
 Root      3 :     3.351515491046686   Change is   -0.000000142277725
 Root      4 :     3.441161269524506   Change is   -0.000000559619058
 Root      5 :     3.485329819447600   Change is   -0.000020741317335
 Convergence achieved on expansion vectors.
 ***********************************************************************
 Excited states from <AA,BB:AA,BB> singles matrix:
 ***********************************************************************
 
 1PDM for each excited state written to RWF  633
 Ground to excited state transition densities written to RWF  633
 Ground to excited state transition electric dipole moments (Au):
       state          X           Y           Z        Dip. S.      Osc.
         1        -1.3179     -2.3953     -1.0577      8.5933      0.3417
         2         0.5096     -0.7321      0.4922      1.0379      0.0543
         3        -1.3583      1.4380     -1.3385      5.7042      0.4684
         4        -0.6309      0.8202     -0.6322      1.4704      0.1240
         5         0.2246     -0.2723      0.1829      0.1581      0.0135
 Ground to excited state transition velocity dipole moments (Au):
[...]
 Alpha virt. eigenvalues --    1.22375   1.22678   1.23389   1.23912   1.24338
 Alpha virt. eigenvalues --    1.25283   1.25722   1.25970   1.26285   1.26962
 Alpha virt. eigenvalues --    1.27244   1.27559   1.27965   1.27982   1.28401
 Alpha virt. eigenvalues --    1.29110   1.29457   1.30218   1.30344   1.30802
 Alpha virt. eigenvalues --    1.30938   1.31229   1.31401   1.31776   1.32123
 Alpha virt. eigenvalues --    1.32890   1.32952   1.33185   1.34191   1.34517
 Alpha virt. eigenvalues --    1.35384   1.35964   1.36666   1.37443   1.38344
 Alpha virt. eigenvalues --    1.38713   1.38827   1.39415   1.39483   1.39607
 Alpha virt. eigenvalues --    1.39932   1.40134   1.40652   1.40872   1.41444
 Alpha virt. eigenvalues --    1.42064   1.42639   1.42815   1.42879   1.42968
 Alpha virt. eigenvalues --    1.43429   1.43761   1.44835   1.45058   1.45381
 Alpha virt. eigenvalues --    1.46083   1.46665   1.46953   1.47145   1.47640
 Alpha virt. eigenvalues --    1.48526   1.49018   1.49483   1.49842   1.50348
 Alpha virt. eigenvalues --    1.50505   1.50709   1.51265   1.51517   1.52521
 Alpha virt. eigenvalues --    1.52655   1.52854   1.53401   1.53870   1.54078
 Alpha virt. eigenvalues --    1.54630   1.55198   1.55386   1.55950   1.56383
 Alpha virt. eigenvalues --    1.56577   1.57254   1.57465   1.57825   1.58660
 Alpha virt. eigenvalues --    1.59244   1.59490   1.59947   1.60115   1.60337
 Alpha virt. eigenvalues --    1.60402   1.60534   1.60633   1.60988   1.61258
 Alpha virt. eigenvalues --    1.61296   1.61855   1.62151   1.62244   1.62631
 Alpha virt. eigenvalues --    1.63143   1.63241   1.63400   1.63496   1.63989
 Alpha virt. eigenvalues --    1.64176   1.64269   1.64630   1.64924   1.65004
 Alpha virt. eigenvalues --    1.65110   1.65329   1.65571   1.65646   1.66524
 Alpha virt. eigenvalues --    1.66891   1.66911   1.67318   1.67560   1.68798
 Alpha virt. eigenvalues --    1.69100   1.69370   1.69689   1.69792   1.70731
 Alpha virt. eigenvalues --    1.70985   1.71848   1.71871   1.72225   1.72418
 Alpha virt. eigenvalues --    1.72991   1.74012   1.74208   1.74442   1.74659
 Alpha virt. eigenvalues --    1.74804   1.75221   1.75383   1.76069   1.76928
 Alpha virt. eigenvalues --    1.77512   1.77586   1.77964   1.78136   1.78371
 Alpha virt. eigenvalues --    1.78697   1.79141   1.79606   1.79816   1.79937
 Alpha virt. eigenvalues --    1.80121   1.80306   1.80544   1.80858   1.80978
 Alpha virt. eigenvalues --    1.81166   1.81226   1.81315   1.81814   1.82115
 Alpha virt. eigenvalues --    1.82407   1.82662   1.82811   1.83187   1.83658
 Alpha virt. eigenvalues --    1.83943   1.84040   1.84442   1.84785   1.84877
 Alpha virt. eigenvalues --    1.85228   1.85307   1.85756   1.85820   1.86046
 Alpha virt. eigenvalues --    1.86392   1.86645   1.86909   1.86953   1.87291
 Alpha virt. eigenvalues --    1.87311   1.87604   1.87757   1.87825   1.88210
 Alpha virt. eigenvalues --    1.88266   1.88479   1.88704   1.88942   1.89196
 Alpha virt. eigenvalues --    1.89343   1.89656   1.89763   1.89821   1.90574
 Alpha virt. eigenvalues --    1.90726   1.91147   1.91308   1.91454   1.91509
 Alpha virt. eigenvalues --    1.91645   1.91760   1.91818   1.92043   1.92295
 Alpha virt. eigenvalues --    1.92576   1.93116   1.93274   1.93457   1.93735
 Alpha virt. eigenvalues --    1.93777   1.93921   1.93977   1.94396   1.94777
 Alpha virt. eigenvalues --    1.94940   1.95167   1.95280   1.95661   1.96094
 Alpha virt. eigenvalues --    1.96275   1.96426   1.96537   1.96989   1.97037
 Alpha virt. eigenvalues --    1.97352   1.97473   1.97664   1.97989   1.98150
 Alpha virt. eigenvalues --    1.98339   1.98431   1.98570   1.99414   1.99519
 Alpha virt. eigenvalues --    1.99653   1.99935   2.00153   2.00414   2.00804
 Alpha virt. eigenvalues --    2.00942   2.01101   2.01375   2.01505   2.02243
 Alpha virt. eigenvalues --    2.02293   2.02496   2.02816   2.03683   2.03857
 Alpha virt. eigenvalues --    2.03990   2.04185   2.04392   2.04793   2.04923
 Alpha virt. eigenvalues --    2.05166   2.05366   2.05775   2.05907   2.06412
 Alpha virt. eigenvalues --    2.07058   2.07136   2.07275   2.07520   2.07910
 Alpha virt. eigenvalues --    2.08093   2.08523   2.08560   2.09008   2.09190
 Alpha virt. eigenvalues --    2.09587   2.09758   2.09797   2.10305   2.10397
 Alpha virt. eigenvalues --    2.10784   2.11655   2.11665   2.12039   2.12080
 Alpha virt. eigenvalues --    2.12436   2.12676   2.12860   2.13099   2.13293
 Alpha virt. eigenvalues --    2.13789   2.14371   2.14530   2.15087   2.15309
 Alpha virt. eigenvalues --    2.15622   2.15674   2.16307   2.16400   2.16507
 Alpha virt. eigenvalues --    2.16958   2.17040   2.17373   2.17467   2.17743
 Alpha virt. eigenvalues --    2.17988   2.18358   2.18652   2.18701   2.19193
 Alpha virt. eigenvalues --    2.19322   2.19795   2.20001   2.20630   2.21068
 Alpha virt. eigenvalues --    2.21274   2.21710   2.21835   2.22229   2.22435
 Alpha virt. eigenvalues --    2.22582   2.22923   2.23318   2.23623   2.23888
 Alpha virt. eigenvalues --    2.24237   2.24483   2.25309   2.25738   2.26096
 Alpha virt. eigenvalues --    2.26356   2.26715   2.27248   2.27324   2.28179
 Alpha virt. eigenvalues --    2.28404   2.28738   2.29151   2.29334   2.29485
 Alpha virt. eigenvalues --    2.30087   2.31048   2.31714   2.32095   2.33012
 Alpha virt. eigenvalues --    2.33151   2.33564   2.33792   2.34031   2.34213
 Alpha virt. eigenvalues --    2.34913   2.35004   2.35510   2.35602   2.35762
 Alpha virt. eigenvalues --    2.36322   2.36822   2.37172   2.37249   2.37620
 Alpha virt. eigenvalues --    2.37912   2.38577   2.39884   2.40005   2.40089
 Alpha virt. eigenvalues --    2.40927   2.41097   2.41240   2.41295   2.41957
 Alpha virt. eigenvalues --    2.42212   2.42295   2.42748   2.43170   2.43699
 Alpha virt. eigenvalues --    2.44201   2.44231   2.44604   2.44712   2.45053
 Alpha virt. eigenvalues --    2.45081   2.45553   2.46299   2.46691   2.46821
 Alpha virt. eigenvalues --    2.47257   2.48040   2.48235   2.48663   2.48855
 Alpha virt. eigenvalues --    2.48902   2.49533   2.49884   2.50182   2.50435
 Alpha virt. eigenvalues --    2.51073   2.51863   2.52468   2.52759   2.53249
 Alpha virt. eigenvalues --    2.53411   2.53735   2.54258   2.54306   2.54437
 Alpha virt. eigenvalues --    2.54983   2.55049   2.55892   2.56242   2.56641
 Alpha virt. eigenvalues --    2.57198   2.58008   2.58390   2.58650   2.59219
 Alpha virt. eigenvalues --    2.59226   2.59520   2.60384   2.60585   2.61044
 Alpha virt. eigenvalues --    2.61755   2.62047   2.62187   2.63158   2.63933
 Alpha virt. eigenvalues --    2.64034   2.64270   2.64555   2.64790   2.65005
 Alpha virt. eigenvalues --    2.65221   2.65392   2.65737   2.66104   2.66308
 Alpha virt. eigenvalues --    2.66659   2.67225   2.67532   2.68072   2.68616
 Alpha virt. eigenvalues --    2.69184   2.70465   2.70973   2.71037   2.71303
 Alpha virt. eigenvalues --    2.71475   2.71715   2.71836   2.72226   2.72437
 Alpha virt. eigenvalues --    2.72499   2.73141   2.73341   2.73891   2.74279
 Alpha virt. eigenvalues --    2.75414   2.75479   2.76179   2.76650   2.76953
 Alpha virt. eigenvalues --    2.77729   2.78012   2.78183   2.78385   2.78709
 Alpha virt. eigenvalues --    2.79149   2.79511   2.79725   2.80482   2.80777
 Alpha virt. eigenvalues --    2.81070   2.81599   2.81711   2.81797   2.82360
 Alpha virt. eigenvalues --    2.82556   2.83590   2.84047   2.84197   2.84696
 Alpha virt. eigenvalues --    2.85688   2.87425   2.87672   2.87727   2.88047
 Alpha virt. eigenvalues --    2.88742   2.88887   2.89108   2.90396   2.90999
 Alpha virt. eigenvalues --    2.91155   2.92154   2.92732   2.92842   2.93207
 Alpha virt. eigenvalues --    2.93574   2.93878   2.94482   2.95592   2.95889
 Alpha virt. eigenvalues --    2.96408   2.96685   2.97166   2.97216   2.97884
 Alpha virt. eigenvalues --    2.98148   2.98331   2.98521   2.99130   2.99404
 Alpha virt. eigenvalues --    2.99703   3.00146   3.00271   3.00469   3.00571
 Alpha virt. eigenvalues --    3.00901   3.01182   3.01905   3.01982   3.02298
 Alpha virt. eigenvalues --    3.02386   3.03116   3.03233   3.03653   3.03882
 Alpha virt. eigenvalues --    3.04189   3.04905   3.05205   3.05348   3.05936
 Alpha virt. eigenvalues --    3.06136   3.06548   3.06784   3.06954   3.07026
 Alpha virt. eigenvalues --    3.07069   3.07531   3.07620   3.08338   3.09061
 Alpha virt. eigenvalues --    3.09386   3.09995   3.10127   3.10610   3.10696
 Alpha virt. eigenvalues --    3.11083   3.11302   3.11678   3.12259   3.12503
 Alpha virt. eigenvalues --    3.12872   3.12946   3.13288   3.13493   3.14886
 Alpha virt. eigenvalues --    3.15386   3.15865   3.15938   3.16047   3.16187
 Alpha virt. eigenvalues --    3.17146   3.17701   3.18981   3.20389   3.20618
 Alpha virt. eigenvalues --    3.20964   3.21124   3.21977   3.22678   3.22751
 Alpha virt. eigenvalues --    3.23413   3.24142   3.24351   3.25472   3.25868
 Alpha virt. eigenvalues --    3.26191   3.26924   3.27970   3.28949   3.31515
 Alpha virt. eigenvalues --    3.31828   3.33020   3.43807   3.44128   3.46908
 Alpha virt. eigenvalues --    3.47301   3.49514   3.51744   3.54696   3.56822
 Alpha virt. eigenvalues --    3.62452   3.66106   3.67437   3.72193   3.72827
 Alpha virt. eigenvalues --    3.73877   3.75749
          Condensed to atoms (all electrons):
 Mulliken charges:
               1
     1  Mg   0.936572
     2  C    0.009907
     3  C   -0.075081
     4  C   -0.029968
     5  C   -0.064243
     6  N   -0.298261
     7  C   -0.019552
     8  C   -0.048343
     9  C   -0.132932
    10  C    0.042513
    11  C    0.038442
    12  C    0.027576
    13  C    0.038356
    14  C    0.202416
    15  O   -0.264080
    16  O   -0.373655
    17  N   -0.490454
    18  C    0.146111
    19  C   -0.165390
    20  C   -0.024877
    21  C    0.111817
    22  C    0.096080
    23  C   -0.006949
    24  O   -0.246182
    25  C    0.014030
    26  N   -0.325754
    27  C    0.063047
    28  C   -0.098372
    29  C   -0.020422
    30  C    0.007425
    31  C    0.005981
    32  C   -0.047039
    33  C   -0.048145
    34  N   -0.422539
    35  C    0.106365
    36  C   -0.210854
    37  C   -0.023657
    38  C    0.161564
    39  C    0.091031
    40  C    0.075727
    41  O   -0.216414
    42  C   -0.054924
    43  C    0.276535
    44  O   -0.228782
    45  O   -0.377412
    46  C    0.150261
    47  C    0.246712
    48  C   -0.149863
    49  C   -0.194600
    50  C    0.034976
    51  C    0.032588
    52  C   -0.021944
    53  C   -0.020774
    54  C   -0.163070
    55  C    0.020832
    56  C   -0.002623
    57  C    0.003961
    58  C   -0.015545
    59  C   -0.188673
    60  C   -0.003482
    61  C   -0.012660
    62  C   -0.022875
    63  C    0.056218
    64  C   -0.243977
    65  C    0.001926
    66  C   -0.015720
    67  H    0.005752
    68  H   -0.047245
    69  H   -0.000909
    70  H    0.016253
    71  H    0.033165
    72  H    0.042941
    73  H    0.046363
    74  H    0.031036
    75  H    0.028389
    76  H    0.060325
    77  H    0.044083
    78  H    0.041220
    79  H    0.058745
    80  H    0.061361
    81  H    0.010109
    82  H    0.040949
    83  H    0.071561
    84  H    0.047025
    85  H    0.050719
    86  H    0.037929
    87  H    0.052487
    88  H    0.033982
    89  H    0.031540
    90  H    0.040223
    91  H    0.031048
    92  H    0.035555
    93  H    0.046404
    94  H    0.060372
    95  H    0.073029
    96  H    0.067673
    97  H    0.038947
    98  H    0.061541
    99  H    0.057880
   100  H    0.034454
   101  H    0.053617
   102  H    0.056862
   103  H    0.055421
   104  H    0.031832
   105  H    0.035538
   106  H    0.034824
   107  H    0.070080
   108  H    0.008534
   109  H    0.031213
   110  H    0.031859
   111  H    0.023795
   112  H    0.011885
   113  H    0.019908
   114  H    0.017388
   115  H    0.016877
   116  H    0.027876
   117  H    0.016573
   118  H    0.015173
   119  H    0.022799
   120  H    0.024453
   121  H    0.012554
   122  H    0.003416
   123  H    0.011212
   124  H    0.013749
   125  H    0.024745
   126  H    0.051246
   127  H    0.032300
   128  H    0.008301
   129  H    0.000802
   130  H    0.027340
   131  H    0.026182
   132  H    0.013942
   133  H    0.030294
   134  H    0.023077
   135  H    0.033019
   136  H    0.019702
   137  H    0.014377
   138  H    0.018132
   139  H    0.023370
   140  H    0.031944
 Sum of Mulliken charges =  -0.00000
 Mulliken charges with hydrogens summed into heavy atoms:
               1
     1  Mg   0.936572
     2  C    0.009907
     3  C   -0.069328
     4  C   -0.077213
     5  C   -0.065152
     6  N   -0.298261
     7  C   -0.019552
     8  C   -0.032091
     9  C   -0.099767
    10  C    0.042513
    11  C    0.158781
    12  C    0.116290
    13  C    0.123659
    14  C    0.202416
    15  O   -0.264080
    16  O   -0.373655
    17  N   -0.490454
    18  C    0.146111
    19  C   -0.165390
    20  C   -0.024877
    21  C    0.111817
    22  C    0.226295
    23  C   -0.006949
    24  O   -0.246182
    25  C    0.173565
    26  N   -0.325754
    27  C    0.063047
    28  C   -0.047653
    29  C    0.017507
    30  C    0.007425
    31  C    0.123990
    32  C    0.024232
    33  C    0.094186
    34  N   -0.422539
    35  C    0.106365
    36  C   -0.210854
    37  C   -0.023657
    38  C    0.161564
    39  C    0.270681
    40  C    0.075727
    41  O   -0.216414
    42  C    0.006618
    43  C    0.276535
    44  O   -0.228782
    45  O   -0.377412
    46  C    0.296212
    47  C    0.358995
    48  C   -0.118031
    49  C   -0.194600
    50  C    0.175418
    51  C    0.072335
    52  C    0.033709
    53  C    0.011019
    54  C   -0.145682
    55  C    0.082157
    56  C    0.035349
    57  C    0.040969
    58  C   -0.000917
    59  C   -0.174923
    60  C    0.104809
    61  C   -0.003557
    62  C    0.030647
    63  C    0.100454
    64  C   -0.220900
    65  C    0.069024
    66  C    0.057725
 Electronic spatial extent (au):  <R**2>=          82734.0558
 Charge=             -0.0000 electrons
 Dipole moment (field-independent basis, Debye):
    X=             -3.5232    Y=              0.3927    Z=             -1.5663  Tot=              3.8757
 Quadrupole moment (field-independent basis, Debye-Ang):
   XX=           -360.1051   YY=           -423.5740   ZZ=           -395.7657
   XY=            -39.1055   XZ=              4.5070   YZ=             -5.9854
 Traceless Quadrupole moment (field-independent basis, Debye-Ang):
   XX=             33.0432   YY=            -30.4258   ZZ=             -2.6174
   XY=            -39.1055   XZ=              4.5070   YZ=             -5.9854
 Octapole moment (field-independent basis, Debye-Ang**2):
  XXX=           -317.6399  YYY=           -205.8409  ZZZ=            -34.9524  XYY=             53.3604
  XXY=            147.9461  XXZ=            -94.1042  XZZ=           -107.4098  YZZ=             27.4102
  YYZ=           -151.0000  XYZ=             79.7259
 Hexadecapole moment (field-independent basis, Debye-Ang**3):
 XXXX=         -66088.0061 YYYY=         -34736.9301 ZZZZ=         -11867.0615 XXXY=          -1268.2860
 XXXZ=           1244.6966 YYYX=          -1511.6138 YYYZ=           -533.1021 ZZZX=            -43.3259
 ZZZY=            175.7891 XXYY=         -16963.9718 XXZZ=         -12831.3820 YYZZ=          -7846.9842
 XXYZ=            -59.0564 YYXZ=            164.6752 ZZXY=             84.4538
 N-N= 9.975252798431D+03 E-N=-2.694260044180D+04  KE= 2.975145685585D+03
 Leave Link  601 at Thu May  5 01:13:23 2022, MaxMem= 10066329600 cpu:              11.7 elap:               0.6
 (Enter /sw/apps/gaussian-16.0/g16/l9999.exe)
 1\1\GINC-BP1-COMPUTE168\SP\RwB97XD TD-FC\def2SVP\C55H74Mg1N4O6\OF15641
 \05-May-2022\0\\#p wB97XD/Def2SVP td=(nstates=5)\\step_501_chromophore
 _20 TDDFT with wB97XD functional\\0,1\Mg,0,7.636,56.802,41.945\C,0,6.6
 25,53.446,41.385\C,0,10.681,55.975,40.458\C,0,8.032,60.025,41.405\C,0,
 4.228,57.385,43.149\N,0,8.45,54.913,40.781\C,0,7.957,53.661,40.95\C,0,
 8.99,52.648,40.49\C,0,10.329,53.333,40.764\C,0,9.814,54.854,40.608\C,0
 ,10.976,53.149,42.138\C,0,8.688,52.223,38.987\C,0,8.786,50.762,38.785\
 C,0,9.472,50.264,37.498\O,0,10.538,49.67,37.544\O,0,8.683,50.519,36.40
 6\N,0,9.15,57.919,40.995\C,0,10.372,57.384,40.517\C,0,11.157,58.505,40
 .065\C,0,10.496,59.72,40.387\C,0,9.159,59.292,40.933\C,0,12.516,58.288
 ,39.407\C,0,10.98,61.084,40.089\O,0,12.058,61.217,39.523\C,0,10.253,62
 .368,40.32\N,0,6.193,58.496,42.173\C,0,6.766,59.71,42.052\C,0,5.813,60
 .813,42.547\C,0,4.615,59.975,43.27\C,0,5.024,58.526,42.899\C,0,6.513,6
 1.954,43.414\C,0,3.166,60.373,42.848\C,0,2.453,59.491,41.767\N,0,5.854
 ,55.731,42.223\C,0,4.596,56.1,42.779\C,0,3.778,54.831,43.012\C,0,4.552
 ,53.841,42.428\C,0,5.79,54.434,41.99\C,0,2.398,54.583,43.651\C,0,4.627
 ,52.438,42.17\O,0,3.862,51.526,42.488\C,0,5.871,52.243,41.379\C,0,5.33
 6,51.934,39.962\O,0,4.911,52.738,39.135\O,0,5.352,50.52,39.807\C,0,4.7
 96,49.972,38.637\C,0,9.183,49.94,35.134\C,0,8.236,50.218,33.933\C,0,6.
 901,50.105,33.772\C,0,5.984,49.48,34.833\C,0,6.281,50.449,32.396\C,0,6
 .181,51.883,32.112\C,0,7.306,52.305,31.193\C,0,6.878,53.454,30.233\C,0
 ,6.564,52.979,28.818\C,0,7.998,54.449,30.113\C,0,8.011,55.437,31.325\C
 ,0,9.41,55.508,32.002\C,0,10.244,56.741,31.681\C,0,9.522,58.135,32.016
 \C,0,10.887,56.753,30.224\C,0,12.372,56.193,30.207\C,0,13.365,57.385,3
 0.185\C,0,14.461,57.12,29.142\C,0,15.877,57.621,29.411\C,0,13.922,57.6
 42,27.781\H,0,11.687,55.764,40.089\H,0,8.332,61.073,41.344\H,0,3.252,5
 7.433,43.635\H,0,9.018,51.75,41.107\H,0,11.187,53.147,40.119\H,0,10.60
 1,52.287,42.689\H,0,11.03,54.09,42.686\H,0,12.003,52.894,41.874\H,0,9.
 435,52.683,38.34\H,0,7.775,52.653,38.575\H,0,7.739,50.465,38.834\H,0,9
 .336,50.338,39.625\H,0,13.35,58.534,40.064\H,0,12.538,58.834,38.465\H,
 0,12.645,57.238,39.144\H,0,10.18,62.528,41.396\H,0,9.256,62.436,39.883
 \H,0,10.868,63.229,40.061\H,0,5.413,61.221,41.619\H,0,4.751,60.04,44.3
 49\H,0,7.576,62.025,43.184\H,0,6.349,61.977,44.492\H,0,5.916,62.833,43
 .166\H,0,3.099,61.41,42.52\H,0,2.617,60.248,43.781\H,0,1.869,60.304,41
 .335\H,0,1.78,58.704,42.108\H,0,3.217,59.142,41.072\H,0,2.474,53.891,4
 4.489\H,0,1.984,53.997,42.831\H,0,1.915,55.552,43.775\H,0,6.406,51.37,
 41.753\H,0,4.828,48.883,38.585\H,0,5.365,50.362,37.794\H,0,3.76,50.312
 ,38.634\H,0,9.168,48.853,35.206\H,0,10.199,50.335,35.123\H,0,8.791,50.
 624,33.087\H,0,6.432,48.535,35.14\H,0,5.014,49.178,34.438\H,0,5.929,50
 .136,35.701\H,0,5.264,50.139,32.157\H,0,6.78,49.885,31.609\H,0,6.288,5
 2.4,33.066\H,0,5.205,52.23,31.772\H,0,7.812,51.543,30.601\H,0,8.083,52
 .569,31.91\H,0,5.938,53.814,30.651\H,0,5.721,53.486,28.348\H,0,6.379,5
 1.905,28.82\H,0,7.282,53.397,28.112\H,0,7.908,55.121,29.259\H,0,8.887,
 53.878,29.846\H,0,7.284,55.183,32.096\H,0,7.788,56.467,31.049\H,0,10.0
 49,54.633,31.882\H,0,9.284,55.501,33.085\H,0,11.105,56.5,32.304\H,0,9.
 372,58.632,31.057\H,0,10.165,58.656,32.726\H,0,8.504,58.022,32.387\H,0
 ,10.782,57.743,29.78\H,0,10.204,56.202,29.578\H,0,12.454,55.515,29.357
 \H,0,12.482,55.569,31.094\H,0,14.017,57.444,31.056\H,0,12.871,58.349,3
 0.063\H,0,14.647,56.069,28.92\H,0,16.572,56.807,29.616\H,0,15.956,58.3
 46,30.222\H,0,16.263,58.173,28.554\H,0,14.619,57.528,26.951\H,0,13.882
 ,58.73,27.836\H,0,13.027,57.043,27.612\\Version=ES64L-G16RevA.03\State
 =1-A\HF=-3007.7944834\RMSD=7.327e-09\PG=C01 [X(C55H74Mg1N4O6)]\\@


 MY DESCRIPTION OF EXPERIENCE IS NOT WHAT HAPPENS
 TO A MAN.  EXPERIENCE IS WHAT A MAN DOES WITH WHAT
 HAPPENS TO HIM.
                         - CHUCK KNOX, SEATTLE SEAHAWKS, 1985
 Job cpu time:       0 days 19 hours 26 minutes 31.9 seconds.
 Elapsed time:       0 days  0 hours 49 minutes  7.2 seconds.
 File lengths (MBytes):  RWF=   8929 Int=      0 D2E=      0 Chk=    390 Scr=      1
 Normal termination of Gaussian 16 at Thu May  5 01:13:24 2022.
