 Entering Gaussian System, Link 0=g16
 Initial command:
 /sw/apps/gaussian-16.0/g16/l1.exe "/tmp/Gau-44197.inp" -scrdir="/tmp/"
 Entering Link 1 = /sw/apps/gaussian-16.0/g16/l1.exe PID=     44198.
  
 Copyright (c) 1988,1990,1992,1993,1995,1998,2003,2009,2016,
            Gaussian, Inc.  All Rights Reserved.
  
 This is part of the Gaussian(R) 16 program.  It is based on
 the Gaussian(R) 09 system (copyright 2009, Gaussian, Inc.),
 the Gaussian(R) 03 system (copyright 2003, Gaussian, Inc.),
 the Gaussian(R) 98 system (copyright 1998, Gaussian, Inc.),
 the Gaussian(R) 94 system (copyright 1995, Gaussian, Inc.),
 the Gaussian 92(TM) system (copyright 1992, Gaussian, Inc.),
 the Gaussian 90(TM) system (copyright 1990, Gaussian, Inc.),
 the Gaussian 88(TM) system (copyright 1988, Gaussian, Inc.),
 the Gaussian 86(TM) system (copyright 1986, Carnegie Mellon
 University), and the Gaussian 82(TM) system (copyright 1983,
 Carnegie Mellon University). Gaussian is a federally registered
 trademark of Gaussian, Inc.
  
 This software contains proprietary and confidential information,
 including trade secrets, belonging to Gaussian, Inc.
  
 This software is provided under written license and may be
 used, copied, transmitted, or stored only in accord with that
 written license.
  
 The following legend is applicable only to US Government
 contracts under FAR:
  
                    RESTRICTED RIGHTS LEGEND
  
 Use, reproduction and disclosure by the US Government is
 subject to restrictions as set forth in subparagraphs (a)
 and (c) of the Commercial Computer Software - Restricted
 Rights clause in FAR 52.227-19.
  
 Gaussian, Inc.
 340 Quinnipiac St., Bldg. 40, Wallingford CT 06492
  
  
 ---------------------------------------------------------------
 Warning -- This program may not be used in any manner that
 competes with the business of Gaussian, Inc. or will provide
 assistance to any competitor of Gaussian, Inc.  The licensee
 of this program is prohibited from giving any competitor of
 Gaussian, Inc. access to this program.  By using this program,
 the user acknowledges that Gaussian, Inc. is engaged in the
 business of creating and licensing software in the field of
 computational chemistry and represents and warrants to the
 licensee that it is not a competitor of Gaussian, Inc. and that
 it will not use this program in any manner prohibited above.
 ---------------------------------------------------------------
  

 Cite this work as:
 Gaussian 16, Revision A.03,
 M. J. Frisch, G. W. Trucks, H. B. Schlegel, G. E. Scuseria, 
 M. A. Robb, J. R. Cheeseman, G. Scalmani, V. Barone, 
 G. A. Petersson, H. Nakatsuji, X. Li, M. Caricato, A. V. Marenich, 
 J. Bloino, B. G. Janesko, R. Gomperts, B. Mennucci, H. P. Hratchian, 
 J. V. Ortiz, A. F. Izmaylov, J. L. Sonnenberg, D. Williams-Young, 
 F. Ding, F. Lipparini, F. Egidi, J. Goings, B. Peng, A. Petrone, 
 T. Henderson, D. Ranasinghe, V. G. Zakrzewski, J. Gao, N. Rega, 
 G. Zheng, W. Liang, M. Hada, M. Ehara, K. Toyota, R. Fukuda, 
 J. Hasegawa, M. Ishida, T. Nakajima, Y. Honda, O. Kitao, H. Nakai, 
 T. Vreven, K. Throssell, J. A. Montgomery, Jr., J. E. Peralta, 
 F. Ogliaro, M. J. Bearpark, J. J. Heyd, E. N. Brothers, K. N. Kudin, 
 V. N. Staroverov, T. A. Keith, R. Kobayashi, J. Normand, 
 K. Raghavachari, A. P. Rendell, J. C. Burant, S. S. Iyengar, 
 J. Tomasi, M. Cossi, J. M. Millam, M. Klene, C. Adamo, R. Cammi, 
 J. W. Ochterski, R. L. Martin, K. Morokuma, O. Farkas, 
 J. B. Foresman, and D. J. Fox, Gaussian, Inc., Wallingford CT, 2016.
 
 ******************************************
 Gaussian 16:  ES64L-G16RevA.03 25-Dec-2016
                30-Apr-2022 
 ******************************************
 %nproc=24
 Will use up to   24 processors via shared memory.
 %mem=75GB
 ------------------------------
 #p blyp/Def2SVP td=(nstates=5)
 ------------------------------
 1/38=1,172=1/1;
 2/12=2,17=6,18=5,40=1/2;
 3/5=43,7=101,11=9,25=1,30=1,74=402/1,2,3,8;
 4//1;
 5/5=2,38=5/2;
 8/6=1,10=1,108=5/1;
 9/41=5,42=1,70=2/14;
 6/7=2,8=2,9=2,10=2/1;
 99/5=1,9=1/99;
 Leave Link    1 at Sat Apr 30 09:47:35 2022, MaxMem= 10066329600 cpu:               0.6 elap:               0.0
 (Enter /sw/apps/gaussian-16.0/g16/l101.exe)
 --------------------------------------------------
 step_701_chromophore_12 TDDFT with blyp functional
 --------------------------------------------------
 Symbolic Z-matrix:
 Charge =  0 Multiplicity = 1
 Mg                    47.069    15.991    27.824 
 C                     45.254    15.278    30.782 
 C                     48.97     18.107    29.835 
 C                     48.972    16.676    25.176 
 C                     44.998    14.01     25.955 
 N                     47.146    16.513    30.126 
 C                     46.338    16.126    31.137 
 C                     46.773    16.674    32.471 
 C                     47.752    17.77     32.103 
 C                     47.989    17.475    30.582 
 C                     47.391    19.2      32.514 
 C                     47.315    15.6      33.415 
 C                     47.108    15.708    34.922 
 C                     48.344    15.583    35.805 
 O                     49.285    14.753    35.688 
 O                     48.282    16.565    36.779 
 N                     48.648    17.22     27.539 
 C                     49.264    18.006    28.517 
 C                     50.45     18.629    27.922 
 C                     50.488    18.308    26.515 
 C                     49.267    17.432    26.33 
 C                     51.472    19.462    28.708 
 C                     51.371    18.828    25.41 
 O                     51.261    18.472    24.262 
 C                     52.557    19.734    25.734 
 N                     46.98     15.464    25.83 
 C                     47.965    15.77     24.934 
 C                     47.778    14.961    23.661 
 C                     46.457    14.285    23.82 
 C                     46.095    14.528    25.294 
 C                     47.818    15.749    22.348 
 C                     46.498    12.753    23.398 
 C                     45.998    12.482    21.894 
 N                     45.403    14.921    28.227 
 C                     44.618    14.203    27.303 
 C                     43.532    13.63     28.013 
 C                     43.711    13.97     29.389 
 C                     44.892    14.831    29.467 
 C                     42.433    12.89     27.253 
 C                     43.317    13.758    30.787 
 O                     42.442    13.064    31.318 
 C                     44.247    14.634    31.726 
 C                     43.419    15.595    32.448 
 O                     42.635    16.33     31.986 
 O                     43.743    15.551    33.779 
 C                     42.976    16.343    34.635 
 C                     49.375    16.382    37.742 
 C                     49.775    17.735    38.196 
 C                     50.887    18.068    38.958 
 C                     51.857    17.089    39.615 
 C                     51.066    19.524    39.371 
 C                     52.494    20.168    39.046 
 C                     53.272    20.631    40.273 
 C                     54.857    20.69     39.924 
 C                     55.632    19.64     40.665 
 C                     55.346    22.113    40.158 
 C                     55.065    23.042    38.984 
 C                     56.31     23.627    38.237 
 C                     56.42     23.198    36.774 
 C                     57.894    23.12     36.393 
 C                     55.566    24.02     35.73 
 C                     54.857    23.078    34.672 
 C                     55.06     23.767    33.26 
 C                     53.681    24.       32.539 
 C                     53.896    23.666    31.068 
 C                     53.127    25.453    32.756 
 H                     49.534    18.799    30.463 
 H                     49.579    16.801    24.277 
 H                     44.328    13.445    25.303 
 H                     45.925    17.159    32.953 
 H                     48.649    17.58     32.693 
 H                     46.85     19.371    33.445 
 H                     46.996    19.57     31.568 
 H                     48.332    19.73     32.66 
 H                     48.362    15.479    33.138 
 H                     46.863    14.654    33.116 
 H                     46.398    14.899    35.094 
 H                     46.594    16.622    35.219 
 H                     51.711    20.365    28.147 
 H                     52.388    18.966    29.028 
 H                     51.072    19.821    29.656 
 H                     52.143    20.716    25.964 
 H                     53.245    19.883    24.902 
 H                     53.063    19.353    26.621 
 H                     48.599    14.244    23.66 
 H                     45.616    14.693    23.258 
 H                     48.624    15.383    21.712 
 H                     48.036    16.797    22.555 
 H                     46.91     15.7      21.748 
 H                     45.996    12.089    24.102 
 H                     47.553    12.513    23.525 
 H                     46.756    11.831    21.457 
 H                     45.87     13.36     21.261 
 H                     45.075    11.904    21.949 
 H                     42.138    13.13     26.232 
 H                     41.548    13.332    27.711 
 H                     42.388    11.829    27.499 
 H                     44.714    13.988    32.47 
 H                     43.345    16.186    35.649 
 H                     41.953    15.999    34.481 
 H                     43.045    17.386    34.327 
 H                     50.366    16.238    37.313 
 H                     49.141    15.617    38.483 
 H                     49.292    18.631    37.806 
 H                     52.832    17.149    39.132 
 H                     51.461    16.086    39.453 
 H                     52.123    17.316    40.647 
 H                     50.933    19.597    40.45 
 H                     50.279    20.105    38.888 
 H                     52.177    21.047    38.485 
 H                     53.048    19.487    38.401 
 H                     53.02     19.899    41.041 
 H                     52.972    21.633    40.579 
 H                     54.813    20.547    38.845 
 H                     56.032    19.985    41.619 
 H                     56.429    19.294    40.007 
 H                     54.944    18.849    40.963 
 H                     56.395    22.1      40.455 
 H                     54.87     22.524    41.048 
 H                     54.483    23.877    39.375 
 H                     54.386    22.567    38.275 
 H                     57.256    23.425    38.739 
 H                     56.181    24.709    38.22 
 H                     56.083    22.162    36.737 
 H                     58.544    23.868    36.847 
 H                     57.95     23.341    35.328 
 H                     58.144    22.075    36.574 
 H                     56.238    24.734    35.254 
 H                     54.722    24.473    36.25 
 H                     53.783    22.944    34.795 
 H                     55.276    22.072    34.686 
 H                     55.729    23.117    32.695 
 H                     55.446    24.775    33.41 
 H                     52.977    23.28     32.956 
 H                     53.505    24.298    30.27 
 H                     53.616    22.623    30.922 
 H                     54.959    23.72     30.831 
 H                     53.527    25.988    33.618 
 H                     52.047    25.373    32.877 
 H                     53.266    26.096    31.887 
 
 ITRead=  0  0  0  0  0  0  0  0  0  0  0  0  0  0  0  0  0  0  0  0
 ITRead=  0  0  0  0  0  0  0  0  0  0  0  0  0  0  0  0  0  0  0  0
 ITRead=  0  0  0  0  0  0  0  0  0  0  0  0  0  0  0  0  0  0  0  0
 ITRead=  0  0  0  0  0  0  0  0  0  0  0  0  0  0  0  0  0  0  0  0
 ITRead=  0  0  0  0  0  0  0  0  0  0  0  0  0  0  0  0  0  0  0  0
 ITRead=  0  0  0  0  0  0  0  0  0  0  0  0  0  0  0  0  0  0  0  0
 ITRead=  0  0  0  0  0  0  0  0  0  0  0  0  0  0  0  0  0  0  0  0
 MicOpt= -1 -1 -1 -1 -1 -1 -1 -1 -1 -1 -1 -1 -1 -1 -1 -1 -1 -1 -1 -1
 MicOpt= -1 -1 -1 -1 -1 -1 -1 -1 -1 -1 -1 -1 -1 -1 -1 -1 -1 -1 -1 -1
 MicOpt= -1 -1 -1 -1 -1 -1 -1 -1 -1 -1 -1 -1 -1 -1 -1 -1 -1 -1 -1 -1
 MicOpt= -1 -1 -1 -1 -1 -1 -1 -1 -1 -1 -1 -1 -1 -1 -1 -1 -1 -1 -1 -1
 MicOpt= -1 -1 -1 -1 -1 -1 -1 -1 -1 -1 -1 -1 -1 -1 -1 -1 -1 -1 -1 -1
 MicOpt= -1 -1 -1 -1 -1 -1 -1 -1 -1 -1 -1 -1 -1 -1 -1 -1 -1 -1 -1 -1
 MicOpt= -1 -1 -1 -1 -1 -1 -1 -1 -1 -1 -1 -1 -1 -1 -1 -1 -1 -1 -1 -1
 NAtoms=    140 NQM=      140 NQMF=       0 NMMI=      0 NMMIF=      0
                NMic=       0 NMicF=      0.
                    Isotopes and Nuclear Properties:
 (Nuclear quadrupole moments (NQMom) in fm**2, nuclear magnetic moments (NMagM)
  in nuclear magnetons)

  Atom         1           2           3           4           5           6           7           8           9          10
 IAtWgt=          24          12          12          12          12          14          12          12          12          12
 AtmWgt=  23.9850450  12.0000000  12.0000000  12.0000000  12.0000000  14.0030740  12.0000000  12.0000000  12.0000000  12.0000000
 NucSpn=           0           0           0           0           0           2           0           0           0           0
 AtZEff=  -0.0000000  -0.0000000  -0.0000000  -0.0000000  -0.0000000  -0.0000000  -0.0000000  -0.0000000  -0.0000000  -0.0000000
 NQMom=    0.0000000   0.0000000   0.0000000   0.0000000   0.0000000   2.0440000   0.0000000   0.0000000   0.0000000   0.0000000
 NMagM=    0.0000000   0.0000000   0.0000000   0.0000000   0.0000000   0.4037610   0.0000000   0.0000000   0.0000000   0.0000000
 AtZNuc=  12.0000000   6.0000000   6.0000000   6.0000000   6.0000000   7.0000000   6.0000000   6.0000000   6.0000000   6.0000000

  Atom        11          12          13          14          15          16          17          18          19          20
 IAtWgt=          12          12          12          12          16          16          14          12          12          12
 AtmWgt=  12.0000000  12.0000000  12.0000000  12.0000000  15.9949146  15.9949146  14.0030740  12.0000000  12.0000000  12.0000000
 NucSpn=           0           0           0           0           0           0           2           0           0           0
 AtZEff=  -0.0000000  -0.0000000  -0.0000000  -0.0000000  -0.0000000  -0.0000000  -0.0000000  -0.0000000  -0.0000000  -0.0000000
 NQMom=    0.0000000   0.0000000   0.0000000   0.0000000   0.0000000   0.0000000   2.0440000   0.0000000   0.0000000   0.0000000
 NMagM=    0.0000000   0.0000000   0.0000000   0.0000000   0.0000000   0.0000000   0.4037610   0.0000000   0.0000000   0.0000000
 AtZNuc=   6.0000000   6.0000000   6.0000000   6.0000000   8.0000000   8.0000000   7.0000000   6.0000000   6.0000000   6.0000000

  Atom        21          22          23          24          25          26          27          28          29          30
 IAtWgt=          12          12          12          16          12          14          12          12          12          12
 AtmWgt=  12.0000000  12.0000000  12.0000000  15.9949146  12.0000000  14.0030740  12.0000000  12.0000000  12.0000000  12.0000000
 NucSpn=           0           0           0           0           0           2           0           0           0           0
 AtZEff=  -0.0000000  -0.0000000  -0.0000000  -0.0000000  -0.0000000  -0.0000000  -0.0000000  -0.0000000  -0.0000000  -0.0000000
 NQMom=    0.0000000   0.0000000   0.0000000   0.0000000   0.0000000   2.0440000   0.0000000   0.0000000   0.0000000   0.0000000
 NMagM=    0.0000000   0.0000000   0.0000000   0.0000000   0.0000000   0.4037610   0.0000000   0.0000000   0.0000000   0.0000000
 AtZNuc=   6.0000000   6.0000000   6.0000000   8.0000000   6.0000000   7.0000000   6.0000000   6.0000000   6.0000000   6.0000000

  Atom        31          32          33          34          35          36          37          38          39          40
 IAtWgt=          12          12          12          14          12          12          12          12          12          12
 AtmWgt=  12.0000000  12.0000000  12.0000000  14.0030740  12.0000000  12.0000000  12.0000000  12.0000000  12.0000000  12.0000000
 NucSpn=           0           0           0           2           0           0           0           0           0           0
 AtZEff=  -0.0000000  -0.0000000  -0.0000000  -0.0000000  -0.0000000  -0.0000000  -0.0000000  -0.0000000  -0.0000000  -0.0000000
 NQMom=    0.0000000   0.0000000   0.0000000   2.0440000   0.0000000   0.0000000   0.0000000   0.0000000   0.0000000   0.0000000
 NMagM=    0.0000000   0.0000000   0.0000000   0.4037610   0.0000000   0.0000000   0.0000000   0.0000000   0.0000000   0.0000000
 AtZNuc=   6.0000000   6.0000000   6.0000000   7.0000000   6.0000000   6.0000000   6.0000000   6.0000000   6.0000000   6.0000000

  Atom        41          42          43          44          45          46          47          48          49          50
 IAtWgt=          16          12          12          16          16          12          12          12          12          12
 AtmWgt=  15.9949146  12.0000000  12.0000000  15.9949146  15.9949146  12.0000000  12.0000000  12.0000000  12.0000000  12.0000000
 NucSpn=           0           0           0           0           0           0           0           0           0           0
 AtZEff=  -0.0000000  -0.0000000  -0.0000000  -0.0000000  -0.0000000  -0.0000000  -0.0000000  -0.0000000  -0.0000000  -0.0000000
 NQMom=    0.0000000   0.0000000   0.0000000   0.0000000   0.0000000   0.0000000   0.0000000   0.0000000   0.0000000   0.0000000
 NMagM=    0.0000000   0.0000000   0.0000000   0.0000000   0.0000000   0.0000000   0.0000000   0.0000000   0.0000000   0.0000000
 AtZNuc=   8.0000000   6.0000000   6.0000000   8.0000000   8.0000000   6.0000000   6.0000000   6.0000000   6.0000000   6.0000000

  Atom        51          52          53          54          55          56          57          58          59          60
 IAtWgt=          12          12          12          12          12          12          12          12          12          12
 AtmWgt=  12.0000000  12.0000000  12.0000000  12.0000000  12.0000000  12.0000000  12.0000000  12.0000000  12.0000000  12.0000000
 NucSpn=           0           0           0           0           0           0           0           0           0           0
 AtZEff=  -0.0000000  -0.0000000  -0.0000000  -0.0000000  -0.0000000  -0.0000000  -0.0000000  -0.0000000  -0.0000000  -0.0000000
 NQMom=    0.0000000   0.0000000   0.0000000   0.0000000   0.0000000   0.0000000   0.0000000   0.0000000   0.0000000   0.0000000
 NMagM=    0.0000000   0.0000000   0.0000000   0.0000000   0.0000000   0.0000000   0.0000000   0.0000000   0.0000000   0.0000000
 AtZNuc=   6.0000000   6.0000000   6.0000000   6.0000000   6.0000000   6.0000000   6.0000000   6.0000000   6.0000000   6.0000000

  Atom        61          62          63          64          65          66          67          68          69          70
 IAtWgt=          12          12          12          12          12          12           1           1           1           1
 AtmWgt=  12.0000000  12.0000000  12.0000000  12.0000000  12.0000000  12.0000000   1.0078250   1.0078250   1.0078250   1.0078250
 NucSpn=           0           0           0           0           0           0           1           1           1           1
 AtZEff=  -0.0000000  -0.0000000  -0.0000000  -0.0000000  -0.0000000  -0.0000000  -0.0000000  -0.0000000  -0.0000000  -0.0000000
 NQMom=    0.0000000   0.0000000   0.0000000   0.0000000   0.0000000   0.0000000   0.0000000   0.0000000   0.0000000   0.0000000
 NMagM=    0.0000000   0.0000000   0.0000000   0.0000000   0.0000000   0.0000000   2.7928460   2.7928460   2.7928460   2.7928460
 AtZNuc=   6.0000000   6.0000000   6.0000000   6.0000000   6.0000000   6.0000000   1.0000000   1.0000000   1.0000000   1.0000000

  Atom        71          72          73          74          75          76          77          78          79          80
 IAtWgt=           1           1           1           1           1           1           1           1           1           1
 AtmWgt=   1.0078250   1.0078250   1.0078250   1.0078250   1.0078250   1.0078250   1.0078250   1.0078250   1.0078250   1.0078250
 NucSpn=           1           1           1           1           1           1           1           1           1           1
 AtZEff=  -0.0000000  -0.0000000  -0.0000000  -0.0000000  -0.0000000  -0.0000000  -0.0000000  -0.0000000  -0.0000000  -0.0000000
 NQMom=    0.0000000   0.0000000   0.0000000   0.0000000   0.0000000   0.0000000   0.0000000   0.0000000   0.0000000   0.0000000
 NMagM=    2.7928460   2.7928460   2.7928460   2.7928460   2.7928460   2.7928460   2.7928460   2.7928460   2.7928460   2.7928460
 AtZNuc=   1.0000000   1.0000000   1.0000000   1.0000000   1.0000000   1.0000000   1.0000000   1.0000000   1.0000000   1.0000000

  Atom        81          82          83          84          85          86          87          88          89          90
 IAtWgt=           1           1           1           1           1           1           1           1           1           1
 AtmWgt=   1.0078250   1.0078250   1.0078250   1.0078250   1.0078250   1.0078250   1.0078250   1.0078250   1.0078250   1.0078250
 NucSpn=           1           1           1           1           1           1           1           1           1           1
 AtZEff=  -0.0000000  -0.0000000  -0.0000000  -0.0000000  -0.0000000  -0.0000000  -0.0000000  -0.0000000  -0.0000000  -0.0000000
 NQMom=    0.0000000   0.0000000   0.0000000   0.0000000   0.0000000   0.0000000   0.0000000   0.0000000   0.0000000   0.0000000
 NMagM=    2.7928460   2.7928460   2.7928460   2.7928460   2.7928460   2.7928460   2.7928460   2.7928460   2.7928460   2.7928460
 AtZNuc=   1.0000000   1.0000000   1.0000000   1.0000000   1.0000000   1.0000000   1.0000000   1.0000000   1.0000000   1.0000000

  Atom        91          92          93          94          95          96          97          98          99         100
 IAtWgt=           1           1           1           1           1           1           1           1           1           1
 AtmWgt=   1.0078250   1.0078250   1.0078250   1.0078250   1.0078250   1.0078250   1.0078250   1.0078250   1.0078250   1.0078250
 NucSpn=           1           1           1           1           1           1           1           1           1           1
 AtZEff=  -0.0000000  -0.0000000  -0.0000000  -0.0000000  -0.0000000  -0.0000000  -0.0000000  -0.0000000  -0.0000000  -0.0000000
 NQMom=    0.0000000   0.0000000   0.0000000   0.0000000   0.0000000   0.0000000   0.0000000   0.0000000   0.0000000   0.0000000
 NMagM=    2.7928460   2.7928460   2.7928460   2.7928460   2.7928460   2.7928460   2.7928460   2.7928460   2.7928460   2.7928460
 AtZNuc=   1.0000000   1.0000000   1.0000000   1.0000000   1.0000000   1.0000000   1.0000000   1.0000000   1.0000000   1.0000000

  Atom       101         102         103         104         105         106         107         108         109         110
 IAtWgt=           1           1           1           1           1           1           1           1           1           1
 AtmWgt=   1.0078250   1.0078250   1.0078250   1.0078250   1.0078250   1.0078250   1.0078250   1.0078250   1.0078250   1.0078250
 NucSpn=           1           1           1           1           1           1           1           1           1           1
 AtZEff=  -0.0000000  -0.0000000  -0.0000000  -0.0000000  -0.0000000  -0.0000000  -0.0000000  -0.0000000  -0.0000000  -0.0000000
 NQMom=    0.0000000   0.0000000   0.0000000   0.0000000   0.0000000   0.0000000   0.0000000   0.0000000   0.0000000   0.0000000
 NMagM=    2.7928460   2.7928460   2.7928460   2.7928460   2.7928460   2.7928460   2.7928460   2.7928460   2.7928460   2.7928460
 AtZNuc=   1.0000000   1.0000000   1.0000000   1.0000000   1.0000000   1.0000000   1.0000000   1.0000000   1.0000000   1.0000000

  Atom       111         112         113         114         115         116         117         118         119         120
 IAtWgt=           1           1           1           1           1           1           1           1           1           1
 AtmWgt=   1.0078250   1.0078250   1.0078250   1.0078250   1.0078250   1.0078250   1.0078250   1.0078250   1.0078250   1.0078250
 NucSpn=           1           1           1           1           1           1           1           1           1           1
 AtZEff=  -0.0000000  -0.0000000  -0.0000000  -0.0000000  -0.0000000  -0.0000000  -0.0000000  -0.0000000  -0.0000000  -0.0000000
 NQMom=    0.0000000   0.0000000   0.0000000   0.0000000   0.0000000   0.0000000   0.0000000   0.0000000   0.0000000   0.0000000
 NMagM=    2.7928460   2.7928460   2.7928460   2.7928460   2.7928460   2.7928460   2.7928460   2.7928460   2.7928460   2.7928460
 AtZNuc=   1.0000000   1.0000000   1.0000000   1.0000000   1.0000000   1.0000000   1.0000000   1.0000000   1.0000000   1.0000000

  Atom       121         122         123         124         125         126         127         128         129         130
 IAtWgt=           1           1           1           1           1           1           1           1           1           1
 AtmWgt=   1.0078250   1.0078250   1.0078250   1.0078250   1.0078250   1.0078250   1.0078250   1.0078250   1.0078250   1.0078250
 NucSpn=           1           1           1           1           1           1           1           1           1           1
 AtZEff=  -0.0000000  -0.0000000  -0.0000000  -0.0000000  -0.0000000  -0.0000000  -0.0000000  -0.0000000  -0.0000000  -0.0000000
 NQMom=    0.0000000   0.0000000   0.0000000   0.0000000   0.0000000   0.0000000   0.0000000   0.0000000   0.0000000   0.0000000
 NMagM=    2.7928460   2.7928460   2.7928460   2.7928460   2.7928460   2.7928460   2.7928460   2.7928460   2.7928460   2.7928460
 AtZNuc=   1.0000000   1.0000000   1.0000000   1.0000000   1.0000000   1.0000000   1.0000000   1.0000000   1.0000000   1.0000000

  Atom       131         132         133         134         135         136         137         138         139         140
 IAtWgt=           1           1           1           1           1           1           1           1           1           1
 AtmWgt=   1.0078250   1.0078250   1.0078250   1.0078250   1.0078250   1.0078250   1.0078250   1.0078250   1.0078250   1.0078250
 NucSpn=           1           1           1           1           1           1           1           1           1           1
 AtZEff=  -0.0000000  -0.0000000  -0.0000000  -0.0000000  -0.0000000  -0.0000000  -0.0000000  -0.0000000  -0.0000000  -0.0000000
 NQMom=    0.0000000   0.0000000   0.0000000   0.0000000   0.0000000   0.0000000   0.0000000   0.0000000   0.0000000   0.0000000
 NMagM=    2.7928460   2.7928460   2.7928460   2.7928460   2.7928460   2.7928460   2.7928460   2.7928460   2.7928460   2.7928460
 AtZNuc=   1.0000000   1.0000000   1.0000000   1.0000000   1.0000000   1.0000000   1.0000000   1.0000000   1.0000000   1.0000000
 Leave Link  101 at Sat Apr 30 09:47:35 2022, MaxMem= 10066329600 cpu:               2.9 elap:               0.1
 (Enter /sw/apps/gaussian-16.0/g16/l202.exe)
 Stoichiometry    C55H74MgN4O6
 Framework group  C1[X(C55H74MgN4O6)]
 Deg. of freedom   414
 Full point group                 C1      NOp   1
 Largest Abelian subgroup         C1      NOp   1
 Largest concise Abelian subgroup C1      NOp   1
                         Standard orientation:                         
 ---------------------------------------------------------------------
 Center     Atomic      Atomic             Coordinates (Angstroms)
 Number     Number       Type             X           Y           Z
 ---------------------------------------------------------------------
      1         12           0       -4.639887    0.694077   -0.028838
      2          6           0       -3.808740   -2.715648    0.456270
      3          6           0       -1.239977    1.298018    0.430782
      4          6           0       -5.213255    3.926891   -0.596901
      5          6           0       -7.970237   -0.048806   -0.280743
      6          7           0       -2.715950   -0.639184    0.285012
      7          6           0       -2.596135   -1.974190    0.452813
      8          6           0       -1.162648   -2.416519    0.589000
      9          6           0       -0.416853   -1.126371    0.861741
     10          6           0       -1.510771   -0.058081    0.517157
     11          6           0        0.311976   -1.007583    2.202949
     12          6           0       -0.664372   -3.220974   -0.612228
     13          6           0        0.353490   -4.342367   -0.433357
     14          6           0        1.599593   -4.297553   -1.309845
     15          8           0        1.658583   -4.029318   -2.539739
     16          8           0        2.697131   -4.590011   -0.518187
     17          7           0       -3.452247    2.329423   -0.021031
     18          6           0       -2.072103    2.341096    0.199879
     19          6           0       -1.585494    3.705796   -0.022730
     20          6           0       -2.716371    4.568904   -0.268281
     21          6           0       -3.893147    3.618198   -0.206645
     22          6           0       -0.103460    4.105259   -0.009538
     23          6           0       -2.804752    6.069540   -0.375020
     24          8           0       -3.844906    6.652146   -0.563141
     25          6           0       -1.533870    6.916229   -0.394581
     26          7           0       -6.351337    1.804019   -0.346094
     27          6           0       -6.328661    3.126365   -0.688969
     28          6           0       -7.699230    3.557395   -1.184683
     29          6           0       -8.595056    2.395444   -0.911438
     30          6           0       -7.625198    1.265494   -0.530178
     31          6           0       -8.274096    4.831534   -0.558096
     32          6           0       -9.549303    2.056095   -2.136609
     33          6           0      -11.018186    2.697916   -2.010491
     34          7           0       -5.719861   -1.005376    0.139629
     35          6           0       -7.122544   -1.122911    0.074880
     36          6           0       -7.450636   -2.488525    0.273065
     37          6           0       -6.216563   -3.196811    0.401176
     38          6           0       -5.144797   -2.201163    0.354608
     39          6           0       -8.914677   -2.910614    0.379949
     40          6           0       -5.518531   -4.487335    0.444572
     41          8           0       -5.914470   -5.658631    0.421760
     42          6           0       -3.957383   -4.228921    0.544760
     43          6           0       -3.463394   -4.796726    1.795345
     44          8           0       -3.895165   -4.612378    2.866753
     45          8           0       -2.352163   -5.554672    1.532369
     46          6           0       -1.803318   -6.252947    2.609155
     47          6           0        3.898015   -4.708153   -1.354504
     48          6           0        5.034549   -4.213512   -0.541888
     49          6           0        6.328155   -3.959741   -0.978078
     50          6           0        6.893075   -4.277065   -2.360525
     51          6           0        7.361258   -3.519858    0.052333
     52          6           0        8.181565   -2.194453   -0.308139
     53          6           0        9.685960   -2.401014   -0.447104
     54          6           0       10.316635   -1.219097   -1.365161
     55          6           0       10.805434   -1.737713   -2.685888
     56          6           0       11.373994   -0.490103   -0.547014
     57          6           0       10.787683    0.562692    0.384727
     58          6           0       11.180286    2.050862    0.099292
     59          6           0       10.000583    2.948154   -0.274444
     60          6           0       10.488165    4.029620   -1.231845
     61          6           0        9.151371    3.534288    0.921474
     62          6           0        7.595029    3.457792    0.636243
     63          6           0        6.993526    4.852352    1.086875
     64          6           0        5.834047    4.658680    2.132758
     65          6           0        4.747018    5.662789    1.769777
     66          6           0        6.329531    4.811001    3.614819
     67          1           0       -0.180528    1.482899    0.617140
     68          1           0       -5.476274    4.955815   -0.850697
     69          1           0       -9.048303   -0.223681   -0.301286
     70          1           0       -1.061000   -3.032894    1.481414
     71          1           0        0.407351   -1.101046    0.148400
     72          1           0        0.763690   -1.893862    2.649210
     73          1           0       -0.417835   -0.418686    2.758301
     74          1           0        1.157570   -0.339466    2.040817
     75          1           0       -0.351443   -2.476474   -1.343922
     76          1           0       -1.538783   -3.678998   -1.075090
     77          1           0       -0.261733   -5.218079   -0.640224
     78          1           0        0.691100   -4.453626    0.596906
     79          1           0        0.019583    5.020297    0.569095
     80          1           0        0.402629    4.198223   -0.970113
     81          1           0        0.519182    3.369019    0.498253
     82          1           0       -1.160517    6.938377    0.629498
     83          1           0       -1.694519    7.955532   -0.680606
     84          1           0       -0.791357    6.427659   -1.025406
     85          1           0       -7.572038    3.724175   -2.254327
     86          1           0       -9.273117    2.476354   -0.060982
     87          1           0       -8.456686    5.581820   -1.327394
     88          1           0       -7.547192    5.262354    0.130876
     89          1           0       -9.216463    4.704398   -0.026452
     90          1           0       -9.606546    0.992369   -2.368398
     91          1           0       -8.994268    2.473171   -2.976096
     92          1           0      -11.209052    3.159956   -2.979729
     93          1           0      -11.155881    3.440728   -1.224852
     94          1           0      -11.730835    1.879783   -1.901744
     95          1           0       -9.701516   -2.267600    0.772992
     96          1           0       -8.869128   -3.550055    1.261649
     97          1           0       -9.228659   -3.562385   -0.435448
     98          1           0       -3.455073   -4.754069   -0.268164
     99          1           0       -0.945091   -6.812857    2.236390
    100          1           0       -2.617155   -6.883067    2.968597
    101          1           0       -1.528814   -5.551924    3.396992
    102          1           0        4.061471   -3.900061   -2.066633
    103          1           0        3.967574   -5.686383   -1.831253
    104          1           0        4.887676   -3.836707    0.470363
    105          1           0        7.098786   -3.353209   -2.900604
    106          1           0        6.122205   -4.822533   -2.905771
    107          1           0        7.877422   -4.744317   -2.367371
    108          1           0        8.096346   -4.315852    0.167656
    109          1           0        6.845102   -3.388629    1.004478
    110          1           0        7.994015   -1.610269    0.592641
    111          1           0        7.718070   -1.718195   -1.171304
    112          1           0        9.779697   -3.394262   -0.887359
    113          1           0       10.184195   -2.357436    0.521143
    114          1           0        9.455263   -0.555155   -1.427157
    115          1           0       11.857950   -2.022875   -2.680062
    116          1           0       10.610981   -0.968741   -3.433390
    117          1           0       10.300469   -2.680677   -2.894833
    118          1           0       12.147632   -0.097463   -1.207391
    119          1           0       11.936832   -1.207530    0.049735
    120          1           0       11.121371    0.312981    1.392262
    121          1           0        9.703389    0.460849    0.442013
    122          1           0       11.962470    2.160512   -0.651634
    123          1           0       11.574033    2.452008    1.032940
    124          1           0        9.336804    2.335607   -0.884704
    125          1           0       11.493698    4.409126   -1.050186
    126          1           0        9.850798    4.897474   -1.068156
    127          1           0       10.293738    3.600009   -2.214148
    128          1           0        9.486046    4.558852    1.083392
    129          1           0        9.268399    2.880072    1.785331
    130          1           0        7.044870    2.695572    1.186613
    131          1           0        7.389030    3.258506   -0.415253
    132          1           0        6.663160    5.352548    0.175860
    133          1           0        7.752581    5.402544    1.642469
    134          1           0        5.437101    3.654137    1.987041
    135          1           0        4.240793    6.263320    2.526221
    136          1           0        4.032654    5.155931    1.121437
    137          1           0        5.174221    6.463685    1.165527
    138          1           0        7.399496    4.671263    3.772669
    139          1           0        5.798433    4.069855    4.211542
    140          1           0        6.063173    5.771215    4.056377
 ---------------------------------------------------------------------
 Rotational constants (GHZ):           0.0368292           0.0133759           0.0103944
 Leave Link  202 at Sat Apr 30 09:47:35 2022, MaxMem= 10066329600 cpu:               0.2 elap:               0.0
 (Enter /sw/apps/gaussian-16.0/g16/l301.exe)
 Standard basis: def2SVP (5D, 7F)
 Ernie: Thresh=  0.10000D-02 Tol=  0.10000D-05 Strict=F.
 There are  1364 symmetry adapted cartesian basis functions of A   symmetry.
 There are  1298 symmetry adapted basis functions of A   symmetry.
  1298 basis functions,  2180 primitive gaussians,  1364 cartesian basis functions
   246 alpha electrons      246 beta electrons
       nuclear repulsion energy      9665.4833230405 Hartrees.
 IExCor=  402 DFT=T Ex=B Corr=LYP ExCW=0 ScaHFX=  0.000000
 ScaDFX=  1.000000  1.000000  1.000000  1.000000 ScalE2=  1.000000  1.000000
 IRadAn=      5 IRanWt=     -1 IRanGd=            0 ICorTp=0 IEmpDi=  4
 NAtoms=  140 NActive=  140 NUniq=  140 SFac= 1.00D+00 NAtFMM=   60 NAOKFM=T Big=T
 Integral buffers will be    131072 words long.
 Regular integral format.
 Two-electron integral symmetry is turned on.
 Leave Link  301 at Sat Apr 30 09:47:35 2022, MaxMem= 10066329600 cpu:               1.3 elap:               0.1
 (Enter /sw/apps/gaussian-16.0/g16/l302.exe)
 NPDir=0 NMtPBC=     1 NCelOv=     1 NCel=       1 NClECP=     1 NCelD=      1
         NCelK=      1 NCelE2=     1 NClLst=     1 CellRange=     0.0.
 One-electron integrals computed using PRISM.
 One-electron integral symmetry used in STVInt
   1 Symmetry operations used in ECPInt.
 ECPInt:  NShTT=  192510 NPrTT=  683786 LenC2=   99228 LenP2D=  213836.
 LDataN:  DoStor=T MaxTD1= 4 Len=   56
 NBasis=  1298 RedAO= T EigKep=  2.85D-04  NBF=  1298
 NBsUse=  1298 1.00D-06 EigRej= -1.00D+00 NBFU=  1298
 Precomputing XC quadrature grid using
 IXCGrd= 4 IRadAn=           5 IRanWt=          -1 IRanGd=           0 AccXCQ= 0.00D+00.
 Generated NRdTot=       0 NPtTot=           0 NUsed=           0 NTot=          32
 NSgBfM=  1204  1204  1204  1204  1204 MxSgAt=   140 MxSgA2=   140.
 Leave Link  302 at Sat Apr 30 09:47:38 2022, MaxMem= 10066329600 cpu:              79.5 elap:               3.3
 (Enter /sw/apps/gaussian-16.0/g16/l303.exe)
 DipDrv:  MaxL=1.
 Leave Link  303 at Sat Apr 30 09:47:39 2022, MaxMem= 10066329600 cpu:               7.1 elap:               0.3
 (Enter /sw/apps/gaussian-16.0/g16/l308.exe)
 Leave Link  308 at Sat Apr 30 09:47:39 2022, MaxMem= 10066329600 cpu:               8.9 elap:               0.4
 (Enter /sw/apps/gaussian-16.0/g16/l401.exe)
 ExpMin= 3.36D-02 ExpMax= 4.95D+03 ExpMxC= 7.45D+02 IAcc=3 IRadAn=         5 AccDes= 0.00D+00
 Harris functional with IExCor=  402 and IRadAn=       5 diagonalized for initial guess.
 HarFok:  IExCor=  402 AccDes= 0.00D+00 IRadAn=         5 IDoV= 1 UseB2=F ITyADJ=14
 ICtDFT=  3500011 ScaDFX=  1.000000  1.000000  1.000000  1.000000
 FoFCou: FMM=F IPFlag=           0 FMFlag=      100000 FMFlg1=        2001
         NFxFlg=           0 DoJE=T BraDBF=F KetDBF=T FulRan=T
         wScrn=  0.000000 ICntrl=       500 IOpCl=  0 I1Cent=   200000004 NGrid=           0
         NMat0=    1 NMatS0=      1 NMatT0=    0 NMatD0=    1 NMtDS0=    0 NMtDT0=    0
 Petite list used in FoFCou.
 Harris En= -3008.76163118924    
 JPrj=0 DoOrth=F DoCkMO=F.
 Leave Link  401 at Sat Apr 30 09:47:45 2022, MaxMem= 10066329600 cpu:             132.4 elap:               5.6
 (Enter /sw/apps/gaussian-16.0/g16/l502.exe)
 Integral symmetry usage will be decided dynamically.
 Closed shell SCF:
 Using DIIS extrapolation, IDIIS=  1040.
 NGot= 10066329600 LenX= 10062561258 LenY= 10060699398
 Requested convergence on RMS density matrix=1.00D-08 within 128 cycles.
 Requested convergence on MAX density matrix=1.00D-06.
 Requested convergence on             energy=1.00D-06.
 No special actions if energy rises.
 Fock matrices will be formed incrementally for  20 cycles.

 Cycle   1  Pass 1  IDiag  1:
 FoFJK:  IHMeth= 1 ICntrl=     500 DoSepK=F KAlg= 0 I1Cent=           0 FoldK=F
 IRaf= 530000000 NMat=       1 IRICut=       1 DoRegI=T DoRafI=F ISym2E= 0 IDoP0=0 IntGTp=1.
 FoFCou: FMM=T IPFlag=           0 FMFlag=      100000 FMFlg1=        2001
         NFxFlg=           0 DoJE=T BraDBF=F KetDBF=F FulRan=T
         wScrn=  0.000000 ICntrl=       500 IOpCl=  0 I1Cent=           0 NGrid=           0
         NMat0=    1 NMatS0=      1 NMatT0=    0 NMatD0=    1 NMtDS0=    0 NMtDT0=    0
 Symmetry not used in FoFCou.
 FMM levels:  10  Number of levels for PrismC:   9
 E= -3005.67829633136    
 DIIS: error= 2.41D-02 at cycle   1 NSaved=   1.
 NSaved= 1 IEnMin= 1 EnMin= -3005.67829633136     IErMin= 1 ErrMin= 2.41D-02
 ErrMax= 2.41D-02  0.00D+00 EMaxC= 1.00D-01 BMatC= 1.54D+00 BMatP= 1.54D+00
 IDIUse=3 WtCom= 7.59D-01 WtEn= 2.41D-01
 Coeff-Com:  0.100D+01
 Coeff-En:   0.100D+01
 Coeff:      0.100D+01
 Gap=     0.049 Goal=   None    Shift=    0.000
 GapD=    0.049 DampG=0.250 DampE=0.500 DampFc=0.2500 IDamp=-1.
 Damping current iteration by 2.50D-01
 RMSDP=3.81D-03 MaxDP=4.69D-01              OVMax= 9.10D-01

 Cycle   2  Pass 1  IDiag  1:
 RMSU=  9.48D-04    CP:  9.89D-01
 E= -3006.17489902677     Delta-E=       -0.496602695410 Rises=F Damp=T
 DIIS: error= 7.80D-03 at cycle   2 NSaved=   2.
 NSaved= 2 IEnMin= 2 EnMin= -3006.17489902677     IErMin= 2 ErrMin= 7.80D-03
 ErrMax= 7.80D-03  0.00D+00 EMaxC= 1.00D-01 BMatC= 2.60D-01 BMatP= 1.54D+00
 IDIUse=3 WtCom= 9.22D-01 WtEn= 7.80D-02
 Coeff-Com: -0.288D+00 0.129D+01
 Coeff-En:   0.855D-01 0.914D+00
 Coeff:     -0.259D+00 0.126D+01
 Gap=     0.114 Goal=   None    Shift=    0.000
 RMSDP=1.56D-03 MaxDP=2.51D-01 DE=-4.97D-01 OVMax= 5.53D-01

 Cycle   3  Pass 1  IDiag  1:
 RMSU=  1.53D-03    CP:  9.66D-01  1.25D+00
 E= -3005.36992600842     Delta-E=        0.804973018347 Rises=F Damp=F
 DIIS: error= 3.85D-02 at cycle   3 NSaved=   3.
 NSaved= 3 IEnMin= 2 EnMin= -3006.17489902677     IErMin= 2 ErrMin= 7.80D-03
 ErrMax= 3.85D-02  0.00D+00 EMaxC= 1.00D-01 BMatC= 1.55D+00 BMatP= 2.60D-01
 IDIUse=2 WtCom= 0.00D+00 WtEn= 1.00D+00
 Coeff-En:   0.000D+00 0.661D+00 0.339D+00
 Coeff:      0.000D+00 0.661D+00 0.339D+00
 Gap=     0.077 Goal=   None    Shift=    0.000
 RMSDP=2.17D-03 MaxDP=4.71D-01 DE= 8.05D-01 OVMax= 8.27D-01

 Cycle   4  Pass 1  IDiag  1:
 RMSU=  1.25D-03    CP:  9.64D-01  1.91D+00 -8.27D-02
 E= -3003.33349668218     Delta-E=        2.036429326243 Rises=F Damp=F
 DIIS: error= 5.86D-02 at cycle   4 NSaved=   4.
 NSaved= 4 IEnMin= 2 EnMin= -3006.17489902677     IErMin= 2 ErrMin= 7.80D-03
 ErrMax= 5.86D-02  0.00D+00 EMaxC= 1.00D-01 BMatC= 2.66D+00 BMatP= 2.60D-01
 IDIUse=2 WtCom= 0.00D+00 WtEn= 1.00D+00
 EnCoef did     1 forward-backward iterations
 Coeff-En:   0.113D+00 0.000D+00 0.534D+00 0.353D+00
 Coeff:      0.113D+00 0.000D+00 0.534D+00 0.353D+00
 Gap=     0.015 Goal=   None    Shift=    0.000
 RMSDP=1.61D-03 MaxDP=3.46D-01 DE= 2.04D+00 OVMax= 8.40D-01

 Cycle   5  Pass 1  IDiag  1:
 RMSU=  7.80D-04    CP:  9.79D-01  1.20D+00  1.01D-01  4.72D-02
 E= -3007.02325660068     Delta-E=       -3.689759918494 Rises=F Damp=F
 DIIS: error= 3.19D-02 at cycle   5 NSaved=   5.
 NSaved= 5 IEnMin= 5 EnMin= -3007.02325660068     IErMin= 2 ErrMin= 7.80D-03
 ErrMax= 3.19D-02  0.00D+00 EMaxC= 1.00D-01 BMatC= 3.76D-01 BMatP= 2.60D-01
 IDIUse=2 WtCom= 0.00D+00 WtEn= 1.00D+00
 EnCoef did     4 forward-backward iterations
 Coeff-En:   0.000D+00 0.000D+00 0.197D+00 0.114D+00 0.688D+00
 Coeff:      0.000D+00 0.000D+00 0.197D+00 0.114D+00 0.688D+00
 Gap=     0.156 Goal=   None    Shift=    0.000
 RMSDP=1.66D-03 MaxDP=2.72D-01 DE=-3.69D+00 OVMax= 7.47D-01

 Cycle   6  Pass 1  IDiag  1:
 RMSU=  1.19D-03    CP:  9.68D-01  1.15D+00  2.71D-01  4.04D-01 -3.15D-01
 E= -3004.93333149805     Delta-E=        2.089925102622 Rises=F Damp=F
 DIIS: error= 4.98D-02 at cycle   6 NSaved=   6.
 NSaved= 6 IEnMin= 5 EnMin= -3007.02325660068     IErMin= 2 ErrMin= 7.80D-03
 ErrMax= 4.98D-02  0.00D+00 EMaxC= 1.00D-01 BMatC= 1.97D+00 BMatP= 2.60D-01
 IDIUse=2 WtCom= 0.00D+00 WtEn= 1.00D+00
 EnCoef did     2 forward-backward iterations
 Coeff-En:   0.000D+00 0.000D+00 0.928D-01 0.000D+00 0.720D+00 0.187D+00
 Coeff:      0.000D+00 0.000D+00 0.928D-01 0.000D+00 0.720D+00 0.187D+00
 Gap=    -0.071 Goal=   None    Shift=    0.000
 RMSDP=1.26D-03 MaxDP=2.78D-01 DE= 2.09D+00 OVMax= 8.38D-01

 Cycle   7  Pass 1  IDiag  1:
 RMSU=  6.36D-04    CP:  9.75D-01  1.11D+00  3.16D-01  4.87D-02  5.03D-01
                    CP:  3.76D-01
 E= -3007.10293996241     Delta-E=       -2.169608464352 Rises=F Damp=F
 DIIS: error= 2.74D-02 at cycle   7 NSaved=   7.
 NSaved= 7 IEnMin= 7 EnMin= -3007.10293996241     IErMin= 2 ErrMin= 7.80D-03
 ErrMax= 2.74D-02  0.00D+00 EMaxC= 1.00D-01 BMatC= 3.03D-01 BMatP= 2.60D-01
 IDIUse=2 WtCom= 0.00D+00 WtEn= 1.00D+00
 Coeff-En:   0.000D+00 0.000D+00 0.000D+00 0.000D+00 0.454D+00 0.000D+00
 Coeff-En:   0.546D+00
 Coeff:      0.000D+00 0.000D+00 0.000D+00 0.000D+00 0.454D+00 0.000D+00
 Coeff:      0.546D+00
 Gap=     0.051 Goal=   None    Shift=    0.000
 RMSDP=1.34D-03 MaxDP=3.36D-01 DE=-2.17D+00 OVMax= 9.10D-01

 Cycle   8  Pass 1  IDiag  1:
 RMSU=  5.39D-04    CP:  9.69D-01  1.43D+00  1.30D-01  3.86D-01  3.55D-03
                    CP:  4.77D-01 -5.73D-01
 E= -3005.71678192690     Delta-E=        1.386158035504 Rises=F Damp=F
 DIIS: error= 4.11D-02 at cycle   8 NSaved=   8.
 NSaved= 8 IEnMin= 7 EnMin= -3007.10293996241     IErMin= 2 ErrMin= 7.80D-03
 ErrMax= 4.11D-02  0.00D+00 EMaxC= 1.00D-01 BMatC= 9.26D-01 BMatP= 2.60D-01
 IDIUse=2 WtCom= 0.00D+00 WtEn= 1.00D+00
 EnCoef did     2 forward-backward iterations
 Coeff-En:   0.000D+00 0.000D+00 0.000D+00 0.000D+00 0.434D+00 0.000D+00
 Coeff-En:   0.520D+00 0.457D-01
 Coeff:      0.000D+00 0.000D+00 0.000D+00 0.000D+00 0.434D+00 0.000D+00
 Coeff:      0.520D+00 0.457D-01
 Gap=    -0.043 Goal=   None    Shift=    0.000
 RMSDP=1.30D-03 MaxDP=3.16D-01 DE= 1.39D+00 OVMax= 9.78D-01

 Cycle   9  Pass 1  IDiag  1:
 RMSU=  4.78D-04    CP:  9.77D-01  1.15D+00  2.14D-01  3.01D-02  7.87D-01
                    CP:  2.83D-01  6.02D-01  2.28D-01
 E= -3007.29498233197     Delta-E=       -1.578200405071 Rises=F Damp=F
 DIIS: error= 5.70D-03 at cycle   9 NSaved=   9.
 NSaved= 9 IEnMin= 9 EnMin= -3007.29498233197     IErMin= 9 ErrMin= 5.70D-03
 ErrMax= 5.70D-03  0.00D+00 EMaxC= 1.00D-01 BMatC= 5.92D-02 BMatP= 2.60D-01
 IDIUse=3 WtCom= 9.43D-01 WtEn= 5.70D-02
 EnCoef did     5 forward-backward iterations
 Coeff-Com: -0.160D-01 0.425D-01-0.555D-02-0.122D-02 0.290D+00-0.208D-01
 Coeff-Com:  0.407D+00 0.337D-01 0.270D+00
 Coeff-En:   0.000D+00 0.000D+00 0.000D+00 0.000D+00 0.174D+00 0.000D+00
 Coeff-En:   0.262D+00 0.000D+00 0.564D+00
 Coeff:     -0.151D-01 0.401D-01-0.523D-02-0.115D-02 0.284D+00-0.196D-01
 Coeff:      0.399D+00 0.318D-01 0.287D+00
 Gap=     0.043 Goal=   None    Shift=    0.000
 RMSDP=3.90D-04 MaxDP=3.57D-02 DE=-1.58D+00 OVMax= 2.63D-01

 Cycle  10  Pass 1  IDiag  1:
 RMSU=  1.52D-04    CP:  9.78D-01  1.14D+00  2.02D-01  4.05D-02  8.09D-01
                    CP:  2.39D-01  6.63D-01  9.23D-02  2.78D-01
 E= -3007.36330460058     Delta-E=       -0.068322268609 Rises=F Damp=F
 DIIS: error= 2.10D-03 at cycle  10 NSaved=  10.
 NSaved=10 IEnMin=10 EnMin= -3007.36330460058     IErMin=10 ErrMin= 2.10D-03
 ErrMax= 2.10D-03  0.00D+00 EMaxC= 1.00D-01 BMatC= 7.83D-03 BMatP= 5.92D-02
 IDIUse=3 WtCom= 9.79D-01 WtEn= 2.10D-02
 Coeff-Com: -0.624D-02 0.193D-01-0.566D-02 0.189D-02 0.142D+00-0.848D-02
 Coeff-Com:  0.210D+00 0.556D-02 0.251D+00 0.390D+00
 Coeff-En:   0.000D+00 0.000D+00 0.000D+00 0.000D+00 0.000D+00 0.000D+00
 Coeff-En:   0.000D+00 0.000D+00 0.184D+00 0.816D+00
 Coeff:     -0.611D-02 0.189D-01-0.554D-02 0.185D-02 0.139D+00-0.830D-02
 Coeff:      0.206D+00 0.544D-02 0.250D+00 0.399D+00
 Gap=     0.045 Goal=   None    Shift=    0.000
 RMSDP=1.51D-04 MaxDP=1.70D-02 DE=-6.83D-02 OVMax= 1.20D-01

 Cycle  11  Pass 1  IDiag  1:
 RMSU=  6.91D-05    CP:  9.78D-01  1.15D+00  2.02D-01  4.10D-02  7.99D-01
                    CP:  2.50D-01  6.44D-01  8.58D-02  4.18D-01  2.45D-01
 E= -3007.37160731522     Delta-E=       -0.008302714636 Rises=F Damp=F
 DIIS: error= 9.68D-04 at cycle  11 NSaved=  11.
 NSaved=11 IEnMin=11 EnMin= -3007.37160731522     IErMin=11 ErrMin= 9.68D-04
 ErrMax= 9.68D-04  0.00D+00 EMaxC= 1.00D-01 BMatC= 1.96D-03 BMatP= 7.83D-03
 IDIUse=3 WtCom= 9.90D-01 WtEn= 9.68D-03
 Coeff-Com: -0.627D-02 0.176D-01-0.693D-03-0.254D-03 0.366D-01-0.171D-02
 Coeff-Com:  0.601D-01 0.212D-03 0.121D+00 0.346D+00 0.427D+00
 Coeff-En:   0.000D+00 0.000D+00 0.000D+00 0.000D+00 0.000D+00 0.000D+00
 Coeff-En:   0.000D+00 0.000D+00 0.000D+00 0.260D+00 0.740D+00
 Coeff:     -0.621D-02 0.174D-01-0.686D-03-0.251D-03 0.362D-01-0.170D-02
 Coeff:      0.595D-01 0.210D-03 0.120D+00 0.345D+00 0.430D+00
 Gap=     0.044 Goal=   None    Shift=    0.000
 RMSDP=7.34D-05 MaxDP=1.01D-02 DE=-8.30D-03 OVMax= 4.92D-02

 Cycle  12  Pass 1  IDiag  1:
 RMSU=  3.81D-05    CP:  9.78D-01  1.15D+00  2.02D-01  3.74D-02  7.98D-01
                    CP:  2.48D-01  6.52D-01  8.97D-02  3.98D-01  4.91D-01
                    CP:  2.94D-01
 E= -3007.37341755213     Delta-E=       -0.001810236909 Rises=F Damp=F
 DIIS: error= 5.59D-04 at cycle  12 NSaved=  12.
 NSaved=12 IEnMin=12 EnMin= -3007.37341755213     IErMin=12 ErrMin= 5.59D-04
 ErrMax= 5.59D-04  0.00D+00 EMaxC= 1.00D-01 BMatC= 6.04D-04 BMatP= 1.96D-03
 IDIUse=3 WtCom= 9.94D-01 WtEn= 5.59D-03
 Coeff-Com: -0.294D-02 0.897D-02 0.352D-03-0.789D-03 0.388D-02-0.602D-03
 Coeff-Com:  0.129D-01 0.106D-02 0.584D-01 0.229D+00 0.373D+00 0.317D+00
 Coeff-En:   0.000D+00 0.000D+00 0.000D+00 0.000D+00 0.000D+00 0.000D+00
 Coeff-En:   0.000D+00 0.000D+00 0.000D+00 0.000D+00 0.279D+00 0.721D+00
 Coeff:     -0.292D-02 0.892D-02 0.350D-03-0.784D-03 0.386D-02-0.599D-03
 Coeff:      0.129D-01 0.105D-02 0.580D-01 0.228D+00 0.372D+00 0.320D+00
 Gap=     0.045 Goal=   None    Shift=    0.000
 RMSDP=4.18D-05 MaxDP=3.68D-03 DE=-1.81D-03 OVMax= 3.39D-02

 Cycle  13  Pass 1  IDiag  1:
 RMSU=  1.73D-05    CP:  9.78D-01  1.14D+00  2.04D-01  3.45D-02  8.06D-01
                    CP:  2.46D-01  6.44D-01  9.97D-02  3.95D-01  4.77D-01
                    CP:  5.34D-01  1.55D-01
 E= -3007.37399137746     Delta-E=       -0.000573825331 Rises=F Damp=F
 DIIS: error= 4.27D-04 at cycle  13 NSaved=  13.
 NSaved=13 IEnMin=13 EnMin= -3007.37399137746     IErMin=13 ErrMin= 4.27D-04
 ErrMax= 4.27D-04  0.00D+00 EMaxC= 1.00D-01 BMatC= 1.33D-04 BMatP= 6.04D-04
 IDIUse=3 WtCom= 9.96D-01 WtEn= 4.27D-03
 Coeff-Com: -0.133D-02 0.422D-02-0.394D-03-0.155D-04-0.212D-02 0.850D-03
 Coeff-Com:  0.216D-02-0.860D-03 0.335D-01 0.139D+00 0.250D+00 0.276D+00
 Coeff-Com:  0.299D+00
 Coeff-En:   0.000D+00 0.000D+00 0.000D+00 0.000D+00 0.000D+00 0.000D+00
 Coeff-En:   0.000D+00 0.000D+00 0.000D+00 0.000D+00 0.000D+00 0.270D+00
 Coeff-En:   0.730D+00
 Coeff:     -0.132D-02 0.420D-02-0.393D-03-0.154D-04-0.211D-02 0.847D-03
 Coeff:      0.215D-02-0.857D-03 0.334D-01 0.138D+00 0.249D+00 0.276D+00
 Coeff:      0.301D+00
 Gap=     0.044 Goal=   None    Shift=    0.000
 RMSDP=2.01D-05 MaxDP=1.85D-03 DE=-5.74D-04 OVMax= 1.80D-02

 Cycle  14  Pass 1  IDiag  1:
 RMSU=  6.36D-06    CP:  9.78D-01  1.14D+00  2.03D-01  3.73D-02  8.00D-01
                    CP:  2.49D-01  6.50D-01  9.51D-02  4.05D-01  4.71D-01
                    CP:  4.84D-01  3.89D-01  2.14D-01
 E= -3007.37421052152     Delta-E=       -0.000219144067 Rises=F Damp=F
 DIIS: error= 7.88D-05 at cycle  14 NSaved=  14.
 NSaved=14 IEnMin=14 EnMin= -3007.37421052152     IErMin=14 ErrMin= 7.88D-05
 ErrMax= 7.88D-05  0.00D+00 EMaxC= 1.00D-01 BMatC= 1.32D-05 BMatP= 1.33D-04
 IDIUse=1 WtCom= 1.00D+00 WtEn= 0.00D+00
 Coeff-Com: -0.446D-03 0.165D-02-0.603D-03 0.539D-04-0.350D-02 0.646D-03
 Coeff-Com: -0.117D-02-0.377D-03 0.140D-01 0.615D-01 0.117D+00 0.148D+00
 Coeff-Com:  0.243D+00 0.420D+00
 Coeff:     -0.446D-03 0.165D-02-0.603D-03 0.539D-04-0.350D-02 0.646D-03
 Coeff:     -0.117D-02-0.377D-03 0.140D-01 0.615D-01 0.117D+00 0.148D+00
 Coeff:      0.243D+00 0.420D+00
 Gap=     0.044 Goal=   None    Shift=    0.000
 RMSDP=5.09D-06 MaxDP=5.08D-04 DE=-2.19D-04 OVMax= 3.07D-03

 Cycle  15  Pass 1  IDiag  1:
 RMSU=  2.27D-06    CP:  9.78D-01  1.14D+00  2.03D-01  3.72D-02  8.01D-01
                    CP:  2.49D-01  6.50D-01  9.53D-02  4.05D-01  4.77D-01
                    CP:  4.98D-01  3.62D-01  3.51D-01  4.69D-01
 E= -3007.37422372523     Delta-E=       -0.000013203704 Rises=F Damp=F
 DIIS: error= 3.32D-05 at cycle  15 NSaved=  15.
 NSaved=15 IEnMin=15 EnMin= -3007.37422372523     IErMin=15 ErrMin= 3.32D-05
 ErrMax= 3.32D-05  0.00D+00 EMaxC= 1.00D-01 BMatC= 2.33D-06 BMatP= 1.32D-05
 IDIUse=1 WtCom= 1.00D+00 WtEn= 0.00D+00
 Coeff-Com: -0.378D-03 0.120D-02-0.464D-03 0.479D-04-0.245D-02 0.363D-03
 Coeff-Com: -0.118D-02-0.164D-03 0.459D-02 0.196D-01 0.387D-01 0.556D-01
 Coeff-Com:  0.119D+00 0.299D+00 0.466D+00
 Coeff:     -0.378D-03 0.120D-02-0.464D-03 0.479D-04-0.245D-02 0.363D-03
 Coeff:     -0.118D-02-0.164D-03 0.459D-02 0.196D-01 0.387D-01 0.556D-01
 Coeff:      0.119D+00 0.299D+00 0.466D+00
 Gap=     0.044 Goal=   None    Shift=    0.000
 RMSDP=2.09D-06 MaxDP=2.37D-04 DE=-1.32D-05 OVMax= 1.29D-03

 Cycle  16  Pass 1  IDiag  1:
 RMSU=  1.16D-06    CP:  9.78D-01  1.14D+00  2.03D-01  3.74D-02  8.01D-01
                    CP:  2.49D-01  6.51D-01  9.53D-02  4.07D-01  4.78D-01
                    CP:  4.97D-01  3.66D-01  3.17D-01  5.67D-01  4.99D-01
 E= -3007.37422598230     Delta-E=       -0.000002257071 Rises=F Damp=F
 DIIS: error= 2.14D-05 at cycle  16 NSaved=  16.
 NSaved=16 IEnMin=16 EnMin= -3007.37422598230     IErMin=16 ErrMin= 2.14D-05
 ErrMax= 2.14D-05  0.00D+00 EMaxC= 1.00D-01 BMatC= 6.38D-07 BMatP= 2.33D-06
 IDIUse=1 WtCom= 1.00D+00 WtEn= 0.00D+00
 Coeff-Com: -0.423D-03 0.108D-02-0.188D-03 0.841D-05-0.105D-02 0.129D-03
 Coeff-Com: -0.641D-03-0.589D-04 0.843D-03 0.246D-02 0.399D-02 0.594D-02
 Coeff-Com:  0.233D-01 0.876D-01 0.347D+00 0.530D+00
 Coeff:     -0.423D-03 0.108D-02-0.188D-03 0.841D-05-0.105D-02 0.129D-03
 Coeff:     -0.641D-03-0.589D-04 0.843D-03 0.246D-02 0.399D-02 0.594D-02
 Coeff:      0.233D-01 0.876D-01 0.347D+00 0.530D+00
 Gap=     0.044 Goal=   None    Shift=    0.000
 RMSDP=1.08D-06 MaxDP=1.43D-04 DE=-2.26D-06 OVMax= 3.49D-04

 Cycle  17  Pass 1  IDiag  1:
 RMSU=  7.04D-07    CP:  9.78D-01  1.14D+00  2.03D-01  3.73D-02  8.01D-01
                    CP:  2.49D-01  6.51D-01  9.53D-02  4.07D-01  4.79D-01
                    CP:  4.99D-01  3.68D-01  3.31D-01  5.39D-01  6.24D-01
                    CP:  4.42D-01
 E= -3007.37422631879     Delta-E=       -0.000000336486 Rises=F Damp=F
 DIIS: error= 9.37D-06 at cycle  17 NSaved=  17.
 NSaved=17 IEnMin=17 EnMin= -3007.37422631879     IErMin=17 ErrMin= 9.37D-06
 ErrMax= 9.37D-06  0.00D+00 EMaxC= 1.00D-01 BMatC= 2.68D-07 BMatP= 6.38D-07
 IDIUse=1 WtCom= 1.00D+00 WtEn= 0.00D+00
 Coeff-Com: -0.330D-03 0.722D-03-0.321D-04-0.328D-05-0.206D-03 0.414D-04
 Coeff-Com: -0.272D-03-0.550D-04-0.133D-03-0.222D-02-0.553D-02-0.988D-02
 Coeff-Com: -0.162D-01-0.259D-01 0.148D+00 0.460D+00 0.453D+00
 Coeff:     -0.330D-03 0.722D-03-0.321D-04-0.328D-05-0.206D-03 0.414D-04
 Coeff:     -0.272D-03-0.550D-04-0.133D-03-0.222D-02-0.553D-02-0.988D-02
 Coeff:     -0.162D-01-0.259D-01 0.148D+00 0.460D+00 0.453D+00
 Gap=     0.044 Goal=   None    Shift=    0.000
 RMSDP=6.54D-07 MaxDP=6.92D-05 DE=-3.36D-07 OVMax= 2.55D-04

 Cycle  18  Pass 1  IDiag  1:
 RMSU=  3.03D-07    CP:  9.78D-01  1.14D+00  2.03D-01  3.73D-02  8.01D-01
                    CP:  2.49D-01  6.51D-01  9.53D-02  4.07D-01  4.79D-01
                    CP:  4.99D-01  3.67D-01  3.25D-01  5.42D-01  6.23D-01
                    CP:  6.87D-01  4.19D-01
 E= -3007.37422660265     Delta-E=       -0.000000283862 Rises=F Damp=F
 DIIS: error= 3.67D-06 at cycle  18 NSaved=  18.
 NSaved=18 IEnMin=18 EnMin= -3007.37422660265     IErMin=18 ErrMin= 3.67D-06
 ErrMax= 3.67D-06  0.00D+00 EMaxC= 1.00D-01 BMatC= 3.46D-08 BMatP= 2.68D-07
 IDIUse=1 WtCom= 1.00D+00 WtEn= 0.00D+00
 Coeff-Com: -0.180D-03 0.345D-03-0.513D-05-0.287D-05-0.904D-05 0.166D-04
 Coeff-Com: -0.150D-03-0.254D-04-0.147D-03-0.165D-02-0.393D-02-0.775D-02
 Coeff-Com: -0.158D-01-0.366D-01 0.473D-01 0.244D+00 0.324D+00 0.450D+00
 Coeff:     -0.180D-03 0.345D-03-0.513D-05-0.287D-05-0.904D-05 0.166D-04
 Coeff:     -0.150D-03-0.254D-04-0.147D-03-0.165D-02-0.393D-02-0.775D-02
 Coeff:     -0.158D-01-0.366D-01 0.473D-01 0.244D+00 0.324D+00 0.450D+00
 Gap=     0.044 Goal=   None    Shift=    0.000
 RMSDP=2.20D-07 MaxDP=2.85D-05 DE=-2.84D-07 OVMax= 6.98D-05

 Cycle  19  Pass 1  IDiag  1:
 RMSU=  1.14D-07    CP:  9.78D-01  1.14D+00  2.03D-01  3.73D-02  8.01D-01
                    CP:  2.49D-01  6.51D-01  9.53D-02  4.07D-01  4.79D-01
                    CP:  4.99D-01  3.66D-01  3.25D-01  5.42D-01  6.46D-01
                    CP:  6.83D-01  5.67D-01  6.30D-01
 E= -3007.37422663607     Delta-E=       -0.000000033420 Rises=F Damp=F
 DIIS: error= 2.36D-06 at cycle  19 NSaved=  19.
 NSaved=19 IEnMin=19 EnMin= -3007.37422663607     IErMin=19 ErrMin= 2.36D-06
 ErrMax= 2.36D-06  0.00D+00 EMaxC= 1.00D-01 BMatC= 6.88D-09 BMatP= 3.46D-08
 IDIUse=1 WtCom= 1.00D+00 WtEn= 0.00D+00
 Coeff-Com: -0.813D-04 0.140D-03-0.131D-05-0.146D-05 0.306D-04 0.375D-05
 Coeff-Com: -0.681D-04-0.951D-05-0.734D-04-0.803D-03-0.192D-02-0.406D-02
 Coeff-Com: -0.947D-02-0.252D-01 0.844D-03 0.895D-01 0.154D+00 0.332D+00
 Coeff-Com:  0.466D+00
 Coeff:     -0.813D-04 0.140D-03-0.131D-05-0.146D-05 0.306D-04 0.375D-05
 Coeff:     -0.681D-04-0.951D-05-0.734D-04-0.803D-03-0.192D-02-0.406D-02
 Coeff:     -0.947D-02-0.252D-01 0.844D-03 0.895D-01 0.154D+00 0.332D+00
 Coeff:      0.466D+00
 Gap=     0.044 Goal=   None    Shift=    0.000
 RMSDP=9.80D-08 MaxDP=1.75D-05 DE=-3.34D-08 OVMax= 2.90D-05

 Cycle  20  Pass 1  IDiag  1:
 RMSU=  5.77D-08    CP:  9.78D-01  1.14D+00  2.03D-01  3.73D-02  8.01D-01
                    CP:  2.49D-01  6.51D-01  9.53D-02  4.07D-01  4.79D-01
                    CP:  4.99D-01  3.66D-01  3.25D-01  5.40D-01  6.48D-01
                    CP:  6.99D-01  5.56D-01  6.93D-01  6.43D-01
 E= -3007.37422664256     Delta-E=       -0.000000006496 Rises=F Damp=F
 DIIS: error= 8.61D-07 at cycle  20 NSaved=  20.
 NSaved=20 IEnMin=20 EnMin= -3007.37422664256     IErMin=20 ErrMin= 8.61D-07
 ErrMax= 8.61D-07  0.00D+00 EMaxC= 1.00D-01 BMatC= 1.05D-09 BMatP= 6.88D-09
 IDIUse=1 WtCom= 1.00D+00 WtEn= 0.00D+00
 Coeff-Com: -0.301D-04 0.457D-04-0.987D-06-0.151D-06 0.233D-04 0.987D-06
 Coeff-Com: -0.262D-04-0.357D-05-0.317D-04-0.295D-03-0.738D-03-0.162D-02
 Coeff-Com: -0.430D-02-0.129D-01-0.103D-01 0.188D-01 0.515D-01 0.157D+00
 Coeff-Com:  0.321D+00 0.481D+00
 Coeff:     -0.301D-04 0.457D-04-0.987D-06-0.151D-06 0.233D-04 0.987D-06
 Coeff:     -0.262D-04-0.357D-05-0.317D-04-0.295D-03-0.738D-03-0.162D-02
 Coeff:     -0.430D-02-0.129D-01-0.103D-01 0.188D-01 0.515D-01 0.157D+00
 Coeff:      0.321D+00 0.481D+00
 Gap=     0.044 Goal=   None    Shift=    0.000
 RMSDP=4.24D-08 MaxDP=5.71D-06 DE=-6.50D-09 OVMax= 1.75D-05

 Cycle  21  Pass 1  IDiag  1:
 Restarting incremental Fock formation.
 E= -3007.37422664348     Delta-E=       -0.000000000919 Rises=F Damp=F
 DIIS: error= 3.48D-07 at cycle  21 NSaved=  20.
 NSaved=20 IEnMin=20 EnMin= -3007.37422664348     IErMin=20 ErrMin= 3.48D-07
 ErrMax= 3.48D-07  0.00D+00 EMaxC= 1.00D-01 BMatC= 2.10D-10 BMatP= 1.05D-09
 IDIUse=1 WtCom= 1.00D+00 WtEn= 0.00D+00
 Coeff-Com: -0.851D-05 0.103D-04-0.186D-06 0.120D-04 0.149D-06-0.803D-05
 Coeff-Com: -0.520D-06-0.136D-04-0.815D-04-0.236D-03-0.533D-03-0.161D-02
 Coeff-Com: -0.563D-02-0.887D-02-0.330D-02 0.985D-02 0.555D-01 0.147D+00
 Coeff-Com:  0.356D+00 0.453D+00
 Coeff:     -0.851D-05 0.103D-04-0.186D-06 0.120D-04 0.149D-06-0.803D-05
 Coeff:     -0.520D-06-0.136D-04-0.815D-04-0.236D-03-0.533D-03-0.161D-02
 Coeff:     -0.563D-02-0.887D-02-0.330D-02 0.985D-02 0.555D-01 0.147D+00
 Coeff:      0.356D+00 0.453D+00
 Gap=     0.044 Goal=   None    Shift=    0.000
 RMSDP=1.84D-08 MaxDP=3.82D-06 DE=-9.19D-10 OVMax= 3.92D-06

 Cycle  22  Pass 1  IDiag  1:
 RMSU=  1.83D-08    CP:  1.00D+00
 E= -3007.37422664387     Delta-E=       -0.000000000389 Rises=F Damp=F
 DIIS: error= 1.31D-07 at cycle  22 NSaved=  20.
 NSaved=20 IEnMin=20 EnMin= -3007.37422664387     IErMin=20 ErrMin= 1.31D-07
 ErrMax= 1.31D-07  0.00D+00 EMaxC= 1.00D-01 BMatC= 2.36D-11 BMatP= 2.10D-10
 IDIUse=1 WtCom= 1.00D+00 WtEn= 0.00D+00
 Coeff-Com: -0.173D-05 0.377D-06-0.298D-06 0.582D-05-0.158D-05-0.750D-07
 Coeff-Com: -0.586D-05-0.234D-04-0.824D-04-0.187D-03-0.609D-03-0.245D-02
 Coeff-Com: -0.509D-02-0.478D-02 0.169D-03 0.176D-01 0.555D-01 0.172D+00
 Coeff-Com:  0.300D+00 0.468D+00
 Coeff:     -0.173D-05 0.377D-06-0.298D-06 0.582D-05-0.158D-05-0.750D-07
 Coeff:     -0.586D-05-0.234D-04-0.824D-04-0.187D-03-0.609D-03-0.245D-02
 Coeff:     -0.509D-02-0.478D-02 0.169D-03 0.176D-01 0.555D-01 0.172D+00
 Coeff:      0.300D+00 0.468D+00
 Gap=     0.044 Goal=   None    Shift=    0.000
 RMSDP=6.78D-09 MaxDP=8.20D-07 DE=-3.89D-10 OVMax= 2.42D-06

 SCF Done:  E(RB-LYP) =  -3007.37422664     A.U. after   22 cycles
            NFock= 22  Conv=0.68D-08     -V/T= 2.0098
 KE= 2.978110618895D+03 PE=-2.632603308679D+04 EE= 1.067506491821D+04
 Leave Link  502 at Sat Apr 30 09:51:40 2022, MaxMem= 10066329600 cpu:            5638.3 elap:             235.9
 (Enter /sw/apps/gaussian-16.0/g16/l801.exe)
 DoSCS=F DFT=T ScalE2(SS,OS)=  1.000000  1.000000
 ExpMin= 3.36D-02 ExpMax= 4.95D+03 ExpMxC= 7.45D+02 IAcc=3 IRadAn=         5 AccDes= 0.00D+00
 HarFok:  IExCor=  205 AccDes= 0.00D+00 IRadAn=         5 IDoV=-2 UseB2=F ITyADJ=14
 ICtDFT= 12500011 ScaDFX=  1.000000  1.000000  1.000000  1.000000
 GSVD:  LWork=       -5460 too small for GESVD, short by       25550 words or       25550 for optimal perf.
 Largest valence mixing into a core orbital is  2.24D-04
 Largest core mixing into a valence orbital is  5.85D-05
 Range of M.O.s used for correlation:    71  1298
 NBasis=  1298 NAE=   246 NBE=   246 NFC=    70 NFV=     0
 NROrb=   1228 NOA=   176 NOB=   176 NVA=  1052 NVB=  1052

 **** Warning!!: The smallest alpha delta epsilon is  0.44472095D-01

 Leave Link  801 at Sat Apr 30 09:51:41 2022, MaxMem= 10066329600 cpu:               6.8 elap:               0.3
 (Enter /sw/apps/gaussian-16.0/g16/l914.exe)
 RHF ground state
 Two-electron integrals replicated using symmetry.
 MDV= 10066329600 DFT=T DoStab=F Mixed=F DoRPA=T DoScal=T NonHer=F
 Making orbital integer symmetry assigments:
 Orbital symmetries:
       Occupied  (A) (A) (A) (A) (A) (A) (A) (A) (A) (A) (A) (A)
                 (A) (A) (A) (A) (A) (A) (A) (A) (A) (A) (A) (A)
                 (A) (A) (A) (A) (A) (A) (A) (A) (A) (A) (A) (A)
                 (A) (A) (A) (A) (A) (A) (A) (A) (A) (A) (A) (A)
                 (A) (A) (A) (A) (A) (A) (A) (A) (A) (A) (A) (A)
                 (A) (A) (A) (A) (A) (A) (A) (A) (A) (A) (A) (A)
                 (A) (A) (A) (A) (A) (A) (A) (A) (A) (A) (A) (A)
                 (A) (A) (A) (A) (A) (A) (A) (A) (A) (A) (A) (A)
                 (A) (A) (A) (A) (A) (A) (A) (A) (A) (A) (A) (A)
                 (A) (A) (A) (A) (A) (A) (A) (A) (A) (A) (A) (A)
                 (A) (A) (A) (A) (A) (A) (A) (A) (A) (A) (A) (A)
                 (A) (A) (A) (A) (A) (A) (A) (A) (A) (A) (A) (A)
                 (A) (A) (A) (A) (A) (A) (A) (A) (A) (A) (A) (A)
                 (A) (A) (A) (A) (A) (A) (A) (A) (A) (A) (A) (A)
                 (A) (A) (A) (A) (A) (A) (A) (A) (A) (A) (A) (A)
                 (A) (A) (A) (A) (A) (A) (A) (A) (A) (A) (A) (A)
                 (A) (A) (A) (A) (A) (A) (A) (A) (A) (A) (A) (A)
                 (A) (A) (A) (A) (A) (A) (A) (A) (A) (A) (A) (A)
                 (A) (A) (A) (A) (A) (A) (A) (A) (A) (A) (A) (A)
                 (A) (A) (A) (A) (A) (A) (A) (A) (A) (A) (A) (A)
                 (A) (A) (A) (A) (A) (A)
       Virtual   (A) (A) (A) (A) (A) (A) (A) (A) (A) (A) (A) (A)
                 (A) (A) (A) (A) (A) (A) (A) (A) (A) (A) (A) (A)
                 (A) (A) (A) (A) (A) (A) (A) (A) (A) (A) (A) (A)
                 (A) (A) (A) (A) (A) (A) (A) (A) (A) (A) (A) (A)
                 (A) (A) (A) (A) (A) (A) (A) (A) (A) (A) (A) (A)
                 (A) (A) (A) (A) (A) (A) (A) (A) (A) (A) (A) (A)
                 (A) (A) (A) (A) (A) (A) (A) (A) (A) (A) (A) (A)
                 (A) (A) (A) (A) (A) (A) (A) (A) (A) (A) (A) (A)
                 (A) (A) (A) (A) (A) (A) (A) (A) (A) (A) (A) (A)
                 (A) (A) (A) (A) (A) (A) (A) (A) (A) (A) (A) (A)
                 (A) (A) (A) (A) (A) (A) (A) (A) (A) (A) (A) (A)
                 (A) (A) (A) (A) (A) (A) (A) (A) (A) (A) (A) (A)
                 (A) (A) (A) (A) (A) (A) (A) (A) (A) (A) (A) (A)
                 (A) (A) (A) (A) (A) (A) (A) (A) (A) (A) (A) (A)
                 (A) (A) (A) (A) (A) (A) (A) (A) (A) (A) (A) (A)
                 (A) (A) (A) (A) (A) (A) (A) (A) (A) (A) (A) (A)
                 (A) (A) (A) (A) (A) (A) (A) (A) (A) (A) (A) (A)
                 (A) (A) (A) (A) (A) (A) (A) (A) (A) (A) (A) (A)
                 (A) (A) (A) (A) (A) (A) (A) (A) (A) (A) (A) (A)
                 (A) (A) (A) (A) (A) (A) (A) (A) (A) (A) (A) (A)
                 (A) (A) (A) (A) (A) (A) (A) (A) (A) (A) (A) (A)
                 (A) (A) (A) (A) (A) (A) (A) (A) (A) (A) (A) (A)
                 (A) (A) (A) (A) (A) (A) (A) (A) (A) (A) (A) (A)
                 (A) (A) (A) (A) (A) (A) (A) (A) (A) (A) (A) (A)
                 (A) (A) (A) (A) (A) (A) (A) (A) (A) (A) (A) (A)
                 (A) (A) (A) (A) (A) (A) (A) (A) (A) (A) (A) (A)
                 (A) (A) (A) (A) (A) (A) (A) (A) (A) (A) (A) (A)
                 (A) (A) (A) (A) (A) (A) (A) (A) (A) (A) (A) (A)
                 (A) (A) (A) (A) (A) (A) (A) (A) (A) (A) (A) (A)
                 (A) (A) (A) (A) (A) (A) (A) (A) (A) (A) (A) (A)
                 (A) (A) (A) (A) (A) (A) (A) (A) (A) (A) (A) (A)
                 (A) (A) (A) (A) (A) (A) (A) (A) (A) (A) (A) (A)
                 (A) (A) (A) (A) (A) (A) (A) (A) (A) (A) (A) (A)
                 (A) (A) (A) (A) (A) (A) (A) (A) (A) (A) (A) (A)
                 (A) (A) (A) (A) (A) (A) (A) (A) (A) (A) (A) (A)
                 (A) (A) (A) (A) (A) (A) (A) (A) (A) (A) (A) (A)
                 (A) (A) (A) (A) (A) (A) (A) (A) (A) (A) (A) (A)
                 (A) (A) (A) (A) (A) (A) (A) (A) (A) (A) (A) (A)
                 (A) (A) (A) (A) (A) (A) (A) (A) (A) (A) (A) (A)
                 (A) (A) (A) (A) (A) (A) (A) (A) (A) (A) (A) (A)
                 (A) (A) (A) (A) (A) (A) (A) (A) (A) (A) (A) (A)
                 (A) (A) (A) (A) (A) (A) (A) (A) (A) (A) (A) (A)
                 (A) (A) (A) (A) (A) (A) (A) (A) (A) (A) (A) (A)
                 (A) (A) (A) (A) (A) (A) (A) (A) (A) (A) (A) (A)
                 (A) (A) (A) (A) (A) (A) (A) (A) (A) (A) (A) (A)
                 (A) (A) (A) (A) (A) (A) (A) (A) (A) (A) (A) (A)
                 (A) (A) (A) (A) (A) (A) (A) (A) (A) (A) (A) (A)
                 (A) (A) (A) (A) (A) (A) (A) (A) (A) (A) (A) (A)
                 (A) (A) (A) (A) (A) (A) (A) (A) (A) (A) (A) (A)
                 (A) (A) (A) (A) (A) (A) (A) (A) (A) (A) (A) (A)
                 (A) (A) (A) (A) (A) (A) (A) (A) (A) (A) (A) (A)
                 (A) (A) (A) (A) (A) (A) (A) (A) (A) (A) (A) (A)
                 (A) (A) (A) (A) (A) (A) (A) (A) (A) (A) (A) (A)
                 (A) (A) (A) (A) (A) (A) (A) (A) (A) (A) (A) (A)
                 (A) (A) (A) (A) (A) (A) (A) (A) (A) (A) (A) (A)
                 (A) (A) (A) (A) (A) (A) (A) (A) (A) (A) (A) (A)
                 (A) (A) (A) (A) (A) (A) (A) (A) (A) (A) (A) (A)
                 (A) (A) (A) (A) (A) (A) (A) (A) (A) (A) (A) (A)
                 (A) (A) (A) (A) (A) (A) (A) (A) (A) (A) (A) (A)
                 (A) (A) (A) (A) (A) (A) (A) (A) (A) (A) (A) (A)
                 (A) (A) (A) (A) (A) (A) (A) (A) (A) (A) (A) (A)
                 (A) (A) (A) (A) (A) (A) (A) (A) (A) (A) (A) (A)
                 (A) (A) (A) (A) (A) (A) (A) (A) (A) (A) (A) (A)
                 (A) (A) (A) (A) (A) (A) (A) (A) (A) (A) (A) (A)
                 (A) (A) (A) (A) (A) (A) (A) (A) (A) (A) (A) (A)
                 (A) (A) (A) (A) (A) (A) (A) (A) (A) (A) (A) (A)
                 (A) (A) (A) (A) (A) (A) (A) (A) (A) (A) (A) (A)
                 (A) (A) (A) (A) (A) (A) (A) (A) (A) (A) (A) (A)
                 (A) (A) (A) (A) (A) (A) (A) (A) (A) (A) (A) (A)
                 (A) (A) (A) (A) (A) (A) (A) (A) (A) (A) (A) (A)
                 (A) (A) (A) (A) (A) (A) (A) (A) (A) (A) (A) (A)
                 (A) (A) (A) (A) (A) (A) (A) (A) (A) (A) (A) (A)
                 (A) (A) (A) (A) (A) (A) (A) (A) (A) (A) (A) (A)
                 (A) (A) (A) (A) (A) (A) (A) (A) (A) (A) (A) (A)
                 (A) (A) (A) (A) (A) (A) (A) (A) (A) (A) (A) (A)
                 (A) (A) (A) (A) (A) (A) (A) (A) (A) (A) (A) (A)
                 (A) (A) (A) (A) (A) (A) (A) (A) (A) (A) (A) (A)
                 (A) (A) (A) (A) (A) (A) (A) (A) (A) (A) (A) (A)
                 (A) (A) (A) (A) (A) (A) (A) (A) (A) (A) (A) (A)
                 (A) (A) (A) (A) (A) (A) (A) (A) (A) (A) (A) (A)
                 (A) (A) (A) (A) (A) (A) (A) (A) (A) (A) (A) (A)
                 (A) (A) (A) (A) (A) (A) (A) (A) (A) (A) (A) (A)
                 (A) (A) (A) (A) (A) (A) (A) (A) (A) (A) (A) (A)
                 (A) (A) (A) (A) (A) (A) (A) (A) (A) (A) (A) (A)
                 (A) (A) (A) (A) (A) (A) (A) (A) (A) (A) (A) (A)
                 (A) (A) (A) (A) (A) (A) (A) (A) (A) (A) (A) (A)
                 (A) (A) (A) (A) (A) (A) (A) (A) (A) (A) (A) (A)
                 (A) (A) (A) (A) (A) (A) (A) (A)
    20 initial guesses have been made.
 Convergence on wavefunction:    0.001000000000000
 Davidson Disk Diagonalization:  ConvIn= 1.00D-03 SkipCon=T Conv= 1.00D-03.
 Max sub-space:  2000 roots to seek:    20 dimension of matrix:       370304
 Iteration     1 Dimension    20 NMult     0 NNew     20
 CISAX will form    20 AO SS matrices at one time.
 NMat=    20 NSing=    20 JSym2X= 0.
 FoFJK:  IHMeth= 1 ICntrl=     500 DoSepK=F KAlg= 0 I1Cent=           0 FoldK=F
 IRaf= 530000000 NMat=      20 IRICut=       1 DoRegI=T DoRafI=F ISym2E= 0 IDoP0=0 IntGTp=1.
 FoFCou: FMM=T IPFlag=           0 FMFlag=      100000 FMFlg1=        2001
         NFxFlg=           0 DoJE=F BraDBF=F KetDBF=F FulRan=T
         wScrn=  0.000000 ICntrl=       500 IOpCl=  0 I1Cent=           0 NGrid=           0
         NMat0=   20 NMatS0=     20 NMatT0=    0 NMatD0=   20 NMtDS0=    0 NMtDT0=    0
 Symmetry not used in FoFCou.
 FMM levels:  10  Number of levels for PrismC:   9
 New state      1 was old state      3
 New state      2 was old state      4
 New state      3 was old state      5
 New state      4 was old state      1
 New state      5 was old state      2
 Excitation Energies [eV] at current iteration:
 Root      1 :     1.780658451040296
 Root      2 :     1.947452880638580
 Root      3 :     2.004455336059462
 Root      4 :     2.148327317104608
 Root      5 :     2.363381463386500
 Root      6 :     2.800773032758924
 Root      7 :     2.888382290634693
 Root      8 :     2.958308358370268
 Root      9 :     3.030377382713013
 Root     10 :     3.133762669316409
 Root     11 :     3.152662531310368
 Root     12 :     3.212933792925849
 Root     13 :     3.235147516464477
 Root     14 :     3.242467343963328
 Root     15 :     3.279537900990623
 Root     16 :     3.446782350303679
 Root     17 :     3.782222962159182
 Root     18 :     4.011280920689847
 Root     19 :     4.092856066409805
 Root     20 :     4.422579384594241
 Iteration     2 Dimension    40 NMult    20 NNew     20
 CISAX will form    20 AO SS matrices at one time.
 NMat=    20 NSing=    20 JSym2X= 0.
 Root      1 not converged, maximum delta is    0.059060934001196
 New state      2 was old state      4
 Root      2 not converged, maximum delta is    0.322613032196620
 New state      3 was old state      2
 Root      3 not converged, maximum delta is    0.313529208441274
 New state      4 was old state      3
 Root      4 not converged, maximum delta is    0.010569854196617
 Root      5 not converged, maximum delta is    0.063968849853212
 Excitation Energies [eV] at current iteration:
 Root      1 :     1.772537875369222   Change is   -0.008120575671074
 Root      2 :     1.903613222255852   Change is   -0.244714094848756
 Root      3 :     1.948181530884551   Change is    0.000728650245971
 Root      4 :     2.004463087218455   Change is    0.000007751158993
 Root      5 :     2.119682500368017   Change is   -0.243698963018483
 Root      6 :     2.553401517883495   Change is   -0.247371514875428
 Root      7 :     2.767483626843897   Change is   -0.385178904466471
 Root      8 :     2.873383027457416   Change is   -0.014999263177277
 Root      9 :     2.894398102416217   Change is   -0.063910255954051
 Root     10 :     3.017803508557672   Change is   -0.115959160758737
 Root     11 :     3.027982598800119   Change is   -0.002394783912894
 Root     12 :     3.142380543006486   Change is   -0.092766973457991
 Root     13 :     3.190493546394817   Change is   -0.051973797568512
 Root     14 :     3.212926092091140   Change is   -0.000007700834709
 Root     15 :     3.235426476754956   Change is   -0.044111424235666
 Root     16 :     3.279989990709465   Change is   -0.502232971449717
 Root     17 :     3.317544329730229   Change is   -0.129238020573451
 Root     18 :     3.425758318738838   Change is   -0.585522601951010
 Root     19 :     3.572048331930287   Change is   -0.520807734479518
 Root     20 :     3.990573291756155   Change is   -0.432006092838086
 Iteration     3 Dimension    45 NMult    40 NNew      5
 CISAX will form     5 AO SS matrices at one time.
 NMat=     5 NSing=     5 JSym2X= 0.
 Root      1 not converged, maximum delta is    0.044224259047549
 Root      2 not converged, maximum delta is    0.127627770025582
 Root      3 not converged, maximum delta is    0.114267327990640
 Root      4 not converged, maximum delta is    0.002676975211993
 Root      5 not converged, maximum delta is    0.027438726860285
 Excitation Energies [eV] at current iteration:
 Root      1 :     1.769131399225068   Change is   -0.003406476144154
 Root      2 :     1.864732754183339   Change is   -0.038880468072513
 Root      3 :     1.942173011022918   Change is   -0.006008519861633
 Root      4 :     2.004457392452953   Change is   -0.000005694765502
 Root      5 :     2.084887318006446   Change is   -0.034795182361571
 Iteration     4 Dimension    50 NMult    45 NNew      5
 CISAX will form     5 AO SS matrices at one time.
 NMat=     5 NSing=     5 JSym2X= 0.
 Root      1 not converged, maximum delta is    0.023843827958479
 Root      2 not converged, maximum delta is    0.023747159736332
 Root      3 not converged, maximum delta is    0.018801679939557
 Root      4 has converged.
 Root      5 not converged, maximum delta is    0.013279014596518
 Excitation Energies [eV] at current iteration:
 Root      1 :     1.767365339158912   Change is   -0.001766060066156
 Root      2 :     1.850303888614266   Change is   -0.014428865569074
 Root      3 :     1.940675694748797   Change is   -0.001497316274121
 Root      4 :     2.004455981073120   Change is   -0.000001411379833
 Root      5 :     2.069902576204881   Change is   -0.014984741801565
 Iteration     5 Dimension    54 NMult    50 NNew      4
 CISAX will form     4 AO SS matrices at one time.
 NMat=     4 NSing=     4 JSym2X= 0.
 Root      1 not converged, maximum delta is    0.007472975323632
 Root      2 not converged, maximum delta is    0.007363233713597
 Root      3 not converged, maximum delta is    0.005157656686070
 Root      4 has converged.
 Root      5 not converged, maximum delta is    0.005550826855929
 Excitation Energies [eV] at current iteration:
 Root      1 :     1.766654047060368   Change is   -0.000711292098545
 Root      2 :     1.846155807038768   Change is   -0.004148081575497
 Root      3 :     1.940222523372161   Change is   -0.000453171376636
 Root      4 :     2.004455571661677   Change is   -0.000000409411443
 Root      5 :     2.064619246901956   Change is   -0.005283329302925
 Iteration     6 Dimension    58 NMult    54 NNew      4
 CISAX will form     4 AO SS matrices at one time.
 NMat=     4 NSing=     4 JSym2X= 0.
 Root      1 not converged, maximum delta is    0.003403674697089
 Root      2 not converged, maximum delta is    0.003408281407913
 Root      3 not converged, maximum delta is    0.002295949485170
 Root      4 has converged.
 Root      5 not converged, maximum delta is    0.004142970860825
 Excitation Energies [eV] at current iteration:
 Root      1 :     1.766274445986636   Change is   -0.000379601073732
 Root      2 :     1.844195976213444   Change is   -0.001959830825324
 Root      3 :     1.940024430823743   Change is   -0.000198092548418
 Root      4 :     2.004455433444090   Change is   -0.000000138217586
 Root      5 :     2.062414112984291   Change is   -0.002205133917665
 Iteration     7 Dimension    62 NMult    58 NNew      4
 CISAX will form     4 AO SS matrices at one time.
 NMat=     4 NSing=     4 JSym2X= 0.
 Root      1 not converged, maximum delta is    0.001523194666998
 Root      2 not converged, maximum delta is    0.001531414433793
 Root      3 has converged.
 Root      4 has converged.
 Root      5 not converged, maximum delta is    0.002706980030277
 Excitation Energies [eV] at current iteration:
 Root      1 :     1.766107021717591   Change is   -0.000167424269045
 Root      2 :     1.843364891507633   Change is   -0.000831084705811
 Root      3 :     1.939935819488868   Change is   -0.000088611334875
 Root      4 :     2.004455399874051   Change is   -0.000000033570039
 Root      5 :     2.061535381554558   Change is   -0.000878731429734
 Iteration     8 Dimension    65 NMult    62 NNew      3
 CISAX will form     3 AO SS matrices at one time.
 NMat=     3 NSing=     3 JSym2X= 0.
 Root      1 has converged.
 Root      2 has converged.
 Root      3 has converged.
 Root      4 has converged.
 Root      5 not converged, maximum delta is    0.001834372234465
 Excitation Energies [eV] at current iteration:
 Root      1 :     1.766044221298844   Change is   -0.000062800418747
[...]
 Alpha virt. eigenvalues --    1.08401   1.08528   1.09410   1.09610   1.09828
 Alpha virt. eigenvalues --    1.10279   1.10857   1.11344   1.11424   1.12130
 Alpha virt. eigenvalues --    1.12411   1.12534   1.13377   1.13983   1.15115
 Alpha virt. eigenvalues --    1.15398   1.16090   1.16178   1.16770   1.16896
 Alpha virt. eigenvalues --    1.17831   1.18434   1.18623   1.19389   1.19696
 Alpha virt. eigenvalues --    1.20370   1.20874   1.21057   1.21271   1.21826
 Alpha virt. eigenvalues --    1.22583   1.22615   1.22848   1.23406   1.24165
 Alpha virt. eigenvalues --    1.24405   1.24925   1.25533   1.26053   1.26525
 Alpha virt. eigenvalues --    1.26647   1.26851   1.27883   1.28008   1.28363
 Alpha virt. eigenvalues --    1.29181   1.29355   1.29583   1.29668   1.30092
 Alpha virt. eigenvalues --    1.30778   1.31155   1.31326   1.31628   1.32211
 Alpha virt. eigenvalues --    1.32270   1.32693   1.33057   1.33197   1.33289
 Alpha virt. eigenvalues --    1.34189   1.34536   1.34771   1.35143   1.35494
 Alpha virt. eigenvalues --    1.36090   1.36379   1.36715   1.37287   1.37387
 Alpha virt. eigenvalues --    1.38075   1.38178   1.39379   1.39399   1.39778
 Alpha virt. eigenvalues --    1.40456   1.41286   1.41481   1.41555   1.41971
 Alpha virt. eigenvalues --    1.43204   1.43231   1.44029   1.44295   1.44430
 Alpha virt. eigenvalues --    1.44690   1.45424   1.45831   1.46132   1.46259
 Alpha virt. eigenvalues --    1.46538   1.46606   1.47079   1.47277   1.47344
 Alpha virt. eigenvalues --    1.47511   1.47609   1.47763   1.48013   1.48121
 Alpha virt. eigenvalues --    1.48404   1.48503   1.48598   1.49164   1.49514
 Alpha virt. eigenvalues --    1.49969   1.50162   1.50170   1.50629   1.50672
 Alpha virt. eigenvalues --    1.51250   1.51411   1.51610   1.51737   1.52233
 Alpha virt. eigenvalues --    1.52569   1.52814   1.53042   1.53731   1.55131
 Alpha virt. eigenvalues --    1.55202   1.55593   1.55850   1.56144   1.56335
 Alpha virt. eigenvalues --    1.57196   1.57323   1.57754   1.58235   1.58512
 Alpha virt. eigenvalues --    1.58932   1.59061   1.59449   1.60179   1.60636
 Alpha virt. eigenvalues --    1.61097   1.61396   1.61658   1.62239   1.62440
 Alpha virt. eigenvalues --    1.62758   1.63003   1.63502   1.64303   1.64573
 Alpha virt. eigenvalues --    1.64691   1.65137   1.65475   1.65728   1.65968
 Alpha virt. eigenvalues --    1.66211   1.66266   1.66625   1.66727   1.66966
 Alpha virt. eigenvalues --    1.67174   1.67432   1.67495   1.67702   1.68410
 Alpha virt. eigenvalues --    1.68419   1.68607   1.68701   1.68745   1.68852
 Alpha virt. eigenvalues --    1.69299   1.69415   1.70027   1.70239   1.70592
 Alpha virt. eigenvalues --    1.70797   1.71045   1.71121   1.71142   1.71334
 Alpha virt. eigenvalues --    1.71625   1.71885   1.71900   1.72073   1.72368
 Alpha virt. eigenvalues --    1.72765   1.72910   1.72938   1.73222   1.73368
 Alpha virt. eigenvalues --    1.73436   1.73581   1.74123   1.74285   1.74397
 Alpha virt. eigenvalues --    1.74491   1.74570   1.74851   1.75236   1.75448
 Alpha virt. eigenvalues --    1.75499   1.75793   1.76159   1.76485   1.76624
 Alpha virt. eigenvalues --    1.76797   1.77116   1.77342   1.77360   1.77494
 Alpha virt. eigenvalues --    1.77637   1.77715   1.78166   1.78298   1.78476
 Alpha virt. eigenvalues --    1.78711   1.78902   1.78930   1.79166   1.79241
 Alpha virt. eigenvalues --    1.79802   1.80002   1.80124   1.80260   1.80440
 Alpha virt. eigenvalues --    1.81017   1.81235   1.81551   1.81892   1.82000
 Alpha virt. eigenvalues --    1.82194   1.82516   1.82753   1.83273   1.83339
 Alpha virt. eigenvalues --    1.83529   1.84043   1.84219   1.84284   1.84643
 Alpha virt. eigenvalues --    1.84887   1.84952   1.85227   1.85584   1.85700
 Alpha virt. eigenvalues --    1.86266   1.86490   1.86579   1.86716   1.87116
 Alpha virt. eigenvalues --    1.87255   1.87356   1.87595   1.87853   1.87982
 Alpha virt. eigenvalues --    1.87988   1.88494   1.88906   1.89146   1.89497
 Alpha virt. eigenvalues --    1.89662   1.89845   1.89989   1.90246   1.90506
 Alpha virt. eigenvalues --    1.90963   1.91371   1.91576   1.92125   1.92557
 Alpha virt. eigenvalues --    1.92884   1.93136   1.93668   1.93904   1.94476
 Alpha virt. eigenvalues --    1.94484   1.94867   1.95035   1.95080   1.95403
 Alpha virt. eigenvalues --    1.95842   1.96076   1.96178   1.96584   1.96992
 Alpha virt. eigenvalues --    1.97273   1.97581   1.98055   1.98473   1.99129
 Alpha virt. eigenvalues --    1.99301   1.99424   1.99565   1.99642   2.00323
 Alpha virt. eigenvalues --    2.00467   2.00672   2.01016   2.01157   2.01385
 Alpha virt. eigenvalues --    2.01709   2.02010   2.02325   2.02447   2.02758
 Alpha virt. eigenvalues --    2.03040   2.03548   2.03772   2.03993   2.04150
 Alpha virt. eigenvalues --    2.04341   2.04575   2.04779   2.05395   2.05433
 Alpha virt. eigenvalues --    2.06113   2.06268   2.06320   2.06701   2.06706
 Alpha virt. eigenvalues --    2.07631   2.08053   2.08186   2.08296   2.08697
 Alpha virt. eigenvalues --    2.09018   2.09370   2.09447   2.09938   2.10425
 Alpha virt. eigenvalues --    2.10688   2.10822   2.11248   2.11622   2.12032
 Alpha virt. eigenvalues --    2.12581   2.13095   2.13437   2.13822   2.14283
 Alpha virt. eigenvalues --    2.15010   2.15832   2.16019   2.16621   2.16944
 Alpha virt. eigenvalues --    2.17228   2.17322   2.17578   2.18440   2.18648
 Alpha virt. eigenvalues --    2.19175   2.19506   2.19870   2.19956   2.20378
 Alpha virt. eigenvalues --    2.20662   2.20895   2.21712   2.22322   2.22882
 Alpha virt. eigenvalues --    2.23551   2.24007   2.24938   2.24967   2.25625
 Alpha virt. eigenvalues --    2.25856   2.26284   2.26863   2.27063   2.27500
 Alpha virt. eigenvalues --    2.27601   2.28021   2.28522   2.28815   2.29149
 Alpha virt. eigenvalues --    2.29170   2.29314   2.29494   2.30352   2.30385
 Alpha virt. eigenvalues --    2.30938   2.31051   2.31360   2.31878   2.32709
 Alpha virt. eigenvalues --    2.32794   2.33383   2.33503   2.33547   2.33713
 Alpha virt. eigenvalues --    2.34261   2.34561   2.35188   2.35403   2.35875
 Alpha virt. eigenvalues --    2.36218   2.36542   2.36800   2.36869   2.37334
 Alpha virt. eigenvalues --    2.37741   2.38308   2.38711   2.38775   2.39313
 Alpha virt. eigenvalues --    2.39353   2.39584   2.40052   2.40391   2.40507
 Alpha virt. eigenvalues --    2.40832   2.41566   2.41692   2.42083   2.42829
 Alpha virt. eigenvalues --    2.42996   2.43773   2.44430   2.44985   2.45307
 Alpha virt. eigenvalues --    2.45572   2.46098   2.46315   2.46475   2.46718
 Alpha virt. eigenvalues --    2.47276   2.47456   2.47607   2.47853   2.48205
 Alpha virt. eigenvalues --    2.48355   2.49382   2.49620   2.50027   2.50453
 Alpha virt. eigenvalues --    2.50989   2.51265   2.51684   2.52052   2.52419
 Alpha virt. eigenvalues --    2.53287   2.53392   2.53570   2.53808   2.54526
 Alpha virt. eigenvalues --    2.54786   2.55172   2.56014   2.56322   2.57105
 Alpha virt. eigenvalues --    2.57323   2.57924   2.58545   2.58932   2.59017
 Alpha virt. eigenvalues --    2.59610   2.59997   2.60581   2.60693   2.61112
 Alpha virt. eigenvalues --    2.61418   2.62182   2.62429   2.62614   2.62873
 Alpha virt. eigenvalues --    2.63412   2.63696   2.64176   2.64249   2.64690
 Alpha virt. eigenvalues --    2.65079   2.65381   2.65819   2.66059   2.66533
 Alpha virt. eigenvalues --    2.67093   2.67137   2.67648   2.68205   2.68571
 Alpha virt. eigenvalues --    2.69240   2.69597   2.69960   2.70903   2.71356
 Alpha virt. eigenvalues --    2.72191   2.72934   2.73055   2.73471   2.74568
 Alpha virt. eigenvalues --    2.74684   2.76048   2.76134   2.76336   2.77115
 Alpha virt. eigenvalues --    2.77392   2.77542   2.78062   2.78298   2.78740
 Alpha virt. eigenvalues --    2.79379   2.79562   2.79811   2.80119   2.80363
 Alpha virt. eigenvalues --    2.80696   2.81361   2.81717   2.82149   2.82656
 Alpha virt. eigenvalues --    2.82776   2.82906   2.83566   2.83616   2.84077
 Alpha virt. eigenvalues --    2.84286   2.84432   2.84498   2.85593   2.85827
 Alpha virt. eigenvalues --    2.86400   2.86796   2.86924   2.86973   2.87449
 Alpha virt. eigenvalues --    2.87632   2.87940   2.88234   2.89101   2.89304
 Alpha virt. eigenvalues --    2.89504   2.90021   2.90458   2.90520   2.90583
 Alpha virt. eigenvalues --    2.90737   2.91026   2.91365   2.91485   2.91599
 Alpha virt. eigenvalues --    2.92142   2.92390   2.92542   2.92815   2.92998
 Alpha virt. eigenvalues --    2.93675   2.93911   2.94777   2.94798   2.95127
 Alpha virt. eigenvalues --    2.95417   2.95618   2.95813   2.96241   2.96779
 Alpha virt. eigenvalues --    2.97019   2.97258   2.97973   2.98748   2.98891
 Alpha virt. eigenvalues --    2.98973   2.99345   3.00612   3.01157   3.01257
 Alpha virt. eigenvalues --    3.01329   3.01448   3.03420   3.04330   3.04659
 Alpha virt. eigenvalues --    3.04971   3.06581   3.07001   3.07808   3.08745
 Alpha virt. eigenvalues --    3.09625   3.10294   3.11606   3.12888   3.13260
 Alpha virt. eigenvalues --    3.15320   3.19281   3.24499   3.28785   3.31725
 Alpha virt. eigenvalues --    3.32223   3.36797   3.37227   3.39780   3.42335
 Alpha virt. eigenvalues --    3.45575   3.48088   3.49578   3.55638   3.55944
 Alpha virt. eigenvalues --    3.58826   3.62619
          Condensed to atoms (all electrons):
 Mulliken charges:
               1
     1  Mg   0.709319
     2  C    0.020419
     3  C   -0.099491
     4  C   -0.047009
     5  C   -0.066778
     6  N   -0.161222
     7  C   -0.111534
     8  C    0.075429
     9  C   -0.002814
    10  C   -0.023337
    11  C    0.138589
    12  C    0.122051
    13  C    0.149596
    14  C    0.094157
    15  O   -0.216514
    16  O   -0.264305
    17  N   -0.330748
    18  C    0.254215
    19  C   -0.138407
    20  C    0.012378
    21  C    0.135612
    22  C    0.154083
    23  C   -0.073125
    24  O   -0.145256
    25  C    0.118432
    26  N   -0.269860
    27  C    0.007250
    28  C    0.080236
    29  C    0.025764
    30  C    0.026879
    31  C    0.124883
    32  C    0.061448
    33  C    0.058508
    34  N   -0.307896
    35  C    0.144298
    36  C   -0.160683
    37  C    0.097650
    38  C    0.059941
    39  C    0.154131
    40  C   -0.049661
    41  O   -0.149436
    42  C    0.058745
    43  C    0.058219
    44  O   -0.118456
    45  O   -0.267525
    46  C    0.229552
    47  C    0.300694
    48  C   -0.097833
    49  C   -0.178286
    50  C    0.143216
    51  C    0.127501
    52  C    0.022453
    53  C    0.089881
    54  C   -0.104515
    55  C    0.147607
    56  C    0.125731
    57  C    0.063474
    58  C    0.134004
    59  C   -0.122201
    60  C    0.118360
    61  C    0.116390
    62  C    0.047569
    63  C    0.072850
    64  C   -0.094261
    65  C    0.101361
    66  C    0.100952
    67  H   -0.074891
    68  H   -0.046564
    69  H   -0.062204
    70  H   -0.039094
    71  H   -0.034199
    72  H    0.006674
    73  H   -0.004494
    74  H   -0.019273
    75  H   -0.018400
    76  H   -0.028232
    77  H    0.017322
    78  H   -0.012002
    79  H   -0.004224
    80  H    0.016309
    81  H   -0.026320
    82  H    0.009126
    83  H   -0.007816
    84  H    0.008013
    85  H   -0.011716
    86  H   -0.016282
    87  H   -0.015389
    88  H    0.000334
    89  H   -0.009131
    90  H   -0.016725
    91  H   -0.036219
    92  H   -0.004978
    93  H    0.003421
    94  H   -0.000158
    95  H   -0.004917
    96  H   -0.002092
    97  H    0.008710
    98  H   -0.007974
    99  H    0.012248
   100  H    0.008952
   101  H   -0.001249
   102  H    0.028878
   103  H    0.024021
   104  H   -0.036910
   105  H   -0.005834
   106  H   -0.011133
   107  H   -0.001841
   108  H   -0.020554
   109  H   -0.044301
   110  H   -0.022469
   111  H   -0.009526
   112  H   -0.032065
   113  H   -0.029886
   114  H   -0.030538
   115  H   -0.017937
   116  H   -0.007686
   117  H   -0.028223
   118  H   -0.047041
   119  H   -0.042369
   120  H   -0.045402
   121  H   -0.022411
   122  H   -0.035359
   123  H   -0.043865
   124  H   -0.040633
   125  H   -0.010756
   126  H   -0.034814
   127  H   -0.011181
   128  H   -0.016818
   129  H   -0.031622
   130  H   -0.026078
   131  H   -0.027204
   132  H   -0.021049
   133  H   -0.022283
   134  H   -0.031794
   135  H   -0.022159
   136  H   -0.019632
   137  H   -0.026350
   138  H   -0.010781
   139  H   -0.017110
   140  H   -0.016531
 Sum of Mulliken charges =  -0.00000
 Mulliken charges with hydrogens summed into heavy atoms:
               1
     1  Mg   0.709319
     2  C    0.020419
     3  C   -0.174382
     4  C   -0.093572
     5  C   -0.128982
     6  N   -0.161222
     7  C   -0.111534
     8  C    0.036334
     9  C   -0.037013
    10  C   -0.023337
    11  C    0.121496
    12  C    0.075419
    13  C    0.154916
    14  C    0.094157
    15  O   -0.216514
    16  O   -0.264305
    17  N   -0.330748
    18  C    0.254215
    19  C   -0.138407
    20  C    0.012378
    21  C    0.135612
    22  C    0.139848
    23  C   -0.073125
    24  O   -0.145256
    25  C    0.127755
    26  N   -0.269860
    27  C    0.007250
    28  C    0.068519
    29  C    0.009482
    30  C    0.026879
    31  C    0.100698
    32  C    0.008503
    33  C    0.056793
    34  N   -0.307896
    35  C    0.144298
    36  C   -0.160683
    37  C    0.097650
    38  C    0.059941
    39  C    0.155831
    40  C   -0.049661
    41  O   -0.149436
    42  C    0.050772
    43  C    0.058219
    44  O   -0.118456
    45  O   -0.267525
    46  C    0.249503
    47  C    0.353593
    48  C   -0.134744
    49  C   -0.178286
    50  C    0.124408
    51  C    0.062646
    52  C   -0.009541
    53  C    0.027931
    54  C   -0.135053
    55  C    0.093761
    56  C    0.036321
    57  C   -0.004339
    58  C    0.054780
    59  C   -0.162834
    60  C    0.061609
    61  C    0.067950
    62  C   -0.005713
    63  C    0.029519
    64  C   -0.126055
    65  C    0.033221
    66  C    0.056530
 Electronic spatial extent (au):  <R**2>=         100354.5850
 Charge=             -0.0000 electrons
 Dipole moment (field-independent basis, Debye):
    X=              3.7885    Y=              2.4554    Z=              0.0023  Tot=              4.5146
 Quadrupole moment (field-independent basis, Debye-Ang):
   XX=           -376.3233   YY=           -434.6262   ZZ=           -413.1989
   XY=            -27.6499   XZ=             13.0620   YZ=              0.0404
 Traceless Quadrupole moment (field-independent basis, Debye-Ang):
   XX=             31.7262   YY=            -26.5767   ZZ=             -5.1494
   XY=            -27.6499   XZ=             13.0620   YZ=              0.0404
 Octapole moment (field-independent basis, Debye-Ang**2):
  XXX=           -342.9053  YYY=           -112.5471  ZZZ=              5.6729  XYY=            275.9850
  XXY=            143.3097  XXZ=           -100.0646  XZZ=             -8.1509  YZZ=              6.8638
  YYZ=             24.7973  XYZ=             -6.1648
 Hexadecapole moment (field-independent basis, Debye-Ang**3):
 XXXX=         -96723.3497 YYYY=         -34194.7228 ZZZZ=          -4636.6708 XXXY=          -1976.5163
 XXXZ=            456.6562 YYYX=           -387.5919 YYYZ=             15.3548 ZZZX=            105.7425
 ZZZY=           -141.8833 XXYY=         -23765.2847 XXZZ=         -17741.1293 YYZZ=          -6257.1413
 XXYZ=            242.5732 YYXZ=             77.8871 ZZXY=           -162.5611
 N-N= 9.665483323041D+03 E-N=-2.632603308682D+04  KE= 2.978110618895D+03
 Leave Link  601 at Sat Apr 30 09:59:43 2022, MaxMem= 10066329600 cpu:              13.4 elap:               0.7
 (Enter /sw/apps/gaussian-16.0/g16/l9999.exe)
 1\1\GINC-BP1-COMPUTE103\SP\RBLYP TD-FC\def2SVP\C55H74Mg1N4O6\OF15641\3
 0-Apr-2022\0\\#p blyp/Def2SVP td=(nstates=5)\\step_701_chromophore_12 
 TDDFT with blyp functional\\0,1\Mg,0,47.069,15.991,27.824\C,0,45.254,1
 5.278,30.782\C,0,48.97,18.107,29.835\C,0,48.972,16.676,25.176\C,0,44.9
 98,14.01,25.955\N,0,47.146,16.513,30.126\C,0,46.338,16.126,31.137\C,0,
 46.773,16.674,32.471\C,0,47.752,17.77,32.103\C,0,47.989,17.475,30.582\
 C,0,47.391,19.2,32.514\C,0,47.315,15.6,33.415\C,0,47.108,15.708,34.922
 \C,0,48.344,15.583,35.805\O,0,49.285,14.753,35.688\O,0,48.282,16.565,3
 6.779\N,0,48.648,17.22,27.539\C,0,49.264,18.006,28.517\C,0,50.45,18.62
 9,27.922\C,0,50.488,18.308,26.515\C,0,49.267,17.432,26.33\C,0,51.472,1
 9.462,28.708\C,0,51.371,18.828,25.41\O,0,51.261,18.472,24.262\C,0,52.5
 57,19.734,25.734\N,0,46.98,15.464,25.83\C,0,47.965,15.77,24.934\C,0,47
 .778,14.961,23.661\C,0,46.457,14.285,23.82\C,0,46.095,14.528,25.294\C,
 0,47.818,15.749,22.348\C,0,46.498,12.753,23.398\C,0,45.998,12.482,21.8
 94\N,0,45.403,14.921,28.227\C,0,44.618,14.203,27.303\C,0,43.532,13.63,
 28.013\C,0,43.711,13.97,29.389\C,0,44.892,14.831,29.467\C,0,42.433,12.
 89,27.253\C,0,43.317,13.758,30.787\O,0,42.442,13.064,31.318\C,0,44.247
 ,14.634,31.726\C,0,43.419,15.595,32.448\O,0,42.635,16.33,31.986\O,0,43
 .743,15.551,33.779\C,0,42.976,16.343,34.635\C,0,49.375,16.382,37.742\C
 ,0,49.775,17.735,38.196\C,0,50.887,18.068,38.958\C,0,51.857,17.089,39.
 615\C,0,51.066,19.524,39.371\C,0,52.494,20.168,39.046\C,0,53.272,20.63
 1,40.273\C,0,54.857,20.69,39.924\C,0,55.632,19.64,40.665\C,0,55.346,22
 .113,40.158\C,0,55.065,23.042,38.984\C,0,56.31,23.627,38.237\C,0,56.42
 ,23.198,36.774\C,0,57.894,23.12,36.393\C,0,55.566,24.02,35.73\C,0,54.8
 57,23.078,34.672\C,0,55.06,23.767,33.26\C,0,53.681,24.,32.539\C,0,53.8
 96,23.666,31.068\C,0,53.127,25.453,32.756\H,0,49.534,18.799,30.463\H,0
 ,49.579,16.801,24.277\H,0,44.328,13.445,25.303\H,0,45.925,17.159,32.95
 3\H,0,48.649,17.58,32.693\H,0,46.85,19.371,33.445\H,0,46.996,19.57,31.
 568\H,0,48.332,19.73,32.66\H,0,48.362,15.479,33.138\H,0,46.863,14.654,
 33.116\H,0,46.398,14.899,35.094\H,0,46.594,16.622,35.219\H,0,51.711,20
 .365,28.147\H,0,52.388,18.966,29.028\H,0,51.072,19.821,29.656\H,0,52.1
 43,20.716,25.964\H,0,53.245,19.883,24.902\H,0,53.063,19.353,26.621\H,0
 ,48.599,14.244,23.66\H,0,45.616,14.693,23.258\H,0,48.624,15.383,21.712
 \H,0,48.036,16.797,22.555\H,0,46.91,15.7,21.748\H,0,45.996,12.089,24.1
 02\H,0,47.553,12.513,23.525\H,0,46.756,11.831,21.457\H,0,45.87,13.36,2
 1.261\H,0,45.075,11.904,21.949\H,0,42.138,13.13,26.232\H,0,41.548,13.3
 32,27.711\H,0,42.388,11.829,27.499\H,0,44.714,13.988,32.47\H,0,43.345,
 16.186,35.649\H,0,41.953,15.999,34.481\H,0,43.045,17.386,34.327\H,0,50
 .366,16.238,37.313\H,0,49.141,15.617,38.483\H,0,49.292,18.631,37.806\H
 ,0,52.832,17.149,39.132\H,0,51.461,16.086,39.453\H,0,52.123,17.316,40.
 647\H,0,50.933,19.597,40.45\H,0,50.279,20.105,38.888\H,0,52.177,21.047
 ,38.485\H,0,53.048,19.487,38.401\H,0,53.02,19.899,41.041\H,0,52.972,21
 .633,40.579\H,0,54.813,20.547,38.845\H,0,56.032,19.985,41.619\H,0,56.4
 29,19.294,40.007\H,0,54.944,18.849,40.963\H,0,56.395,22.1,40.455\H,0,5
 4.87,22.524,41.048\H,0,54.483,23.877,39.375\H,0,54.386,22.567,38.275\H
 ,0,57.256,23.425,38.739\H,0,56.181,24.709,38.22\H,0,56.083,22.162,36.7
 37\H,0,58.544,23.868,36.847\H,0,57.95,23.341,35.328\H,0,58.144,22.075,
 36.574\H,0,56.238,24.734,35.254\H,0,54.722,24.473,36.25\H,0,53.783,22.
 944,34.795\H,0,55.276,22.072,34.686\H,0,55.729,23.117,32.695\H,0,55.44
 6,24.775,33.41\H,0,52.977,23.28,32.956\H,0,53.505,24.298,30.27\H,0,53.
 616,22.623,30.922\H,0,54.959,23.72,30.831\H,0,53.527,25.988,33.618\H,0
 ,52.047,25.373,32.877\H,0,53.266,26.096,31.887\\Version=ES64L-G16RevA.
 03\State=1-A\HF=-3007.3742266\RMSD=6.778e-09\PG=C01 [X(C55H74Mg1N4O6)]
 \\@


 It takes a long time to grow an old friend.
                            -- John Leonard
 Job cpu time:       0 days  4 hours 50 minutes 16.4 seconds.
 Elapsed time:       0 days  0 hours 12 minutes  9.1 seconds.
 File lengths (MBytes):  RWF=   8011 Int=      0 D2E=      0 Chk=    390 Scr=      1
 Normal termination of Gaussian 16 at Sat Apr 30 09:59:44 2022.
