 Entering Gaussian System, Link 0=g16
 Initial command:
 /sw/apps/gaussian-16.0/g16/l1.exe "/tmp/Gau-268047.inp" -scrdir="/tmp/"
 Entering Link 1 = /sw/apps/gaussian-16.0/g16/l1.exe PID=    268048.
  
 Copyright (c) 1988,1990,1992,1993,1995,1998,2003,2009,2016,
            Gaussian, Inc.  All Rights Reserved.
  
 This is part of the Gaussian(R) 16 program.  It is based on
 the Gaussian(R) 09 system (copyright 2009, Gaussian, Inc.),
 the Gaussian(R) 03 system (copyright 2003, Gaussian, Inc.),
 the Gaussian(R) 98 system (copyright 1998, Gaussian, Inc.),
 the Gaussian(R) 94 system (copyright 1995, Gaussian, Inc.),
 the Gaussian 92(TM) system (copyright 1992, Gaussian, Inc.),
 the Gaussian 90(TM) system (copyright 1990, Gaussian, Inc.),
 the Gaussian 88(TM) system (copyright 1988, Gaussian, Inc.),
 the Gaussian 86(TM) system (copyright 1986, Carnegie Mellon
 University), and the Gaussian 82(TM) system (copyright 1983,
 Carnegie Mellon University). Gaussian is a federally registered
 trademark of Gaussian, Inc.
  
 This software contains proprietary and confidential information,
 including trade secrets, belonging to Gaussian, Inc.
  
 This software is provided under written license and may be
 used, copied, transmitted, or stored only in accord with that
 written license.
  
 The following legend is applicable only to US Government
 contracts under FAR:
  
                    RESTRICTED RIGHTS LEGEND
  
 Use, reproduction and disclosure by the US Government is
 subject to restrictions as set forth in subparagraphs (a)
 and (c) of the Commercial Computer Software - Restricted
 Rights clause in FAR 52.227-19.
  
 Gaussian, Inc.
 340 Quinnipiac St., Bldg. 40, Wallingford CT 06492
  
  
 ---------------------------------------------------------------
 Warning -- This program may not be used in any manner that
 competes with the business of Gaussian, Inc. or will provide
 assistance to any competitor of Gaussian, Inc.  The licensee
 of this program is prohibited from giving any competitor of
 Gaussian, Inc. access to this program.  By using this program,
 the user acknowledges that Gaussian, Inc. is engaged in the
 business of creating and licensing software in the field of
 computational chemistry and represents and warrants to the
 licensee that it is not a competitor of Gaussian, Inc. and that
 it will not use this program in any manner prohibited above.
 ---------------------------------------------------------------
  

 Cite this work as:
 Gaussian 16, Revision A.03,
 M. J. Frisch, G. W. Trucks, H. B. Schlegel, G. E. Scuseria, 
 M. A. Robb, J. R. Cheeseman, G. Scalmani, V. Barone, 
 G. A. Petersson, H. Nakatsuji, X. Li, M. Caricato, A. V. Marenich, 
 J. Bloino, B. G. Janesko, R. Gomperts, B. Mennucci, H. P. Hratchian, 
 J. V. Ortiz, A. F. Izmaylov, J. L. Sonnenberg, D. Williams-Young, 
 F. Ding, F. Lipparini, F. Egidi, J. Goings, B. Peng, A. Petrone, 
 T. Henderson, D. Ranasinghe, V. G. Zakrzewski, J. Gao, N. Rega, 
 G. Zheng, W. Liang, M. Hada, M. Ehara, K. Toyota, R. Fukuda, 
 J. Hasegawa, M. Ishida, T. Nakajima, Y. Honda, O. Kitao, H. Nakai, 
 T. Vreven, K. Throssell, J. A. Montgomery, Jr., J. E. Peralta, 
 F. Ogliaro, M. J. Bearpark, J. J. Heyd, E. N. Brothers, K. N. Kudin, 
 V. N. Staroverov, T. A. Keith, R. Kobayashi, J. Normand, 
 K. Raghavachari, A. P. Rendell, J. C. Burant, S. S. Iyengar, 
 J. Tomasi, M. Cossi, J. M. Millam, M. Klene, C. Adamo, R. Cammi, 
 J. W. Ochterski, R. L. Martin, K. Morokuma, O. Farkas, 
 J. B. Foresman, and D. J. Fox, Gaussian, Inc., Wallingford CT, 2016.
 
 ******************************************
 Gaussian 16:  ES64L-G16RevA.03 25-Dec-2016
                29-Apr-2022 
 ******************************************
 %nproc=24
 Will use up to   24 processors via shared memory.
 %mem=50gb
 --------------------
 #p ZINDO=(nstates=5)
 --------------------
 1/38=1,172=1/1;
 2/12=2,17=6,18=5,40=1/2;
 3/5=2,25=1,41=400000/1,2,3,8;
 4/5=3,35=1/1;
 5/5=2,35=1,38=5/2;
 8/6=1,108=5/1;
 9/41=5,42=1,49=10/14;
 6/7=2,8=2,9=2,10=2/1;
 99/5=1,9=1/99;
 Leave Link    1 at Fri Apr 29 05:37:05 2022, MaxMem=  6710886400 cpu:               0.8 elap:               0.0
 (Enter /sw/apps/gaussian-16.0/g16/l101.exe)
 ---------------------------
 step_1_chromophore_12 ZINDO
 ---------------------------
 Symbolic Z-matrix:
 Charge =  0 Multiplicity = 1
 Mg                    47.671    15.89     28.454 
 C                     45.344    15.655    31.048 
 C                     49.48     18.075    30.515 
 C                     49.687    16.659    25.896 
 C                     45.306    14.621    26.3 
 N                     47.507    16.717    30.64 
 C                     46.409    16.477    31.405 
 C                     46.52     17.235    32.787 
 C                     47.758    18.22     32.48 
 C                     48.271    17.699    31.127 
 C                     47.166    19.656    32.251 
 C                     46.904    16.168    33.877 
 C                     47.204    16.686    35.31 
 C                     48.316    16.299    36.239 
 O                     49.143    15.375    36.104 
 O                     48.287    17.131    37.333 
 N                     49.43     17.014    28.32 
 C                     50.069    17.827    29.271 
 C                     51.2      18.391    28.663 
 C                     51.383    17.851    27.397 
 C                     50.145    17.128    27.157 
 C                     52.115    19.271    29.45 
 C                     52.515    18.076    26.341 
 O                     52.574    17.523    25.248 
 C                     53.788    18.861    26.669 
 N                     47.442    15.767    26.396 
 C                     48.484    16.017    25.572 
 C                     48.26     15.53     24.127 
 C                     46.801    15.004    24.224 
 C                     46.51     15.008    25.714 
 C                     48.611    16.583    23.024 
 C                     46.486    13.65     23.531 
 C                     46.966    12.438    24.21 
 N                     45.756    15.167    28.599 
 C                     44.938    14.697    27.686 
 C                     43.698    14.18     28.274 
 C                     43.863    14.561    29.644 
 C                     45.089    15.181    29.786 
 C                     42.778    13.18     27.748 
 C                     43.211    14.491    30.94 
 O                     42.192    13.935    31.282 
 C                     44.145    15.276    31.869 
 C                     43.419    16.438    32.555 
 O                     43.17     17.49     32.026 
 O                     43.042    16.055    33.82 
 C                     42.339    17.133    34.553 
 C                     49.502    17.037    38.132 
 C                     49.561    18.263    39.014 
 C                     50.651    18.917    39.569 
 C                     52.126    18.574    39.316 
 C                     50.515    20.089    40.599 
 C                     50.806    21.538    39.927 
 C                     52.142    22.186    40.176 
 C                     53.087    22.243    38.992 
 C                     54.529    21.795    39.323 
 C                     53.15     23.665    38.33 
 C                     52.771    23.536    36.896 
 C                     52.587    24.871    36.211 
 C                     53.013    24.9      34.764 
 C                     54.112    25.946    34.523 
 C                     51.83     24.921    33.76 
 C                     52.077    24.161    32.463 
 C                     50.842    23.45     31.96 
 C                     50.397    24.029    30.56 
 C                     48.866    23.981    30.309 
 C                     51.228    23.381    29.377 
 H                     50.098    18.647    31.209 
 H                     50.414    16.702    25.082 
 H                     44.812    14.14     25.454 
 H                     45.634    17.83     33.01 
 H                     48.522    18.246    33.258 
 H                     47.138    20.013    31.222 
 H                     47.84     20.429    32.621 
 H                     46.166    19.793    32.662 
 H                     47.758    15.61     33.494 
 H                     46.098    15.434    33.898 
 H                     46.248    16.587    35.825 
 H                     47.421    17.732    35.097 
 H                     51.803    19.483    30.473 
 H                     52.347    20.143    28.837 
 H                     53.025    18.677    29.539 
 H                     53.618    19.925    26.834 
 H                     54.612    18.703    25.973 
 H                     54.192    18.417    27.579 
 H                     49.003    14.733    24.135 
 H                     46.204    15.805    23.788 
 H                     49.4      17.254    23.362 
 H                     47.726    17.181    22.805 
 H                     48.986    16.126    22.108 
 H                     46.997    13.776    22.577 
 H                     45.423    13.597    23.295 
 H                     46.251    12.146    24.979 
 H                     47.972    12.581    24.604 
 H                     46.988    11.578    23.54 
 H                     43.376    12.596    27.048 
 H                     41.933    13.49     27.133 
 H                     42.416    12.613    28.605 
 H                     44.526    14.581    32.618 
 H                     41.578    16.677    35.186 
 H                     41.709    17.79     33.953 
 H                     43.023    17.668    35.211 
 H                     50.335    17.193    37.446 
 H                     49.725    16.096    38.635 
 H                     48.606    18.712    39.285 
 H                     52.82     19.021    40.028 
 H                     52.313    18.945    38.308 
 H                     52.238    17.491    39.253 
 H                     51.045    19.916    41.536 
 H                     49.456    20.241    40.808 
 H                     50.036    22.216    40.294 
 H                     50.716    21.469    38.843 
 H                     52.716    21.608    40.9 
 H                     52.016    23.147    40.674 
 H                     52.732    21.57     38.211 
 H                     54.792    20.96     38.675 
 H                     54.634    21.465    40.357 
 H                     55.297    22.563    39.229 
 H                     54.124    24.154    38.327 
 H                     52.464    24.251    38.941 
 H                     51.77     23.108    36.945 
 H                     53.411    22.819    36.381 
 H                     52.991    25.651    36.856 
 H                     51.514    25.016    36.342 
 H                     53.47     23.924    34.599 
 H                     54.939    25.416    34.05 
 H                     54.376    26.489    35.431 
 H                     53.726    26.752    33.899 
 H                     51.684    25.986    33.578 
 H                     50.872    24.625    34.187 
 H                     52.82     23.364    32.479 
 H                     52.454    24.89     31.745 
 H                     50.003    23.46     32.656 
 H                     51.087    22.393    31.863 
 H                     50.692    25.078    30.597 
 H                     48.584    25.027    30.189 
 H                     48.483    23.592    31.253 
 H                     48.593    23.266    29.534 
 H                     51.993    24.116    29.127 
 H                     50.656    23.163    28.475 
 H                     51.796    22.472    29.573 
 
 ITRead=  0  0  0  0  0  0  0  0  0  0  0  0  0  0  0  0  0  0  0  0
 ITRead=  0  0  0  0  0  0  0  0  0  0  0  0  0  0  0  0  0  0  0  0
 ITRead=  0  0  0  0  0  0  0  0  0  0  0  0  0  0  0  0  0  0  0  0
 ITRead=  0  0  0  0  0  0  0  0  0  0  0  0  0  0  0  0  0  0  0  0
 ITRead=  0  0  0  0  0  0  0  0  0  0  0  0  0  0  0  0  0  0  0  0
 ITRead=  0  0  0  0  0  0  0  0  0  0  0  0  0  0  0  0  0  0  0  0
 ITRead=  0  0  0  0  0  0  0  0  0  0  0  0  0  0  0  0  0  0  0  0
 MicOpt= -1 -1 -1 -1 -1 -1 -1 -1 -1 -1 -1 -1 -1 -1 -1 -1 -1 -1 -1 -1
 MicOpt= -1 -1 -1 -1 -1 -1 -1 -1 -1 -1 -1 -1 -1 -1 -1 -1 -1 -1 -1 -1
 MicOpt= -1 -1 -1 -1 -1 -1 -1 -1 -1 -1 -1 -1 -1 -1 -1 -1 -1 -1 -1 -1
 MicOpt= -1 -1 -1 -1 -1 -1 -1 -1 -1 -1 -1 -1 -1 -1 -1 -1 -1 -1 -1 -1
 MicOpt= -1 -1 -1 -1 -1 -1 -1 -1 -1 -1 -1 -1 -1 -1 -1 -1 -1 -1 -1 -1
 MicOpt= -1 -1 -1 -1 -1 -1 -1 -1 -1 -1 -1 -1 -1 -1 -1 -1 -1 -1 -1 -1
 MicOpt= -1 -1 -1 -1 -1 -1 -1 -1 -1 -1 -1 -1 -1 -1 -1 -1 -1 -1 -1 -1
 NAtoms=    140 NQM=      140 NQMF=       0 NMMI=      0 NMMIF=      0
                NMic=       0 NMicF=      0.
                    Isotopes and Nuclear Properties:
 (Nuclear quadrupole moments (NQMom) in fm**2, nuclear magnetic moments (NMagM)
  in nuclear magnetons)

  Atom         1           2           3           4           5           6           7           8           9          10
 IAtWgt=          24          12          12          12          12          14          12          12          12          12
 AtmWgt=  23.9850450  12.0000000  12.0000000  12.0000000  12.0000000  14.0030740  12.0000000  12.0000000  12.0000000  12.0000000
 NucSpn=           0           0           0           0           0           2           0           0           0           0
 AtZEff=  -0.0000000  -0.0000000  -0.0000000  -0.0000000  -0.0000000  -0.0000000  -0.0000000  -0.0000000  -0.0000000  -0.0000000
 NQMom=    0.0000000   0.0000000   0.0000000   0.0000000   0.0000000   2.0440000   0.0000000   0.0000000   0.0000000   0.0000000
 NMagM=    0.0000000   0.0000000   0.0000000   0.0000000   0.0000000   0.4037610   0.0000000   0.0000000   0.0000000   0.0000000
 AtZNuc=  12.0000000   6.0000000   6.0000000   6.0000000   6.0000000   7.0000000   6.0000000   6.0000000   6.0000000   6.0000000

  Atom        11          12          13          14          15          16          17          18          19          20
 IAtWgt=          12          12          12          12          16          16          14          12          12          12
 AtmWgt=  12.0000000  12.0000000  12.0000000  12.0000000  15.9949146  15.9949146  14.0030740  12.0000000  12.0000000  12.0000000
 NucSpn=           0           0           0           0           0           0           2           0           0           0
 AtZEff=  -0.0000000  -0.0000000  -0.0000000  -0.0000000  -0.0000000  -0.0000000  -0.0000000  -0.0000000  -0.0000000  -0.0000000
 NQMom=    0.0000000   0.0000000   0.0000000   0.0000000   0.0000000   0.0000000   2.0440000   0.0000000   0.0000000   0.0000000
 NMagM=    0.0000000   0.0000000   0.0000000   0.0000000   0.0000000   0.0000000   0.4037610   0.0000000   0.0000000   0.0000000
 AtZNuc=   6.0000000   6.0000000   6.0000000   6.0000000   8.0000000   8.0000000   7.0000000   6.0000000   6.0000000   6.0000000

  Atom        21          22          23          24          25          26          27          28          29          30
 IAtWgt=          12          12          12          16          12          14          12          12          12          12
 AtmWgt=  12.0000000  12.0000000  12.0000000  15.9949146  12.0000000  14.0030740  12.0000000  12.0000000  12.0000000  12.0000000
 NucSpn=           0           0           0           0           0           2           0           0           0           0
 AtZEff=  -0.0000000  -0.0000000  -0.0000000  -0.0000000  -0.0000000  -0.0000000  -0.0000000  -0.0000000  -0.0000000  -0.0000000
 NQMom=    0.0000000   0.0000000   0.0000000   0.0000000   0.0000000   2.0440000   0.0000000   0.0000000   0.0000000   0.0000000
 NMagM=    0.0000000   0.0000000   0.0000000   0.0000000   0.0000000   0.4037610   0.0000000   0.0000000   0.0000000   0.0000000
 AtZNuc=   6.0000000   6.0000000   6.0000000   8.0000000   6.0000000   7.0000000   6.0000000   6.0000000   6.0000000   6.0000000

  Atom        31          32          33          34          35          36          37          38          39          40
 IAtWgt=          12          12          12          14          12          12          12          12          12          12
 AtmWgt=  12.0000000  12.0000000  12.0000000  14.0030740  12.0000000  12.0000000  12.0000000  12.0000000  12.0000000  12.0000000
 NucSpn=           0           0           0           2           0           0           0           0           0           0
 AtZEff=  -0.0000000  -0.0000000  -0.0000000  -0.0000000  -0.0000000  -0.0000000  -0.0000000  -0.0000000  -0.0000000  -0.0000000
 NQMom=    0.0000000   0.0000000   0.0000000   2.0440000   0.0000000   0.0000000   0.0000000   0.0000000   0.0000000   0.0000000
 NMagM=    0.0000000   0.0000000   0.0000000   0.4037610   0.0000000   0.0000000   0.0000000   0.0000000   0.0000000   0.0000000
 AtZNuc=   6.0000000   6.0000000   6.0000000   7.0000000   6.0000000   6.0000000   6.0000000   6.0000000   6.0000000   6.0000000

  Atom        41          42          43          44          45          46          47          48          49          50
 IAtWgt=          16          12          12          16          16          12          12          12          12          12
 AtmWgt=  15.9949146  12.0000000  12.0000000  15.9949146  15.9949146  12.0000000  12.0000000  12.0000000  12.0000000  12.0000000
 NucSpn=           0           0           0           0           0           0           0           0           0           0
 AtZEff=  -0.0000000  -0.0000000  -0.0000000  -0.0000000  -0.0000000  -0.0000000  -0.0000000  -0.0000000  -0.0000000  -0.0000000
 NQMom=    0.0000000   0.0000000   0.0000000   0.0000000   0.0000000   0.0000000   0.0000000   0.0000000   0.0000000   0.0000000
 NMagM=    0.0000000   0.0000000   0.0000000   0.0000000   0.0000000   0.0000000   0.0000000   0.0000000   0.0000000   0.0000000
 AtZNuc=   8.0000000   6.0000000   6.0000000   8.0000000   8.0000000   6.0000000   6.0000000   6.0000000   6.0000000   6.0000000

  Atom        51          52          53          54          55          56          57          58          59          60
 IAtWgt=          12          12          12          12          12          12          12          12          12          12
 AtmWgt=  12.0000000  12.0000000  12.0000000  12.0000000  12.0000000  12.0000000  12.0000000  12.0000000  12.0000000  12.0000000
 NucSpn=           0           0           0           0           0           0           0           0           0           0
 AtZEff=  -0.0000000  -0.0000000  -0.0000000  -0.0000000  -0.0000000  -0.0000000  -0.0000000  -0.0000000  -0.0000000  -0.0000000
 NQMom=    0.0000000   0.0000000   0.0000000   0.0000000   0.0000000   0.0000000   0.0000000   0.0000000   0.0000000   0.0000000
 NMagM=    0.0000000   0.0000000   0.0000000   0.0000000   0.0000000   0.0000000   0.0000000   0.0000000   0.0000000   0.0000000
 AtZNuc=   6.0000000   6.0000000   6.0000000   6.0000000   6.0000000   6.0000000   6.0000000   6.0000000   6.0000000   6.0000000

  Atom        61          62          63          64          65          66          67          68          69          70
 IAtWgt=          12          12          12          12          12          12           1           1           1           1
 AtmWgt=  12.0000000  12.0000000  12.0000000  12.0000000  12.0000000  12.0000000   1.0078250   1.0078250   1.0078250   1.0078250
 NucSpn=           0           0           0           0           0           0           1           1           1           1
 AtZEff=  -0.0000000  -0.0000000  -0.0000000  -0.0000000  -0.0000000  -0.0000000  -0.0000000  -0.0000000  -0.0000000  -0.0000000
 NQMom=    0.0000000   0.0000000   0.0000000   0.0000000   0.0000000   0.0000000   0.0000000   0.0000000   0.0000000   0.0000000
 NMagM=    0.0000000   0.0000000   0.0000000   0.0000000   0.0000000   0.0000000   2.7928460   2.7928460   2.7928460   2.7928460
 AtZNuc=   6.0000000   6.0000000   6.0000000   6.0000000   6.0000000   6.0000000   1.0000000   1.0000000   1.0000000   1.0000000

  Atom        71          72          73          74          75          76          77          78          79          80
 IAtWgt=           1           1           1           1           1           1           1           1           1           1
 AtmWgt=   1.0078250   1.0078250   1.0078250   1.0078250   1.0078250   1.0078250   1.0078250   1.0078250   1.0078250   1.0078250
 NucSpn=           1           1           1           1           1           1           1           1           1           1
 AtZEff=  -0.0000000  -0.0000000  -0.0000000  -0.0000000  -0.0000000  -0.0000000  -0.0000000  -0.0000000  -0.0000000  -0.0000000
 NQMom=    0.0000000   0.0000000   0.0000000   0.0000000   0.0000000   0.0000000   0.0000000   0.0000000   0.0000000   0.0000000
 NMagM=    2.7928460   2.7928460   2.7928460   2.7928460   2.7928460   2.7928460   2.7928460   2.7928460   2.7928460   2.7928460
 AtZNuc=   1.0000000   1.0000000   1.0000000   1.0000000   1.0000000   1.0000000   1.0000000   1.0000000   1.0000000   1.0000000

  Atom        81          82          83          84          85          86          87          88          89          90
 IAtWgt=           1           1           1           1           1           1           1           1           1           1
 AtmWgt=   1.0078250   1.0078250   1.0078250   1.0078250   1.0078250   1.0078250   1.0078250   1.0078250   1.0078250   1.0078250
 NucSpn=           1           1           1           1           1           1           1           1           1           1
 AtZEff=  -0.0000000  -0.0000000  -0.0000000  -0.0000000  -0.0000000  -0.0000000  -0.0000000  -0.0000000  -0.0000000  -0.0000000
 NQMom=    0.0000000   0.0000000   0.0000000   0.0000000   0.0000000   0.0000000   0.0000000   0.0000000   0.0000000   0.0000000
 NMagM=    2.7928460   2.7928460   2.7928460   2.7928460   2.7928460   2.7928460   2.7928460   2.7928460   2.7928460   2.7928460
 AtZNuc=   1.0000000   1.0000000   1.0000000   1.0000000   1.0000000   1.0000000   1.0000000   1.0000000   1.0000000   1.0000000

  Atom        91          92          93          94          95          96          97          98          99         100
 IAtWgt=           1           1           1           1           1           1           1           1           1           1
 AtmWgt=   1.0078250   1.0078250   1.0078250   1.0078250   1.0078250   1.0078250   1.0078250   1.0078250   1.0078250   1.0078250
 NucSpn=           1           1           1           1           1           1           1           1           1           1
 AtZEff=  -0.0000000  -0.0000000  -0.0000000  -0.0000000  -0.0000000  -0.0000000  -0.0000000  -0.0000000  -0.0000000  -0.0000000
 NQMom=    0.0000000   0.0000000   0.0000000   0.0000000   0.0000000   0.0000000   0.0000000   0.0000000   0.0000000   0.0000000
 NMagM=    2.7928460   2.7928460   2.7928460   2.7928460   2.7928460   2.7928460   2.7928460   2.7928460   2.7928460   2.7928460
 AtZNuc=   1.0000000   1.0000000   1.0000000   1.0000000   1.0000000   1.0000000   1.0000000   1.0000000   1.0000000   1.0000000

  Atom       101         102         103         104         105         106         107         108         109         110
 IAtWgt=           1           1           1           1           1           1           1           1           1           1
 AtmWgt=   1.0078250   1.0078250   1.0078250   1.0078250   1.0078250   1.0078250   1.0078250   1.0078250   1.0078250   1.0078250
 NucSpn=           1           1           1           1           1           1           1           1           1           1
 AtZEff=  -0.0000000  -0.0000000  -0.0000000  -0.0000000  -0.0000000  -0.0000000  -0.0000000  -0.0000000  -0.0000000  -0.0000000
 NQMom=    0.0000000   0.0000000   0.0000000   0.0000000   0.0000000   0.0000000   0.0000000   0.0000000   0.0000000   0.0000000
 NMagM=    2.7928460   2.7928460   2.7928460   2.7928460   2.7928460   2.7928460   2.7928460   2.7928460   2.7928460   2.7928460
 AtZNuc=   1.0000000   1.0000000   1.0000000   1.0000000   1.0000000   1.0000000   1.0000000   1.0000000   1.0000000   1.0000000

  Atom       111         112         113         114         115         116         117         118         119         120
 IAtWgt=           1           1           1           1           1           1           1           1           1           1
 AtmWgt=   1.0078250   1.0078250   1.0078250   1.0078250   1.0078250   1.0078250   1.0078250   1.0078250   1.0078250   1.0078250
 NucSpn=           1           1           1           1           1           1           1           1           1           1
 AtZEff=  -0.0000000  -0.0000000  -0.0000000  -0.0000000  -0.0000000  -0.0000000  -0.0000000  -0.0000000  -0.0000000  -0.0000000
 NQMom=    0.0000000   0.0000000   0.0000000   0.0000000   0.0000000   0.0000000   0.0000000   0.0000000   0.0000000   0.0000000
 NMagM=    2.7928460   2.7928460   2.7928460   2.7928460   2.7928460   2.7928460   2.7928460   2.7928460   2.7928460   2.7928460
 AtZNuc=   1.0000000   1.0000000   1.0000000   1.0000000   1.0000000   1.0000000   1.0000000   1.0000000   1.0000000   1.0000000

  Atom       121         122         123         124         125         126         127         128         129         130
 IAtWgt=           1           1           1           1           1           1           1           1           1           1
 AtmWgt=   1.0078250   1.0078250   1.0078250   1.0078250   1.0078250   1.0078250   1.0078250   1.0078250   1.0078250   1.0078250
 NucSpn=           1           1           1           1           1           1           1           1           1           1
 AtZEff=  -0.0000000  -0.0000000  -0.0000000  -0.0000000  -0.0000000  -0.0000000  -0.0000000  -0.0000000  -0.0000000  -0.0000000
 NQMom=    0.0000000   0.0000000   0.0000000   0.0000000   0.0000000   0.0000000   0.0000000   0.0000000   0.0000000   0.0000000
 NMagM=    2.7928460   2.7928460   2.7928460   2.7928460   2.7928460   2.7928460   2.7928460   2.7928460   2.7928460   2.7928460
 AtZNuc=   1.0000000   1.0000000   1.0000000   1.0000000   1.0000000   1.0000000   1.0000000   1.0000000   1.0000000   1.0000000

  Atom       131         132         133         134         135         136         137         138         139         140
 IAtWgt=           1           1           1           1           1           1           1           1           1           1
 AtmWgt=   1.0078250   1.0078250   1.0078250   1.0078250   1.0078250   1.0078250   1.0078250   1.0078250   1.0078250   1.0078250
 NucSpn=           1           1           1           1           1           1           1           1           1           1
 AtZEff=  -0.0000000  -0.0000000  -0.0000000  -0.0000000  -0.0000000  -0.0000000  -0.0000000  -0.0000000  -0.0000000  -0.0000000
 NQMom=    0.0000000   0.0000000   0.0000000   0.0000000   0.0000000   0.0000000   0.0000000   0.0000000   0.0000000   0.0000000
 NMagM=    2.7928460   2.7928460   2.7928460   2.7928460   2.7928460   2.7928460   2.7928460   2.7928460   2.7928460   2.7928460
 AtZNuc=   1.0000000   1.0000000   1.0000000   1.0000000   1.0000000   1.0000000   1.0000000   1.0000000   1.0000000   1.0000000
 Leave Link  101 at Fri Apr 29 05:37:05 2022, MaxMem=  6710886400 cpu:               2.9 elap:               0.1
 (Enter /sw/apps/gaussian-16.0/g16/l202.exe)
 Stoichiometry    C55H74MgN4O6
 Framework group  C1[X(C55H74MgN4O6)]
 Deg. of freedom   414
 Full point group                 C1      NOp   1
 Largest Abelian subgroup         C1      NOp   1
 Largest concise Abelian subgroup C1      NOp   1
                         Standard orientation:                         
 ---------------------------------------------------------------------
 Center     Atomic      Atomic             Coordinates (Angstroms)
 Number     Number       Type             X           Y           Z
 ---------------------------------------------------------------------
      1         12           0       -4.034178    0.302464   -0.630674
      2          6           0       -3.106959   -2.907249    0.387657
      3          6           0       -0.627674    1.126305   -0.523704
      4          6           0       -4.786519    3.535473   -1.055670
      5          6           0       -7.267672   -0.397760    0.316693
      6          7           0       -2.012519   -0.808251   -0.220035
      7          6           0       -1.990593   -2.091057    0.229808
      8          6           0       -0.506951   -2.551802    0.518478
      9          6           0        0.255411   -1.133299    0.457052
     10          6           0       -0.835981   -0.191150   -0.078145
     11          6           0        0.575028   -0.711029    1.935069
     12          6           0       -0.065616   -3.482167   -0.670508
     13          6           0        1.410320   -3.964886   -0.690674
     14          6           0        2.366139   -4.027847   -1.844711
     15          8           0        2.123624   -3.840506   -3.053851
     16          8           0        3.611932   -4.361107   -1.368435
     17          7           0       -2.860866    2.002211   -0.961754
     18          6           0       -1.466638    2.170903   -0.924847
     19          6           0       -1.190784    3.521848   -1.181305
     20          6           0       -2.357485    4.192842   -1.522509
     21          6           0       -3.403453    3.238682   -1.193114
     22          6           0        0.222897    3.998128   -1.256526
     23          6           0       -2.595269    5.674193   -1.965502
     24          8           0       -3.686298    6.151953   -2.257631
     25          6           0       -1.436669    6.622799   -2.285082
     26          7           0       -5.757093    1.403678   -0.281637
     27          6           0       -5.841295    2.693082   -0.678610
     28          6           0       -7.280211    3.245218   -0.684745
     29          6           0       -8.057397    2.028181   -0.110665
     30          6           0       -7.035947    0.905092   -0.121098
     31          6           0       -7.444680    4.639763    0.005771
     32          6           0       -9.400763    1.655357   -0.795619
     33          6           0       -9.308134    0.979557   -2.097578
     34          7           0       -5.057383   -1.320882    0.096497
     35          6           0       -6.319641   -1.470955    0.424790
     36          6           0       -6.630404   -2.856547    0.791116
     37          6           0       -5.326202   -3.446354    0.769411
     38          6           0       -4.412159   -2.484406    0.386239
     39          6           0       -7.908211   -3.555262    0.745480
     40          6           0       -4.634648   -4.707360    0.972476
     41          8           0       -5.064408   -5.816095    1.197141
     42          6           0       -3.153481   -4.351885    0.795265
     43          6           0       -2.329434   -4.716292    2.034648
     44          8           0       -2.296792   -4.062426    3.044569
     45          8           0       -1.710857   -5.926383    1.829501
     46          6           0       -0.884542   -6.344048    2.985503
     47          6           0        4.658973   -4.144508   -2.358512
     48          6           0        5.978892   -4.110101   -1.622909
     49          6           0        7.170674   -3.479375   -1.947994
     50          6           0        7.393041   -2.546932   -3.147322
     51          6           0        8.497950   -3.685611   -1.142522
     52          6           0        8.839580   -2.422039   -0.182032
     53          6           0        9.893423   -1.445870   -0.632932
     54          6           0        9.397785   -0.077254   -1.056449
     55          6           0        9.998677    0.417752   -2.391936
     56          6           0        9.642127    1.024371    0.034888
     57          6           0        8.331832    1.634077    0.392693
     58          6           0        8.415594    2.555511    1.588205
     59          6           0        7.497699    3.751265    1.526810
     60          6           0        8.285838    5.068224    1.593536
     61          6           0        6.270034    3.651342    2.470632
     62          6           0        4.993318    4.282625    1.929986
     63          6           0        3.754181    3.502031    2.302771
     64          6           0        2.803770    4.369141    3.218252
     65          6           0        1.975818    3.543118    4.238765
     66          6           0        1.904480    5.346369    2.354392
     67          1           0        0.439591    1.335179   -0.613491
     68          1           0       -5.094415    4.526749   -1.395590
     69          1           0       -8.354901   -0.391376    0.411595
     70          1           0       -0.388403   -2.980769    1.513809
     71          1           0        1.167183   -1.132788   -0.141552
     72          1           0       -0.038833    0.083379    2.358349
     73          1           0        1.520016   -0.171160    2.000214
     74          1           0        0.558184   -1.537809    2.644886
     75          1           0       -0.300090   -2.955442   -1.595144
     76          1           0       -0.745491   -4.334572   -0.673510
     77          1           0        1.370227   -4.936535   -0.197468
     78          1           0        1.867122   -3.220383   -0.039811
     79          1           0        0.985840    3.251164   -1.035662
     80          1           0        0.292228    4.926171   -0.687398
     81          1           0        0.352282    4.245420   -2.310548
     82          1           0       -0.837318    6.893090   -1.415633
     83          1           0       -1.718136    7.509532   -2.853270
     84          1           0       -0.807450    6.100738   -3.006183
     85          1           0       -7.382670    3.346805   -1.764793
     86          1           0       -8.220771    2.290784    0.934540
     87          1           0       -6.530016    5.226032   -0.075987
     88          1           0       -7.661126    4.492182    1.064148
     89          1           0       -8.225569    5.247839   -0.451379
     90          1           0       -9.859501    2.636834   -0.911272
     91          1           0      -10.032689    1.111951   -0.092872
     92          1           0       -9.156477   -0.088412   -1.941716
     93          1           0       -8.532753    1.427966   -2.718413
     94          1           0      -10.247777    1.027721   -2.648700
     95          1           0       -8.499922   -3.000938    0.016602
     96          1           0       -8.557106   -3.557699    1.621425
     97          1           0       -7.688293   -4.581282    0.452390
     98          1           0       -2.783937   -4.900232   -0.071880
     99          1           0       -0.938420   -7.429200    3.070879
    100          1           0       -1.259416   -6.063700    3.970097
    101          1           0        0.162840   -6.087650    2.829632
    102          1           0        4.548547   -3.116334   -2.704177
    103          1           0        4.652612   -4.748059   -3.266204
    104          1           0        6.032127   -4.678883   -0.695159
    105          1           0        8.440794   -2.358204   -3.381810
    106          1           0        6.888285   -1.624234   -2.860056
    107          1           0        6.838578   -2.926780   -4.006210
    108          1           0        9.336067   -4.022846   -1.752956
    109          1           0        8.311171   -4.415023   -0.354272
    110          1           0        9.156524   -2.831509    0.776693
    111          1           0        7.942178   -1.824649   -0.021684
    112          1           0       10.380634   -1.804072   -1.539603
    113          1           0       10.711777   -1.405014    0.085418
    114          1           0        8.317961   -0.111421   -1.203850
    115          1           0        9.184895    0.614908   -3.088490
    116          1           0       10.660881   -0.319165   -2.847478
    117          1           0       10.625016    1.307788   -2.328545
    118          1           0       10.278199    1.860190   -0.256014
    119          1           0       10.131826    0.471861    0.836288
    120          1           0        7.751075    0.779803    0.739859
    121          1           0        7.830240    2.037685   -0.487319
    122          1           0        9.465804    2.754889    1.800212
    123          1           0        8.160198    1.863431    2.391518
    124          1           0        7.057899    3.701314    0.530451
    125          1           0        7.986215    5.647530    0.719928
    126          1           0        9.359915    4.906042    1.688744
    127          1           0        8.066075    5.584644    2.527892
    128          1           0        6.614985    4.156529    3.373106
    129          1           0        6.061793    2.644909    2.833173
    130          1           0        4.896957    4.379155    0.848825
    131          1           0        4.967808    5.303527    2.312349
    132          1           0        3.954321    2.538886    2.772592
    133          1           0        3.240217    3.239096    1.378980
    134          1           0        3.483854    5.006030    3.784514
    135          1           0        2.303977    3.914973    5.209370
    136          1           0        2.344255    2.529450    4.077901
    137          1           0        0.911979    3.537728    4.005106
    138          1           0        2.393910    6.318196    2.417331
    139          1           0        0.877237    5.458115    2.701662
    140          1           0        1.818344    5.168360    1.282844
 ---------------------------------------------------------------------
 Rotational constants (GHZ):           0.0364680           0.0167257           0.0129282
 Leave Link  202 at Fri Apr 29 05:37:05 2022, MaxMem=  6710886400 cpu:               0.2 elap:               0.0
 (Enter /sw/apps/gaussian-16.0/g16/l301.exe)
 Standard basis: VSTO-6G (5D, 7F)
 Ernie: Thresh=  0.10000D-02 Tol=  0.10000D-05 Strict=F.
 There are   338 symmetry adapted cartesian basis functions of A   symmetry.
 There are   338 symmetry adapted basis functions of A   symmetry.
   338 basis functions,  2028 primitive gaussians,   338 cartesian basis functions
   176 alpha electrons      176 beta electrons
       nuclear repulsion energy      5044.4282684119 Hartrees.
 IExCor=    0 DFT=F Ex=HF Corr=None ExCW=0 ScaHFX=  1.000000
 ScaDFX=  1.000000  1.000000  1.000000  1.000000 ScalE2=  1.000000  1.000000
 IRadAn=      5 IRanWt=     -1 IRanGd=            0 ICorTp=0 IEmpDi=  4
 Integral buffers will be    131072 words long.
 Regular integral format.
 Two-electron integral symmetry is turned off.
 Leave Link  301 at Fri Apr 29 05:37:05 2022, MaxMem=  6710886400 cpu:               1.2 elap:               0.1
 (Enter /sw/apps/gaussian-16.0/g16/l302.exe)
 Do NDO integrals.
 NPDir=0 NMtPBC=     1 NCelOv=     1 NCel=       1 NClECP=     1 NCelD=      1
         NCelK=      1 NCelE2=     1 NClLst=     1 CellRange=     0.0.
 One-electron integrals computed using PRISM.
 Generate ZINDO/S integrals.
 NDO Nuclear repulsion=  4550.464647057630 Hartrees.
 NBasis=   338 RedAO= F EigKep=  0.00D+00  NBF=   338
 NBsUse=   338 1.00D-04 EigRej=  0.00D+00 NBFU=   338
 Leave Link  302 at Fri Apr 29 05:37:05 2022, MaxMem=  6710886400 cpu:               8.6 elap:               0.4
 (Enter /sw/apps/gaussian-16.0/g16/l303.exe)
 DipDrv:  MaxL=1.
 DipDrv:  will hold  3 matrices at once.
 Leave Link  303 at Fri Apr 29 05:37:05 2022, MaxMem=  6710886400 cpu:               0.6 elap:               0.0
 (Enter /sw/apps/gaussian-16.0/g16/l308.exe)
 Leave Link  308 at Fri Apr 29 05:37:05 2022, MaxMem=  6710886400 cpu:               4.8 elap:               0.2
 (Enter /sw/apps/gaussian-16.0/g16/l401.exe)
 Simple Huckel Guess.
 JPrj=0 DoOrth=F DoCkMO=F.
 Leave Link  401 at Fri Apr 29 05:37:06 2022, MaxMem=  6710886400 cpu:               2.6 elap:               0.1
 (Enter /sw/apps/gaussian-16.0/g16/l502.exe)
 Two-electron integral symmetry not used.
 Closed shell SCF:
 Using DIIS extrapolation, IDIIS=  1040.
 Overlap will be assumed to be unity.
 NGot=  6710886400 LenX=  6710643598 LenY=  6710528913
 Requested convergence on RMS density matrix=1.00D-08 within 128 cycles.
 Requested convergence on MAX density matrix=1.00D-06.
 Requested convergence on             energy=1.00D-06.
 No special actions if energy rises.
 Fock matrices will be formed incrementally for  20 cycles.

 Cycle   1  Pass 1  IDiag  1:
 E= -472.574551933205    
 DIIS: error= 6.27D-02 at cycle   1 NSaved=   1.
 NSaved= 1 IEnMin= 1 EnMin= -472.574551933205     IErMin= 1 ErrMin= 6.27D-02
 ErrMax= 6.27D-02  0.00D+00 EMaxC= 1.00D-01 BMatC= 8.36D-01 BMatP= 8.36D-01
 IDIUse=3 WtCom= 3.73D-01 WtEn= 6.27D-01
 Coeff-Com:  0.100D+01
 Coeff-En:   0.100D+01
 Coeff:      0.100D+01
 GapD=    2.000 DampG=2.000 DampE=0.500 DampFc=1.0000 IDamp=-1.
 RMSDP=3.99D-03 MaxDP=1.79D-01              OVMax= 0.00D+00

 Cycle   2  Pass 1  IDiag  1:
 RMSU=  3.99D-03    CP:  9.95D-01
 E= -474.415340254573     Delta-E=       -1.840788321369 Rises=F Damp=F
 DIIS: error= 2.21D-02 at cycle   2 NSaved=   2.
 NSaved= 2 IEnMin= 2 EnMin= -474.415340254573     IErMin= 2 ErrMin= 2.21D-02
 ErrMax= 2.21D-02  0.00D+00 EMaxC= 1.00D-01 BMatC= 5.20D-02 BMatP= 8.36D-01
 IDIUse=3 WtCom= 7.79D-01 WtEn= 2.21D-01
 Coeff-Com: -0.756D-01 0.108D+01
 Coeff-En:   0.000D+00 0.100D+01
 Coeff:     -0.588D-01 0.106D+01
 RMSDP=1.10D-03 MaxDP=6.67D-02 DE=-1.84D+00 OVMax= 0.00D+00

 Cycle   3  Pass 1  IDiag  1:
 RMSU=  1.02D-03    CP:  9.93D-01  1.10D+00
 E= -474.517592846199     Delta-E=       -0.102252591626 Rises=F Damp=F
 DIIS: error= 1.04D-02 at cycle   3 NSaved=   3.
 NSaved= 3 IEnMin= 3 EnMin= -474.517592846199     IErMin= 3 ErrMin= 1.04D-02
 ErrMax= 1.04D-02  0.00D+00 EMaxC= 1.00D-01 BMatC= 7.07D-03 BMatP= 5.20D-02
 IDIUse=3 WtCom= 8.96D-01 WtEn= 1.04D-01
 Coeff-Com: -0.679D-01 0.239D+00 0.828D+00
 Coeff-En:   0.000D+00 0.000D+00 0.100D+01
 Coeff:     -0.608D-01 0.214D+00 0.846D+00
 RMSDP=3.60D-04 MaxDP=1.87D-02 DE=-1.02D-01 OVMax= 0.00D+00

 Cycle   4  Pass 1  IDiag  1:
 RMSU=  2.31D-04    CP:  9.93D-01  1.17D+00  9.32D-01
 E= -474.530136317434     Delta-E=       -0.012543471234 Rises=F Damp=F
 DIIS: error= 1.42D-03 at cycle   4 NSaved=   4.
 NSaved= 4 IEnMin= 4 EnMin= -474.530136317434     IErMin= 4 ErrMin= 1.42D-03
 ErrMax= 1.42D-03  0.00D+00 EMaxC= 1.00D-01 BMatC= 2.94D-04 BMatP= 7.07D-03
 IDIUse=3 WtCom= 9.86D-01 WtEn= 1.42D-02
 Coeff-Com:  0.895D-03-0.381D-01 0.228D-01 0.101D+01
 Coeff-En:   0.000D+00 0.000D+00 0.000D+00 0.100D+01
 Coeff:      0.882D-03-0.376D-01 0.224D-01 0.101D+01
 RMSDP=1.37D-04 MaxDP=7.72D-03 DE=-1.25D-02 OVMax= 0.00D+00

 Cycle   5  Pass 1  IDiag  1:
 RMSU=  9.22D-05    CP:  9.92D-01  1.17D+00  1.03D+00  1.10D+00
 E= -474.531192457088     Delta-E=       -0.001056139654 Rises=F Damp=F
 DIIS: error= 7.43D-04 at cycle   5 NSaved=   5.
 NSaved= 5 IEnMin= 5 EnMin= -474.531192457088     IErMin= 5 ErrMin= 7.43D-04
 ErrMax= 7.43D-04  0.00D+00 EMaxC= 1.00D-01 BMatC= 6.46D-05 BMatP= 2.94D-04
 IDIUse=3 WtCom= 9.93D-01 WtEn= 7.43D-03
 Coeff-Com:  0.634D-02-0.265D-01-0.959D-01 0.216D+00 0.900D+00
 Coeff-En:   0.000D+00 0.000D+00 0.000D+00 0.000D+00 0.100D+01
 Coeff:      0.629D-02-0.263D-01-0.951D-01 0.215D+00 0.900D+00
 RMSDP=6.05D-05 MaxDP=2.78D-03 DE=-1.06D-03 OVMax= 0.00D+00

 Cycle   6  Pass 1  IDiag  1:
 RMSU=  3.42D-05    CP:  9.92D-01  1.17D+00  1.05D+00  1.28D+00  1.21D+00
 E= -474.531420881356     Delta-E=       -0.000228424268 Rises=F Damp=F
 DIIS: error= 2.52D-04 at cycle   6 NSaved=   6.
 NSaved= 6 IEnMin= 6 EnMin= -474.531420881356     IErMin= 6 ErrMin= 2.52D-04
 ErrMax= 2.52D-04  0.00D+00 EMaxC= 1.00D-01 BMatC= 8.27D-06 BMatP= 6.46D-05
 IDIUse=3 WtCom= 9.97D-01 WtEn= 2.52D-03
 Coeff-Com: -0.485D-03 0.717D-02-0.110D-01-0.105D+00-0.498D-01 0.116D+01
 Coeff-En:   0.000D+00 0.000D+00 0.000D+00 0.000D+00 0.000D+00 0.100D+01
 Coeff:     -0.484D-03 0.715D-02-0.109D-01-0.105D+00-0.497D-01 0.116D+01
 RMSDP=5.16D-05 MaxDP=2.35D-03 DE=-2.28D-04 OVMax= 0.00D+00

 Cycle   7  Pass 1  IDiag  1:
 RMSU=  2.19D-05    CP:  9.92D-01  1.17D+00  1.06D+00  1.34D+00  1.60D+00
                    CP:  1.67D+00
 E= -474.531503396213     Delta-E=       -0.000082514857 Rises=F Damp=F
 DIIS: error= 1.31D-04 at cycle   7 NSaved=   7.
 NSaved= 7 IEnMin= 7 EnMin= -474.531503396213     IErMin= 7 ErrMin= 1.31D-04
 ErrMax= 1.31D-04  0.00D+00 EMaxC= 1.00D-01 BMatC= 3.54D-06 BMatP= 8.27D-06
 IDIUse=3 WtCom= 9.99D-01 WtEn= 1.31D-03
 Coeff-Com: -0.933D-03 0.411D-02 0.118D-01-0.198D-01-0.182D+00 0.138D+00
 Coeff-Com:  0.105D+01
 Coeff-En:   0.000D+00 0.000D+00 0.000D+00 0.000D+00 0.000D+00 0.000D+00
 Coeff-En:   0.100D+01
 Coeff:     -0.932D-03 0.410D-02 0.117D-01-0.198D-01-0.182D+00 0.138D+00
 Coeff:      0.105D+01
 RMSDP=3.60D-05 MaxDP=1.52D-03 DE=-8.25D-05 OVMax= 0.00D+00

 Cycle   8  Pass 1  IDiag  1:
 RMSU=  7.02D-06    CP:  9.92D-01  1.17D+00  1.06D+00  1.37D+00  1.83D+00
                    CP:  2.31D+00  1.77D+00
 E= -474.531547005935     Delta-E=       -0.000043609722 Rises=F Damp=F
 DIIS: error= 8.04D-05 at cycle   8 NSaved=   8.
 NSaved= 8 IEnMin= 8 EnMin= -474.531547005935     IErMin= 8 ErrMin= 8.04D-05
 ErrMax= 8.04D-05  0.00D+00 EMaxC= 1.00D-01 BMatC= 1.69D-06 BMatP= 3.54D-06
 IDIUse=1 WtCom= 1.00D+00 WtEn= 0.00D+00
 Coeff-Com:  0.466D-03-0.395D-02 0.876D-03 0.516D-01 0.197D-01-0.297D+00
 Coeff-Com: -0.840D+00 0.207D+01
 Coeff:      0.466D-03-0.395D-02 0.876D-03 0.516D-01 0.197D-01-0.297D+00
 Coeff:     -0.840D+00 0.207D+01
 RMSDP=6.22D-05 MaxDP=2.50D-03 DE=-4.36D-05 OVMax= 0.00D+00

 Cycle   9  Pass 1  IDiag  1:
 RMSU=  1.55D-05    CP:  9.92D-01  1.17D+00  1.07D+00  1.41D+00  2.19D+00
                    CP:  3.00D+00  3.00D+00  2.48D+00
 E= -474.531597741002     Delta-E=       -0.000050735067 Rises=F Damp=F
 DIIS: error= 6.15D-05 at cycle   9 NSaved=   9.
 NSaved= 9 IEnMin= 9 EnMin= -474.531597741002     IErMin= 9 ErrMin= 6.15D-05
 ErrMax= 6.15D-05  0.00D+00 EMaxC= 1.00D-01 BMatC= 9.31D-07 BMatP= 1.69D-06
 IDIUse=1 WtCom= 1.00D+00 WtEn= 0.00D+00
 Coeff-Com:  0.517D-03-0.200D-02-0.730D-02 0.366D-02 0.977D-01 0.624D-01
 Coeff-Com: -0.113D+01 0.492D+00 0.149D+01
 Coeff:      0.517D-03-0.200D-02-0.730D-02 0.366D-02 0.977D-01 0.624D-01
 Coeff:     -0.113D+01 0.492D+00 0.149D+01
 RMSDP=6.11D-05 MaxDP=2.48D-03 DE=-5.07D-05 OVMax= 0.00D+00

 Cycle  10  Pass 1  IDiag  1:
 RMSU=  2.50D-05    CP:  9.92D-01  1.17D+00  1.07D+00  1.44D+00  2.53D+00
                    CP:  3.00D+00  3.00D+00  3.00D+00  3.00D+00
 E= -474.531625100255     Delta-E=       -0.000027359253 Rises=F Damp=F
 DIIS: error= 3.34D-05 at cycle  10 NSaved=  10.
 NSaved=10 IEnMin=10 EnMin= -474.531625100255     IErMin=10 ErrMin= 3.34D-05
 ErrMax= 3.34D-05  0.00D+00 EMaxC= 1.00D-01 BMatC= 1.50D-07 BMatP= 9.31D-07
 IDIUse=1 WtCom= 1.00D+00 WtEn= 0.00D+00
 Coeff-Com: -0.138D-03 0.130D-02-0.681D-03-0.208D-01 0.740D-02 0.132D+00
 Coeff-Com:  0.140D+00-0.405D+00-0.265D+00 0.141D+01
 Coeff:     -0.138D-03 0.130D-02-0.681D-03-0.208D-01 0.740D-02 0.132D+00
 Coeff:      0.140D+00-0.405D+00-0.265D+00 0.141D+01
 RMSDP=2.42D-05 MaxDP=9.69D-04 DE=-2.74D-05 OVMax= 0.00D+00

 Cycle  11  Pass 1  IDiag  1:
 RMSU=  1.17D-05    CP:  9.92D-01  1.17D+00  1.07D+00  1.46D+00  2.65D+00
                    CP:  3.00D+00  3.00D+00  3.00D+00  3.00D+00  1.71D+00
 E= -474.531629616637     Delta-E=       -0.000004516382 Rises=F Damp=F
 DIIS: error= 1.71D-05 at cycle  11 NSaved=  11.
 NSaved=11 IEnMin=11 EnMin= -474.531629616637     IErMin=11 ErrMin= 1.71D-05
 ErrMax= 1.71D-05  0.00D+00 EMaxC= 1.00D-01 BMatC= 4.88D-08 BMatP= 1.50D-07
 IDIUse=1 WtCom= 1.00D+00 WtEn= 0.00D+00
 Coeff-Com: -0.964D-04 0.404D-03 0.151D-02-0.345D-02-0.107D-01-0.181D-01
 Coeff-Com:  0.204D+00-0.557D-01-0.453D+00 0.217D+00 0.112D+01
 Coeff:     -0.964D-04 0.404D-03 0.151D-02-0.345D-02-0.107D-01-0.181D-01
 Coeff:      0.204D+00-0.557D-01-0.453D+00 0.217D+00 0.112D+01
 RMSDP=1.25D-05 MaxDP=4.94D-04 DE=-4.52D-06 OVMax= 0.00D+00

 Cycle  12  Pass 1  IDiag  1:
 RMSU=  1.34D-06    CP:  9.92D-01  1.17D+00  1.08D+00  1.46D+00  2.71D+00
                    CP:  3.00D+00  3.00D+00  3.00D+00  3.00D+00  2.07D+00
                    CP:  1.51D+00
 E= -474.531630553551     Delta-E=       -0.000000936914 Rises=F Damp=F
 DIIS: error= 8.80D-06 at cycle  12 NSaved=  12.
 NSaved=12 IEnMin=12 EnMin= -474.531630553551     IErMin=12 ErrMin= 8.80D-06
 ErrMax= 8.80D-06  0.00D+00 EMaxC= 1.00D-01 BMatC= 1.01D-08 BMatP= 4.88D-08
 IDIUse=1 WtCom= 1.00D+00 WtEn= 0.00D+00
 Coeff-Com:  0.450D-04-0.347D-03 0.529D-04 0.426D-02 0.391D-02-0.348D-01
 Coeff-Com: -0.467D-01 0.135D+00 0.614D-01-0.286D+00-0.302D+00 0.147D+01
 Coeff:      0.450D-04-0.347D-03 0.529D-04 0.426D-02 0.391D-02-0.348D-01
 Coeff:     -0.467D-01 0.135D+00 0.614D-01-0.286D+00-0.302D+00 0.147D+01
 RMSDP=3.16D-06 MaxDP=1.72D-04 DE=-9.37D-07 OVMax= 0.00D+00

 Cycle  13  Pass 1  IDiag  1:
 RMSU=  1.20D-06    CP:  9.92D-01  1.17D+00  1.08D+00  1.47D+00  2.72D+00
                    CP:  3.00D+00  3.00D+00  3.00D+00  3.00D+00  2.13D+00
                    CP:  1.68D+00  2.20D+00
 E= -474.531630712757     Delta-E=       -0.000000159206 Rises=F Damp=F
 DIIS: error= 3.91D-06 at cycle  13 NSaved=  13.
 NSaved=13 IEnMin=13 EnMin= -474.531630712757     IErMin=13 ErrMin= 3.91D-06
 ErrMax= 3.91D-06  0.00D+00 EMaxC= 1.00D-01 BMatC= 3.34D-09 BMatP= 1.01D-08
 IDIUse=1 WtCom= 1.00D+00 WtEn= 0.00D+00
 Coeff-Com:  0.172D-04-0.501D-04-0.416D-03 0.216D-04 0.465D-02 0.408D-02
 Coeff-Com: -0.387D-01-0.190D-02 0.788D-01 0.491D-01-0.347D+00-0.117D-01
 Coeff-Com:  0.126D+01
 Coeff:      0.172D-04-0.501D-04-0.416D-03 0.216D-04 0.465D-02 0.408D-02
 Coeff:     -0.387D-01-0.190D-02 0.788D-01 0.491D-01-0.347D+00-0.117D-01
 Coeff:      0.126D+01
 RMSDP=1.81D-06 MaxDP=8.31D-05 DE=-1.59D-07 OVMax= 0.00D+00

 Cycle  14  Pass 1  IDiag  1:
 RMSU=  4.27D-07    CP:  9.92D-01  1.17D+00  1.08D+00  1.47D+00  2.72D+00
                    CP:  3.00D+00  3.00D+00  3.00D+00  3.00D+00  2.16D+00
                    CP:  1.75D+00  2.95D+00  1.59D+00
 E= -474.531630765118     Delta-E=       -0.000000052361 Rises=F Damp=F
 DIIS: error= 2.48D-06 at cycle  14 NSaved=  14.
 NSaved=14 IEnMin=14 EnMin= -474.531630765118     IErMin=14 ErrMin= 2.48D-06
 ErrMax= 2.48D-06  0.00D+00 EMaxC= 1.00D-01 BMatC= 1.13D-09 BMatP= 3.34D-09
 IDIUse=1 WtCom= 1.00D+00 WtEn= 0.00D+00
 Coeff-Com: -0.274D-04 0.193D-03 0.322D-04-0.224D-02-0.217D-02 0.146D-01
 Coeff-Com:  0.386D-01-0.674D-01-0.512D-01 0.159D+00 0.101D+00-0.539D+00
 Coeff-Com: -0.397D+00 0.175D+01
 Coeff:     -0.274D-04 0.193D-03 0.322D-04-0.224D-02-0.217D-02 0.146D-01
 Coeff:      0.386D-01-0.674D-01-0.512D-01 0.159D+00 0.101D+00-0.539D+00
 Coeff:     -0.397D+00 0.175D+01
 RMSDP=1.60D-06 MaxDP=6.81D-05 DE=-5.24D-08 OVMax= 0.00D+00

 Cycle  15  Pass 1  IDiag  1:
 RMSU=  9.56D-07    CP:  9.92D-01  1.17D+00  1.08D+00  1.47D+00  2.72D+00
                    CP:  3.00D+00  3.00D+00  3.00D+00  3.00D+00  2.17D+00
                    CP:  1.80D+00  3.00D+00  2.30D+00  2.31D+00
 E= -474.531630790954     Delta-E=       -0.000000025836 Rises=F Damp=F
 DIIS: error= 8.86D-07 at cycle  15 NSaved=  15.
 NSaved=15 IEnMin=15 EnMin= -474.531630790954     IErMin=15 ErrMin= 8.86D-07
 ErrMax= 8.86D-07  0.00D+00 EMaxC= 1.00D-01 BMatC= 1.86D-10 BMatP= 1.13D-09
 IDIUse=1 WtCom= 1.00D+00 WtEn= 0.00D+00
 Coeff-Com: -0.460D-05 0.174D-04 0.111D-03-0.759D-04-0.141D-02-0.116D-03
 Coeff-Com:  0.130D-01-0.449D-02-0.218D-01 0.203D-02 0.675D-01 0.247D-01
 Coeff-Com: -0.378D+00 0.831D-01 0.122D+01
 Coeff:     -0.460D-05 0.174D-04 0.111D-03-0.759D-04-0.141D-02-0.116D-03
 Coeff:      0.130D-01-0.449D-02-0.218D-01 0.203D-02 0.675D-01 0.247D-01
 Coeff:     -0.378D+00 0.831D-01 0.122D+01
 RMSDP=5.87D-07 MaxDP=2.92D-05 DE=-2.58D-08 OVMax= 0.00D+00

 Cycle  16  Pass 1  IDiag  1:
 RMSU=  7.70D-08    CP:  9.92D-01  1.17D+00  1.08D+00  1.47D+00  2.72D+00
                    CP:  3.00D+00  3.00D+00  3.00D+00  3.00D+00  2.18D+00
                    CP:  1.82D+00  3.00D+00  2.57D+00  2.93D+00  1.38D+00
 E= -474.531630794309     Delta-E=       -0.000000003355 Rises=F Damp=F
 DIIS: error= 4.06D-07 at cycle  16 NSaved=  16.
 NSaved=16 IEnMin=16 EnMin= -474.531630794309     IErMin=16 ErrMin= 4.06D-07
 ErrMax= 4.06D-07  0.00D+00 EMaxC= 1.00D-01 BMatC= 2.62D-11 BMatP= 1.86D-10
 IDIUse=1 WtCom= 1.00D+00 WtEn= 0.00D+00
 Coeff-Com:  0.602D-05-0.410D-04-0.592D-05 0.476D-03 0.330D-03-0.256D-02
 Coeff-Com: -0.846D-02 0.137D-01 0.110D-01-0.305D-01-0.286D-01 0.117D+00
 Coeff-Com:  0.761D-01-0.362D+00 0.344D-01 0.118D+01
 Coeff:      0.602D-05-0.410D-04-0.592D-05 0.476D-03 0.330D-03-0.256D-02
 Coeff:     -0.846D-02 0.137D-01 0.110D-01-0.305D-01-0.286D-01 0.117D+00
 Coeff:      0.761D-01-0.362D+00 0.344D-01 0.118D+01
 RMSDP=1.92D-07 MaxDP=8.84D-06 DE=-3.36D-09 OVMax= 0.00D+00

 Cycle  17  Pass 1  IDiag  1:
 RMSU=  6.59D-08    CP:  9.92D-01  1.17D+00  1.08D+00  1.47D+00  2.72D+00
                    CP:  3.00D+00  3.00D+00  3.00D+00  3.00D+00  2.18D+00
                    CP:  1.82D+00  3.00D+00  2.65D+00  3.00D+00  1.49D+00
                    CP:  1.52D+00
 E= -474.531630794619     Delta-E=       -0.000000000309 Rises=F Damp=F
 DIIS: error= 2.67D-07 at cycle  17 NSaved=  17.
 NSaved=17 IEnMin=17 EnMin= -474.531630794619     IErMin=17 ErrMin= 2.67D-07
 ErrMax= 2.67D-07  0.00D+00 EMaxC= 1.00D-01 BMatC= 2.69D-12 BMatP= 2.62D-11
 IDIUse=1 WtCom= 1.00D+00 WtEn= 0.00D+00
 Coeff-Com:  0.819D-06-0.433D-05-0.135D-04 0.429D-04 0.144D-03-0.894D-04
 Coeff-Com: -0.216D-02 0.173D-02 0.270D-02-0.211D-02-0.839D-02 0.484D-02
 Coeff-Com:  0.445D-01-0.389D-01-0.889D-01 0.492D-01 0.104D+01
 Coeff:      0.819D-06-0.433D-05-0.135D-04 0.429D-04 0.144D-03-0.894D-04
 Coeff:     -0.216D-02 0.173D-02 0.270D-02-0.211D-02-0.839D-02 0.484D-02
 Coeff:      0.445D-01-0.389D-01-0.889D-01 0.492D-01 0.104D+01
 RMSDP=2.63D-08 MaxDP=1.58D-06 DE=-3.09D-10 OVMax= 0.00D+00

 Cycle  18  Pass 1  IDiag  1:
 RMSU=  9.44D-09    CP:  9.92D-01  1.17D+00  1.08D+00  1.47D+00  2.72D+00
                    CP:  3.00D+00  3.00D+00  3.00D+00  3.00D+00  2.18D+00
                    CP:  1.82D+00  3.00D+00  2.66D+00  3.00D+00  1.50D+00
                    CP:  1.71D+00  1.21D+00
 E= -474.531630794660     Delta-E=       -0.000000000041 Rises=F Damp=F
 DIIS: error= 1.60D-07 at cycle  18 NSaved=  18.
 NSaved=18 IEnMin=18 EnMin= -474.531630794660     IErMin=18 ErrMin= 1.60D-07
 ErrMax= 1.60D-07  0.00D+00 EMaxC= 1.00D-01 BMatC= 5.94D-13 BMatP= 2.69D-12
 IDIUse=1 WtCom= 1.00D+00 WtEn= 0.00D+00
 Coeff-Com: -0.121D-05 0.839D-05-0.673D-06-0.953D-04-0.579D-04 0.550D-03
 Coeff-Com:  0.152D-02-0.260D-02-0.213D-02 0.596D-02 0.602D-02-0.249D-01
 Coeff-Com: -0.108D-01 0.664D-01-0.874D-03-0.256D+00-0.428D-02 0.122D+01
 Coeff:     -0.121D-05 0.839D-05-0.673D-06-0.953D-04-0.579D-04 0.550D-03
 Coeff:      0.152D-02-0.260D-02-0.213D-02 0.596D-02 0.602D-02-0.249D-01
 Coeff:     -0.108D-01 0.664D-01-0.874D-03-0.256D+00-0.428D-02 0.122D+01
 RMSDP=1.62D-08 MaxDP=1.30D-06 DE=-4.09D-11 OVMax= 0.00D+00

 Cycle  19  Pass 1  IDiag  1:
 RMSU=  5.25D-09    CP:  9.92D-01  1.17D+00  1.08D+00  1.47D+00  2.72D+00
                    CP:  3.00D+00  3.00D+00  3.00D+00  3.00D+00  2.18D+00
                    CP:  1.83D+00  3.00D+00  2.66D+00  3.00D+00  1.50D+00
                    CP:  1.83D+00  1.33D+00  1.74D+00
 E= -474.531630794660     Delta-E=        0.000000000000 Rises=F Damp=F
 DIIS: error= 7.32D-08 at cycle  19 NSaved=  19.
 NSaved=19 IEnMin=18 EnMin= -474.531630794660     IErMin=19 ErrMin= 7.32D-08
 ErrMax= 7.32D-08  0.00D+00 EMaxC= 1.00D-01 BMatC= 8.77D-14 BMatP= 5.94D-13
 IDIUse=1 WtCom= 1.00D+00 WtEn= 0.00D+00
 Coeff-Com: -0.109D-06 0.626D-06 0.228D-05-0.656D-05-0.185D-04 0.620D-05
 Coeff-Com:  0.278D-03-0.246D-03-0.338D-03 0.189D-03 0.128D-02-0.585D-03
 Coeff-Com: -0.468D-02 0.199D-02 0.142D-01 0.998D-03-0.171D+00-0.183D-01
 Coeff-Com:  0.118D+01
 Coeff:     -0.109D-06 0.626D-06 0.228D-05-0.656D-05-0.185D-04 0.620D-05
 Coeff:      0.278D-03-0.246D-03-0.338D-03 0.189D-03 0.128D-02-0.585D-03
 Coeff:     -0.468D-02 0.199D-02 0.142D-01 0.998D-03-0.171D+00-0.183D-01
 Coeff:      0.118D+01
 RMSDP=6.53D-09 MaxDP=6.51D-07 DE= 0.00D+00 OVMax= 0.00D+00

 SCF Done:  E(RZINDO/S) =  -474.531630795     A.U. after   19 cycles
            NFock= 19  Conv=0.65D-08     -V/T= 0.9515
 KE=-9.775035867237D+03 PE=-4.698304110207D-07 EE= 4.750039589855D+03
 Leave Link  502 at Fri Apr 29 05:37:06 2022, MaxMem=  6710886400 cpu:              19.1 elap:               0.8
 (Enter /sw/apps/gaussian-16.0/g16/l801.exe)
 Range of M.O.s used for correlation:     1   338
 NBasis=   338 NAE=   176 NBE=   176 NFC=     0 NFV=     0
 NROrb=    338 NOA=   176 NOB=   176 NVA=   162 NVB=   162
 Leave Link  801 at Fri Apr 29 05:37:06 2022, MaxMem=  6710886400 cpu:               0.5 elap:               0.0
 (Enter /sw/apps/gaussian-16.0/g16/l914.exe)
 RHF ground state
 Two-electron integral symmetry not used.
 MDV=  6710886400 DFT=F DoStab=F Mixed=F DoRPA=F DoScal=F NonHer=F
 Making orbital integer symmetry assigments:
 Orbital symmetries:
       Occupied  (A) (A) (A) (A) (A) (A) (A) (A) (A) (A) (A) (A)
                 (A) (A) (A) (A) (A) (A) (A) (A) (A) (A) (A) (A)
                 (A) (A) (A) (A) (A) (A) (A) (A) (A) (A) (A) (A)
                 (A) (A) (A) (A) (A) (A) (A) (A) (A) (A) (A) (A)
                 (A) (A) (A) (A) (A) (A) (A) (A) (A) (A) (A) (A)
                 (A) (A) (A) (A) (A) (A) (A) (A) (A) (A) (A) (A)
                 (A) (A) (A) (A) (A) (A) (A) (A) (A) (A) (A) (A)
                 (A) (A) (A) (A) (A) (A) (A) (A) (A) (A) (A) (A)
                 (A) (A) (A) (A) (A) (A) (A) (A) (A) (A) (A) (A)
                 (A) (A) (A) (A) (A) (A) (A) (A) (A) (A) (A) (A)
                 (A) (A) (A) (A) (A) (A) (A) (A) (A) (A) (A) (A)
                 (A) (A) (A) (A) (A) (A) (A) (A) (A) (A) (A) (A)
                 (A) (A) (A) (A) (A) (A) (A) (A) (A) (A) (A) (A)
                 (A) (A) (A) (A) (A) (A) (A) (A) (A) (A) (A) (A)
                 (A) (A) (A) (A) (A) (A) (A) (A)
       Virtual   (A) (A) (A) (A) (A) (A) (A) (A) (A) (A) (A) (A)
                 (A) (A) (A) (A) (A) (A) (A) (A) (A) (A) (A) (A)
                 (A) (A) (A) (A) (A) (A) (A) (A) (A) (A) (A) (A)
                 (A) (A) (A) (A) (A) (A) (A) (A) (A) (A) (A) (A)
                 (A) (A) (A) (A) (A) (A) (A) (A) (A) (A) (A) (A)
                 (A) (A) (A) (A) (A) (A) (A) (A) (A) (A) (A) (A)
                 (A) (A) (A) (A) (A) (A) (A) (A) (A) (A) (A) (A)
                 (A) (A) (A) (A) (A) (A) (A) (A) (A) (A) (A) (A)
                 (A) (A) (A) (A) (A) (A) (A) (A) (A) (A) (A) (A)
                 (A) (A) (A) (A) (A) (A) (A) (A) (A) (A) (A) (A)
                 (A) (A) (A) (A) (A) (A) (A) (A) (A) (A) (A) (A)
                 (A) (A) (A) (A) (A) (A) (A) (A) (A) (A) (A) (A)
                 (A) (A) (A) (A) (A) (A) (A) (A) (A) (A) (A) (A)
                 (A) (A) (A) (A) (A) (A)
    20 initial guesses have been made.
 Convergence on wavefunction:    0.001000000000000
 Davidson Disk Diagonalization:  ConvIn= 1.00D-03 SkipCon=T Conv= 1.00D-03.
 Max sub-space:  2000 roots to seek:    20 dimension of matrix:        57024
 Iteration     1 Dimension    20 NMult     0 NNew     20
 CISAX will form    20 AO SS matrices at one time.
 NMat=    20 NSing=    20 JSym2X= 0.
 New state      3 was old state      8
 New state      5 was old state      3
 Excitation Energies [eV] at current iteration:
 Root      1 :     1.629327304233923
 Root      2 :     2.190841381366062
 Root      3 :     3.215324518235326
 Root      4 :     3.345391404627202
 Root      5 :     3.439208713817530
 Root      6 :     3.521884749347939
 Root      7 :     3.695047937989199
 Root      8 :     3.729255707846974
 Root      9 :     3.906174176735271
 Root     10 :     4.054578448987765
 Root     11 :     4.083758890479884
 Root     12 :     4.168693460026452
 Root     13 :     4.327791994622109
 Root     14 :     4.442322144270798
 Root     15 :     4.497090194391966
 Root     16 :     4.651115248488799
 Root     17 :     4.693005659535775
 Root     18 :     5.085103048481622
 Root     19 :     5.663724294834858
 Root     20 :     5.671749594333266
 Iteration     2 Dimension    40 NMult    20 NNew     20
 CISAX will form    20 AO SS matrices at one time.
 NMat=    20 NSing=    20 JSym2X= 0.
 Root      1 not converged, maximum delta is    0.046475393083246
 Root      2 not converged, maximum delta is    0.031621624126076
 New state      3 was old state      4
 Root      3 not converged, maximum delta is    0.302663992086935
 New state      4 was old state      5
 Root      4 not converged, maximum delta is    0.363442946288017
 New state      5 was old state      3
 Root      5 not converged, maximum delta is    0.326969684044750
 Excitation Energies [eV] at current iteration:
 Root      1 :     1.302240910909544   Change is   -0.327086393324379
 Root      2 :     1.990481172265106   Change is   -0.200360209100956
 Root      3 :     3.021302018686761   Change is   -0.324089385940442
 Root      4 :     3.150892433062546   Change is   -0.288316280754984
 Root      5 :     3.196938042216064   Change is   -0.018386476019262
 Root      6 :     3.326686450108765   Change is   -0.195198299239174
 Root      7 :     3.453254048328485   Change is   -0.241793889660713
 Root      8 :     3.530205770351820   Change is   -0.199049937495154
 Root      9 :     3.623313417561625   Change is   -0.282860759173646
 Root     10 :     3.743864526854025   Change is   -0.310713922133739
 Root     11 :     3.782368941447549   Change is   -0.386324518578903
 Root     12 :     3.834660835824213   Change is   -0.816454412664586
 Root     13 :     3.956611128959882   Change is   -0.127147761520001
 Root     14 :     4.149423023183911   Change is   -0.292899121086886
 Root     15 :     4.230934313851330   Change is   -0.266155880540635
 Root     16 :     4.288652608163684   Change is   -0.039139386458425
 Root     17 :     4.449449391601203   Change is   -0.243556267934572
 Root     18 :     5.078789404013672   Change is   -0.006313644467950
 Root     19 :     5.613453543592574   Change is   -0.058296050740692
 Root     20 :     5.649400986442433   Change is   -0.014323308392425
 Iteration     3 Dimension    45 NMult    40 NNew      5
 CISAX will form     5 AO SS matrices at one time.
 NMat=     5 NSing=     5 JSym2X= 0.
 Root      1 not converged, maximum delta is    0.014159812419002
 Root      2 not converged, maximum delta is    0.020965627667663
 Root      3 not converged, maximum delta is    0.033432268767989
 Root      4 not converged, maximum delta is    0.093204312305387
 Root      5 not converged, maximum delta is    0.095899417556675
 Excitation Energies [eV] at current iteration:
 Root      1 :     1.287014972726988   Change is   -0.015225938182556
 Root      2 :     1.964306022449233   Change is   -0.026175149815873
 Root      3 :     2.996874213908786   Change is   -0.024427804777975
 Root      4 :     3.125317403520232   Change is   -0.025575029542314
 Root      5 :     3.189217251458253   Change is   -0.007720790757811
 Iteration     4 Dimension    50 NMult    45 NNew      5
 CISAX will form     5 AO SS matrices at one time.
 NMat=     5 NSing=     5 JSym2X= 0.
 Root      1 not converged, maximum delta is    0.001615519922806
 Root      2 not converged, maximum delta is    0.002401544704429
 Root      3 not converged, maximum delta is    0.005474910069602
 Root      4 not converged, maximum delta is    0.009303405941194
 Root      5 not converged, maximum delta is    0.011403320096098
 Excitation Energies [eV] at current iteration:
 Root      1 :     1.286268054791836   Change is   -0.000746917935152
 Root      2 :     1.963691852116748   Change is   -0.000614170332485
 Root      3 :     2.994197071558276   Change is   -0.002677142350510
 Root      4 :     3.122774438028252   Change is   -0.002542965491980
 Root      5 :     3.187925289849825   Change is   -0.001291961608427
 Iteration     5 Dimension    55 NMult    50 NNew      5
 CISAX will form     5 AO SS matrices at one time.
 NMat=     5 NSing=     5 JSym2X= 0.
 Root      1 has converged.
 Root      2 has converged.
 Root      3 not converged, maximum delta is    0.002127800949526
 Root      4 not converged, maximum delta is    0.004078810832481
 Root      5 not converged, maximum delta is    0.007178480827696
 Excitation Energies [eV] at current iteration:
 Root      1 :     1.286219331856058   Change is   -0.000048722935777
 Root      2 :     1.963657104035762   Change is   -0.000034748080985
 Root      3 :     2.993738049600883   Change is   -0.000459021957392
 Root      4 :     3.122123406740122   Change is   -0.000651031288130
 Root      5 :     3.187462789192085   Change is   -0.000462500657741
 Iteration     6 Dimension    58 NMult    55 NNew      3
 CISAX will form     3 AO SS matrices at one time.
 NMat=     3 NSing=     3 JSym2X= 0.
 Root      1 has converged.
 Root      2 has converged.
 Root      3 not converged, maximum delta is    0.005912176352705
 Root      4 not converged, maximum delta is    0.015925462054072
 Root      5 not converged, maximum delta is    0.118360702427043
 Excitation Energies [eV] at current iteration:
 Root      1 :     1.286217430850271   Change is   -0.000001901005787
 Root      2 :     1.963652576143013   Change is   -0.000004527892749
 Root      3 :     2.993535265377123   Change is   -0.000202784223761
 Root      4 :     3.121283635882154   Change is   -0.000839770857969
 Root      5 :     3.183014271679746   Change is   -0.004448517512339
 Iteration     7 Dimension    61 NMult    58 NNew      3
 CISAX will form     3 AO SS matrices at one time.
 NMat=     3 NSing=     3 JSym2X= 0.
 Root      1 has converged.
 Root      2 has converged.
 Root      3 not converged, maximum delta is    0.063179951826867
 New state      4 was old state      5
 Root      4 not converged, maximum delta is    0.505657190210792
 New state      5 was old state      4
 Root      5 not converged, maximum delta is    0.363430631061624
 Excitation Energies [eV] at current iteration:
 Root      1 :     1.286216090613280   Change is   -0.000001340236991
 Root      2 :     1.963649067868564   Change is   -0.000003508274449
 Root      3 :     2.992617913686648   Change is   -0.000917351690475
 Root      4 :     3.022104229006607   Change is   -0.160910042673140
 Root      5 :     3.092629375139910   Change is   -0.028654260742243
 Iteration     8 Dimension    64 NMult    61 NNew      3
 CISAX will form     3 AO SS matrices at one time.
 NMat=     3 NSing=     3 JSym2X= 0.
 Root      1 has converged.
 Root      2 has converged.
 New state      3 was old state      4
 Root      3 not converged, maximum delta is    0.126865570421384
 New state      4 was old state      3
 Root      4 not converged, maximum delta is    0.096617755478068
 Root      5 not converged, maximum delta is    0.091270783737037
 Excitation Energies [eV] at current iteration:
 Root      1 :     1.286215728658127   Change is   -0.000000361955154
 Root      2 :     1.963648123417999   Change is   -0.000000944450565
 Root      3 :     2.933762061029208   Change is   -0.088342167977398
 Root      4 :     2.993613524358039   Change is    0.000995610671391
 Root      5 :     3.065944356159399   Change is   -0.026685018980511
 Iteration     9 Dimension    67 NMult    64 NNew      3
 CISAX will form     3 AO SS matrices at one time.
 NMat=     3 NSing=     3 JSym2X= 0.
 Root      1 has converged.
 Root      2 has converged.
 Root      3 not converged, maximum delta is    0.021716064611225
 Root      4 not converged, maximum delta is    0.006351175069329
 Root      5 not converged, maximum delta is    0.010368561514224
 Excitation Energies [eV] at current iteration:
 Root      1 :     1.286215557886944   Change is   -0.000000170771183
 Root      2 :     1.963647945980552   Change is   -0.000000177437447
 Root      3 :     2.920317313405529   Change is   -0.013444747623679
 Root      4 :     2.993519837487100   Change is   -0.000093686870939
 Root      5 :     3.061723664702257   Change is   -0.004220691457142
 Iteration    10 Dimension    70 NMult    67 NNew      3
 CISAX will form     3 AO SS matrices at one time.
 NMat=     3 NSing=     3 JSym2X= 0.
 Root      1 has converged.
 Root      2 has converged.
 Root      3 not converged, maximum delta is    0.006530072650794
 Root      4 has converged.
 Root      5 not converged, maximum delta is    0.005468817085579
 Excitation Energies [eV] at current iteration:
 Root      1 :     1.286215534277960   Change is   -0.000000023608984
 Root      2 :     1.963647897468025   Change is   -0.000000048512527
 Root      3 :     2.918448658043447   Change is   -0.001868655362082
 Root      4 :     2.993509422331312   Change is   -0.000010415155788
 Root      5 :     3.061022937757349   Change is   -0.000700726944909
 Iteration    11 Dimension    72 NMult    70 NNew      2
 CISAX will form     2 AO SS matrices at one time.
 NMat=     2 NSing=     2 JSym2X= 0.
 Root      1 has converged.
 Root      2 has converged.
 Root      3 not converged, maximum delta is    0.002425392892072
 Root      4 has converged.
 Root      5 not converged, maximum delta is    0.002808564944876
 Excitation Energies [eV] at current iteration:
 Root      1 :     1.286215486583647   Change is   -0.000000047694313
 Root      2 :     1.963647897136928   Change is   -0.000000000331097
 Root      3 :     2.918233366178058   Change is   -0.000215291865390
 Root      4 :     2.993508458742355   Change is   -0.000000963588957
 Root      5 :     3.060878548887903   Change is   -0.000144388869446
 Iteration    12 Dimension    74 NMult    72 NNew      2
 CISAX will form     2 AO SS matrices at one time.
 NMat=     2 NSing=     2 JSym2X= 0.
 Root      1 has converged.
 Root      2 has converged.
 Root      3 has converged.
 Root      4 has converged.
 Root      5 has converged.
 Excitation Energies [eV] at current iteration:
 Root      1 :     1.286215427142748   Change is   -0.000000059440900
 Root      2 :     1.963647894094818   Change is   -0.000000003042109
 Root      3 :     2.918206048973340   Change is   -0.000027317204717
 Root      4 :     2.993508378032417   Change is   -0.000000080709938
 Root      5 :     3.060853567231535   Change is   -0.000024981656368
 Convergence achieved on expansion vectors.
 ***********************************************************************
 Excited states from <AA,BB:AA,BB> singles matrix:
 ***********************************************************************
 
 1PDM for each excited state written to RWF  633
 Ground to excited state transition densities written to RWF  633
 Ground to excited state transition electric dipole moments (Au):
       state          X           Y           Z        Dip. S.      Osc.
         1        -2.3468     -3.3970      0.9911     18.0294      0.5681
         2         0.8513     -0.4610     -0.0539      0.9401      0.0452
         3        -0.1503      0.1989     -0.0998      0.0721      0.0052
         4        -2.9775      1.4794     -0.1873     11.0891      0.8133
         5        -0.1823     -0.0801      0.0744      0.0452      0.0034
 Ground to excited state transition velocity dipole moments (Au):
       state          X           Y           Z        Dip. S.      Osc.
         1        -0.0449     -0.0222      0.0176      0.0028      0.0398
         2        -0.0084      0.0136     -0.0052      0.0003      0.0026
         3        -0.0033     -0.0204      0.0062      0.0005      0.0029
         4         0.1046     -0.0423      0.0136      0.0129      0.0783
         5         0.0046      0.0067      0.0036      0.0001      0.0005
 Ground to excited state transition magnetic dipole moments (Au):
       state          X           Y           Z
         1         0.0769      0.2546      0.4737
         2         0.0763      0.1953      0.6506
         3         0.6438     -0.3427      0.3187
         4        -0.1030     -0.0817      0.1591
         5         0.1344      0.7277     -0.2426
 Ground to excited state transition velocity quadrupole moments (Au):
       state          XX          YY          ZZ          XY          XZ          YZ
         1         0.7119      0.0752      0.0302      0.2903     -0.0513      0.0128
         2         0.1537     -0.0784     -0.0197     -0.1262      0.0325      0.0217
         3         0.1079     -0.3273     -0.0163      0.0101     -0.0327      0.0808
         4        -0.8445     -0.0286      0.1007      0.1081     -0.1241      0.1118
         5        -0.0037     -0.1037      0.0181     -0.0944     -0.0019     -0.0404
 <0|del|b> * <b|rxdel|0> + <0|del|b> * <b|delr+rdel|0>
 Rotatory Strengths (R) in cgs (10**-40 erg-esu-cm/Gauss)
       state          XX          YY          ZZ    R(velocity)    E-M Angle
         1        49.9205     -5.9261    -55.3177     -3.7744       91.50
         2        -2.5134    -23.7567     12.8841     -4.4620       96.85
         3        27.6036     -1.5142     19.1101     15.0665       66.47
         4         5.8936      5.2124    -44.2557    -11.0499      102.69
         5        11.5867     -0.3276     17.8990      9.7194       48.22
 1/2[<0|r|b>*<b|rxdel|0> + (<0|rxdel|b>*<b|r|0>)*]
 Rotatory Strengths (R) in cgs (10**-40 erg-esu-cm/Gauss)
       state          XX          YY          ZZ     R(length)
         1       127.5812    611.6807   -332.0012    135.7536
         2       -45.9593     63.6626     24.7884     14.1639
         3        68.4127     48.1909     22.4823     46.3620
         4      -216.7922     85.4734     21.0748    -36.7480
         5        17.3282     41.2195     12.7625     23.7701
  1/2[<0|del|b>*<b|r|0> + (<0|r|b>*<b|del|0>)*] (Au)
       state          X           Y           Z        Dip. S.   Osc.(frdel)
         1         0.1054      0.0755      0.0175     -0.1983     -0.1322
         2        -0.0071     -0.0062      0.0003      0.0131      0.0087
         3         0.0005     -0.0041     -0.0006      0.0042      0.0028
         4        -0.3116     -0.0626     -0.0025      0.3767      0.2512
         5        -0.0008     -0.0005      0.0003      0.0011      0.0007

 Excitation energies and oscillator strengths:
 
 Excited State   1:      Singlet-A      1.2862 eV  963.95 nm  f=0.5681  <S**2>=0.000
     175 ->178        -0.18254
     176 ->177         0.66466
 This state for optimization and/or second-order correction.
 Total Energy, E(CIS/TDA) =  -474.484363247    
 Copying the excited state density for this state as the 1-particle RhoCI density.
 
 Excited State   2:      Singlet-A      1.9636 eV  631.40 nm  f=0.0452  <S**2>=0.000
     175 ->177         0.54622
     176 ->178         0.41858
 
 Excited State   3:      Singlet-A      2.9182 eV  424.86 nm  f=0.0052  <S**2>=0.000
     167 ->179        -0.11552
     168 ->177         0.27572
     168 ->179        -0.42508
     168 ->181         0.26782
     168 ->182         0.10792
     168 ->183         0.11589
     168 ->186        -0.21793
     168 ->188        -0.10286
     171 ->177        -0.10134
 
 Excited State   4:      Singlet-A      2.9935 eV  414.18 nm  f=0.8133  <S**2>=0.000
     175 ->177        -0.32694
     176 ->178         0.46976
     176 ->179         0.29722
     176 ->181         0.17534
 
 Excited State   5:      Singlet-A      3.0609 eV  405.06 nm  f=0.0034  <S**2>=0.000
     170 ->177         0.30218
     170 ->178         0.20123
     170 ->179         0.29643
     170 ->181         0.31870
     170 ->183         0.14151
     170 ->186         0.18501
     170 ->187         0.15194
     170 ->188        -0.10340
     170 ->202        -0.10081
 SavETr:  write IOETrn=   770 NScale= 10 NData=  16 NLR=1 NState=    5 LETran=     100.
 Leave Link  914 at Fri Apr 29 05:37:11 2022, MaxMem=  6710886400 cpu:             102.8 elap:               4.3
 (Enter /sw/apps/gaussian-16.0/g16/l601.exe)
 Copying SCF densities to generalized density rwf, IOpCl= 0 IROHF=0.

 **********************************************************************

            Population analysis using the SCF density.

 **********************************************************************

 Orbital symmetries:
       Occupied  (A) (A) (A) (A) (A) (A) (A) (A) (A) (A) (A) (A)
                 (A) (A) (A) (A) (A) (A) (A) (A) (A) (A) (A) (A)
                 (A) (A) (A) (A) (A) (A) (A) (A) (A) (A) (A) (A)
                 (A) (A) (A) (A) (A) (A) (A) (A) (A) (A) (A) (A)
                 (A) (A) (A) (A) (A) (A) (A) (A) (A) (A) (A) (A)
                 (A) (A) (A) (A) (A) (A) (A) (A) (A) (A) (A) (A)
                 (A) (A) (A) (A) (A) (A) (A) (A) (A) (A) (A) (A)
                 (A) (A) (A) (A) (A) (A) (A) (A) (A) (A) (A) (A)
                 (A) (A) (A) (A) (A) (A) (A) (A) (A) (A) (A) (A)
                 (A) (A) (A) (A) (A) (A) (A) (A) (A) (A) (A) (A)
                 (A) (A) (A) (A) (A) (A) (A) (A) (A) (A) (A) (A)
                 (A) (A) (A) (A) (A) (A) (A) (A) (A) (A) (A) (A)
                 (A) (A) (A) (A) (A) (A) (A) (A) (A) (A) (A) (A)
                 (A) (A) (A) (A) (A) (A) (A) (A) (A) (A) (A) (A)
                 (A) (A) (A) (A) (A) (A) (A) (A)
       Virtual   (A) (A) (A) (A) (A) (A) (A) (A) (A) (A) (A) (A)
                 (A) (A) (A) (A) (A) (A) (A) (A) (A) (A) (A) (A)
                 (A) (A) (A) (A) (A) (A) (A) (A) (A) (A) (A) (A)
                 (A) (A) (A) (A) (A) (A) (A) (A) (A) (A) (A) (A)
                 (A) (A) (A) (A) (A) (A) (A) (A) (A) (A) (A) (A)
                 (A) (A) (A) (A) (A) (A) (A) (A) (A) (A) (A) (A)
                 (A) (A) (A) (A) (A) (A) (A) (A) (A) (A) (A) (A)
                 (A) (A) (A) (A) (A) (A) (A) (A) (A) (A) (A) (A)
                 (A) (A) (A) (A) (A) (A) (A) (A) (A) (A) (A) (A)
                 (A) (A) (A) (A) (A) (A) (A) (A) (A) (A) (A) (A)
                 (A) (A) (A) (A) (A) (A) (A) (A) (A) (A) (A) (A)
                 (A) (A) (A) (A) (A) (A) (A) (A) (A) (A) (A) (A)
                 (A) (A) (A) (A) (A) (A) (A) (A) (A) (A) (A) (A)
                 (A) (A) (A) (A) (A) (A)
 The electronic state is 1-A.
 Alpha  occ. eigenvalues --   -1.86078  -1.82102  -1.80448  -1.73991  -1.72336
 Alpha  occ. eigenvalues --   -1.71843  -1.67757  -1.62138  -1.59862  -1.58842
 Alpha  occ. eigenvalues --   -1.55397  -1.50134  -1.49666  -1.48869  -1.47124
 Alpha  occ. eigenvalues --   -1.45051  -1.43447  -1.41560  -1.39761  -1.39515
 Alpha  occ. eigenvalues --   -1.36118  -1.33513  -1.33407  -1.32427  -1.29132
 Alpha  occ. eigenvalues --   -1.27877  -1.25280  -1.22595  -1.21058  -1.18757
 Alpha  occ. eigenvalues --   -1.17157  -1.16809  -1.15355  -1.14573  -1.13716
 Alpha  occ. eigenvalues --   -1.12779  -1.11450  -1.11002  -1.04828  -1.04311
 Alpha  occ. eigenvalues --   -1.02661  -1.01456  -0.98781  -0.98366  -0.96907
 Alpha  occ. eigenvalues --   -0.96188  -0.95228  -0.94576  -0.93467  -0.92279
 Alpha  occ. eigenvalues --   -0.91233  -0.90432  -0.89699  -0.88307  -0.87740
 Alpha  occ. eigenvalues --   -0.85656  -0.84874  -0.83516  -0.82201  -0.80250
 Alpha  occ. eigenvalues --   -0.79468  -0.78550  -0.78110  -0.76916  -0.76488
 Alpha  occ. eigenvalues --   -0.75947  -0.75459  -0.74986  -0.74673  -0.73725
 Alpha  occ. eigenvalues --   -0.72990  -0.71996  -0.71865  -0.71146  -0.70466
 Alpha  occ. eigenvalues --   -0.69995  -0.69562  -0.69141  -0.68359  -0.68038
 Alpha  occ. eigenvalues --   -0.67539  -0.67131  -0.66687  -0.66265  -0.65693
 Alpha  occ. eigenvalues --   -0.65193  -0.64931  -0.64326  -0.63578  -0.63479
 Alpha  occ. eigenvalues --   -0.63290  -0.63132  -0.62795  -0.62652  -0.62189
 Alpha  occ. eigenvalues --   -0.61492  -0.61125  -0.61024  -0.60896  -0.60566
 Alpha  occ. eigenvalues --   -0.60184  -0.59911  -0.59668  -0.59340  -0.58397
 Alpha  occ. eigenvalues --   -0.58154  -0.57390  -0.57310  -0.57110  -0.56644
 Alpha  occ. eigenvalues --   -0.56008  -0.55498  -0.55233  -0.55103  -0.54502
 Alpha  occ. eigenvalues --   -0.54383  -0.54066  -0.53425  -0.53174  -0.53013
 Alpha  occ. eigenvalues --   -0.52888  -0.52712  -0.52017  -0.51754  -0.51330
 Alpha  occ. eigenvalues --   -0.51014  -0.50846  -0.50804  -0.50403  -0.50140
 Alpha  occ. eigenvalues --   -0.50000  -0.49803  -0.49616  -0.49515  -0.49037
 Alpha  occ. eigenvalues --   -0.48868  -0.48235  -0.47836  -0.47770  -0.47404
 Alpha  occ. eigenvalues --   -0.47320  -0.47106  -0.46997  -0.46729  -0.46472
 Alpha  occ. eigenvalues --   -0.46023  -0.45842  -0.45793  -0.45659  -0.45470
 Alpha  occ. eigenvalues --   -0.45277  -0.45091  -0.44868  -0.44421  -0.44363
 Alpha  occ. eigenvalues --   -0.43909  -0.43565  -0.42825  -0.42537  -0.42439
 Alpha  occ. eigenvalues --   -0.42323  -0.41753  -0.40895  -0.39450  -0.39127
 Alpha  occ. eigenvalues --   -0.38191  -0.36836  -0.35830  -0.34723  -0.34407
 Alpha  occ. eigenvalues --   -0.33916  -0.32294  -0.31877  -0.31123  -0.26465
 Alpha  occ. eigenvalues --   -0.21671
 Alpha virt. eigenvalues --   -0.08140  -0.01776  -0.00310   0.01056   0.01295
 Alpha virt. eigenvalues --    0.01693   0.02877   0.03136   0.04043   0.04841
 Alpha virt. eigenvalues --    0.06401   0.06604   0.07400   0.07861   0.08461
 Alpha virt. eigenvalues --    0.08534   0.08772   0.09031   0.09246   0.09306
 Alpha virt. eigenvalues --    0.09961   0.10012   0.10278   0.10726   0.10819
 Alpha virt. eigenvalues --    0.11193   0.11316   0.11416   0.12058   0.12327
 Alpha virt. eigenvalues --    0.12527   0.12865   0.13089   0.13133   0.13175
 Alpha virt. eigenvalues --    0.13506   0.13841   0.14144   0.14444   0.14916
 Alpha virt. eigenvalues --    0.15042   0.15356   0.15470   0.15527   0.15615
 Alpha virt. eigenvalues --    0.15695   0.16302   0.16529   0.17004   0.17051
 Alpha virt. eigenvalues --    0.17405   0.17517   0.17939   0.18009   0.18066
 Alpha virt. eigenvalues --    0.18348   0.18596   0.18695   0.19054   0.19356
 Alpha virt. eigenvalues --    0.19721   0.19889   0.20112   0.20730   0.21232
 Alpha virt. eigenvalues --    0.21363   0.21743   0.23118   0.23297   0.23525
 Alpha virt. eigenvalues --    0.23659   0.23764   0.23922   0.23932   0.23968
 Alpha virt. eigenvalues --    0.24105   0.24185   0.24231   0.24385   0.24449
 Alpha virt. eigenvalues --    0.24551   0.24640   0.24752   0.24783   0.24903
 Alpha virt. eigenvalues --    0.24961   0.24966   0.25130   0.25136   0.25145
 Alpha virt. eigenvalues --    0.25258   0.25267   0.25450   0.25523   0.25555
 Alpha virt. eigenvalues --    0.25582   0.25616   0.25674   0.25725   0.25838
 Alpha virt. eigenvalues --    0.26028   0.26042   0.26072   0.26131   0.26254
 Alpha virt. eigenvalues --    0.26477   0.26595   0.26673   0.26970   0.27001
 Alpha virt. eigenvalues --    0.27122   0.27258   0.27512   0.27524   0.27806
 Alpha virt. eigenvalues --    0.28386   0.28407   0.28434   0.28750   0.29446
 Alpha virt. eigenvalues --    0.30294   0.30379   0.30728   0.31135   0.31559
 Alpha virt. eigenvalues --    0.32074   0.32772   0.33106   0.33561   0.34561
 Alpha virt. eigenvalues --    0.34685   0.34891   0.35349   0.35668   0.35718
 Alpha virt. eigenvalues --    0.35813   0.36060   0.37291   0.37953   0.38494
 Alpha virt. eigenvalues --    0.39263   0.39285   0.39919   0.40340   0.40570
 Alpha virt. eigenvalues --    0.40837   0.41561   0.41802   0.42792   0.43334
 Alpha virt. eigenvalues --    0.43923   0.44909   0.45257   0.46060   0.46714
 Alpha virt. eigenvalues --    0.47565   0.47827   0.48507   0.51248   0.53626
 Alpha virt. eigenvalues --    0.54947   0.57418
          Condensed to atoms (all electrons):
 Mulliken charges:
               1
     1  Mg   0.431694
     2  C   -0.010903
     3  C   -0.062126
     4  C   -0.103320
     5  C   -0.093393
     6  N   -0.263417
     7  C    0.079665
     8  C   -0.009837
     9  C    0.003374
    10  C    0.154893
    11  C   -0.056811
    12  C   -0.025580
    13  C    0.000866
    14  C    0.476755
    15  O   -0.525755
    16  O   -0.262310
    17  N   -0.352327
    18  C    0.110143
    19  C    0.049731
    20  C   -0.044454
    21  C    0.169119
    22  C   -0.049156
    23  C    0.323148
    24  O   -0.509585
    25  C   -0.027609
    26  N   -0.286809
    27  C    0.175250
    28  C   -0.000864
    29  C    0.010009
    30  C    0.094933
    31  C   -0.049856
    32  C   -0.018968
    33  C   -0.045238
    34  N   -0.298749
    35  C    0.116811
    36  C   -0.012347
    37  C   -0.059035
    38  C    0.082293
    39  C   -0.031820
    40  C    0.337645
    41  O   -0.519909
    42  C    0.056152
    43  C    0.489563
    44  O   -0.514463
    45  O   -0.261490
    46  C    0.070941
    47  C    0.112436
    48  C   -0.095339
    49  C   -0.017217
    50  C   -0.046152
    51  C   -0.028176
    52  C   -0.033044
    53  C   -0.028725
    54  C   -0.015074
    55  C   -0.061130
    56  C   -0.036926
    57  C   -0.032311
    58  C   -0.034856
    59  C   -0.009134
    60  C   -0.057205
    61  C   -0.030605
    62  C   -0.029926
    63  C   -0.033355
    64  C   -0.018682
    65  C   -0.063242
    66  C   -0.062415
    67  H    0.013819
    68  H    0.043958
    69  H    0.029381
    70  H    0.048980
    71  H    0.040292
    72  H    0.024903
    73  H    0.010638
    74  H    0.030188
    75  H    0.030256
    76  H    0.020354
    77  H    0.046841
    78  H    0.037501
    79  H    0.033386
    80  H    0.033360
    81  H    0.028248
    82  H    0.036306
    83  H    0.040581
    84  H    0.026592
    85  H    0.037439
    86  H    0.030819
    87  H    0.029905
    88  H    0.022069
    89  H    0.022114
    90  H    0.007619
    91  H    0.020529
    92  H    0.021569
    93  H    0.023777
    94  H    0.011486
    95  H    0.020279
    96  H    0.031561
    97  H    0.036920
    98  H    0.051135
    99  H    0.026935
   100  H    0.055145
   101  H    0.038373
   102  H    0.038238
   103  H    0.067872
   104  H    0.029189
   105  H    0.030925
   106  H    0.028186
   107  H    0.024465
   108  H    0.039179
   109  H    0.012575
   110  H    0.016113
   111  H    0.023173
   112  H    0.009889
   113  H    0.019808
   114  H    0.021469
   115  H    0.014337
   116  H    0.014181
   117  H    0.018677
   118  H    0.019876
   119  H    0.019108
   120  H    0.007534
   121  H    0.024655
   122  H    0.017933
   123  H    0.008462
   124  H    0.011662
   125  H    0.023823
   126  H    0.022341
   127  H    0.016005
   128  H    0.013138
   129  H    0.020389
   130  H    0.018136
   131  H    0.018650
   132  H    0.020187
   133  H    0.009605
   134  H    0.019245
   135  H    0.028691
   136  H    0.015100
   137  H    0.030206
   138  H    0.010912
   139  H    0.019424
   140  H    0.017612
 Sum of Mulliken charges =  -0.00000
 Mulliken charges with hydrogens summed into heavy atoms:
               1
     1  Mg   0.431694
     2  C   -0.010903
     3  C   -0.048307
     4  C   -0.059362
     5  C   -0.064012
     6  N   -0.263417
     7  C    0.079665
     8  C    0.039143
     9  C    0.043666
    10  C    0.154893
    11  C    0.008917
    12  C    0.025029
    13  C    0.085208
    14  C    0.476755
    15  O   -0.525755
    16  O   -0.262310
    17  N   -0.352327
    18  C    0.110143
    19  C    0.049731
    20  C   -0.044454
    21  C    0.169119
    22  C    0.045838
    23  C    0.323148
    24  O   -0.509585
    25  C    0.075870
    26  N   -0.286809
    27  C    0.175250
    28  C    0.036575
    29  C    0.040828
    30  C    0.094933
    31  C    0.024232
    32  C    0.009180
    33  C    0.011594
    34  N   -0.298749
    35  C    0.116811
    36  C   -0.012347
    37  C   -0.059035
    38  C    0.082293
    39  C    0.056941
    40  C    0.337645
    41  O   -0.519909
    42  C    0.107288
    43  C    0.489563
    44  O   -0.514463
    45  O   -0.261490
    46  C    0.191394
    47  C    0.218546
    48  C   -0.066150
    49  C   -0.017217
    50  C    0.037424
    51  C    0.023578
    52  C    0.006242
    53  C    0.000972
    54  C    0.006395
    55  C   -0.013936
    56  C    0.002058
    57  C   -0.000121
    58  C   -0.008462
    59  C    0.002527
    60  C    0.004965
    61  C    0.002923
    62  C    0.006860
    63  C   -0.003563
    64  C    0.000564
    65  C    0.010754
    66  C   -0.014467
 Charge=              0.0000 electrons
 Dipole moment (field-independent basis, Debye):
    X=              7.8701    Y=              5.4347    Z=             -0.5787  Tot=              9.5818
 N-N= 4.550464647058D+03 E-N= 0.000000000000D+00  KE=-9.775035867237D+03
 Leave Link  601 at Fri Apr 29 05:37:11 2022, MaxMem=  6710886400 cpu:               0.8 elap:               0.1
 (Enter /sw/apps/gaussian-16.0/g16/l9999.exe)
 1\1\GINC-BP1-COMPUTE102\SP\RZINDO CIS\STO-3G\C55H74Mg1N4O6\OF15641\29-
 Apr-2022\0\\#p ZINDO=(nstates=5)\\step_1_chromophore_12 ZINDO\\0,1\Mg,
 0,47.671,15.89,28.454\C,0,45.344,15.655,31.048\C,0,49.48,18.075,30.515
 \C,0,49.687,16.659,25.896\C,0,45.306,14.621,26.3\N,0,47.507,16.717,30.
 64\C,0,46.409,16.477,31.405\C,0,46.52,17.235,32.787\C,0,47.758,18.22,3
 2.48\C,0,48.271,17.699,31.127\C,0,47.166,19.656,32.251\C,0,46.904,16.1
 68,33.877\C,0,47.204,16.686,35.31\C,0,48.316,16.299,36.239\O,0,49.143,
 15.375,36.104\O,0,48.287,17.131,37.333\N,0,49.43,17.014,28.32\C,0,50.0
 69,17.827,29.271\C,0,51.2,18.391,28.663\C,0,51.383,17.851,27.397\C,0,5
 0.145,17.128,27.157\C,0,52.115,19.271,29.45\C,0,52.515,18.076,26.341\O
 ,0,52.574,17.523,25.248\C,0,53.788,18.861,26.669\N,0,47.442,15.767,26.
 396\C,0,48.484,16.017,25.572\C,0,48.26,15.53,24.127\C,0,46.801,15.004,
 24.224\C,0,46.51,15.008,25.714\C,0,48.611,16.583,23.024\C,0,46.486,13.
 65,23.531\C,0,46.966,12.438,24.21\N,0,45.756,15.167,28.599\C,0,44.938,
 14.697,27.686\C,0,43.698,14.18,28.274\C,0,43.863,14.561,29.644\C,0,45.
 089,15.181,29.786\C,0,42.778,13.18,27.748\C,0,43.211,14.491,30.94\O,0,
 42.192,13.935,31.282\C,0,44.145,15.276,31.869\C,0,43.419,16.438,32.555
 \O,0,43.17,17.49,32.026\O,0,43.042,16.055,33.82\C,0,42.339,17.133,34.5
 53\C,0,49.502,17.037,38.132\C,0,49.561,18.263,39.014\C,0,50.651,18.917
 ,39.569\C,0,52.126,18.574,39.316\C,0,50.515,20.089,40.599\C,0,50.806,2
 1.538,39.927\C,0,52.142,22.186,40.176\C,0,53.087,22.243,38.992\C,0,54.
 529,21.795,39.323\C,0,53.15,23.665,38.33\C,0,52.771,23.536,36.896\C,0,
 52.587,24.871,36.211\C,0,53.013,24.9,34.764\C,0,54.112,25.946,34.523\C
 ,0,51.83,24.921,33.76\C,0,52.077,24.161,32.463\C,0,50.842,23.45,31.96\
 C,0,50.397,24.029,30.56\C,0,48.866,23.981,30.309\C,0,51.228,23.381,29.
 377\H,0,50.098,18.647,31.209\H,0,50.414,16.702,25.082\H,0,44.812,14.14
 ,25.454\H,0,45.634,17.83,33.01\H,0,48.522,18.246,33.258\H,0,47.138,20.
 013,31.222\H,0,47.84,20.429,32.621\H,0,46.166,19.793,32.662\H,0,47.758
 ,15.61,33.494\H,0,46.098,15.434,33.898\H,0,46.248,16.587,35.825\H,0,47
 .421,17.732,35.097\H,0,51.803,19.483,30.473\H,0,52.347,20.143,28.837\H
 ,0,53.025,18.677,29.539\H,0,53.618,19.925,26.834\H,0,54.612,18.703,25.
 973\H,0,54.192,18.417,27.579\H,0,49.003,14.733,24.135\H,0,46.204,15.80
 5,23.788\H,0,49.4,17.254,23.362\H,0,47.726,17.181,22.805\H,0,48.986,16
 .126,22.108\H,0,46.997,13.776,22.577\H,0,45.423,13.597,23.295\H,0,46.2
 51,12.146,24.979\H,0,47.972,12.581,24.604\H,0,46.988,11.578,23.54\H,0,
 43.376,12.596,27.048\H,0,41.933,13.49,27.133\H,0,42.416,12.613,28.605\
 H,0,44.526,14.581,32.618\H,0,41.578,16.677,35.186\H,0,41.709,17.79,33.
 953\H,0,43.023,17.668,35.211\H,0,50.335,17.193,37.446\H,0,49.725,16.09
 6,38.635\H,0,48.606,18.712,39.285\H,0,52.82,19.021,40.028\H,0,52.313,1
 8.945,38.308\H,0,52.238,17.491,39.253\H,0,51.045,19.916,41.536\H,0,49.
 456,20.241,40.808\H,0,50.036,22.216,40.294\H,0,50.716,21.469,38.843\H,
 0,52.716,21.608,40.9\H,0,52.016,23.147,40.674\H,0,52.732,21.57,38.211\
 H,0,54.792,20.96,38.675\H,0,54.634,21.465,40.357\H,0,55.297,22.563,39.
 229\H,0,54.124,24.154,38.327\H,0,52.464,24.251,38.941\H,0,51.77,23.108
 ,36.945\H,0,53.411,22.819,36.381\H,0,52.991,25.651,36.856\H,0,51.514,2
 5.016,36.342\H,0,53.47,23.924,34.599\H,0,54.939,25.416,34.05\H,0,54.37
 6,26.489,35.431\H,0,53.726,26.752,33.899\H,0,51.684,25.986,33.578\H,0,
 50.872,24.625,34.187\H,0,52.82,23.364,32.479\H,0,52.454,24.89,31.745\H
 ,0,50.003,23.46,32.656\H,0,51.087,22.393,31.863\H,0,50.692,25.078,30.5
 97\H,0,48.584,25.027,30.189\H,0,48.483,23.592,31.253\H,0,48.593,23.266
 ,29.534\H,0,51.993,24.116,29.127\H,0,50.656,23.163,28.475\H,0,51.796,2
 2.472,29.573\\Version=ES64L-G16RevA.03\State=1-A\HF=-474.5316308\RMSD=
 6.527e-09\PG=C01 [X(C55H74Mg1N4O6)]\\@


 THE MORE POWERFUL THE METHOD, THE MORE CATASTROPHIC THE ERRORS.
     -- M.D. KAMEN
 Job cpu time:       0 days  0 hours  2 minutes 26.3 seconds.
 Elapsed time:       0 days  0 hours  0 minutes  6.3 seconds.
 File lengths (MBytes):  RWF=   1263 Int=      0 D2E=      0 Chk=     38 Scr=      1
 Normal termination of Gaussian 16 at Fri Apr 29 05:37:11 2022.
