 Entering Gaussian System, Link 0=g16
 Initial command:
 /sw/apps/gaussian-16.0/g16/l1.exe "/tmp/Gau-197299.inp" -scrdir="/tmp/"
 Entering Link 1 = /sw/apps/gaussian-16.0/g16/l1.exe PID=    197300.
  
 Copyright (c) 1988,1990,1992,1993,1995,1998,2003,2009,2016,
            Gaussian, Inc.  All Rights Reserved.
  
 This is part of the Gaussian(R) 16 program.  It is based on
 the Gaussian(R) 09 system (copyright 2009, Gaussian, Inc.),
 the Gaussian(R) 03 system (copyright 2003, Gaussian, Inc.),
 the Gaussian(R) 98 system (copyright 1998, Gaussian, Inc.),
 the Gaussian(R) 94 system (copyright 1995, Gaussian, Inc.),
 the Gaussian 92(TM) system (copyright 1992, Gaussian, Inc.),
 the Gaussian 90(TM) system (copyright 1990, Gaussian, Inc.),
 the Gaussian 88(TM) system (copyright 1988, Gaussian, Inc.),
 the Gaussian 86(TM) system (copyright 1986, Carnegie Mellon
 University), and the Gaussian 82(TM) system (copyright 1983,
 Carnegie Mellon University). Gaussian is a federally registered
 trademark of Gaussian, Inc.
  
 This software contains proprietary and confidential information,
 including trade secrets, belonging to Gaussian, Inc.
  
 This software is provided under written license and may be
 used, copied, transmitted, or stored only in accord with that
 written license.
  
 The following legend is applicable only to US Government
 contracts under FAR:
  
                    RESTRICTED RIGHTS LEGEND
  
 Use, reproduction and disclosure by the US Government is
 subject to restrictions as set forth in subparagraphs (a)
 and (c) of the Commercial Computer Software - Restricted
 Rights clause in FAR 52.227-19.
  
 Gaussian, Inc.
 340 Quinnipiac St., Bldg. 40, Wallingford CT 06492
  
  
 ---------------------------------------------------------------
 Warning -- This program may not be used in any manner that
 competes with the business of Gaussian, Inc. or will provide
 assistance to any competitor of Gaussian, Inc.  The licensee
 of this program is prohibited from giving any competitor of
 Gaussian, Inc. access to this program.  By using this program,
 the user acknowledges that Gaussian, Inc. is engaged in the
 business of creating and licensing software in the field of
 computational chemistry and represents and warrants to the
 licensee that it is not a competitor of Gaussian, Inc. and that
 it will not use this program in any manner prohibited above.
 ---------------------------------------------------------------
  

 Cite this work as:
 Gaussian 16, Revision A.03,
 M. J. Frisch, G. W. Trucks, H. B. Schlegel, G. E. Scuseria, 
 M. A. Robb, J. R. Cheeseman, G. Scalmani, V. Barone, 
 G. A. Petersson, H. Nakatsuji, X. Li, M. Caricato, A. V. Marenich, 
 J. Bloino, B. G. Janesko, R. Gomperts, B. Mennucci, H. P. Hratchian, 
 J. V. Ortiz, A. F. Izmaylov, J. L. Sonnenberg, D. Williams-Young, 
 F. Ding, F. Lipparini, F. Egidi, J. Goings, B. Peng, A. Petrone, 
 T. Henderson, D. Ranasinghe, V. G. Zakrzewski, J. Gao, N. Rega, 
 G. Zheng, W. Liang, M. Hada, M. Ehara, K. Toyota, R. Fukuda, 
 J. Hasegawa, M. Ishida, T. Nakajima, Y. Honda, O. Kitao, H. Nakai, 
 T. Vreven, K. Throssell, J. A. Montgomery, Jr., J. E. Peralta, 
 F. Ogliaro, M. J. Bearpark, J. J. Heyd, E. N. Brothers, K. N. Kudin, 
 V. N. Staroverov, T. A. Keith, R. Kobayashi, J. Normand, 
 K. Raghavachari, A. P. Rendell, J. C. Burant, S. S. Iyengar, 
 J. Tomasi, M. Cossi, J. M. Millam, M. Klene, C. Adamo, R. Cammi, 
 J. W. Ochterski, R. L. Martin, K. Morokuma, O. Farkas, 
 J. B. Foresman, and D. J. Fox, Gaussian, Inc., Wallingford CT, 2016.
 
 ******************************************
 Gaussian 16:  ES64L-G16RevA.03 25-Dec-2016
                 4-May-2022 
 ******************************************
 %nproc=24
 Will use up to   24 processors via shared memory.
 %mem=75GB
 --------------------------------
 #p wB97XD/Def2SVP td=(nstates=5)
 --------------------------------
 1/38=1,172=1/1;
 2/12=2,17=6,18=5,40=1/2;
 3/5=43,7=101,11=9,25=1,30=1,74=-58/1,2,3,8;
 4//1;
 5/5=2,38=5/2;
 8/6=1,10=1,108=5/1;
 9/41=5,42=1,70=2/14;
 6/7=2,8=2,9=2,10=2/1;
 99/5=1,9=1/99;
 Leave Link    1 at Wed May  4 02:04:46 2022, MaxMem= 10066329600 cpu:               0.7 elap:               0.0
 (Enter /sw/apps/gaussian-16.0/g16/l101.exe)
 -----------------------------------------------------
 step_1251_chromophore_20 TDDFT with wB97XD functional
 -----------------------------------------------------
 Symbolic Z-matrix:
 Charge =  0 Multiplicity = 1
 Mg                    6.458     58.052    41.721 
 C                     5.024     54.841    41.348 
 C                     9.394     56.738    40.752 
 C                     7.465     61.125    41.255 
 C                     3.053     59.25     42.298 
 N                     7.061     56.018    40.929 
 C                     6.351     54.834    40.972 
 C                     7.253     53.623    40.702 
 C                     8.688     54.27     40.868 
 C                     8.384     55.765    40.81 
 C                     9.59      53.634    41.956 
 C                     6.939     52.91     39.322 
 C                     7.229     51.431    39.239 
 C                     6.453     50.653    38.127 
 O                     5.847     49.629    38.328 
 O                     6.7       51.182    36.922 
 N                     8.233     58.823    41.156 
 C                     9.336     58.162    40.762 
 C                     10.377    59.071    40.383 
 C                     9.89      60.404    40.591 
 C                     8.446     60.146    41.005 
 C                     11.725    58.607    39.691 
 C                     10.626    61.697    40.26 
 O                     11.78     61.745    39.813 
 C                     9.901     63.068    40.584 
 N                     5.326     59.912    41.598 
 C                     6.084     61.025    41.542 
 C                     5.193     62.235    41.972 
 C                     3.808     61.611    42.367 
 C                     4.059     60.176    42.079 
 C                     5.794     63.06     43.132 
 C                     2.615     62.263    41.665 
 C                     1.404     62.867    42.516 
 N                     4.456     57.23     41.981 
 C                     3.17      57.817    42.237 
 C                     2.221     56.74     42.351 
 C                     2.911     55.589    42.047 
 C                     4.262     55.94     41.787 
 C                     0.699     56.835    42.64 
 C                     2.721     54.137    41.957 
 O                     1.793     53.393    42.259 
 C                     4.036     53.618    41.357 
 C                     3.561     53.079    40.016 
 O                     3.307     53.718    39.056 
 O                     3.484     51.709    40.178 
 C                     2.787     50.863    39.195 
 C                     5.888     50.667    35.784 
 C                     6.4       51.384    34.574 
 C                     5.77      51.53     33.355 
 C                     4.434     50.926    32.895 
 C                     6.358     52.456    32.253 
 C                     5.512     53.753    32.06 
 C                     4.941     53.833    30.638 
 C                     5.331     55.246    30.069 
 C                     4.032     55.849    29.39 
 C                     6.502     55.267    29.083 
 C                     7.367     56.489    29.325 
 C                     8.413     56.314    30.452 
 C                     9.865     56.526    29.956 
 C                     10.899    55.672    30.805 
 C                     10.166    58.074    29.808 
 C                     10.92     58.505    28.553 
 C                     12.169    59.394    28.822 
 C                     13.452    58.489    28.813 
 C                     14.246    58.535    30.139 
 C                     14.403    58.793    27.592 
 H                     10.427    56.394    40.673 
 H                     7.65      62.199    41.191 
 H                     2.039     59.564    42.556 
 H                     7.145     52.91     41.52 
 H                     9.247     54.144    39.941 
 H                     8.996     53.129    42.718 
 H                     10.022    54.426    42.567 
 H                     10.386    52.988    41.586 
 H                     7.581     53.342    38.555 
 H                     5.894     53.095    39.074 
 H                     6.788     51.162    40.199 
 H                     8.243     51.041    39.149 
 H                     11.677    58.853    38.631 
 H                     11.848    57.548    39.915 
 H                     12.623    59.029    40.144 
 H                     9.555     62.988    41.614 
 H                     9.087     63.23     39.876 
 H                     10.626    63.881    40.544 
 H                     5.218     62.805    41.044 
 H                     3.774     61.71     43.452 
 H                     6.288     63.889    42.625 
 H                     6.403     62.373    43.719 
 H                     4.966     63.547    43.648 
 H                     2.062     61.526    41.083 
 H                     2.92      62.968    40.893 
 H                     1.643     62.766    43.574 
 H                     0.431     62.393    42.384 
 H                     1.268     63.923    42.284 
 H                     0.477     57.898    42.739 
 H                     0.344     56.467    43.602 
 H                     0.248     56.31     41.798 
 H                     4.453     52.822    41.975 
 H                     1.704     50.846    39.32 
 H                     3.078     49.815    39.265 
 H                     3.054     51.255    38.214 
 H                     4.834     50.849    35.996 
 H                     6.27      49.655    35.649 
 H                     7.298     51.986    34.716 
 H                     4.504     50.632    31.848 
 H                     3.738     51.74     33.097 
 H                     4.2       50.066    33.522 
 H                     6.653     51.854    31.393 
 H                     7.323     52.895    32.507 
 H                     6.055     54.591    32.497 
 H                     4.598     53.786    32.652 
 H                     3.861     53.685    30.639 
 H                     5.513     53.132    30.03 
 H                     5.597     55.91     30.891 
 H                     3.314     55.039    29.26 
 H                     4.245     56.369    28.457 
 H                     3.581     56.647    29.981 
 H                     6.246     55.255    28.023 
 H                     7.034     54.35     29.338 
 H                     6.811     57.323    29.753 
 H                     7.664     56.99     28.404 
 H                     8.227     55.263    30.674 
 H                     8.171     56.91     31.332 
 H                     9.883     55.993    29.006 
 H                     10.432    55.183    31.66 
 H                     11.826    56.184    31.062 
 H                     11.287    54.819    30.247 
 H                     10.82     58.309    30.647 
 H                     9.226     58.623    29.866 
 H                     10.176    59.107    28.031 
 H                     11.083    57.733    27.801 
 H                     12.061    59.733    29.852 
 H                     12.247    60.133    28.024 
 H                     13.128    57.453    28.705 
 H                     14.097    59.52     30.582 
 H                     15.325    58.526    29.99 
 H                     14.012    57.694    30.792 
 H                     13.962    58.186    26.801 
 H                     15.468    58.659    27.782 
 H                     14.386    59.795    27.163 
 
 ITRead=  0  0  0  0  0  0  0  0  0  0  0  0  0  0  0  0  0  0  0  0
 ITRead=  0  0  0  0  0  0  0  0  0  0  0  0  0  0  0  0  0  0  0  0
 ITRead=  0  0  0  0  0  0  0  0  0  0  0  0  0  0  0  0  0  0  0  0
 ITRead=  0  0  0  0  0  0  0  0  0  0  0  0  0  0  0  0  0  0  0  0
 ITRead=  0  0  0  0  0  0  0  0  0  0  0  0  0  0  0  0  0  0  0  0
 ITRead=  0  0  0  0  0  0  0  0  0  0  0  0  0  0  0  0  0  0  0  0
 ITRead=  0  0  0  0  0  0  0  0  0  0  0  0  0  0  0  0  0  0  0  0
 MicOpt= -1 -1 -1 -1 -1 -1 -1 -1 -1 -1 -1 -1 -1 -1 -1 -1 -1 -1 -1 -1
 MicOpt= -1 -1 -1 -1 -1 -1 -1 -1 -1 -1 -1 -1 -1 -1 -1 -1 -1 -1 -1 -1
 MicOpt= -1 -1 -1 -1 -1 -1 -1 -1 -1 -1 -1 -1 -1 -1 -1 -1 -1 -1 -1 -1
 MicOpt= -1 -1 -1 -1 -1 -1 -1 -1 -1 -1 -1 -1 -1 -1 -1 -1 -1 -1 -1 -1
 MicOpt= -1 -1 -1 -1 -1 -1 -1 -1 -1 -1 -1 -1 -1 -1 -1 -1 -1 -1 -1 -1
 MicOpt= -1 -1 -1 -1 -1 -1 -1 -1 -1 -1 -1 -1 -1 -1 -1 -1 -1 -1 -1 -1
 MicOpt= -1 -1 -1 -1 -1 -1 -1 -1 -1 -1 -1 -1 -1 -1 -1 -1 -1 -1 -1 -1
 NAtoms=    140 NQM=      140 NQMF=       0 NMMI=      0 NMMIF=      0
                NMic=       0 NMicF=      0.
                    Isotopes and Nuclear Properties:
 (Nuclear quadrupole moments (NQMom) in fm**2, nuclear magnetic moments (NMagM)
  in nuclear magnetons)

  Atom         1           2           3           4           5           6           7           8           9          10
 IAtWgt=          24          12          12          12          12          14          12          12          12          12
 AtmWgt=  23.9850450  12.0000000  12.0000000  12.0000000  12.0000000  14.0030740  12.0000000  12.0000000  12.0000000  12.0000000
 NucSpn=           0           0           0           0           0           2           0           0           0           0
 AtZEff=  -0.0000000  -0.0000000  -0.0000000  -0.0000000  -0.0000000  -0.0000000  -0.0000000  -0.0000000  -0.0000000  -0.0000000
 NQMom=    0.0000000   0.0000000   0.0000000   0.0000000   0.0000000   2.0440000   0.0000000   0.0000000   0.0000000   0.0000000
 NMagM=    0.0000000   0.0000000   0.0000000   0.0000000   0.0000000   0.4037610   0.0000000   0.0000000   0.0000000   0.0000000
 AtZNuc=  12.0000000   6.0000000   6.0000000   6.0000000   6.0000000   7.0000000   6.0000000   6.0000000   6.0000000   6.0000000

  Atom        11          12          13          14          15          16          17          18          19          20
 IAtWgt=          12          12          12          12          16          16          14          12          12          12
 AtmWgt=  12.0000000  12.0000000  12.0000000  12.0000000  15.9949146  15.9949146  14.0030740  12.0000000  12.0000000  12.0000000
 NucSpn=           0           0           0           0           0           0           2           0           0           0
 AtZEff=  -0.0000000  -0.0000000  -0.0000000  -0.0000000  -0.0000000  -0.0000000  -0.0000000  -0.0000000  -0.0000000  -0.0000000
 NQMom=    0.0000000   0.0000000   0.0000000   0.0000000   0.0000000   0.0000000   2.0440000   0.0000000   0.0000000   0.0000000
 NMagM=    0.0000000   0.0000000   0.0000000   0.0000000   0.0000000   0.0000000   0.4037610   0.0000000   0.0000000   0.0000000
 AtZNuc=   6.0000000   6.0000000   6.0000000   6.0000000   8.0000000   8.0000000   7.0000000   6.0000000   6.0000000   6.0000000

  Atom        21          22          23          24          25          26          27          28          29          30
 IAtWgt=          12          12          12          16          12          14          12          12          12          12
 AtmWgt=  12.0000000  12.0000000  12.0000000  15.9949146  12.0000000  14.0030740  12.0000000  12.0000000  12.0000000  12.0000000
 NucSpn=           0           0           0           0           0           2           0           0           0           0
 AtZEff=  -0.0000000  -0.0000000  -0.0000000  -0.0000000  -0.0000000  -0.0000000  -0.0000000  -0.0000000  -0.0000000  -0.0000000
 NQMom=    0.0000000   0.0000000   0.0000000   0.0000000   0.0000000   2.0440000   0.0000000   0.0000000   0.0000000   0.0000000
 NMagM=    0.0000000   0.0000000   0.0000000   0.0000000   0.0000000   0.4037610   0.0000000   0.0000000   0.0000000   0.0000000
 AtZNuc=   6.0000000   6.0000000   6.0000000   8.0000000   6.0000000   7.0000000   6.0000000   6.0000000   6.0000000   6.0000000

  Atom        31          32          33          34          35          36          37          38          39          40
 IAtWgt=          12          12          12          14          12          12          12          12          12          12
 AtmWgt=  12.0000000  12.0000000  12.0000000  14.0030740  12.0000000  12.0000000  12.0000000  12.0000000  12.0000000  12.0000000
 NucSpn=           0           0           0           2           0           0           0           0           0           0
 AtZEff=  -0.0000000  -0.0000000  -0.0000000  -0.0000000  -0.0000000  -0.0000000  -0.0000000  -0.0000000  -0.0000000  -0.0000000
 NQMom=    0.0000000   0.0000000   0.0000000   2.0440000   0.0000000   0.0000000   0.0000000   0.0000000   0.0000000   0.0000000
 NMagM=    0.0000000   0.0000000   0.0000000   0.4037610   0.0000000   0.0000000   0.0000000   0.0000000   0.0000000   0.0000000
 AtZNuc=   6.0000000   6.0000000   6.0000000   7.0000000   6.0000000   6.0000000   6.0000000   6.0000000   6.0000000   6.0000000

  Atom        41          42          43          44          45          46          47          48          49          50
 IAtWgt=          16          12          12          16          16          12          12          12          12          12
 AtmWgt=  15.9949146  12.0000000  12.0000000  15.9949146  15.9949146  12.0000000  12.0000000  12.0000000  12.0000000  12.0000000
 NucSpn=           0           0           0           0           0           0           0           0           0           0
 AtZEff=  -0.0000000  -0.0000000  -0.0000000  -0.0000000  -0.0000000  -0.0000000  -0.0000000  -0.0000000  -0.0000000  -0.0000000
 NQMom=    0.0000000   0.0000000   0.0000000   0.0000000   0.0000000   0.0000000   0.0000000   0.0000000   0.0000000   0.0000000
 NMagM=    0.0000000   0.0000000   0.0000000   0.0000000   0.0000000   0.0000000   0.0000000   0.0000000   0.0000000   0.0000000
 AtZNuc=   8.0000000   6.0000000   6.0000000   8.0000000   8.0000000   6.0000000   6.0000000   6.0000000   6.0000000   6.0000000

  Atom        51          52          53          54          55          56          57          58          59          60
 IAtWgt=          12          12          12          12          12          12          12          12          12          12
 AtmWgt=  12.0000000  12.0000000  12.0000000  12.0000000  12.0000000  12.0000000  12.0000000  12.0000000  12.0000000  12.0000000
 NucSpn=           0           0           0           0           0           0           0           0           0           0
 AtZEff=  -0.0000000  -0.0000000  -0.0000000  -0.0000000  -0.0000000  -0.0000000  -0.0000000  -0.0000000  -0.0000000  -0.0000000
 NQMom=    0.0000000   0.0000000   0.0000000   0.0000000   0.0000000   0.0000000   0.0000000   0.0000000   0.0000000   0.0000000
 NMagM=    0.0000000   0.0000000   0.0000000   0.0000000   0.0000000   0.0000000   0.0000000   0.0000000   0.0000000   0.0000000
 AtZNuc=   6.0000000   6.0000000   6.0000000   6.0000000   6.0000000   6.0000000   6.0000000   6.0000000   6.0000000   6.0000000

  Atom        61          62          63          64          65          66          67          68          69          70
 IAtWgt=          12          12          12          12          12          12           1           1           1           1
 AtmWgt=  12.0000000  12.0000000  12.0000000  12.0000000  12.0000000  12.0000000   1.0078250   1.0078250   1.0078250   1.0078250
 NucSpn=           0           0           0           0           0           0           1           1           1           1
 AtZEff=  -0.0000000  -0.0000000  -0.0000000  -0.0000000  -0.0000000  -0.0000000  -0.0000000  -0.0000000  -0.0000000  -0.0000000
 NQMom=    0.0000000   0.0000000   0.0000000   0.0000000   0.0000000   0.0000000   0.0000000   0.0000000   0.0000000   0.0000000
 NMagM=    0.0000000   0.0000000   0.0000000   0.0000000   0.0000000   0.0000000   2.7928460   2.7928460   2.7928460   2.7928460
 AtZNuc=   6.0000000   6.0000000   6.0000000   6.0000000   6.0000000   6.0000000   1.0000000   1.0000000   1.0000000   1.0000000

  Atom        71          72          73          74          75          76          77          78          79          80
 IAtWgt=           1           1           1           1           1           1           1           1           1           1
 AtmWgt=   1.0078250   1.0078250   1.0078250   1.0078250   1.0078250   1.0078250   1.0078250   1.0078250   1.0078250   1.0078250
 NucSpn=           1           1           1           1           1           1           1           1           1           1
 AtZEff=  -0.0000000  -0.0000000  -0.0000000  -0.0000000  -0.0000000  -0.0000000  -0.0000000  -0.0000000  -0.0000000  -0.0000000
 NQMom=    0.0000000   0.0000000   0.0000000   0.0000000   0.0000000   0.0000000   0.0000000   0.0000000   0.0000000   0.0000000
 NMagM=    2.7928460   2.7928460   2.7928460   2.7928460   2.7928460   2.7928460   2.7928460   2.7928460   2.7928460   2.7928460
 AtZNuc=   1.0000000   1.0000000   1.0000000   1.0000000   1.0000000   1.0000000   1.0000000   1.0000000   1.0000000   1.0000000

  Atom        81          82          83          84          85          86          87          88          89          90
 IAtWgt=           1           1           1           1           1           1           1           1           1           1
 AtmWgt=   1.0078250   1.0078250   1.0078250   1.0078250   1.0078250   1.0078250   1.0078250   1.0078250   1.0078250   1.0078250
 NucSpn=           1           1           1           1           1           1           1           1           1           1
 AtZEff=  -0.0000000  -0.0000000  -0.0000000  -0.0000000  -0.0000000  -0.0000000  -0.0000000  -0.0000000  -0.0000000  -0.0000000
 NQMom=    0.0000000   0.0000000   0.0000000   0.0000000   0.0000000   0.0000000   0.0000000   0.0000000   0.0000000   0.0000000
 NMagM=    2.7928460   2.7928460   2.7928460   2.7928460   2.7928460   2.7928460   2.7928460   2.7928460   2.7928460   2.7928460
 AtZNuc=   1.0000000   1.0000000   1.0000000   1.0000000   1.0000000   1.0000000   1.0000000   1.0000000   1.0000000   1.0000000

  Atom        91          92          93          94          95          96          97          98          99         100
 IAtWgt=           1           1           1           1           1           1           1           1           1           1
 AtmWgt=   1.0078250   1.0078250   1.0078250   1.0078250   1.0078250   1.0078250   1.0078250   1.0078250   1.0078250   1.0078250
 NucSpn=           1           1           1           1           1           1           1           1           1           1
 AtZEff=  -0.0000000  -0.0000000  -0.0000000  -0.0000000  -0.0000000  -0.0000000  -0.0000000  -0.0000000  -0.0000000  -0.0000000
 NQMom=    0.0000000   0.0000000   0.0000000   0.0000000   0.0000000   0.0000000   0.0000000   0.0000000   0.0000000   0.0000000
 NMagM=    2.7928460   2.7928460   2.7928460   2.7928460   2.7928460   2.7928460   2.7928460   2.7928460   2.7928460   2.7928460
 AtZNuc=   1.0000000   1.0000000   1.0000000   1.0000000   1.0000000   1.0000000   1.0000000   1.0000000   1.0000000   1.0000000

  Atom       101         102         103         104         105         106         107         108         109         110
 IAtWgt=           1           1           1           1           1           1           1           1           1           1
 AtmWgt=   1.0078250   1.0078250   1.0078250   1.0078250   1.0078250   1.0078250   1.0078250   1.0078250   1.0078250   1.0078250
 NucSpn=           1           1           1           1           1           1           1           1           1           1
 AtZEff=  -0.0000000  -0.0000000  -0.0000000  -0.0000000  -0.0000000  -0.0000000  -0.0000000  -0.0000000  -0.0000000  -0.0000000
 NQMom=    0.0000000   0.0000000   0.0000000   0.0000000   0.0000000   0.0000000   0.0000000   0.0000000   0.0000000   0.0000000
 NMagM=    2.7928460   2.7928460   2.7928460   2.7928460   2.7928460   2.7928460   2.7928460   2.7928460   2.7928460   2.7928460
 AtZNuc=   1.0000000   1.0000000   1.0000000   1.0000000   1.0000000   1.0000000   1.0000000   1.0000000   1.0000000   1.0000000

  Atom       111         112         113         114         115         116         117         118         119         120
 IAtWgt=           1           1           1           1           1           1           1           1           1           1
 AtmWgt=   1.0078250   1.0078250   1.0078250   1.0078250   1.0078250   1.0078250   1.0078250   1.0078250   1.0078250   1.0078250
 NucSpn=           1           1           1           1           1           1           1           1           1           1
 AtZEff=  -0.0000000  -0.0000000  -0.0000000  -0.0000000  -0.0000000  -0.0000000  -0.0000000  -0.0000000  -0.0000000  -0.0000000
 NQMom=    0.0000000   0.0000000   0.0000000   0.0000000   0.0000000   0.0000000   0.0000000   0.0000000   0.0000000   0.0000000
 NMagM=    2.7928460   2.7928460   2.7928460   2.7928460   2.7928460   2.7928460   2.7928460   2.7928460   2.7928460   2.7928460
 AtZNuc=   1.0000000   1.0000000   1.0000000   1.0000000   1.0000000   1.0000000   1.0000000   1.0000000   1.0000000   1.0000000

  Atom       121         122         123         124         125         126         127         128         129         130
 IAtWgt=           1           1           1           1           1           1           1           1           1           1
 AtmWgt=   1.0078250   1.0078250   1.0078250   1.0078250   1.0078250   1.0078250   1.0078250   1.0078250   1.0078250   1.0078250
 NucSpn=           1           1           1           1           1           1           1           1           1           1
 AtZEff=  -0.0000000  -0.0000000  -0.0000000  -0.0000000  -0.0000000  -0.0000000  -0.0000000  -0.0000000  -0.0000000  -0.0000000
 NQMom=    0.0000000   0.0000000   0.0000000   0.0000000   0.0000000   0.0000000   0.0000000   0.0000000   0.0000000   0.0000000
 NMagM=    2.7928460   2.7928460   2.7928460   2.7928460   2.7928460   2.7928460   2.7928460   2.7928460   2.7928460   2.7928460
 AtZNuc=   1.0000000   1.0000000   1.0000000   1.0000000   1.0000000   1.0000000   1.0000000   1.0000000   1.0000000   1.0000000

  Atom       131         132         133         134         135         136         137         138         139         140
 IAtWgt=           1           1           1           1           1           1           1           1           1           1
 AtmWgt=   1.0078250   1.0078250   1.0078250   1.0078250   1.0078250   1.0078250   1.0078250   1.0078250   1.0078250   1.0078250
 NucSpn=           1           1           1           1           1           1           1           1           1           1
 AtZEff=  -0.0000000  -0.0000000  -0.0000000  -0.0000000  -0.0000000  -0.0000000  -0.0000000  -0.0000000  -0.0000000  -0.0000000
 NQMom=    0.0000000   0.0000000   0.0000000   0.0000000   0.0000000   0.0000000   0.0000000   0.0000000   0.0000000   0.0000000
 NMagM=    2.7928460   2.7928460   2.7928460   2.7928460   2.7928460   2.7928460   2.7928460   2.7928460   2.7928460   2.7928460
 AtZNuc=   1.0000000   1.0000000   1.0000000   1.0000000   1.0000000   1.0000000   1.0000000   1.0000000   1.0000000   1.0000000
 Leave Link  101 at Wed May  4 02:04:46 2022, MaxMem= 10066329600 cpu:               3.4 elap:               0.2
 (Enter /sw/apps/gaussian-16.0/g16/l202.exe)
 Stoichiometry    C55H74MgN4O6
 Framework group  C1[X(C55H74MgN4O6)]
 Deg. of freedom   414
 Full point group                 C1      NOp   1
 Largest Abelian subgroup         C1      NOp   1
 Largest concise Abelian subgroup C1      NOp   1
                         Standard orientation:                         
 ---------------------------------------------------------------------
 Center     Atomic      Atomic             Coordinates (Angstroms)
 Number     Number       Type             X           Y           Z
 ---------------------------------------------------------------------
      1         12           0        4.122925    1.449428   -0.591720
      2          6           0        3.827162   -2.067384   -0.816581
      3          6           0        1.976871    1.689113   -3.165171
      4          6           0        3.780249    4.592575    0.231526
      5          6           0        6.060544    0.858536    2.451082
      6          7           0        2.877584   -0.068993   -1.719351
      7          6           0        3.000273   -1.444738   -1.728130
      8          6           0        2.248140   -2.072551   -2.908457
      9          6           0        1.977142   -0.798762   -3.808129
     10          6           0        2.252732    0.351210   -2.842510
     11          6           0        2.559732   -0.853504   -5.243203
     12          6           0        0.986429   -2.920470   -2.460704
     13          6           0        0.588412   -4.070875   -3.353218
     14          6           0       -0.269062   -5.186978   -2.672735
     15          8           0       -0.015027   -6.364138   -2.750014
     16          8           0       -1.390372   -4.669874   -2.154909
     17          7           0        3.074104    2.958433   -1.420675
     18          6           0        2.215752    2.901165   -2.454463
     19          6           0        1.623729    4.181381   -2.707756
     20          6           0        2.186652    5.115013   -1.775678
     21          6           0        3.051981    4.206455   -0.910331
     22          6           0        0.431296    4.399534   -3.728432
     23          6           0        1.805350    6.583019   -1.625094
     24          8           0        0.983676    7.165184   -2.346041
     25          6           0        2.566681    7.439561   -0.531041
     26          7           0        4.691438    2.508916    1.227739
     27          6           0        4.529023    3.845617    1.170101
     28          6           0        5.424361    4.486469    2.279406
     29          6           0        6.197227    3.287068    2.933426
     30          6           0        5.630991    2.144974    2.171737
     31          6           0        6.396176    5.560494    1.741379
     32          6           0        6.077593    3.234052    4.457904
     33          6           0        7.387434    3.213258    5.374104
     34          7           0        4.965476   -0.231232    0.511357
     35          6           0        5.752057   -0.335226    1.709012
     36          6           0        6.042192   -1.730871    1.912781
     37          6           0        5.344173   -2.411905    0.942071
     38          6           0        4.667892   -1.459629    0.134719
     39          6           0        6.872351   -2.376874    3.054073
     40          6           0        5.117163   -3.773854    0.446021
     41          8           0        5.621624   -4.859264    0.716814
     42          6           0        4.013311   -3.614819   -0.609822
     43          6           0        2.871206   -4.387872    0.032372
     44          8           0        2.172701   -4.006874    0.904936
     45          8           0        2.847413   -5.609738   -0.612261
     46          6           0        2.070201   -6.739544   -0.076264
     47          6           0       -2.220228   -5.575971   -1.312328
     48          6           0       -3.414371   -4.765880   -0.914700
     49          6           0       -4.287716   -5.011780    0.125001
     50          6           0       -4.316915   -6.215405    1.079856
     51          6           0       -5.379250   -3.976796    0.518683
     52          6           0       -5.061084   -3.271414    1.873814
     53          6           0       -6.152350   -3.556761    2.914122
     54          6           0       -6.610154   -2.166128    3.487697
     55          6           0       -6.677477   -2.312408    5.064440
     56          6           0       -7.938241   -1.627903    2.948832
     57          6           0       -7.848957   -0.128091    2.742277
     58          6           0       -7.214939    0.291042    1.394234
     59          6           0       -8.165407    1.159087    0.532623
     60          6           0       -7.882551    0.966323   -1.017250
     61          6           0       -8.183598    2.646201    1.077573
     62          6           0       -9.548565    3.323189    1.166191
     63          6           0       -9.622022    4.722242    0.488003
     64          6           0      -10.226689    4.561059   -0.951994
     65          6           0       -9.285955    5.060022   -2.073102
     66          6           0      -11.650168    5.225599   -1.092539
     67          1           0        1.480333    1.890430   -4.116269
     68          1           0        3.811862    5.614743    0.613588
     69          1           0        6.710641    0.649933    3.303851
     70          1           0        2.935890   -2.702541   -3.473496
     71          1           0        0.903044   -0.684600   -3.952921
     72          1           0        3.402066   -1.542989   -5.303109
     73          1           0        3.082275    0.079884   -5.450432
     74          1           0        1.836641   -1.046530   -6.035487
     75          1           0        0.111441   -2.271346   -2.471246
     76          1           0        1.162898   -3.283534   -1.448381
     77          1           0        1.592353   -4.469511   -3.500301
     78          1           0        0.081871   -3.919486   -4.306577
     79          1           0       -0.491348    4.533731   -3.165281
     80          1           0        0.437885    3.549545   -4.409799
     81          1           0        0.585689    5.230173   -4.418286
     82          1           0        3.628441    7.255667   -0.691862
     83          1           0        2.232717    7.144881    0.464819
     84          1           0        2.386957    8.499771   -0.709503
     85          1           0        4.644365    4.945503    2.885707
     86          1           0        7.223095    3.414504    2.587684
     87          1           0        5.872278    6.496791    1.934260
     88          1           0        6.615874    5.291376    0.708554
     89          1           0        7.241966    5.607219    2.428012
     90          1           0        5.633549    2.290939    4.775813
     91          1           0        5.359822    3.955846    4.845011
     92          1           0        8.260451    3.298588    4.728160
     93          1           0        7.548105    2.317792    5.975066
     94          1           0        7.377738    4.053852    6.067476
     95          1           0        7.199551   -1.554580    3.691119
     96          1           0        7.832540   -2.819556    2.791463
     97          1           0        6.183104   -3.099393    3.490986
     98          1           0        4.314975   -4.071061   -1.553363
     99          1           0        2.574258   -7.277176    0.727279
    100          1           0        1.875875   -7.506030   -0.826345
    101          1           0        1.127842   -6.320003    0.274820
    102          1           0       -1.617377   -5.921516   -0.471999
    103          1           0       -2.630933   -6.277551   -2.038550
    104          1           0       -3.519965   -3.795100   -1.399888
    105          1           0       -5.349385   -6.493000    1.290788
    106          1           0       -3.760041   -5.836169    1.936528
    107          1           0       -3.781040   -7.045177    0.619636
    108          1           0       -6.365998   -4.402588    0.334134
    109          1           0       -5.429822   -3.109210   -0.139495
    110          1           0       -4.732139   -2.252983    1.667284
    111          1           0       -4.180770   -3.657981    2.386222
    112          1           0       -5.782757   -4.213600    3.701693
    113          1           0       -7.021688   -3.919883    2.365813
    114          1           0       -5.852081   -1.414097    3.270643
    115          1           0       -6.656379   -3.375648    5.304436
    116          1           0       -7.537359   -1.805259    5.499943
    117          1           0       -5.853312   -1.806574    5.568792
    118          1           0       -8.823518   -1.820040    3.555996
    119          1           0       -8.030128   -2.152633    1.997436
    120          1           0       -7.131654    0.349059    3.409869
    121          1           0       -8.730935    0.404223    3.097533
    122          1           0       -7.097332   -0.703162    0.962718
    123          1           0       -6.229811    0.738589    1.526161
    124          1           0       -9.124793    0.653144    0.635158
    125          1           0       -6.998141    0.357822   -1.206405
    126          1           0       -7.905927    1.879052   -1.612147
    127          1           0       -8.661620    0.383560   -1.510155
    128          1           0       -7.612990    3.215307    0.344507
    129          1           0       -7.709966    2.667726    2.059191
    130          1           0       -9.672073    3.455760    2.241177
    131          1           0      -10.413071    2.690601    0.964902
    132          1           0       -8.584875    5.019533    0.334935
    133          1           0      -10.276702    5.361270    1.081339
    134          1           0      -10.360868    3.494846   -1.139405
    135          1           0       -8.679818    5.868436   -1.663543
    136          1           0       -9.814476    5.571781   -2.876403
    137          1           0       -8.723355    4.248180   -2.534448
    138          1           0      -12.308087    4.439291   -0.721766
    139          1           0      -11.879798    5.639753   -2.074388
    140          1           0      -11.892188    6.066850   -0.442881
 ---------------------------------------------------------------------
 Rotational constants (GHZ):           0.0271639           0.0164927           0.0127369
 Leave Link  202 at Wed May  4 02:04:46 2022, MaxMem= 10066329600 cpu:               0.8 elap:               0.1
 (Enter /sw/apps/gaussian-16.0/g16/l301.exe)
 Standard basis: def2SVP (5D, 7F)
 Ernie: Thresh=  0.10000D-02 Tol=  0.10000D-05 Strict=F.
 There are  1364 symmetry adapted cartesian basis functions of A   symmetry.
 There are  1298 symmetry adapted basis functions of A   symmetry.
  1298 basis functions,  2180 primitive gaussians,  1364 cartesian basis functions
   246 alpha electrons      246 beta electrons
       nuclear repulsion energy      9789.1927163696 Hartrees.
 IExCor= 4639 DFT=T Ex+Corr=wB97XD ExCW=0 ScaHFX=  1.000000
 ScaDFX=  1.000000  1.000000  1.000000  1.000000 ScalE2=  1.000000  1.000000
 IRadAn=      5 IRanWt=     -1 IRanGd=            0 ICorTp=0 IEmpDi=121
 HFx  wShort=  0.000000 wLong=  0.200000 cFull=  0.222036 cShort=  0.000000 cLong=  0.777964
 DFx  wShort=  0.000000 wLong=  0.200000 cFull=  0.000000 cShort=  0.000000 cLong=  1.000000
 NAtoms=  140 NActive=  140 NUniq=  140 SFac= 1.00D+00 NAtFMM=   60 NAOKFM=T Big=T
 Integral buffers will be    131072 words long.
 Raffenetti 1 integral format.
 Two-electron integral symmetry is turned on.
 R6Disp:  Grimme-D2 Dispersion energy=       -0.1341605111 Hartrees.
 Nuclear repulsion after empirical dispersion term =     9789.0585558585 Hartrees.
 Leave Link  301 at Wed May  4 02:04:46 2022, MaxMem= 10066329600 cpu:               1.3 elap:               0.1
 (Enter /sw/apps/gaussian-16.0/g16/l302.exe)
 NPDir=0 NMtPBC=     1 NCelOv=     1 NCel=       1 NClECP=     1 NCelD=      1
         NCelK=      1 NCelE2=     1 NClLst=     1 CellRange=     0.0.
 One-electron integrals computed using PRISM.
 One-electron integral symmetry used in STVInt
   1 Symmetry operations used in ECPInt.
 ECPInt:  NShTT=  192510 NPrTT=  683786 LenC2=  100932 LenP2D=  214469.
 LDataN:  DoStor=T MaxTD1= 4 Len=   56
 NBasis=  1298 RedAO= T EigKep=  2.92D-04  NBF=  1298
 NBsUse=  1298 1.00D-06 EigRej= -1.00D+00 NBFU=  1298
 Precomputing XC quadrature grid using
 IXCGrd= 4 IRadAn=           5 IRanWt=          -1 IRanGd=           0 AccXCQ= 0.00D+00.
 Generated NRdTot=       0 NPtTot=           0 NUsed=           0 NTot=          32
 NSgBfM=  1007   999  1000  1001  1007 MxSgAt=   140 MxSgA2=   140.
 Leave Link  302 at Wed May  4 02:04:50 2022, MaxMem= 10066329600 cpu:              83.1 elap:               3.5
 (Enter /sw/apps/gaussian-16.0/g16/l303.exe)
 DipDrv:  MaxL=1.
 Leave Link  303 at Wed May  4 02:04:50 2022, MaxMem= 10066329600 cpu:               6.1 elap:               0.3
 (Enter /sw/apps/gaussian-16.0/g16/l308.exe)
 Leave Link  308 at Wed May  4 02:04:51 2022, MaxMem= 10066329600 cpu:               8.9 elap:               0.4
 (Enter /sw/apps/gaussian-16.0/g16/l401.exe)
 ExpMin= 3.36D-02 ExpMax= 4.95D+03 ExpMxC= 7.45D+02 IAcc=3 IRadAn=         5 AccDes= 0.00D+00
 Harris functional with IExCor= 4639 and IRadAn=       5 diagonalized for initial guess.
 HarFok:  IExCor= 4639 AccDes= 0.00D+00 IRadAn=         5 IDoV= 1 UseB2=F ITyADJ=14
 ICtDFT=  3500011 ScaDFX=  1.000000  1.000000  1.000000  1.000000
 FoFCou: FMM=F IPFlag=           0 FMFlag=      100000 FMFlg1=        2001
         NFxFlg=           0 DoJE=T BraDBF=F KetDBF=T FulRan=T
         wScrn=  0.000000 ICntrl=       500 IOpCl=  0 I1Cent=   200000004 NGrid=           0
         NMat0=    1 NMatS0=      1 NMatT0=    0 NMatD0=    1 NMtDS0=    0 NMtDT0=    0
 Petite list used in FoFCou.
 Harris En= -2877.99143521715    
 JPrj=0 DoOrth=F DoCkMO=F.
 Leave Link  401 at Wed May  4 02:04:56 2022, MaxMem= 10066329600 cpu:             135.5 elap:               5.7
 (Enter /sw/apps/gaussian-16.0/g16/l502.exe)
 Integral symmetry usage will be decided dynamically.
 Closed shell SCF:
 Using DIIS extrapolation, IDIIS=  1040.
 NGot= 10066329600 LenX= 10062561258 LenY= 10060699398
 Requested convergence on RMS density matrix=1.00D-08 within 128 cycles.
 Requested convergence on MAX density matrix=1.00D-06.
 Requested convergence on             energy=1.00D-06.
 No special actions if energy rises.
 Fock matrices will be formed incrementally for  20 cycles.

 Cycle   1  Pass 1  IDiag  1:
 FoFJK:  IHMeth= 1 ICntrl=       0 DoSepK=T KAlg= 0 I1Cent=           0 FoldK=F
 IRaf=         1 NMat=       1 IRICut=       1 DoRegI=T DoRafI=F ISym2E= 0 IDoP0=0 IntGTp=1.
 FoFCou: FMM=T IPFlag=           0 FMFlag=      100000 FMFlg1=        2001
         NFxFlg=           0 DoJE=T BraDBF=F KetDBF=F FulRan=T
         wScrn=  0.000000 ICntrl=       500 IOpCl=  0 I1Cent=           0 NGrid=           0
         NMat0=    1 NMatS0=      1 NMatT0=    0 NMatD0=    1 NMtDS0=    0 NMtDT0=    0
 Symmetry not used in FoFCou.
 FMM levels:  10  Number of levels for PrismC:   9
 E= -3007.17262427720    
 DIIS: error= 2.46D-02 at cycle   1 NSaved=   1.
 NSaved= 1 IEnMin= 1 EnMin= -3007.17262427720     IErMin= 1 ErrMin= 2.46D-02
 ErrMax= 2.46D-02  0.00D+00 EMaxC= 1.00D-01 BMatC= 1.47D+00 BMatP= 1.47D+00
 IDIUse=3 WtCom= 7.54D-01 WtEn= 2.46D-01
 Coeff-Com:  0.100D+01
 Coeff-En:   0.100D+01
 Coeff:      0.100D+01
 Gap=     0.152 Goal=   None    Shift=    0.000
 GapD=    0.152 DampG=1.000 DampE=0.500 DampFc=0.5000 IDamp=-1.
 Damping current iteration by 5.00D-01
 RMSDP=1.52D-03 MaxDP=1.78D-01              OVMax= 1.74D-01

 Cycle   2  Pass 1  IDiag  1:
 RMSU=  7.50D-04    CP:  9.87D-01
 E= -3007.48802394386     Delta-E=       -0.315399666655 Rises=F Damp=T
 DIIS: error= 1.37D-02 at cycle   2 NSaved=   2.
 NSaved= 2 IEnMin= 2 EnMin= -3007.48802394386     IErMin= 2 ErrMin= 1.37D-02
 ErrMax= 1.37D-02  0.00D+00 EMaxC= 1.00D-01 BMatC= 2.88D-01 BMatP= 1.47D+00
 IDIUse=3 WtCom= 8.63D-01 WtEn= 1.37D-01
 Coeff-Com: -0.367D+00 0.137D+01
 Coeff-En:   0.000D+00 0.100D+01
 Coeff:     -0.317D+00 0.132D+01
 Gap=     0.173 Goal=   None    Shift=    0.000
 RMSDP=6.92D-04 MaxDP=7.22D-02 DE=-3.15D-01 OVMax= 1.36D-01

 Cycle   3  Pass 1  IDiag  1:
 RMSU=  6.46D-04    CP:  9.80D-01  1.32D+00
 E= -3007.72087238885     Delta-E=       -0.232848444986 Rises=F Damp=F
 DIIS: error= 1.02D-02 at cycle   3 NSaved=   3.
 NSaved= 3 IEnMin= 3 EnMin= -3007.72087238885     IErMin= 3 ErrMin= 1.02D-02
 ErrMax= 1.02D-02  0.00D+00 EMaxC= 1.00D-01 BMatC= 1.29D-01 BMatP= 2.88D-01
 IDIUse=3 WtCom= 8.98D-01 WtEn= 1.02D-01
 Coeff-Com: -0.312D+00 0.686D+00 0.626D+00
 Coeff-En:   0.000D+00 0.000D+00 0.100D+01
 Coeff:     -0.280D+00 0.616D+00 0.664D+00
 Gap=     0.159 Goal=   None    Shift=    0.000
 RMSDP=4.07D-04 MaxDP=5.27D-02 DE=-2.33D-01 OVMax= 9.10D-02

 Cycle   4  Pass 1  IDiag  1:
 RMSU=  2.12D-04    CP:  9.76D-01  1.61D+00  5.86D-01
 E= -3007.81833102056     Delta-E=       -0.097458631712 Rises=F Damp=F
 DIIS: error= 3.19D-03 at cycle   4 NSaved=   4.
 NSaved= 4 IEnMin= 4 EnMin= -3007.81833102056     IErMin= 4 ErrMin= 3.19D-03
 ErrMax= 3.19D-03  0.00D+00 EMaxC= 1.00D-01 BMatC= 1.57D-02 BMatP= 1.29D-01
 IDIUse=3 WtCom= 9.68D-01 WtEn= 3.19D-02
 Coeff-Com: -0.121D+00 0.242D+00 0.358D+00 0.520D+00
 Coeff-En:   0.000D+00 0.000D+00 0.562D-01 0.944D+00
 Coeff:     -0.117D+00 0.234D+00 0.349D+00 0.534D+00
 Gap=     0.159 Goal=   None    Shift=    0.000
 RMSDP=1.20D-04 MaxDP=1.23D-02 DE=-9.75D-02 OVMax= 2.60D-02

 Cycle   5  Pass 1  IDiag  1:
 RMSU=  5.95D-05    CP:  9.76D-01  1.58D+00  6.99D-01  6.65D-01
 E= -3007.83150325977     Delta-E=       -0.013172239213 Rises=F Damp=F
 DIIS: error= 5.56D-04 at cycle   5 NSaved=   5.
 NSaved= 5 IEnMin= 5 EnMin= -3007.83150325977     IErMin= 5 ErrMin= 5.56D-04
 ErrMax= 5.56D-04  0.00D+00 EMaxC= 1.00D-01 BMatC= 3.40D-04 BMatP= 1.57D-02
 IDIUse=3 WtCom= 9.94D-01 WtEn= 5.56D-03
 Coeff-Com: -0.295D-01 0.561D-01 0.109D+00 0.217D+00 0.648D+00
 Coeff-En:   0.000D+00 0.000D+00 0.000D+00 0.000D+00 0.100D+01
 Coeff:     -0.293D-01 0.558D-01 0.108D+00 0.216D+00 0.650D+00
 Gap=     0.159 Goal=   None    Shift=    0.000
 RMSDP=2.64D-05 MaxDP=5.91D-03 DE=-1.32D-02 OVMax= 4.72D-03

 Cycle   6  Pass 1  IDiag  1:
 RMSU=  2.19D-05    CP:  9.76D-01  1.59D+00  7.01D-01  7.22D-01  8.92D-01
 E= -3007.83177975231     Delta-E=       -0.000276492543 Rises=F Damp=F
 DIIS: error= 2.58D-04 at cycle   6 NSaved=   6.
 NSaved= 6 IEnMin= 6 EnMin= -3007.83177975231     IErMin= 6 ErrMin= 2.58D-04
 ErrMax= 2.58D-04  0.00D+00 EMaxC= 1.00D-01 BMatC= 6.42D-05 BMatP= 3.40D-04
 IDIUse=3 WtCom= 9.97D-01 WtEn= 2.58D-03
 Coeff-Com:  0.947D-02-0.204D-01-0.146D-01 0.247D-02 0.311D+00 0.712D+00
 Coeff-En:   0.000D+00 0.000D+00 0.000D+00 0.000D+00 0.000D+00 0.100D+01
 Coeff:      0.944D-02-0.203D-01-0.146D-01 0.246D-02 0.310D+00 0.713D+00
 Gap=     0.159 Goal=   None    Shift=    0.000
 RMSDP=1.16D-05 MaxDP=1.35D-03 DE=-2.76D-04 OVMax= 4.73D-03

 Cycle   7  Pass 1  IDiag  1:
 RMSU=  7.86D-06    CP:  9.76D-01  1.59D+00  7.07D-01  7.31D-01  1.01D+00
                    CP:  8.69D-01
 E= -3007.83185394226     Delta-E=       -0.000074189944 Rises=F Damp=F
 DIIS: error= 7.96D-05 at cycle   7 NSaved=   7.
 NSaved= 7 IEnMin= 7 EnMin= -3007.83185394226     IErMin= 7 ErrMin= 7.96D-05
 ErrMax= 7.96D-05  0.00D+00 EMaxC= 1.00D-01 BMatC= 7.07D-06 BMatP= 6.42D-05
 IDIUse=1 WtCom= 1.00D+00 WtEn= 0.00D+00
 Coeff-Com:  0.672D-02-0.137D-01-0.159D-01-0.213D-01 0.550D-01 0.299D+00
 Coeff-Com:  0.691D+00
 Coeff:      0.672D-02-0.137D-01-0.159D-01-0.213D-01 0.550D-01 0.299D+00
 Coeff:      0.691D+00
 Gap=     0.159 Goal=   None    Shift=    0.000
 RMSDP=5.13D-06 MaxDP=1.23D-03 DE=-7.42D-05 OVMax= 1.50D-03

 Cycle   8  Pass 1  IDiag  1:
 RMSU=  3.36D-06    CP:  9.76D-01  1.59D+00  7.08D-01  7.39D-01  1.03D+00
                    CP:  1.01D+00  9.99D-01
 E= -3007.83186503818     Delta-E=       -0.000011095928 Rises=F Damp=F
 DIIS: error= 2.85D-05 at cycle   8 NSaved=   8.
 NSaved= 8 IEnMin= 8 EnMin= -3007.83186503818     IErMin= 8 ErrMin= 2.85D-05
 ErrMax= 2.85D-05  0.00D+00 EMaxC= 1.00D-01 BMatC= 1.32D-06 BMatP= 7.07D-06
 IDIUse=1 WtCom= 1.00D+00 WtEn= 0.00D+00
 Coeff-Com:  0.155D-02-0.289D-02-0.502D-02-0.113D-01-0.354D-01 0.987D-02
 Coeff-Com:  0.310D+00 0.734D+00
 Coeff:      0.155D-02-0.289D-02-0.502D-02-0.113D-01-0.354D-01 0.987D-02
 Coeff:      0.310D+00 0.734D+00
 Gap=     0.159 Goal=   None    Shift=    0.000
 RMSDP=2.45D-06 MaxDP=1.30D-04 DE=-1.11D-05 OVMax= 1.58D-03

 Cycle   9  Pass 1  IDiag  1:
 RMSU=  1.60D-06    CP:  9.76D-01  1.59D+00  7.08D-01  7.40D-01  1.04D+00
                    CP:  1.04D+00  1.18D+00  1.12D+00
 E= -3007.83186892040     Delta-E=       -0.000003882216 Rises=F Damp=F
 DIIS: error= 1.89D-05 at cycle   9 NSaved=   9.
 NSaved= 9 IEnMin= 9 EnMin= -3007.83186892040     IErMin= 9 ErrMin= 1.89D-05
 ErrMax= 1.89D-05  0.00D+00 EMaxC= 1.00D-01 BMatC= 3.20D-07 BMatP= 1.32D-06
 IDIUse=1 WtCom= 1.00D+00 WtEn= 0.00D+00
 Coeff-Com: -0.676D-03 0.144D-02 0.117D-02-0.326D-05-0.221D-01-0.460D-01
 Coeff-Com: -0.279D-01 0.286D+00 0.808D+00
 Coeff:     -0.676D-03 0.144D-02 0.117D-02-0.326D-05-0.221D-01-0.460D-01
 Coeff:     -0.279D-01 0.286D+00 0.808D+00
 Gap=     0.159 Goal=   None    Shift=    0.000
 RMSDP=1.66D-06 MaxDP=2.09D-04 DE=-3.88D-06 OVMax= 9.13D-04

 Cycle  10  Pass 1  IDiag  1:
 RMSU=  8.08D-07    CP:  9.76D-01  1.59D+00  7.08D-01  7.41D-01  1.04D+00
                    CP:  1.07D+00  1.26D+00  1.42D+00  1.35D+00
 E= -3007.83187046461     Delta-E=       -0.000001544206 Rises=F Damp=F
 DIIS: error= 8.96D-06 at cycle  10 NSaved=  10.
 NSaved=10 IEnMin=10 EnMin= -3007.83187046461     IErMin=10 ErrMin= 8.96D-06
 ErrMax= 8.96D-06  0.00D+00 EMaxC= 1.00D-01 BMatC= 8.90D-08 BMatP= 3.20D-07
 IDIUse=1 WtCom= 1.00D+00 WtEn= 0.00D+00
 Coeff-Com: -0.828D-03 0.162D-02 0.222D-02 0.403D-02 0.248D-02-0.219D-01
 Coeff-Com: -0.129D+00-0.101D+00 0.263D+00 0.980D+00
 Coeff:     -0.828D-03 0.162D-02 0.222D-02 0.403D-02 0.248D-02-0.219D-01
 Coeff:     -0.129D+00-0.101D+00 0.263D+00 0.980D+00
 Gap=     0.160 Goal=   None    Shift=    0.000
 RMSDP=1.47D-06 MaxDP=8.68D-05 DE=-1.54D-06 OVMax= 9.85D-04

 Cycle  11  Pass 1  IDiag  1:
 RMSU=  5.02D-07    CP:  9.76D-01  1.59D+00  7.08D-01  7.41D-01  1.04D+00
                    CP:  1.08D+00  1.33D+00  1.64D+00  1.90D+00  1.54D+00
 E= -3007.83187136838     Delta-E=       -0.000000903770 Rises=F Damp=F
 DIIS: error= 8.80D-06 at cycle  11 NSaved=  11.
 NSaved=11 IEnMin=11 EnMin= -3007.83187136838     IErMin=11 ErrMin= 8.80D-06
 ErrMax= 8.80D-06  0.00D+00 EMaxC= 1.00D-01 BMatC= 4.84D-08 BMatP= 8.90D-08
 IDIUse=1 WtCom= 1.00D+00 WtEn= 0.00D+00
 Coeff-Com: -0.162D-03 0.292D-03 0.591D-03 0.182D-02 0.705D-02 0.451D-02
 Coeff-Com: -0.529D-01-0.108D+00-0.167D+00 0.488D+00 0.826D+00
 Coeff:     -0.162D-03 0.292D-03 0.591D-03 0.182D-02 0.705D-02 0.451D-02
 Coeff:     -0.529D-01-0.108D+00-0.167D+00 0.488D+00 0.826D+00
 Gap=     0.160 Goal=   None    Shift=    0.000
 RMSDP=9.38D-07 MaxDP=5.34D-05 DE=-9.04D-07 OVMax= 6.21D-04

 Cycle  12  Pass 1  IDiag  1:
 RMSU=  2.64D-07    CP:  9.76D-01  1.59D+00  7.08D-01  7.41D-01  1.05D+00
                    CP:  1.08D+00  1.36D+00  1.78D+00  2.20D+00  2.13D+00
                    CP:  1.45D+00
 E= -3007.83187172708     Delta-E=       -0.000000358703 Rises=F Damp=F
 DIIS: error= 4.58D-06 at cycle  12 NSaved=  12.
 NSaved=12 IEnMin=12 EnMin= -3007.83187172708     IErMin=12 ErrMin= 4.58D-06
 ErrMax= 4.58D-06  0.00D+00 EMaxC= 1.00D-01 BMatC= 1.30D-08 BMatP= 4.84D-08
 IDIUse=1 WtCom= 1.00D+00 WtEn= 0.00D+00
 Coeff-Com:  0.345D-03-0.687D-03-0.905D-03-0.125D-02 0.730D-03 0.124D-01
 Coeff-Com:  0.438D-01 0.287D-01-0.214D+00-0.308D+00 0.206D+00 0.123D+01
 Coeff:      0.345D-03-0.687D-03-0.905D-03-0.125D-02 0.730D-03 0.124D-01
 Coeff:      0.438D-01 0.287D-01-0.214D+00-0.308D+00 0.206D+00 0.123D+01
 Gap=     0.160 Goal=   None    Shift=    0.000
 RMSDP=9.32D-07 MaxDP=5.41D-05 DE=-3.59D-07 OVMax= 6.36D-04

 Cycle  13  Pass 1  IDiag  1:
 RMSU=  1.63D-07    CP:  9.76D-01  1.59D+00  7.08D-01  7.42D-01  1.05D+00
                    CP:  1.08D+00  1.38D+00  1.89D+00  2.50D+00  2.72D+00
                    CP:  2.26D+00  1.70D+00
 E= -3007.83187191202     Delta-E=       -0.000000184938 Rises=F Damp=F
 DIIS: error= 1.98D-06 at cycle  13 NSaved=  13.
 NSaved=13 IEnMin=13 EnMin= -3007.83187191202     IErMin=13 ErrMin= 1.98D-06
 ErrMax= 1.98D-06  0.00D+00 EMaxC= 1.00D-01 BMatC= 3.87D-09 BMatP= 1.30D-08
 IDIUse=1 WtCom= 1.00D+00 WtEn= 0.00D+00
 Coeff-Com:  0.206D-03-0.404D-03-0.594D-03-0.105D-02-0.166D-02 0.424D-02
 Coeff-Com:  0.337D-01 0.484D-01-0.460D-01-0.265D+00-0.162D+00 0.562D+00
 Coeff-Com:  0.827D+00
 Coeff:      0.206D-03-0.404D-03-0.594D-03-0.105D-02-0.166D-02 0.424D-02
 Coeff:      0.337D-01 0.484D-01-0.460D-01-0.265D+00-0.162D+00 0.562D+00
 Coeff:      0.827D+00
 Gap=     0.160 Goal=   None    Shift=    0.000
 RMSDP=3.58D-07 MaxDP=1.91D-05 DE=-1.85D-07 OVMax= 2.57D-04

 Cycle  14  Pass 1  IDiag  1:
 RMSU=  8.18D-08    CP:  9.76D-01  1.59D+00  7.08D-01  7.42D-01  1.05D+00
                    CP:  1.08D+00  1.39D+00  1.92D+00  2.60D+00  2.95D+00
                    CP:  2.61D+00  2.16D+00  1.24D+00
 E= -3007.83187194041     Delta-E=       -0.000000028387 Rises=F Damp=F
 DIIS: error= 1.09D-06 at cycle  14 NSaved=  14.
 NSaved=14 IEnMin=14 EnMin= -3007.83187194041     IErMin=14 ErrMin= 1.09D-06
 ErrMax= 1.09D-06  0.00D+00 EMaxC= 1.00D-01 BMatC= 8.25D-10 BMatP= 3.87D-09
 IDIUse=1 WtCom= 1.00D+00 WtEn= 0.00D+00
 Coeff-Com:  0.151D-04-0.269D-04-0.642D-04-0.174D-03-0.850D-03-0.832D-03
 Coeff-Com:  0.439D-02 0.151D-01 0.217D-01-0.481D-01-0.113D+00-0.111D-01
 Coeff-Com:  0.341D+00 0.792D+00
 Coeff:      0.151D-04-0.269D-04-0.642D-04-0.174D-03-0.850D-03-0.832D-03
 Coeff:      0.439D-02 0.151D-01 0.217D-01-0.481D-01-0.113D+00-0.111D-01
 Coeff:      0.341D+00 0.792D+00
 Gap=     0.160 Goal=   None    Shift=    0.000
 RMSDP=1.35D-07 MaxDP=7.33D-06 DE=-2.84D-08 OVMax= 8.86D-05

 Cycle  15  Pass 1  IDiag  1:
 RMSU=  4.59D-08    CP:  9.76D-01  1.59D+00  7.08D-01  7.42D-01  1.05D+00
                    CP:  1.08D+00  1.39D+00  1.93D+00  2.63D+00  3.00D+00
                    CP:  2.74D+00  2.35D+00  1.53D+00  1.20D+00
 E= -3007.83187194528     Delta-E=       -0.000000004875 Rises=F Damp=F
 DIIS: error= 4.72D-07 at cycle  15 NSaved=  15.
 NSaved=15 IEnMin=15 EnMin= -3007.83187194528     IErMin=15 ErrMin= 4.72D-07
 ErrMax= 4.72D-07  0.00D+00 EMaxC= 1.00D-01 BMatC= 2.02D-10 BMatP= 8.25D-10
 IDIUse=1 WtCom= 1.00D+00 WtEn= 0.00D+00
 Coeff-Com: -0.504D-04 0.100D-03 0.135D-03 0.215D-03 0.518D-04-0.149D-02
 Coeff-Com: -0.776D-02-0.609D-02 0.219D-01 0.520D-01-0.360D-02-0.155D+00
 Coeff-Com: -0.848D-01 0.309D+00 0.876D+00
 Coeff:     -0.504D-04 0.100D-03 0.135D-03 0.215D-03 0.518D-04-0.149D-02
 Coeff:     -0.776D-02-0.609D-02 0.219D-01 0.520D-01-0.360D-02-0.155D+00
 Coeff:     -0.848D-01 0.309D+00 0.876D+00
 Gap=     0.160 Goal=   None    Shift=    0.000
 RMSDP=6.60D-08 MaxDP=5.44D-06 DE=-4.87D-09 OVMax= 4.83D-05

 Cycle  16  Pass 1  IDiag  1:
 RMSU=  2.55D-08    CP:  9.76D-01  1.59D+00  7.08D-01  7.42D-01  1.05D+00
                    CP:  1.08D+00  1.40D+00  1.93D+00  2.64D+00  3.00D+00
                    CP:  2.80D+00  2.44D+00  1.69D+00  1.55D+00  1.51D+00
 E= -3007.83187194687     Delta-E=       -0.000000001590 Rises=F Damp=F
 DIIS: error= 3.04D-07 at cycle  16 NSaved=  16.
 NSaved=16 IEnMin=16 EnMin= -3007.83187194687     IErMin=16 ErrMin= 3.04D-07
 ErrMax= 3.04D-07  0.00D+00 EMaxC= 1.00D-01 BMatC= 7.37D-11 BMatP= 2.02D-10
 IDIUse=1 WtCom= 1.00D+00 WtEn= 0.00D+00
 Coeff-Com: -0.181D-04 0.351D-04 0.531D-04 0.101D-03 0.189D-03-0.162D-03
 Coeff-Com: -0.352D-02-0.479D-02 0.170D-02 0.265D-01 0.241D-01-0.431D-01
 Coeff-Com: -0.104D+00-0.111D+00 0.334D+00 0.879D+00
 Coeff:     -0.181D-04 0.351D-04 0.531D-04 0.101D-03 0.189D-03-0.162D-03
 Coeff:     -0.352D-02-0.479D-02 0.170D-02 0.265D-01 0.241D-01-0.431D-01
 Coeff:     -0.104D+00-0.111D+00 0.334D+00 0.879D+00
 Gap=     0.160 Goal=   None    Shift=    0.000
 RMSDP=3.61D-08 MaxDP=2.50D-06 DE=-1.59D-09 OVMax= 2.37D-05

 Cycle  17  Pass 1  IDiag  1:
 RMSU=  1.45D-08    CP:  9.76D-01  1.59D+00  7.08D-01  7.42D-01  1.05D+00
                    CP:  1.08D+00  1.40D+00  1.93D+00  2.65D+00  3.00D+00
                    CP:  2.82D+00  2.47D+00  1.77D+00  1.74D+00  1.93D+00
                    CP:  1.35D+00
 E= -3007.83187194730     Delta-E=       -0.000000000435 Rises=F Damp=F
 DIIS: error= 1.90D-07 at cycle  17 NSaved=  17.
 NSaved=17 IEnMin=17 EnMin= -3007.83187194730     IErMin=17 ErrMin= 1.90D-07
 ErrMax= 1.90D-07  0.00D+00 EMaxC= 1.00D-01 BMatC= 2.32D-11 BMatP= 7.37D-11
 IDIUse=1 WtCom= 1.00D+00 WtEn= 0.00D+00
 Coeff-Com:  0.152D-04-0.306D-04-0.413D-04-0.589D-04 0.308D-04 0.634D-03
 Coeff-Com:  0.195D-02 0.138D-02-0.840D-02-0.136D-01 0.751D-02 0.520D-01
 Coeff-Com:  0.440D-02-0.181D+00-0.202D+00 0.187D+00 0.115D+01
 Coeff:      0.152D-04-0.306D-04-0.413D-04-0.589D-04 0.308D-04 0.634D-03
 Coeff:      0.195D-02 0.138D-02-0.840D-02-0.136D-01 0.751D-02 0.520D-01
 Coeff:      0.440D-02-0.181D+00-0.202D+00 0.187D+00 0.115D+01
 Gap=     0.160 Goal=   None    Shift=    0.000
 RMSDP=3.32D-08 MaxDP=2.24D-06 DE=-4.35D-10 OVMax= 2.14D-05

 Cycle  18  Pass 1  IDiag  1:
 RMSU=  8.14D-09    CP:  9.76D-01  1.59D+00  7.08D-01  7.42D-01  1.05D+00
                    CP:  1.08D+00  1.40D+00  1.93D+00  2.65D+00  3.00D+00
                    CP:  2.83D+00  2.49D+00  1.83D+00  1.90D+00  2.34D+00
                    CP:  1.86D+00  1.86D+00
 E= -3007.83187194760     Delta-E=       -0.000000000298 Rises=F Damp=F
 DIIS: error= 7.13D-08 at cycle  18 NSaved=  18.
 NSaved=18 IEnMin=18 EnMin= -3007.83187194760     IErMin=18 ErrMin= 7.13D-08
 ErrMax= 7.13D-08  0.00D+00 EMaxC= 1.00D-01 BMatC= 9.69D-12 BMatP= 2.32D-11
 IDIUse=1 WtCom= 1.00D+00 WtEn= 0.00D+00
 Coeff-Com:  0.136D-04-0.268D-04-0.401D-04-0.649D-04-0.608D-04 0.377D-03
 Coeff-Com:  0.218D-02 0.262D-02-0.500D-02-0.169D-01-0.513D-02 0.437D-01
 Coeff-Com:  0.430D-01-0.513D-01-0.201D+00-0.283D+00 0.575D+00 0.896D+00
 Coeff:      0.136D-04-0.268D-04-0.401D-04-0.649D-04-0.608D-04 0.377D-03
 Coeff:      0.218D-02 0.262D-02-0.500D-02-0.169D-01-0.513D-02 0.437D-01
 Coeff:      0.430D-01-0.513D-01-0.201D+00-0.283D+00 0.575D+00 0.896D+00
 Gap=     0.160 Goal=   None    Shift=    0.000
 RMSDP=1.93D-08 MaxDP=1.19D-06 DE=-2.98D-10 OVMax= 1.28D-05

 Cycle  19  Pass 1  IDiag  1:
 RMSU=  4.03D-09    CP:  9.76D-01  1.59D+00  7.08D-01  7.42D-01  1.05D+00
                    CP:  1.08D+00  1.40D+00  1.93D+00  2.65D+00  3.00D+00
                    CP:  2.84D+00  2.49D+00  1.86D+00  1.99D+00  2.55D+00
                    CP:  2.15D+00  2.61D+00  1.42D+00
 E= -3007.83187194781     Delta-E=       -0.000000000206 Rises=F Damp=F
 DIIS: error= 4.29D-08 at cycle  19 NSaved=  19.
 NSaved=19 IEnMin=19 EnMin= -3007.83187194781     IErMin=19 ErrMin= 4.29D-08
 ErrMax= 4.29D-08  0.00D+00 EMaxC= 1.00D-01 BMatC= 2.43D-12 BMatP= 9.69D-12
 IDIUse=1 WtCom= 1.00D+00 WtEn= 0.00D+00
 Coeff-Com:  0.107D-05-0.188D-05-0.480D-05-0.880D-05-0.351D-04-0.306D-04
 Coeff-Com:  0.281D-03 0.730D-03 0.610D-03-0.299D-02-0.471D-02 0.170D-02
 Coeff-Com:  0.153D-01 0.290D-01-0.181D-01-0.182D+00-0.109D+00 0.383D+00
 Coeff-Com:  0.886D+00
 Coeff:      0.107D-05-0.188D-05-0.480D-05-0.880D-05-0.351D-04-0.306D-04
 Coeff:      0.281D-03 0.730D-03 0.610D-03-0.299D-02-0.471D-02 0.170D-02
 Coeff:      0.153D-01 0.290D-01-0.181D-01-0.182D+00-0.109D+00 0.383D+00
 Coeff:      0.886D+00
 Gap=     0.160 Goal=   None    Shift=    0.000
 RMSDP=9.98D-09 MaxDP=6.75D-07 DE=-2.06D-10 OVMax= 6.22D-06

 SCF Done:  E(RwB97XD) =  -3007.83187195     A.U. after   19 cycles
            NFock= 19  Conv=0.10D-07     -V/T= 2.0110
 KE= 2.975214204783D+03 PE=-2.657028186365D+04 EE= 1.079817723106D+04
 Leave Link  502 at Wed May  4 02:11:46 2022, MaxMem= 10066329600 cpu:            9410.5 elap:             409.7
 (Enter /sw/apps/gaussian-16.0/g16/l801.exe)
 DoSCS=F DFT=T ScalE2(SS,OS)=  1.000000  1.000000
 ExpMin= 3.36D-02 ExpMax= 4.95D+03 ExpMxC= 7.45D+02 IAcc=3 IRadAn=         5 AccDes= 0.00D+00
 HarFok:  IExCor=  205 AccDes= 0.00D+00 IRadAn=         5 IDoV=-2 UseB2=F ITyADJ=14
 ICtDFT= 12500011 ScaDFX=  1.000000  1.000000  1.000000  1.000000
 GSVD:  LWork=       -5460 too small for GESVD, short by       25550 words or       25550 for optimal perf.
 Largest valence mixing into a core orbital is  1.54D-04
 Largest core mixing into a valence orbital is  5.57D-05
 Range of M.O.s used for correlation:    71  1298
 NBasis=  1298 NAE=   246 NBE=   246 NFC=    70 NFV=     0
 NROrb=   1228 NOA=   176 NOB=   176 NVA=  1052 NVB=  1052
 Leave Link  801 at Wed May  4 02:11:46 2022, MaxMem= 10066329600 cpu:               6.8 elap:               0.3
 (Enter /sw/apps/gaussian-16.0/g16/l914.exe)
 RHF ground state
 Two-electron integrals replicated using symmetry.
 MDV= 10066329600 DFT=T DoStab=F Mixed=T DoRPA=T DoScal=F NonHer=T
 Making orbital integer symmetry assigments:
 Orbital symmetries:
       Occupied  (A) (A) (A) (A) (A) (A) (A) (A) (A) (A) (A) (A)
                 (A) (A) (A) (A) (A) (A) (A) (A) (A) (A) (A) (A)
                 (A) (A) (A) (A) (A) (A) (A) (A) (A) (A) (A) (A)
                 (A) (A) (A) (A) (A) (A) (A) (A) (A) (A) (A) (A)
                 (A) (A) (A) (A) (A) (A) (A) (A) (A) (A) (A) (A)
                 (A) (A) (A) (A) (A) (A) (A) (A) (A) (A) (A) (A)
                 (A) (A) (A) (A) (A) (A) (A) (A) (A) (A) (A) (A)
                 (A) (A) (A) (A) (A) (A) (A) (A) (A) (A) (A) (A)
                 (A) (A) (A) (A) (A) (A) (A) (A) (A) (A) (A) (A)
                 (A) (A) (A) (A) (A) (A) (A) (A) (A) (A) (A) (A)
                 (A) (A) (A) (A) (A) (A) (A) (A) (A) (A) (A) (A)
                 (A) (A) (A) (A) (A) (A) (A) (A) (A) (A) (A) (A)
                 (A) (A) (A) (A) (A) (A) (A) (A) (A) (A) (A) (A)
                 (A) (A) (A) (A) (A) (A) (A) (A) (A) (A) (A) (A)
                 (A) (A) (A) (A) (A) (A) (A) (A) (A) (A) (A) (A)
                 (A) (A) (A) (A) (A) (A) (A) (A) (A) (A) (A) (A)
                 (A) (A) (A) (A) (A) (A) (A) (A) (A) (A) (A) (A)
                 (A) (A) (A) (A) (A) (A) (A) (A) (A) (A) (A) (A)
                 (A) (A) (A) (A) (A) (A) (A) (A) (A) (A) (A) (A)
                 (A) (A) (A) (A) (A) (A) (A) (A) (A) (A) (A) (A)
                 (A) (A) (A) (A) (A) (A)
       Virtual   (A) (A) (A) (A) (A) (A) (A) (A) (A) (A) (A) (A)
                 (A) (A) (A) (A) (A) (A) (A) (A) (A) (A) (A) (A)
                 (A) (A) (A) (A) (A) (A) (A) (A) (A) (A) (A) (A)
                 (A) (A) (A) (A) (A) (A) (A) (A) (A) (A) (A) (A)
                 (A) (A) (A) (A) (A) (A) (A) (A) (A) (A) (A) (A)
                 (A) (A) (A) (A) (A) (A) (A) (A) (A) (A) (A) (A)
                 (A) (A) (A) (A) (A) (A) (A) (A) (A) (A) (A) (A)
                 (A) (A) (A) (A) (A) (A) (A) (A) (A) (A) (A) (A)
                 (A) (A) (A) (A) (A) (A) (A) (A) (A) (A) (A) (A)
                 (A) (A) (A) (A) (A) (A) (A) (A) (A) (A) (A) (A)
                 (A) (A) (A) (A) (A) (A) (A) (A) (A) (A) (A) (A)
                 (A) (A) (A) (A) (A) (A) (A) (A) (A) (A) (A) (A)
                 (A) (A) (A) (A) (A) (A) (A) (A) (A) (A) (A) (A)
                 (A) (A) (A) (A) (A) (A) (A) (A) (A) (A) (A) (A)
                 (A) (A) (A) (A) (A) (A) (A) (A) (A) (A) (A) (A)
                 (A) (A) (A) (A) (A) (A) (A) (A) (A) (A) (A) (A)
                 (A) (A) (A) (A) (A) (A) (A) (A) (A) (A) (A) (A)
                 (A) (A) (A) (A) (A) (A) (A) (A) (A) (A) (A) (A)
                 (A) (A) (A) (A) (A) (A) (A) (A) (A) (A) (A) (A)
                 (A) (A) (A) (A) (A) (A) (A) (A) (A) (A) (A) (A)
                 (A) (A) (A) (A) (A) (A) (A) (A) (A) (A) (A) (A)
                 (A) (A) (A) (A) (A) (A) (A) (A) (A) (A) (A) (A)
                 (A) (A) (A) (A) (A) (A) (A) (A) (A) (A) (A) (A)
                 (A) (A) (A) (A) (A) (A) (A) (A) (A) (A) (A) (A)
                 (A) (A) (A) (A) (A) (A) (A) (A) (A) (A) (A) (A)
                 (A) (A) (A) (A) (A) (A) (A) (A) (A) (A) (A) (A)
                 (A) (A) (A) (A) (A) (A) (A) (A) (A) (A) (A) (A)
                 (A) (A) (A) (A) (A) (A) (A) (A) (A) (A) (A) (A)
                 (A) (A) (A) (A) (A) (A) (A) (A) (A) (A) (A) (A)
                 (A) (A) (A) (A) (A) (A) (A) (A) (A) (A) (A) (A)
                 (A) (A) (A) (A) (A) (A) (A) (A) (A) (A) (A) (A)
                 (A) (A) (A) (A) (A) (A) (A) (A) (A) (A) (A) (A)
                 (A) (A) (A) (A) (A) (A) (A) (A) (A) (A) (A) (A)
                 (A) (A) (A) (A) (A) (A) (A) (A) (A) (A) (A) (A)
                 (A) (A) (A) (A) (A) (A) (A) (A) (A) (A) (A) (A)
                 (A) (A) (A) (A) (A) (A) (A) (A) (A) (A) (A) (A)
                 (A) (A) (A) (A) (A) (A) (A) (A) (A) (A) (A) (A)
                 (A) (A) (A) (A) (A) (A) (A) (A) (A) (A) (A) (A)
                 (A) (A) (A) (A) (A) (A) (A) (A) (A) (A) (A) (A)
                 (A) (A) (A) (A) (A) (A) (A) (A) (A) (A) (A) (A)
                 (A) (A) (A) (A) (A) (A) (A) (A) (A) (A) (A) (A)
                 (A) (A) (A) (A) (A) (A) (A) (A) (A) (A) (A) (A)
                 (A) (A) (A) (A) (A) (A) (A) (A) (A) (A) (A) (A)
                 (A) (A) (A) (A) (A) (A) (A) (A) (A) (A) (A) (A)
                 (A) (A) (A) (A) (A) (A) (A) (A) (A) (A) (A) (A)
                 (A) (A) (A) (A) (A) (A) (A) (A) (A) (A) (A) (A)
                 (A) (A) (A) (A) (A) (A) (A) (A) (A) (A) (A) (A)
                 (A) (A) (A) (A) (A) (A) (A) (A) (A) (A) (A) (A)
                 (A) (A) (A) (A) (A) (A) (A) (A) (A) (A) (A) (A)
                 (A) (A) (A) (A) (A) (A) (A) (A) (A) (A) (A) (A)
                 (A) (A) (A) (A) (A) (A) (A) (A) (A) (A) (A) (A)
                 (A) (A) (A) (A) (A) (A) (A) (A) (A) (A) (A) (A)
                 (A) (A) (A) (A) (A) (A) (A) (A) (A) (A) (A) (A)
                 (A) (A) (A) (A) (A) (A) (A) (A) (A) (A) (A) (A)
                 (A) (A) (A) (A) (A) (A) (A) (A) (A) (A) (A) (A)
                 (A) (A) (A) (A) (A) (A) (A) (A) (A) (A) (A) (A)
                 (A) (A) (A) (A) (A) (A) (A) (A) (A) (A) (A) (A)
                 (A) (A) (A) (A) (A) (A) (A) (A) (A) (A) (A) (A)
                 (A) (A) (A) (A) (A) (A) (A) (A) (A) (A) (A) (A)
                 (A) (A) (A) (A) (A) (A) (A) (A) (A) (A) (A) (A)
                 (A) (A) (A) (A) (A) (A) (A) (A) (A) (A) (A) (A)
                 (A) (A) (A) (A) (A) (A) (A) (A) (A) (A) (A) (A)
                 (A) (A) (A) (A) (A) (A) (A) (A) (A) (A) (A) (A)
                 (A) (A) (A) (A) (A) (A) (A) (A) (A) (A) (A) (A)
                 (A) (A) (A) (A) (A) (A) (A) (A) (A) (A) (A) (A)
                 (A) (A) (A) (A) (A) (A) (A) (A) (A) (A) (A) (A)
                 (A) (A) (A) (A) (A) (A) (A) (A) (A) (A) (A) (A)
                 (A) (A) (A) (A) (A) (A) (A) (A) (A) (A) (A) (A)
                 (A) (A) (A) (A) (A) (A) (A) (A) (A) (A) (A) (A)
                 (A) (A) (A) (A) (A) (A) (A) (A) (A) (A) (A) (A)
                 (A) (A) (A) (A) (A) (A) (A) (A) (A) (A) (A) (A)
                 (A) (A) (A) (A) (A) (A) (A) (A) (A) (A) (A) (A)
                 (A) (A) (A) (A) (A) (A) (A) (A) (A) (A) (A) (A)
                 (A) (A) (A) (A) (A) (A) (A) (A) (A) (A) (A) (A)
                 (A) (A) (A) (A) (A) (A) (A) (A) (A) (A) (A) (A)
                 (A) (A) (A) (A) (A) (A) (A) (A) (A) (A) (A) (A)
                 (A) (A) (A) (A) (A) (A) (A) (A) (A) (A) (A) (A)
                 (A) (A) (A) (A) (A) (A) (A) (A) (A) (A) (A) (A)
                 (A) (A) (A) (A) (A) (A) (A) (A) (A) (A) (A) (A)
                 (A) (A) (A) (A) (A) (A) (A) (A) (A) (A) (A) (A)
                 (A) (A) (A) (A) (A) (A) (A) (A) (A) (A) (A) (A)
                 (A) (A) (A) (A) (A) (A) (A) (A) (A) (A) (A) (A)
                 (A) (A) (A) (A) (A) (A) (A) (A) (A) (A) (A) (A)
                 (A) (A) (A) (A) (A) (A) (A) (A) (A) (A) (A) (A)
                 (A) (A) (A) (A) (A) (A) (A) (A) (A) (A) (A) (A)
                 (A) (A) (A) (A) (A) (A) (A) (A) (A) (A) (A) (A)
                 (A) (A) (A) (A) (A) (A) (A) (A) (A) (A) (A) (A)
                 (A) (A) (A) (A) (A) (A) (A) (A)
    20 initial guesses have been made.
 Convergence on wavefunction:    0.001000000000000
 Davidson Disk Diagonalization:  ConvIn= 1.00D-03 SkipCon=T Conv= 1.00D-03.
 Max sub-space:  2000 roots to seek:    20 dimension of matrix:       370304
 Iteration     1 Dimension    20 NMult     0 NNew     20
 CISAX will form    20 AO SS matrices at one time.
 NMat=    20 NSing=    20 JSym2X= 0.
 FoFJK:  IHMeth= 1 ICntrl=       0 DoSepK=T KAlg= 0 I1Cent=           0 FoldK=F
 IRaf=         1 NMat=      40 IRICut=       1 DoRegI=T DoRafI=F ISym2E= 0 IDoP0=3 IntGTp=3.
 FoFCou: FMM=T IPFlag=           0 FMFlag=      100000 FMFlg1=        2001
         NFxFlg=           0 DoJE=F BraDBF=F KetDBF=F FulRan=T
         wScrn=  0.000000 ICntrl=       500 IOpCl=  0 I1Cent=           0 NGrid=           0
         NMat0=   20 NMatS0=     20 NMatT0=    0 NMatD0=   20 NMtDS0=    0 NMtDT0=    0
 Symmetry not used in FoFCou.
 FMM levels:  10  Number of levels for PrismC:   9
 New state      3 was old state      5
 New state      4 was old state      8
 New state      5 was old state     12
 Excitation Energies [eV] at current iteration:
 Root      1 :     2.208506040054431
 Root      2 :     2.606798520651972
 Root      3 :     3.783397540669366
 Root      4 :     4.043759401160839
 Root      5 :     4.124500803243674
 Root      6 :     4.193271711167257
 Root      7 :     4.341858552535777
 Root      8 :     4.411625203189385
 Root      9 :     4.561185918524544
 Root     10 :     4.629669683546885
 Root     11 :     4.709116327422083
 Root     12 :     4.898453309235916
 Root     13 :     5.101651105761388
 Root     14 :     5.150576369630841
 Root     15 :     5.213354355537530
 Root     16 :     5.270689284589430
 Root     17 :     5.606475679812780
 Root     18 :     5.827884063458471
 Root     19 :     6.587446290435652
 Root     20 :     6.670091329813418
 Iteration     2 Dimension    30 NMult    20 NNew     10
 CISAX will form    10 AO SS matrices at one time.
 NMat=    10 NSing=    10 JSym2X= 0.
 Root      1 not converged, maximum delta is    0.074552843905715
 Root      2 not converged, maximum delta is    0.058388928765070
 Root      3 not converged, maximum delta is    0.068640191793044
 Root      4 not converged, maximum delta is    0.077109238038818
 Root      5 not converged, maximum delta is    0.207516766336133
 Excitation Energies [eV] at current iteration:
 Root      1 :     1.709755321952577   Change is   -0.498750718101854
 Root      2 :     2.193415379805943   Change is   -0.413383140846028
 Root      3 :     3.449913834143913   Change is   -0.333483706525453
 Root      4 :     3.619693055308479   Change is   -0.424066345852360
 Root      5 :     3.929314605254987   Change is   -0.195186197988687
 Iteration     3 Dimension    40 NMult    30 NNew     10
 CISAX will form    10 AO SS matrices at one time.
 NMat=    10 NSing=    10 JSym2X= 0.
 Root      1 not converged, maximum delta is    0.016804246105231
 Root      2 not converged, maximum delta is    0.014575968214319
 Root      3 not converged, maximum delta is    0.052943754599732
 Root      4 not converged, maximum delta is    0.097686107472282
 Root      5 not converged, maximum delta is    0.318380956569534
 Excitation Energies [eV] at current iteration:
 Root      1 :     1.671035028240986   Change is   -0.038720293711591
 Root      2 :     2.171781056090400   Change is   -0.021634323715543
 Root      3 :     3.433409308586947   Change is   -0.016504525556966
 Root      4 :     3.565190926630602   Change is   -0.054502128677877
 Root      5 :     3.670399345292622   Change is   -0.258915259962365
 Iteration     4 Dimension    50 NMult    40 NNew     10
 CISAX will form    10 AO SS matrices at one time.
 NMat=    10 NSing=    10 JSym2X= 0.
 Root      1 not converged, maximum delta is    0.004643459036337
 Root      2 not converged, maximum delta is    0.003455538136124
 Root      3 not converged, maximum delta is    0.010357836220025
 Root      4 not converged, maximum delta is    0.168976562708275
 Root      5 not converged, maximum delta is    0.227025019628718
 Excitation Energies [eV] at current iteration:
 Root      1 :     1.666749508422139   Change is   -0.004285519818847
 Root      2 :     2.169189702184258   Change is   -0.002591353906142
 Root      3 :     3.430240695957145   Change is   -0.003168612629803
 Root      4 :     3.531978921777066   Change is   -0.033212004853536
 Root      5 :     3.590482928406929   Change is   -0.079916416885693
 Iteration     5 Dimension    60 NMult    50 NNew     10
 CISAX will form    10 AO SS matrices at one time.
 NMat=    10 NSing=    10 JSym2X= 0.
 Root      1 not converged, maximum delta is    0.001150459887753
 Root      2 has converged.
 Root      3 not converged, maximum delta is    0.002102176769962
 Root      4 not converged, maximum delta is    0.080079713287071
 Root      5 not converged, maximum delta is    0.077523839420920
 Excitation Energies [eV] at current iteration:
 Root      1 :     1.666354898419201   Change is   -0.000394610002938
 Root      2 :     2.168985189444271   Change is   -0.000204512739987
 Root      3 :     3.429792658666279   Change is   -0.000448037290866
 Root      4 :     3.517393295771647   Change is   -0.014585626005419
 Root      5 :     3.578866513565667   Change is   -0.011616414841262
 Iteration     6 Dimension    68 NMult    60 NNew      8
 CISAX will form     8 AO SS matrices at one time.
 NMat=     8 NSing=     8 JSym2X= 0.
 Root      1 has converged.
 Root      2 has converged.
 Root      3 has converged.
 Root      4 not converged, maximum delta is    0.043700468295237
 Root      5 not converged, maximum delta is    0.048057199607215
 Excitation Energies [eV] at current iteration:
 Root      1 :     1.666316757108886   Change is   -0.000038141310315
 Root      2 :     2.168981958765174   Change is   -0.000003230679097
 Root      3 :     3.429743291799524   Change is   -0.000049366866754
 Root      4 :     3.511459085782865   Change is   -0.005934209988782
 Root      5 :     3.575302889654898   Change is   -0.003563623910769
 Iteration     7 Dimension    72 NMult    68 NNew      4
 CISAX will form     4 AO SS matrices at one time.
 NMat=     4 NSing=     4 JSym2X= 0.
 Root      1 has converged.
 Root      2 has converged.
 Root      3 has converged.
 Root      4 not converged, maximum delta is    0.162513961411206
 Root      5 not converged, maximum delta is    0.350204407170636
 Excitation Energies [eV] at current iteration:
 Root      1 :     1.666316710416492   Change is   -0.000000046692394
 Root      2 :     2.168981859717897   Change is   -0.000000099047276
 Root      3 :     3.429743170795072   Change is   -0.000000121004453
 Root      4 :     3.499557626185339   Change is   -0.011901459597525
 Root      5 :     3.552581252581741   Change is   -0.022721637073157
 Iteration     8 Dimension    76 NMult    72 NNew      4
 CISAX will form     4 AO SS matrices at one time.
 NMat=     4 NSing=     4 JSym2X= 0.
 Root      1 has converged.
 Root      2 has converged.
 Root      3 has converged.
 Root      4 not converged, maximum delta is    0.072850619256128
 Root      5 not converged, maximum delta is    0.089446709860008
 Excitation Energies [eV] at current iteration:
 Root      1 :     1.666316576558704   Change is   -0.000000133857788
 Root      2 :     2.168981658855845   Change is   -0.000000200862053
 Root      3 :     3.429742900161052   Change is   -0.000000270634020
 Root      4 :     3.493778895320744   Change is   -0.005778730864595
 Root      5 :     3.542955833246392   Change is   -0.009625419335349
 Iteration     9 Dimension    80 NMult    76 NNew      4
 CISAX will form     4 AO SS matrices at one time.
 NMat=     4 NSing=     4 JSym2X= 0.
 Root      1 has converged.
 Root      2 has converged.
 Root      3 has converged.
 Root      4 not converged, maximum delta is    0.009013321477018
 Root      5 not converged, maximum delta is    0.009484226891365
 Excitation Energies [eV] at current iteration:
 Root      1 :     1.666316511543432   Change is   -0.000000065015272
 Root      2 :     2.168981048590855   Change is   -0.000000610264989
 Root      3 :     3.429742654301805   Change is   -0.000000245859247
 Root      4 :     3.492963069729825   Change is   -0.000815825590919
 Root      5 :     3.541923151259885   Change is   -0.001032681986508
 Iteration    10 Dimension    84 NMult    80 NNew      4
 CISAX will form     4 AO SS matrices at one time.
 NMat=     4 NSing=     4 JSym2X= 0.
 Root      1 has converged.
 Root      2 has converged.
 Root      3 has converged.
 Root      4 not converged, maximum delta is    0.001824094120693
 Root      5 not converged, maximum delta is    0.002269786776140
 Excitation Energies [eV] at current iteration:
 Root      1 :     1.666316368778166   Change is   -0.000000142765266
 Root      2 :     2.168980467243709   Change is   -0.000000581347146
 Root      3 :     3.429742512486768   Change is   -0.000000141815037
 Root      4 :     3.492836934174817   Change is   -0.000126135555008
 Root      5 :     3.541764756841188   Change is   -0.000158394418696
 Iteration    11 Dimension    88 NMult    84 NNew      4
 CISAX will form     4 AO SS matrices at one time.
 NMat=     4 NSing=     4 JSym2X= 0.
 Root      1 has converged.
 Root      2 has converged.
 Root      3 has converged.
 Root      4 has converged.
 Root      5 not converged, maximum delta is    0.001139513876236
 Excitation Energies [eV] at current iteration:
 Root      1 :     1.666316325806598   Change is   -0.000000042971568
 Root      2 :     2.168980240039255   Change is   -0.000000227204454
 Root      3 :     3.429742282727164   Change is   -0.000000229759604
 Root      4 :     3.492817843252945   Change is   -0.000019090921872
 Root      5 :     3.541738598858501   Change is   -0.000026157982687
 Iteration    12 Dimension    90 NMult    88 NNew      2
 CISAX will form     2 AO SS matrices at one time.
 NMat=     2 NSing=     2 JSym2X= 0.
 Root      1 has converged.
 Root      2 has converged.
 Root      3 has converged.
 Root      4 has converged.
 Root      5 has converged.
 Excitation Energies [eV] at current iteration:
 Root      1 :     1.666316321882206   Change is   -0.000000003924392
 Root      2 :     2.168980233458197   Change is   -0.000000006581058
 Root      3 :     3.429742255591708   Change is   -0.000000027135456
 Root      4 :     3.492814826431840   Change is   -0.000003016821105
 Root      5 :     3.541733434265375   Change is   -0.000005164593126
 Convergence achieved on expansion vectors.
 ***********************************************************************
 Excited states from <AA,BB:AA,BB> singles matrix:
 ***********************************************************************
 
 1PDM for each excited state written to RWF  633
 Ground to excited state transition densities written to RWF  633
 Ground to excited state transition electric dipole moments (Au):
       state          X           Y           Z        Dip. S.      Osc.
         1        -1.3142      2.3949     -1.4099      9.4505      0.3858
         2         0.4735      1.1533      0.7459      2.1107      0.1122
         3         0.2578      0.2525      0.3065      0.2241      0.0188
         4        -0.2337     -0.2451     -0.3353      0.2271      0.0194
         5         0.1041      0.1112      0.0728      0.0285      0.0025
 Ground to excited state transition velocity dipole moments (Au):
       state          X           Y           Z        Dip. S.      Osc.
         1         0.0768     -0.1425      0.0834      0.0332      0.3612
         2        -0.0350     -0.0867     -0.0545      0.0117      0.0979
         3        -0.0281     -0.0304     -0.0329      0.0028      0.0148
         4         0.0304      0.0323      0.0380      0.0034      0.0177
         5        -0.0100     -0.0137     -0.0122      0.0004      0.0022
 Ground to excited state transition magnetic dipole moments (Au):
       state          X           Y           Z
         1         0.1662     -0.6702     -1.3603
         2        -0.7392      0.4259     -0.3214
         3        -0.7368      0.3208      0.2137
         4         0.3106     -0.9479      0.7996
[...]
 Alpha virt. eigenvalues --    1.26666   1.26809   1.27317   1.27807   1.28686
 Alpha virt. eigenvalues --    1.29038   1.29681   1.30146   1.30571   1.30689
 Alpha virt. eigenvalues --    1.31107   1.31812   1.32000   1.32475   1.32927
 Alpha virt. eigenvalues --    1.33443   1.33685   1.34725   1.34902   1.35857
 Alpha virt. eigenvalues --    1.35954   1.36249   1.36489   1.36686   1.36873
 Alpha virt. eigenvalues --    1.37533   1.38192   1.39023   1.39694   1.39938
 Alpha virt. eigenvalues --    1.40092   1.40483   1.40647   1.40818   1.41227
 Alpha virt. eigenvalues --    1.41341   1.41458   1.42129   1.42827   1.43335
 Alpha virt. eigenvalues --    1.43700   1.44059   1.44632   1.45231   1.45532
 Alpha virt. eigenvalues --    1.46281   1.46448   1.46590   1.46955   1.47619
 Alpha virt. eigenvalues --    1.47772   1.48682   1.48943   1.48969   1.49071
 Alpha virt. eigenvalues --    1.49616   1.49810   1.50364   1.50916   1.51143
 Alpha virt. eigenvalues --    1.51231   1.51577   1.51925   1.52779   1.53576
 Alpha virt. eigenvalues --    1.53656   1.54213   1.55091   1.55426   1.55993
 Alpha virt. eigenvalues --    1.56103   1.57422   1.57463   1.57704   1.58495
 Alpha virt. eigenvalues --    1.58953   1.59059   1.59331   1.59757   1.59941
 Alpha virt. eigenvalues --    1.60266   1.60311   1.60611   1.61285   1.61532
 Alpha virt. eigenvalues --    1.61680   1.61929   1.62144   1.62330   1.62802
 Alpha virt. eigenvalues --    1.62818   1.62864   1.63130   1.63373   1.63527
 Alpha virt. eigenvalues --    1.63734   1.63867   1.63953   1.64231   1.64329
 Alpha virt. eigenvalues --    1.64504   1.65098   1.65377   1.65502   1.65658
 Alpha virt. eigenvalues --    1.66264   1.66784   1.67351   1.67416   1.67708
 Alpha virt. eigenvalues --    1.68526   1.69014   1.69814   1.69960   1.69981
 Alpha virt. eigenvalues --    1.70468   1.71191   1.71533   1.72456   1.72640
 Alpha virt. eigenvalues --    1.73510   1.73625   1.74041   1.74400   1.74898
 Alpha virt. eigenvalues --    1.74920   1.75312   1.75587   1.76031   1.76810
 Alpha virt. eigenvalues --    1.76932   1.77271   1.78011   1.78275   1.78720
 Alpha virt. eigenvalues --    1.78901   1.79305   1.79548   1.79669   1.79729
 Alpha virt. eigenvalues --    1.80235   1.80635   1.80846   1.81137   1.81338
 Alpha virt. eigenvalues --    1.81673   1.82022   1.82196   1.82464   1.82484
 Alpha virt. eigenvalues --    1.82647   1.82814   1.82978   1.83743   1.84041
 Alpha virt. eigenvalues --    1.84121   1.84446   1.84617   1.84733   1.84958
 Alpha virt. eigenvalues --    1.85190   1.85395   1.85860   1.86047   1.86164
 Alpha virt. eigenvalues --    1.86431   1.86526   1.86898   1.87004   1.87053
 Alpha virt. eigenvalues --    1.87279   1.87371   1.87754   1.87882   1.88143
 Alpha virt. eigenvalues --    1.88247   1.88324   1.88566   1.88812   1.88883
 Alpha virt. eigenvalues --    1.89238   1.89431   1.89493   1.89602   1.89700
 Alpha virt. eigenvalues --    1.90086   1.90332   1.90417   1.90781   1.91024
 Alpha virt. eigenvalues --    1.91173   1.91293   1.91490   1.91778   1.92062
 Alpha virt. eigenvalues --    1.92358   1.92618   1.92747   1.92911   1.93094
 Alpha virt. eigenvalues --    1.93218   1.93951   1.93965   1.94253   1.94549
 Alpha virt. eigenvalues --    1.94631   1.94718   1.95267   1.95349   1.95467
 Alpha virt. eigenvalues --    1.95575   1.95903   1.96655   1.96729   1.96885
 Alpha virt. eigenvalues --    1.97072   1.97259   1.97317   1.97707   1.97853
 Alpha virt. eigenvalues --    1.98244   1.98325   1.98559   1.98768   1.99510
 Alpha virt. eigenvalues --    1.99633   1.99816   1.99954   2.00124   2.00375
 Alpha virt. eigenvalues --    2.00875   2.01698   2.02201   2.02340   2.02397
 Alpha virt. eigenvalues --    2.02796   2.02941   2.03230   2.03432   2.03545
 Alpha virt. eigenvalues --    2.03885   2.04039   2.04188   2.04452   2.05275
 Alpha virt. eigenvalues --    2.05378   2.05757   2.05830   2.06016   2.06135
 Alpha virt. eigenvalues --    2.06247   2.06703   2.07064   2.07380   2.07865
 Alpha virt. eigenvalues --    2.07930   2.08141   2.08601   2.08817   2.08920
 Alpha virt. eigenvalues --    2.09379   2.09717   2.09881   2.09935   2.10180
 Alpha virt. eigenvalues --    2.10699   2.11264   2.11535   2.11673   2.11996
 Alpha virt. eigenvalues --    2.12529   2.12856   2.13057   2.13280   2.13442
 Alpha virt. eigenvalues --    2.13701   2.13881   2.14005   2.14549   2.14854
 Alpha virt. eigenvalues --    2.15022   2.15253   2.15601   2.15883   2.16228
 Alpha virt. eigenvalues --    2.16687   2.16902   2.17257   2.17446   2.17930
 Alpha virt. eigenvalues --    2.18134   2.18214   2.18508   2.18862   2.18900
 Alpha virt. eigenvalues --    2.19836   2.20069   2.20282   2.20442   2.20848
 Alpha virt. eigenvalues --    2.20910   2.21343   2.21741   2.22171   2.22368
 Alpha virt. eigenvalues --    2.23170   2.23198   2.23318   2.23672   2.23883
 Alpha virt. eigenvalues --    2.24446   2.24726   2.24905   2.25703   2.25931
 Alpha virt. eigenvalues --    2.26266   2.27618   2.27643   2.27842   2.28150
 Alpha virt. eigenvalues --    2.28305   2.29414   2.29853   2.30131   2.30837
 Alpha virt. eigenvalues --    2.30879   2.31465   2.31990   2.32087   2.32669
 Alpha virt. eigenvalues --    2.33049   2.33780   2.34328   2.34710   2.34943
 Alpha virt. eigenvalues --    2.35240   2.35288   2.35845   2.36039   2.36177
 Alpha virt. eigenvalues --    2.36544   2.36781   2.37452   2.37984   2.38041
 Alpha virt. eigenvalues --    2.38606   2.39162   2.39226   2.39882   2.40418
 Alpha virt. eigenvalues --    2.40794   2.40856   2.41345   2.41372   2.41565
 Alpha virt. eigenvalues --    2.42032   2.42481   2.42916   2.43025   2.43465
 Alpha virt. eigenvalues --    2.43621   2.43853   2.44274   2.44839   2.44872
 Alpha virt. eigenvalues --    2.45239   2.45492   2.46054   2.46618   2.46817
 Alpha virt. eigenvalues --    2.47020   2.47556   2.47769   2.47882   2.48208
 Alpha virt. eigenvalues --    2.48393   2.48925   2.48961   2.49118   2.49887
 Alpha virt. eigenvalues --    2.50031   2.50143   2.50480   2.51476   2.51522
 Alpha virt. eigenvalues --    2.51824   2.52364   2.53059   2.53137   2.53638
 Alpha virt. eigenvalues --    2.54127   2.54287   2.54502   2.54943   2.55981
 Alpha virt. eigenvalues --    2.56150   2.56556   2.56899   2.57364   2.57709
 Alpha virt. eigenvalues --    2.58469   2.58584   2.59124   2.59370   2.59651
 Alpha virt. eigenvalues --    2.61355   2.61619   2.62070   2.62245   2.62795
 Alpha virt. eigenvalues --    2.62835   2.63057   2.64222   2.64545   2.64622
 Alpha virt. eigenvalues --    2.65158   2.65596   2.65715   2.66455   2.66653
 Alpha virt. eigenvalues --    2.66802   2.67160   2.67565   2.68246   2.68948
 Alpha virt. eigenvalues --    2.69135   2.69381   2.70084   2.70227   2.71316
 Alpha virt. eigenvalues --    2.71476   2.71877   2.72153   2.72580   2.73046
 Alpha virt. eigenvalues --    2.73570   2.74404   2.74442   2.74812   2.75382
 Alpha virt. eigenvalues --    2.75478   2.76138   2.76371   2.77137   2.77336
 Alpha virt. eigenvalues --    2.77844   2.78231   2.78539   2.78912   2.79296
 Alpha virt. eigenvalues --    2.79544   2.79806   2.80224   2.80621   2.80669
 Alpha virt. eigenvalues --    2.80973   2.81462   2.82212   2.82352   2.82819
 Alpha virt. eigenvalues --    2.83437   2.83502   2.83968   2.84817   2.84976
 Alpha virt. eigenvalues --    2.85750   2.86143   2.86354   2.86940   2.87910
 Alpha virt. eigenvalues --    2.88484   2.89017   2.90039   2.90479   2.90633
 Alpha virt. eigenvalues --    2.91224   2.92298   2.92669   2.92846   2.93212
 Alpha virt. eigenvalues --    2.93539   2.93889   2.95047   2.95203   2.95767
 Alpha virt. eigenvalues --    2.96417   2.96571   2.97024   2.97328   2.97966
 Alpha virt. eigenvalues --    2.98221   2.98630   2.99051   2.99318   2.99672
 Alpha virt. eigenvalues --    2.99760   2.99846   3.00007   3.00019   3.00269
 Alpha virt. eigenvalues --    3.00812   3.01036   3.01630   3.01978   3.02456
 Alpha virt. eigenvalues --    3.02679   3.02908   3.02922   3.03771   3.03879
 Alpha virt. eigenvalues --    3.04019   3.04417   3.04536   3.05161   3.05815
 Alpha virt. eigenvalues --    3.05903   3.06241   3.06267   3.06600   3.06691
 Alpha virt. eigenvalues --    3.07002   3.07266   3.07475   3.07779   3.07844
 Alpha virt. eigenvalues --    3.07970   3.08124   3.08607   3.08908   3.09590
 Alpha virt. eigenvalues --    3.09901   3.10284   3.11069   3.11541   3.12173
 Alpha virt. eigenvalues --    3.12260   3.12845   3.13002   3.13341   3.13629
 Alpha virt. eigenvalues --    3.14264   3.14322   3.14439   3.14860   3.15182
 Alpha virt. eigenvalues --    3.15315   3.16359   3.17061   3.18132   3.18604
 Alpha virt. eigenvalues --    3.19246   3.20247   3.20854   3.21065   3.22114
 Alpha virt. eigenvalues --    3.22334   3.22847   3.25053   3.25474   3.25985
 Alpha virt. eigenvalues --    3.26233   3.27366   3.30320   3.31611   3.33306
 Alpha virt. eigenvalues --    3.33795   3.34656   3.44292   3.46586   3.48140
 Alpha virt. eigenvalues --    3.50294   3.50930   3.53657   3.56591   3.56987
 Alpha virt. eigenvalues --    3.62562   3.68986   3.70186   3.71620   3.74945
 Alpha virt. eigenvalues --    3.75980   3.80903
          Condensed to atoms (all electrons):
 Mulliken charges:
               1
     1  Mg   0.960366
     2  C   -0.025749
     3  C   -0.105727
     4  C   -0.079447
     5  C   -0.062823
     6  N   -0.339463
     7  C   -0.025240
     8  C   -0.060587
     9  C   -0.084736
    10  C    0.077199
    11  C    0.033731
    12  C    0.026112
    13  C    0.007203
    14  C    0.177776
    15  O   -0.254792
    16  O   -0.366004
    17  N   -0.466602
    18  C    0.146167
    19  C   -0.162034
    20  C   -0.080939
    21  C    0.222773
    22  C    0.092375
    23  C    0.050838
    24  O   -0.235594
    25  C   -0.034503
    26  N   -0.351861
    27  C    0.000501
    28  C   -0.145893
    29  C   -0.006410
    30  C    0.054013
    31  C    0.031218
    32  C   -0.014386
    33  C   -0.071268
    34  N   -0.410906
    35  C    0.073834
    36  C   -0.189520
    37  C   -0.055656
    38  C    0.187924
    39  C    0.089322
    40  C    0.109410
    41  O   -0.210103
    42  C   -0.077937
    43  C    0.259615
    44  O   -0.198500
    45  O   -0.381917
    46  C    0.138873
    47  C    0.280089
    48  C   -0.161342
    49  C   -0.231232
    50  C    0.043674
    51  C    0.009186
    52  C   -0.068127
    53  C    0.044033
    54  C   -0.228158
    55  C    0.003977
    56  C    0.054006
    57  C   -0.066249
    58  C   -0.008421
    59  C   -0.156616
    60  C   -0.007260
    61  C    0.032523
    62  C   -0.054033
    63  C    0.034370
    64  C   -0.214419
    65  C   -0.013567
    66  C   -0.024606
    67  H   -0.004919
    68  H   -0.026115
    69  H   -0.004627
    70  H    0.030471
    71  H    0.031425
    72  H    0.032741
    73  H    0.026730
    74  H    0.053453
    75  H    0.034929
    76  H    0.055753
    77  H    0.037254
    78  H    0.065150
    79  H    0.074785
    80  H    0.014978
    81  H    0.056006
    82  H    0.058438
    83  H    0.070202
    84  H    0.053715
    85  H    0.041069
    86  H    0.036826
    87  H    0.036498
    88  H    0.057325
    89  H    0.041121
    90  H    0.036204
    91  H    0.031662
    92  H    0.028360
    93  H    0.043753
    94  H    0.040298
    95  H    0.011866
    96  H    0.056378
    97  H    0.072486
    98  H    0.066593
    99  H    0.056039
   100  H    0.070876
   101  H    0.042367
   102  H    0.070357
   103  H    0.064057
   104  H    0.036443
   105  H    0.050532
   106  H    0.055459
   107  H    0.038967
   108  H    0.037993
   109  H    0.011239
   110  H    0.037104
   111  H    0.027025
   112  H    0.032603
   113  H    0.020713
   114  H    0.026530
   115  H    0.028403
   116  H    0.017268
   117  H    0.023893
   118  H    0.024380
   119  H    0.003718
   120  H    0.009807
   121  H    0.014293
   122  H    0.001087
   123  H    0.029133
   124  H    0.018467
   125  H    0.027238
   126  H    0.020528
   127  H    0.016658
   128  H    0.017993
   129  H    0.028866
   130  H    0.006276
   131  H    0.020106
   132  H    0.023005
   133  H    0.028791
   134  H    0.028028
   135  H    0.025331
   136  H    0.014721
   137  H    0.040330
   138  H    0.029119
   139  H    0.033220
   140  H    0.021749
 Sum of Mulliken charges =  -0.00000
 Mulliken charges with hydrogens summed into heavy atoms:
               1
     1  Mg   0.960366
     2  C   -0.025749
     3  C   -0.110646
     4  C   -0.105562
     5  C   -0.067451
     6  N   -0.339463
     7  C   -0.025240
     8  C   -0.030116
     9  C   -0.053310
    10  C    0.077199
    11  C    0.146654
    12  C    0.116794
    13  C    0.109606
    14  C    0.177776
    15  O   -0.254792
    16  O   -0.366004
    17  N   -0.466602
    18  C    0.146167
    19  C   -0.162034
    20  C   -0.080939
    21  C    0.222773
    22  C    0.238143
    23  C    0.050838
    24  O   -0.235594
    25  C    0.147852
    26  N   -0.351861
    27  C    0.000501
    28  C   -0.104823
    29  C    0.030416
    30  C    0.054013
    31  C    0.166162
    32  C    0.053480
    33  C    0.041143
    34  N   -0.410906
    35  C    0.073834
    36  C   -0.189520
    37  C   -0.055656
    38  C    0.187924
    39  C    0.230053
    40  C    0.109410
    41  O   -0.210103
    42  C   -0.011344
    43  C    0.259615
    44  O   -0.198500
    45  O   -0.381917
    46  C    0.308155
    47  C    0.414503
    48  C   -0.124899
    49  C   -0.231232
    50  C    0.188633
    51  C    0.058418
    52  C   -0.003999
    53  C    0.097349
    54  C   -0.201628
    55  C    0.073541
    56  C    0.082103
    57  C   -0.042149
    58  C    0.021800
    59  C   -0.138150
    60  C    0.057165
    61  C    0.079382
    62  C   -0.027651
    63  C    0.086166
    64  C   -0.186391
    65  C    0.066814
    66  C    0.059482
 Electronic spatial extent (au):  <R**2>=          89345.0199
 Charge=             -0.0000 electrons
 Dipole moment (field-independent basis, Debye):
    X=              0.2785    Y=              2.9722    Z=              0.9619  Tot=              3.1364
 Quadrupole moment (field-independent basis, Debye-Ang):
   XX=           -378.6812   YY=           -431.4315   ZZ=           -384.4251
   XY=             46.1121   XZ=              2.0133   YZ=             14.8104
 Traceless Quadrupole moment (field-independent basis, Debye-Ang):
   XX=             19.4980   YY=            -33.2522   ZZ=             13.7542
   XY=             46.1121   XZ=              2.0133   YZ=             14.8104
 Octapole moment (field-independent basis, Debye-Ang**2):
  XXX=             84.5706  YYY=           -123.8145  ZZZ=            -48.9986  XYY=            -64.1092
  XXY=            184.6905  XXZ=             85.3709  XZZ=            103.5417  YZZ=             -5.7981
  YYZ=            224.3954  XYZ=             65.3973
 Hexadecapole moment (field-independent basis, Debye-Ang**3):
 XXXX=         -71481.2931 YYYY=         -38082.6435 ZZZZ=         -13280.5939 XXXY=           1221.6739
 XXXZ=            355.8614 YYYX=           1175.4642 YYYZ=            414.2270 ZZZX=            304.3825
 ZZZY=            223.3114 XXYY=         -18150.5876 XXZZ=         -13829.3550 YYZZ=          -8796.9710
 XXYZ=            365.0414 YYXZ=            206.6696 ZZXY=            -10.3105
 N-N= 9.789058555858D+03 E-N=-2.657028186121D+04  KE= 2.975214204783D+03
 Leave Link  601 at Wed May  4 02:35:20 2022, MaxMem= 10066329600 cpu:              10.2 elap:               0.5
 (Enter /sw/apps/gaussian-16.0/g16/l9999.exe)
 1\1\GINC-BP1-COMPUTE050\SP\RwB97XD TD-FC\def2SVP\C55H74Mg1N4O6\OF15641
 \04-May-2022\0\\#p wB97XD/Def2SVP td=(nstates=5)\\step_1251_chromophor
 e_20 TDDFT with wB97XD functional\\0,1\Mg,0,6.458,58.052,41.721\C,0,5.
 024,54.841,41.348\C,0,9.394,56.738,40.752\C,0,7.465,61.125,41.255\C,0,
 3.053,59.25,42.298\N,0,7.061,56.018,40.929\C,0,6.351,54.834,40.972\C,0
 ,7.253,53.623,40.702\C,0,8.688,54.27,40.868\C,0,8.384,55.765,40.81\C,0
 ,9.59,53.634,41.956\C,0,6.939,52.91,39.322\C,0,7.229,51.431,39.239\C,0
 ,6.453,50.653,38.127\O,0,5.847,49.629,38.328\O,0,6.7,51.182,36.922\N,0
 ,8.233,58.823,41.156\C,0,9.336,58.162,40.762\C,0,10.377,59.071,40.383\
 C,0,9.89,60.404,40.591\C,0,8.446,60.146,41.005\C,0,11.725,58.607,39.69
 1\C,0,10.626,61.697,40.26\O,0,11.78,61.745,39.813\C,0,9.901,63.068,40.
 584\N,0,5.326,59.912,41.598\C,0,6.084,61.025,41.542\C,0,5.193,62.235,4
 1.972\C,0,3.808,61.611,42.367\C,0,4.059,60.176,42.079\C,0,5.794,63.06,
 43.132\C,0,2.615,62.263,41.665\C,0,1.404,62.867,42.516\N,0,4.456,57.23
 ,41.981\C,0,3.17,57.817,42.237\C,0,2.221,56.74,42.351\C,0,2.911,55.589
 ,42.047\C,0,4.262,55.94,41.787\C,0,0.699,56.835,42.64\C,0,2.721,54.137
 ,41.957\O,0,1.793,53.393,42.259\C,0,4.036,53.618,41.357\C,0,3.561,53.0
 79,40.016\O,0,3.307,53.718,39.056\O,0,3.484,51.709,40.178\C,0,2.787,50
 .863,39.195\C,0,5.888,50.667,35.784\C,0,6.4,51.384,34.574\C,0,5.77,51.
 53,33.355\C,0,4.434,50.926,32.895\C,0,6.358,52.456,32.253\C,0,5.512,53
 .753,32.06\C,0,4.941,53.833,30.638\C,0,5.331,55.246,30.069\C,0,4.032,5
 5.849,29.39\C,0,6.502,55.267,29.083\C,0,7.367,56.489,29.325\C,0,8.413,
 56.314,30.452\C,0,9.865,56.526,29.956\C,0,10.899,55.672,30.805\C,0,10.
 166,58.074,29.808\C,0,10.92,58.505,28.553\C,0,12.169,59.394,28.822\C,0
 ,13.452,58.489,28.813\C,0,14.246,58.535,30.139\C,0,14.403,58.793,27.59
 2\H,0,10.427,56.394,40.673\H,0,7.65,62.199,41.191\H,0,2.039,59.564,42.
 556\H,0,7.145,52.91,41.52\H,0,9.247,54.144,39.941\H,0,8.996,53.129,42.
 718\H,0,10.022,54.426,42.567\H,0,10.386,52.988,41.586\H,0,7.581,53.342
 ,38.555\H,0,5.894,53.095,39.074\H,0,6.788,51.162,40.199\H,0,8.243,51.0
 41,39.149\H,0,11.677,58.853,38.631\H,0,11.848,57.548,39.915\H,0,12.623
 ,59.029,40.144\H,0,9.555,62.988,41.614\H,0,9.087,63.23,39.876\H,0,10.6
 26,63.881,40.544\H,0,5.218,62.805,41.044\H,0,3.774,61.71,43.452\H,0,6.
 288,63.889,42.625\H,0,6.403,62.373,43.719\H,0,4.966,63.547,43.648\H,0,
 2.062,61.526,41.083\H,0,2.92,62.968,40.893\H,0,1.643,62.766,43.574\H,0
 ,0.431,62.393,42.384\H,0,1.268,63.923,42.284\H,0,0.477,57.898,42.739\H
 ,0,0.344,56.467,43.602\H,0,0.248,56.31,41.798\H,0,4.453,52.822,41.975\
 H,0,1.704,50.846,39.32\H,0,3.078,49.815,39.265\H,0,3.054,51.255,38.214
 \H,0,4.834,50.849,35.996\H,0,6.27,49.655,35.649\H,0,7.298,51.986,34.71
 6\H,0,4.504,50.632,31.848\H,0,3.738,51.74,33.097\H,0,4.2,50.066,33.522
 \H,0,6.653,51.854,31.393\H,0,7.323,52.895,32.507\H,0,6.055,54.591,32.4
 97\H,0,4.598,53.786,32.652\H,0,3.861,53.685,30.639\H,0,5.513,53.132,30
 .03\H,0,5.597,55.91,30.891\H,0,3.314,55.039,29.26\H,0,4.245,56.369,28.
 457\H,0,3.581,56.647,29.981\H,0,6.246,55.255,28.023\H,0,7.034,54.35,29
 .338\H,0,6.811,57.323,29.753\H,0,7.664,56.99,28.404\H,0,8.227,55.263,3
 0.674\H,0,8.171,56.91,31.332\H,0,9.883,55.993,29.006\H,0,10.432,55.183
 ,31.66\H,0,11.826,56.184,31.062\H,0,11.287,54.819,30.247\H,0,10.82,58.
 309,30.647\H,0,9.226,58.623,29.866\H,0,10.176,59.107,28.031\H,0,11.083
 ,57.733,27.801\H,0,12.061,59.733,29.852\H,0,12.247,60.133,28.024\H,0,1
 3.128,57.453,28.705\H,0,14.097,59.52,30.582\H,0,15.325,58.526,29.99\H,
 0,14.012,57.694,30.792\H,0,13.962,58.186,26.801\H,0,15.468,58.659,27.7
 82\H,0,14.386,59.795,27.163\\Version=ES64L-G16RevA.03\State=1-A\HF=-30
 07.8318719\RMSD=9.981e-09\PG=C01 [X(C55H74Mg1N4O6)]\\@


 WE SHOULD BE CAREFUL TO GET OUT OF AN EXPERIENCE ONLY THE WISDOM
 THAT IS IN IT -- AND STOP THERE;
 LEST WE BE LIKE THE CAT THAT SITS DOWN ON A HOT STOVE-LID.
 SHE WILL NEVER SIT DOWN ON A HOT STOVE LID AGAIN;
 BUT ALSO SHE WILL NEVER SIT DOWN ON A COLD ONE ANY MORE.

                                                     -- MARK TWAIN
 Job cpu time:       0 days 12 hours  1 minutes  9.8 seconds.
 Elapsed time:       0 days  0 hours 30 minutes 33.8 seconds.
 File lengths (MBytes):  RWF=   8929 Int=      0 D2E=      0 Chk=    390 Scr=      1
 Normal termination of Gaussian 16 at Wed May  4 02:35:21 2022.
