 Entering Gaussian System, Link 0=g16
 Initial command:
 /sw/apps/gaussian-16.0/g16/l1.exe "/tmp/Gau-125204.inp" -scrdir="/tmp/"
 Entering Link 1 = /sw/apps/gaussian-16.0/g16/l1.exe PID=    125205.
  
 Copyright (c) 1988,1990,1992,1993,1995,1998,2003,2009,2016,
            Gaussian, Inc.  All Rights Reserved.
  
 This is part of the Gaussian(R) 16 program.  It is based on
 the Gaussian(R) 09 system (copyright 2009, Gaussian, Inc.),
 the Gaussian(R) 03 system (copyright 2003, Gaussian, Inc.),
 the Gaussian(R) 98 system (copyright 1998, Gaussian, Inc.),
 the Gaussian(R) 94 system (copyright 1995, Gaussian, Inc.),
 the Gaussian 92(TM) system (copyright 1992, Gaussian, Inc.),
 the Gaussian 90(TM) system (copyright 1990, Gaussian, Inc.),
 the Gaussian 88(TM) system (copyright 1988, Gaussian, Inc.),
 the Gaussian 86(TM) system (copyright 1986, Carnegie Mellon
 University), and the Gaussian 82(TM) system (copyright 1983,
 Carnegie Mellon University). Gaussian is a federally registered
 trademark of Gaussian, Inc.
  
 This software contains proprietary and confidential information,
 including trade secrets, belonging to Gaussian, Inc.
  
 This software is provided under written license and may be
 used, copied, transmitted, or stored only in accord with that
 written license.
  
 The following legend is applicable only to US Government
 contracts under FAR:
  
                    RESTRICTED RIGHTS LEGEND
  
 Use, reproduction and disclosure by the US Government is
 subject to restrictions as set forth in subparagraphs (a)
 and (c) of the Commercial Computer Software - Restricted
 Rights clause in FAR 52.227-19.
  
 Gaussian, Inc.
 340 Quinnipiac St., Bldg. 40, Wallingford CT 06492
  
  
 ---------------------------------------------------------------
 Warning -- This program may not be used in any manner that
 competes with the business of Gaussian, Inc. or will provide
 assistance to any competitor of Gaussian, Inc.  The licensee
 of this program is prohibited from giving any competitor of
 Gaussian, Inc. access to this program.  By using this program,
 the user acknowledges that Gaussian, Inc. is engaged in the
 business of creating and licensing software in the field of
 computational chemistry and represents and warrants to the
 licensee that it is not a competitor of Gaussian, Inc. and that
 it will not use this program in any manner prohibited above.
 ---------------------------------------------------------------
  

 Cite this work as:
 Gaussian 16, Revision A.03,
 M. J. Frisch, G. W. Trucks, H. B. Schlegel, G. E. Scuseria, 
 M. A. Robb, J. R. Cheeseman, G. Scalmani, V. Barone, 
 G. A. Petersson, H. Nakatsuji, X. Li, M. Caricato, A. V. Marenich, 
 J. Bloino, B. G. Janesko, R. Gomperts, B. Mennucci, H. P. Hratchian, 
 J. V. Ortiz, A. F. Izmaylov, J. L. Sonnenberg, D. Williams-Young, 
 F. Ding, F. Lipparini, F. Egidi, J. Goings, B. Peng, A. Petrone, 
 T. Henderson, D. Ranasinghe, V. G. Zakrzewski, J. Gao, N. Rega, 
 G. Zheng, W. Liang, M. Hada, M. Ehara, K. Toyota, R. Fukuda, 
 J. Hasegawa, M. Ishida, T. Nakajima, Y. Honda, O. Kitao, H. Nakai, 
 T. Vreven, K. Throssell, J. A. Montgomery, Jr., J. E. Peralta, 
 F. Ogliaro, M. J. Bearpark, J. J. Heyd, E. N. Brothers, K. N. Kudin, 
 V. N. Staroverov, T. A. Keith, R. Kobayashi, J. Normand, 
 K. Raghavachari, A. P. Rendell, J. C. Burant, S. S. Iyengar, 
 J. Tomasi, M. Cossi, J. M. Millam, M. Klene, C. Adamo, R. Cammi, 
 J. W. Ochterski, R. L. Martin, K. Morokuma, O. Farkas, 
 J. B. Foresman, and D. J. Fox, Gaussian, Inc., Wallingford CT, 2016.
 
 ******************************************
 Gaussian 16:  ES64L-G16RevA.03 25-Dec-2016
                30-Apr-2022 
 ******************************************
 %nproc=24
 Will use up to   24 processors via shared memory.
 %mem=75GB
 ------------------------------
 #p blyp/Def2SVP td=(nstates=5)
 ------------------------------
 1/38=1,172=1/1;
 2/12=2,17=6,18=5,40=1/2;
 3/5=43,7=101,11=9,25=1,30=1,74=402/1,2,3,8;
 4//1;
 5/5=2,38=5/2;
 8/6=1,10=1,108=5/1;
 9/41=5,42=1,70=2/14;
 6/7=2,8=2,9=2,10=2/1;
 99/5=1,9=1/99;
 Leave Link    1 at Sat Apr 30 05:26:27 2022, MaxMem= 10066329600 cpu:               1.0 elap:               0.0
 (Enter /sw/apps/gaussian-16.0/g16/l101.exe)
 --------------------------------------------------
 step_601_chromophore_13 TDDFT with blyp functional
 --------------------------------------------------
 Symbolic Z-matrix:
 Charge =  0 Multiplicity = 1
 Mg                    46.192    24.376    28.456 
 C                     46.598    26.635    31.177 
 C                     45.279    21.844    30.781 
 C                     46.33     22.249    26.016 
 C                     47.616    26.907    26.32 
 N                     46.021    24.271    30.734 
 C                     46.097    25.401    31.591 
 C                     45.601    25.03     33.062 
 C                     45.413    23.463    32.901 
 C                     45.555    23.108    31.352 
 C                     46.29     22.595    33.899 
 C                     44.417    25.815    33.559 
 C                     44.74     26.678    34.814 
 C                     43.767    26.7      35.964 
 O                     42.636    26.347    35.928 
 O                     44.373    27.354    37.049 
 N                     45.8      22.388    28.371 
 C                     45.338    21.563    29.342 
 C                     45.028    20.286    28.756 
 C                     45.502    20.289    27.429 
 C                     45.909    21.672    27.205 
 C                     44.304    19.176    29.525 
 C                     45.397    19.177    26.346 
 O                     45.863    19.243    25.201 
 C                     44.805    17.886    26.765 
 N                     46.749    24.599    26.442 
 C                     46.723    23.495    25.651 
 C                     47.334    23.756    24.294 
 C                     47.521    25.312    24.327 
 C                     47.278    25.666    25.765 
 C                     48.584    22.895    23.974 
 C                     46.676    26.183    23.391 
 C                     45.162    26.185    23.483 
 N                     46.905    26.42     28.624 
 C                     47.364    27.286    27.657 
 C                     47.723    28.508    28.339 
 C                     47.377    28.356    29.692 
 C                     46.903    27.036    29.804 
 C                     48.331    29.722    27.714 
 C                     47.296    29.029    30.942 
 O                     47.621    30.122    31.362 
 C                     46.85     27.851    31.969 
 C                     47.975    27.681    32.931 
 O                     48.949    26.98     32.781 
 O                     47.692    28.355    34.083 
 C                     48.448    28.151    35.366 
 C                     43.522    27.578    38.187 
 C                     43.566    26.449    39.194 
 C                     43.201    26.492    40.487 
 C                     42.61     27.598    41.222 
 C                     43.253    25.133    41.258 
 C                     42.258    24.041    40.767 
 C                     41.517    23.155    41.76 
 C                     40.006    23.4      41.938 
 C                     39.276    22.995    40.588 
 C                     39.743    24.844    42.225 
 C                     38.694    24.948    43.378 
 C                     39.277    25.466    44.691 
 C                     39.213    24.471    45.819 
 C                     37.793    24.55     46.463 
 C                     40.275    24.91     46.776 
 C                     41.467    23.956    46.746 
 C                     42.792    24.792    46.771 
 C                     43.405    24.909    45.382 
 C                     44.349    23.673    45.183 
 C                     44.251    26.276    45.291 
 H                     44.857    21.158    31.518 
 H                     46.174    21.542    25.198 
 H                     48.15     27.557    25.624 
 H                     46.455    25.131    33.731 
 H                     44.389    23.109    33.018 
 H                     46.045    23.202    34.771 
 H                     47.37     22.645    33.759 
 H                     45.888    21.582    33.873 
 H                     43.668    25.055    33.782 
 H                     43.926    26.424    32.801 
 H                     44.723    27.682    34.39 
 H                     45.715    26.558    35.285 
 H                     44.907    18.272    29.61 
 H                     43.374    18.831    29.074 
 H                     44.111    19.35     30.584 
 H                     45.357    17.526    27.634 
 H                     44.871    17.145    25.969 
 H                     43.754    18.15     26.889 
 H                     46.59     23.477    23.548 
 H                     48.554    25.551    24.076 
 H                     48.343    21.832    23.94 
 H                     49.356    23.038    24.73 
 H                     48.779    23.262    22.966 
 H                     46.821    25.816    22.375 
 H                     47.065    27.197    23.492 
 H                     44.777    25.514    24.25 
 H                     44.798    25.741    22.556 
 H                     44.833    27.213    23.633 
 H                     48.86     29.618    26.766 
 H                     48.891    30.163    28.538 
 H                     47.534    30.462    27.636 
 H                     45.943    28.15     32.494 
 H                     49.322    27.512    35.237 
 H                     47.793    27.741    36.135 
 H                     48.74     29.134    35.738 
 H                     42.475    27.742    37.934 
 H                     43.876    28.426    38.772 
 H                     43.987    25.546    38.752 
 H                     43.226    27.826    42.092 
 H                     41.608    27.28     41.511 
 H                     42.564    28.543    40.68 
 H                     42.918    25.256    42.288 
 H                     44.273    24.758    41.336 
 H                     42.614    23.371    39.984 
 H                     41.532    24.717    40.315 
 H                     41.884    23.382    42.761 
 H                     41.78     22.131    41.496 
 H                     39.764    22.797    42.813 
 H                     38.95     23.908    40.089 
 H                     38.42     22.335    40.73 
 H                     39.951    22.58     39.839 
 H                     39.412    25.449    41.382 
 H                     40.641    25.379    42.536 
 H                     38.004    24.11     43.476 
 H                     38.028    25.754    43.069 
 H                     38.788    26.371    45.05 
 H                     40.333    25.609    44.462 
 H                     39.294    23.47     45.394 
 H                     37.639    25.288    47.25 
 H                     37.632    23.57     46.913 
 H                     37.104    24.703    45.632 
 H                     39.838    24.798    47.769 
 H                     40.566    25.96     46.729 
 H                     41.456    23.403    45.806 
 H                     41.572    23.177    47.5 
 H                     43.425    24.237    47.463 
 H                     42.584    25.728    47.291 
 H                     42.558    25.003    44.702 
 H                     44.364    23.219    44.192 
 H                     44.161    22.806    45.817 
 H                     45.347    24.098    45.289 
 H                     43.974    26.913    46.132 
 H                     43.937    26.839    44.412 
 H                     45.323    26.115    45.176 
 
 ITRead=  0  0  0  0  0  0  0  0  0  0  0  0  0  0  0  0  0  0  0  0
 ITRead=  0  0  0  0  0  0  0  0  0  0  0  0  0  0  0  0  0  0  0  0
 ITRead=  0  0  0  0  0  0  0  0  0  0  0  0  0  0  0  0  0  0  0  0
 ITRead=  0  0  0  0  0  0  0  0  0  0  0  0  0  0  0  0  0  0  0  0
 ITRead=  0  0  0  0  0  0  0  0  0  0  0  0  0  0  0  0  0  0  0  0
 ITRead=  0  0  0  0  0  0  0  0  0  0  0  0  0  0  0  0  0  0  0  0
 ITRead=  0  0  0  0  0  0  0  0  0  0  0  0  0  0  0  0  0  0  0  0
 MicOpt= -1 -1 -1 -1 -1 -1 -1 -1 -1 -1 -1 -1 -1 -1 -1 -1 -1 -1 -1 -1
 MicOpt= -1 -1 -1 -1 -1 -1 -1 -1 -1 -1 -1 -1 -1 -1 -1 -1 -1 -1 -1 -1
 MicOpt= -1 -1 -1 -1 -1 -1 -1 -1 -1 -1 -1 -1 -1 -1 -1 -1 -1 -1 -1 -1
 MicOpt= -1 -1 -1 -1 -1 -1 -1 -1 -1 -1 -1 -1 -1 -1 -1 -1 -1 -1 -1 -1
 MicOpt= -1 -1 -1 -1 -1 -1 -1 -1 -1 -1 -1 -1 -1 -1 -1 -1 -1 -1 -1 -1
 MicOpt= -1 -1 -1 -1 -1 -1 -1 -1 -1 -1 -1 -1 -1 -1 -1 -1 -1 -1 -1 -1
 MicOpt= -1 -1 -1 -1 -1 -1 -1 -1 -1 -1 -1 -1 -1 -1 -1 -1 -1 -1 -1 -1
 NAtoms=    140 NQM=      140 NQMF=       0 NMMI=      0 NMMIF=      0
                NMic=       0 NMicF=      0.
                    Isotopes and Nuclear Properties:
 (Nuclear quadrupole moments (NQMom) in fm**2, nuclear magnetic moments (NMagM)
  in nuclear magnetons)

  Atom         1           2           3           4           5           6           7           8           9          10
 IAtWgt=          24          12          12          12          12          14          12          12          12          12
 AtmWgt=  23.9850450  12.0000000  12.0000000  12.0000000  12.0000000  14.0030740  12.0000000  12.0000000  12.0000000  12.0000000
 NucSpn=           0           0           0           0           0           2           0           0           0           0
 AtZEff=  -0.0000000  -0.0000000  -0.0000000  -0.0000000  -0.0000000  -0.0000000  -0.0000000  -0.0000000  -0.0000000  -0.0000000
 NQMom=    0.0000000   0.0000000   0.0000000   0.0000000   0.0000000   2.0440000   0.0000000   0.0000000   0.0000000   0.0000000
 NMagM=    0.0000000   0.0000000   0.0000000   0.0000000   0.0000000   0.4037610   0.0000000   0.0000000   0.0000000   0.0000000
 AtZNuc=  12.0000000   6.0000000   6.0000000   6.0000000   6.0000000   7.0000000   6.0000000   6.0000000   6.0000000   6.0000000

  Atom        11          12          13          14          15          16          17          18          19          20
 IAtWgt=          12          12          12          12          16          16          14          12          12          12
 AtmWgt=  12.0000000  12.0000000  12.0000000  12.0000000  15.9949146  15.9949146  14.0030740  12.0000000  12.0000000  12.0000000
 NucSpn=           0           0           0           0           0           0           2           0           0           0
 AtZEff=  -0.0000000  -0.0000000  -0.0000000  -0.0000000  -0.0000000  -0.0000000  -0.0000000  -0.0000000  -0.0000000  -0.0000000
 NQMom=    0.0000000   0.0000000   0.0000000   0.0000000   0.0000000   0.0000000   2.0440000   0.0000000   0.0000000   0.0000000
 NMagM=    0.0000000   0.0000000   0.0000000   0.0000000   0.0000000   0.0000000   0.4037610   0.0000000   0.0000000   0.0000000
 AtZNuc=   6.0000000   6.0000000   6.0000000   6.0000000   8.0000000   8.0000000   7.0000000   6.0000000   6.0000000   6.0000000

  Atom        21          22          23          24          25          26          27          28          29          30
 IAtWgt=          12          12          12          16          12          14          12          12          12          12
 AtmWgt=  12.0000000  12.0000000  12.0000000  15.9949146  12.0000000  14.0030740  12.0000000  12.0000000  12.0000000  12.0000000
 NucSpn=           0           0           0           0           0           2           0           0           0           0
 AtZEff=  -0.0000000  -0.0000000  -0.0000000  -0.0000000  -0.0000000  -0.0000000  -0.0000000  -0.0000000  -0.0000000  -0.0000000
 NQMom=    0.0000000   0.0000000   0.0000000   0.0000000   0.0000000   2.0440000   0.0000000   0.0000000   0.0000000   0.0000000
 NMagM=    0.0000000   0.0000000   0.0000000   0.0000000   0.0000000   0.4037610   0.0000000   0.0000000   0.0000000   0.0000000
 AtZNuc=   6.0000000   6.0000000   6.0000000   8.0000000   6.0000000   7.0000000   6.0000000   6.0000000   6.0000000   6.0000000

  Atom        31          32          33          34          35          36          37          38          39          40
 IAtWgt=          12          12          12          14          12          12          12          12          12          12
 AtmWgt=  12.0000000  12.0000000  12.0000000  14.0030740  12.0000000  12.0000000  12.0000000  12.0000000  12.0000000  12.0000000
 NucSpn=           0           0           0           2           0           0           0           0           0           0
 AtZEff=  -0.0000000  -0.0000000  -0.0000000  -0.0000000  -0.0000000  -0.0000000  -0.0000000  -0.0000000  -0.0000000  -0.0000000
 NQMom=    0.0000000   0.0000000   0.0000000   2.0440000   0.0000000   0.0000000   0.0000000   0.0000000   0.0000000   0.0000000
 NMagM=    0.0000000   0.0000000   0.0000000   0.4037610   0.0000000   0.0000000   0.0000000   0.0000000   0.0000000   0.0000000
 AtZNuc=   6.0000000   6.0000000   6.0000000   7.0000000   6.0000000   6.0000000   6.0000000   6.0000000   6.0000000   6.0000000

  Atom        41          42          43          44          45          46          47          48          49          50
 IAtWgt=          16          12          12          16          16          12          12          12          12          12
 AtmWgt=  15.9949146  12.0000000  12.0000000  15.9949146  15.9949146  12.0000000  12.0000000  12.0000000  12.0000000  12.0000000
 NucSpn=           0           0           0           0           0           0           0           0           0           0
 AtZEff=  -0.0000000  -0.0000000  -0.0000000  -0.0000000  -0.0000000  -0.0000000  -0.0000000  -0.0000000  -0.0000000  -0.0000000
 NQMom=    0.0000000   0.0000000   0.0000000   0.0000000   0.0000000   0.0000000   0.0000000   0.0000000   0.0000000   0.0000000
 NMagM=    0.0000000   0.0000000   0.0000000   0.0000000   0.0000000   0.0000000   0.0000000   0.0000000   0.0000000   0.0000000
 AtZNuc=   8.0000000   6.0000000   6.0000000   8.0000000   8.0000000   6.0000000   6.0000000   6.0000000   6.0000000   6.0000000

  Atom        51          52          53          54          55          56          57          58          59          60
 IAtWgt=          12          12          12          12          12          12          12          12          12          12
 AtmWgt=  12.0000000  12.0000000  12.0000000  12.0000000  12.0000000  12.0000000  12.0000000  12.0000000  12.0000000  12.0000000
 NucSpn=           0           0           0           0           0           0           0           0           0           0
 AtZEff=  -0.0000000  -0.0000000  -0.0000000  -0.0000000  -0.0000000  -0.0000000  -0.0000000  -0.0000000  -0.0000000  -0.0000000
 NQMom=    0.0000000   0.0000000   0.0000000   0.0000000   0.0000000   0.0000000   0.0000000   0.0000000   0.0000000   0.0000000
 NMagM=    0.0000000   0.0000000   0.0000000   0.0000000   0.0000000   0.0000000   0.0000000   0.0000000   0.0000000   0.0000000
 AtZNuc=   6.0000000   6.0000000   6.0000000   6.0000000   6.0000000   6.0000000   6.0000000   6.0000000   6.0000000   6.0000000

  Atom        61          62          63          64          65          66          67          68          69          70
 IAtWgt=          12          12          12          12          12          12           1           1           1           1
 AtmWgt=  12.0000000  12.0000000  12.0000000  12.0000000  12.0000000  12.0000000   1.0078250   1.0078250   1.0078250   1.0078250
 NucSpn=           0           0           0           0           0           0           1           1           1           1
 AtZEff=  -0.0000000  -0.0000000  -0.0000000  -0.0000000  -0.0000000  -0.0000000  -0.0000000  -0.0000000  -0.0000000  -0.0000000
 NQMom=    0.0000000   0.0000000   0.0000000   0.0000000   0.0000000   0.0000000   0.0000000   0.0000000   0.0000000   0.0000000
 NMagM=    0.0000000   0.0000000   0.0000000   0.0000000   0.0000000   0.0000000   2.7928460   2.7928460   2.7928460   2.7928460
 AtZNuc=   6.0000000   6.0000000   6.0000000   6.0000000   6.0000000   6.0000000   1.0000000   1.0000000   1.0000000   1.0000000

  Atom        71          72          73          74          75          76          77          78          79          80
 IAtWgt=           1           1           1           1           1           1           1           1           1           1
 AtmWgt=   1.0078250   1.0078250   1.0078250   1.0078250   1.0078250   1.0078250   1.0078250   1.0078250   1.0078250   1.0078250
 NucSpn=           1           1           1           1           1           1           1           1           1           1
 AtZEff=  -0.0000000  -0.0000000  -0.0000000  -0.0000000  -0.0000000  -0.0000000  -0.0000000  -0.0000000  -0.0000000  -0.0000000
 NQMom=    0.0000000   0.0000000   0.0000000   0.0000000   0.0000000   0.0000000   0.0000000   0.0000000   0.0000000   0.0000000
 NMagM=    2.7928460   2.7928460   2.7928460   2.7928460   2.7928460   2.7928460   2.7928460   2.7928460   2.7928460   2.7928460
 AtZNuc=   1.0000000   1.0000000   1.0000000   1.0000000   1.0000000   1.0000000   1.0000000   1.0000000   1.0000000   1.0000000

  Atom        81          82          83          84          85          86          87          88          89          90
 IAtWgt=           1           1           1           1           1           1           1           1           1           1
 AtmWgt=   1.0078250   1.0078250   1.0078250   1.0078250   1.0078250   1.0078250   1.0078250   1.0078250   1.0078250   1.0078250
 NucSpn=           1           1           1           1           1           1           1           1           1           1
 AtZEff=  -0.0000000  -0.0000000  -0.0000000  -0.0000000  -0.0000000  -0.0000000  -0.0000000  -0.0000000  -0.0000000  -0.0000000
 NQMom=    0.0000000   0.0000000   0.0000000   0.0000000   0.0000000   0.0000000   0.0000000   0.0000000   0.0000000   0.0000000
 NMagM=    2.7928460   2.7928460   2.7928460   2.7928460   2.7928460   2.7928460   2.7928460   2.7928460   2.7928460   2.7928460
 AtZNuc=   1.0000000   1.0000000   1.0000000   1.0000000   1.0000000   1.0000000   1.0000000   1.0000000   1.0000000   1.0000000

  Atom        91          92          93          94          95          96          97          98          99         100
 IAtWgt=           1           1           1           1           1           1           1           1           1           1
 AtmWgt=   1.0078250   1.0078250   1.0078250   1.0078250   1.0078250   1.0078250   1.0078250   1.0078250   1.0078250   1.0078250
 NucSpn=           1           1           1           1           1           1           1           1           1           1
 AtZEff=  -0.0000000  -0.0000000  -0.0000000  -0.0000000  -0.0000000  -0.0000000  -0.0000000  -0.0000000  -0.0000000  -0.0000000
 NQMom=    0.0000000   0.0000000   0.0000000   0.0000000   0.0000000   0.0000000   0.0000000   0.0000000   0.0000000   0.0000000
 NMagM=    2.7928460   2.7928460   2.7928460   2.7928460   2.7928460   2.7928460   2.7928460   2.7928460   2.7928460   2.7928460
 AtZNuc=   1.0000000   1.0000000   1.0000000   1.0000000   1.0000000   1.0000000   1.0000000   1.0000000   1.0000000   1.0000000

  Atom       101         102         103         104         105         106         107         108         109         110
 IAtWgt=           1           1           1           1           1           1           1           1           1           1
 AtmWgt=   1.0078250   1.0078250   1.0078250   1.0078250   1.0078250   1.0078250   1.0078250   1.0078250   1.0078250   1.0078250
 NucSpn=           1           1           1           1           1           1           1           1           1           1
 AtZEff=  -0.0000000  -0.0000000  -0.0000000  -0.0000000  -0.0000000  -0.0000000  -0.0000000  -0.0000000  -0.0000000  -0.0000000
 NQMom=    0.0000000   0.0000000   0.0000000   0.0000000   0.0000000   0.0000000   0.0000000   0.0000000   0.0000000   0.0000000
 NMagM=    2.7928460   2.7928460   2.7928460   2.7928460   2.7928460   2.7928460   2.7928460   2.7928460   2.7928460   2.7928460
 AtZNuc=   1.0000000   1.0000000   1.0000000   1.0000000   1.0000000   1.0000000   1.0000000   1.0000000   1.0000000   1.0000000

  Atom       111         112         113         114         115         116         117         118         119         120
 IAtWgt=           1           1           1           1           1           1           1           1           1           1
 AtmWgt=   1.0078250   1.0078250   1.0078250   1.0078250   1.0078250   1.0078250   1.0078250   1.0078250   1.0078250   1.0078250
 NucSpn=           1           1           1           1           1           1           1           1           1           1
 AtZEff=  -0.0000000  -0.0000000  -0.0000000  -0.0000000  -0.0000000  -0.0000000  -0.0000000  -0.0000000  -0.0000000  -0.0000000
 NQMom=    0.0000000   0.0000000   0.0000000   0.0000000   0.0000000   0.0000000   0.0000000   0.0000000   0.0000000   0.0000000
 NMagM=    2.7928460   2.7928460   2.7928460   2.7928460   2.7928460   2.7928460   2.7928460   2.7928460   2.7928460   2.7928460
 AtZNuc=   1.0000000   1.0000000   1.0000000   1.0000000   1.0000000   1.0000000   1.0000000   1.0000000   1.0000000   1.0000000

  Atom       121         122         123         124         125         126         127         128         129         130
 IAtWgt=           1           1           1           1           1           1           1           1           1           1
 AtmWgt=   1.0078250   1.0078250   1.0078250   1.0078250   1.0078250   1.0078250   1.0078250   1.0078250   1.0078250   1.0078250
 NucSpn=           1           1           1           1           1           1           1           1           1           1
 AtZEff=  -0.0000000  -0.0000000  -0.0000000  -0.0000000  -0.0000000  -0.0000000  -0.0000000  -0.0000000  -0.0000000  -0.0000000
 NQMom=    0.0000000   0.0000000   0.0000000   0.0000000   0.0000000   0.0000000   0.0000000   0.0000000   0.0000000   0.0000000
 NMagM=    2.7928460   2.7928460   2.7928460   2.7928460   2.7928460   2.7928460   2.7928460   2.7928460   2.7928460   2.7928460
 AtZNuc=   1.0000000   1.0000000   1.0000000   1.0000000   1.0000000   1.0000000   1.0000000   1.0000000   1.0000000   1.0000000

  Atom       131         132         133         134         135         136         137         138         139         140
 IAtWgt=           1           1           1           1           1           1           1           1           1           1
 AtmWgt=   1.0078250   1.0078250   1.0078250   1.0078250   1.0078250   1.0078250   1.0078250   1.0078250   1.0078250   1.0078250
 NucSpn=           1           1           1           1           1           1           1           1           1           1
 AtZEff=  -0.0000000  -0.0000000  -0.0000000  -0.0000000  -0.0000000  -0.0000000  -0.0000000  -0.0000000  -0.0000000  -0.0000000
 NQMom=    0.0000000   0.0000000   0.0000000   0.0000000   0.0000000   0.0000000   0.0000000   0.0000000   0.0000000   0.0000000
 NMagM=    2.7928460   2.7928460   2.7928460   2.7928460   2.7928460   2.7928460   2.7928460   2.7928460   2.7928460   2.7928460
 AtZNuc=   1.0000000   1.0000000   1.0000000   1.0000000   1.0000000   1.0000000   1.0000000   1.0000000   1.0000000   1.0000000
 Leave Link  101 at Sat Apr 30 05:26:28 2022, MaxMem= 10066329600 cpu:               3.3 elap:               0.2
 (Enter /sw/apps/gaussian-16.0/g16/l202.exe)
 Stoichiometry    C55H74MgN4O6
 Framework group  C1[X(C55H74MgN4O6)]
 Deg. of freedom   414
 Full point group                 C1      NOp   1
 Largest Abelian subgroup         C1      NOp   1
 Largest concise Abelian subgroup C1      NOp   1
                         Standard orientation:                         
 ---------------------------------------------------------------------
 Center     Atomic      Atomic             Coordinates (Angstroms)
 Number     Number       Type             X           Y           Z
 ---------------------------------------------------------------------
      1         12           0       -5.760462    0.365934   -0.155721
      2          6           0       -3.191002   -2.086497    0.079254
      3          6           0       -3.379039    2.850770    0.741293
      4          6           0       -8.218743    2.459445    0.110438
      5          6           0       -8.114243   -2.335486   -0.553565
      6          7           0       -3.541902    0.341005    0.398280
      7          6           0       -2.699314   -0.793827    0.259252
      8          6           0       -1.164531   -0.380207    0.403677
      9          6           0       -1.328699    1.141087    0.822565
     10          6           0       -2.863128    1.538004    0.639335
     11          6           0       -0.675888    1.506215    2.222235
     12          6           0       -0.303816   -0.671862   -0.795988
     13          6           0        0.833151   -1.692918   -0.497869
     14          6           0        2.220989   -1.423875   -1.018669
     15          8           0        2.509197   -0.651154   -1.870082
     16          8           0        3.102493   -2.351429   -0.440075
     17          7           0       -5.809217    2.346710    0.276924
     18          6           0       -4.780661    3.203664    0.488141
     19          6           0       -5.301280    4.542996    0.561427
     20          6           0       -6.707878    4.462845    0.587330
     21          6           0       -6.984002    3.055255    0.320946
     22          6           0       -4.399268    5.780921    0.600829
     23          6           0       -7.756526    5.611369    0.628417
     24          8           0       -8.984521    5.461673    0.674850
     25          6           0       -7.235338    6.991724    0.753677
     26          7           0       -7.837491    0.108572   -0.345173
     27          6           0       -8.630965    1.194402   -0.154004
     28          6           0      -10.096064    0.826562   -0.121314
     29          6           0      -10.054111   -0.673679   -0.573766
     30          6           0       -8.595413   -1.020597   -0.510068
     31          6           0      -10.810954    1.147031    1.217511
     32          6           0      -10.657231   -1.059324   -1.928863
     33          6           0      -10.117537   -0.470706   -3.218407
     34          7           0       -5.725994   -1.799750   -0.307883
     35          6           0       -6.748094   -2.693362   -0.537002
     36          6           0       -6.152911   -4.009674   -0.517809
     37          6           0       -4.766076   -3.845912   -0.365164
     38          6           0       -4.574058   -2.460227   -0.214746
     39          6           0       -6.878569   -5.308849   -0.657987
     40          6           0       -3.521390   -4.533128   -0.343247
     41          8           0       -3.171364   -5.696297   -0.377780
     42          6           0       -2.459257   -3.364157    0.039780
     43          6           0       -1.885050   -3.732640    1.364346
     44          8           0       -2.348654   -3.463605    2.448445
     45          8           0       -0.673468   -4.332865    1.181945
     46          6           0        0.315490   -4.551046    2.292621
     47          6           0        4.451084   -2.314402   -0.939427
     48          6           0        5.349983   -1.382168   -0.156135
     49          6           0        6.693590   -1.384347   -0.115655
     50          6           0        7.617914   -2.223643   -0.859933
     51          6           0        7.355282   -0.225305    0.698476
     52          6           0        7.137580    1.207491    0.129905
     53          6           0        8.267788    2.228646    0.129577
     54          6           0        8.898938    2.586631   -1.229954
     55          6           0        7.812387    3.357282   -2.093046
     56          6           0        9.312613    1.345599   -1.954791
     57          6           0       10.729490    1.569392   -2.573663
     58          6           0       11.829453    0.756483   -1.894368
     59          6           0       12.881667    1.598762   -1.223611
     60          6           0       13.922898    2.034110   -2.302354
     61          6           0       13.495861    0.698384   -0.199649
     62          6           0       13.070825    1.102850    1.210185
     63          6           0       12.734807   -0.187508    2.033114
     64          6           0       11.232464   -0.421739    2.116057
     65          6           0       10.708297    0.352693    3.374603
     66          6           0       10.951439   -1.999112    2.276071
     67          1           0       -2.579610    3.584115    0.863635
     68          1           0       -8.982243    3.235632    0.021498
     69          1           0       -8.909543   -3.083528   -0.552264
     70          1           0       -0.777256   -0.865336    1.299079
     71          1           0       -0.926590    1.859792    0.108875
     72          1           0        0.254526    0.975455    2.018563
     73          1           0       -1.129594    1.045433    3.099920
     74          1           0       -0.623857    2.593995    2.271987
     75          1           0        0.099979    0.300902   -1.077072
     76          1           0       -0.854042   -0.972365   -1.686760
     77          1           0        0.476737   -2.569705   -1.038512
     78          1           0        0.986108   -2.007255    0.533956
     79          1           0       -4.536724    6.362790    1.512193
     80          1           0       -4.566401    6.501273   -0.199475
     81          1           0       -3.324527    5.610310    0.670332
     82          1           0       -6.586874    7.031123    1.629695
     83          1           0       -8.045572    7.709503    0.877642
     84          1           0       -6.792163    7.155085   -0.229472
     85          1           0      -10.597174    1.437470   -0.872030
     86          1           0      -10.591571   -1.279630    0.155049
     87          1           0      -10.816736    2.217622    1.424893
     88          1           0      -10.314462    0.648666    2.050035
     89          1           0      -11.814612    0.817651    0.947404
     90          1           0      -11.684869   -0.696728   -1.950144
     91          1           0      -10.633829   -2.149091   -1.968567
     92          1           0       -9.299908    0.231816   -3.061240
     93          1           0      -10.911675    0.156039   -3.625218
     94          1           0       -9.832515   -1.293713   -3.873347
     95          1           0       -7.944779   -5.344198   -0.431476
     96          1           0       -6.241267   -6.001749   -0.109542
     97          1           0       -6.683523   -5.664614   -1.670055
     98          1           0       -1.675231   -3.322892   -0.716047
     99          1           0       -0.095602   -4.300973    3.271041
    100          1           0        1.226735   -3.980832    2.111032
    101          1           0        0.624912   -5.596564    2.259649
    102          1           0        4.529347   -2.029924   -1.988265
    103          1           0        4.939336   -3.278525   -0.802598
    104          1           0        4.764415   -0.685701    0.443913
    105          1           0        8.273285   -2.747590   -0.164010
    106          1           0        8.178986   -1.560802   -1.519090
    107          1           0        7.155133   -3.025226   -1.436304
    108          1           0        8.442582   -0.290761    0.656666
    109          1           0        7.109230   -0.291581    1.757804
    110          1           0        6.256210    1.744678    0.481105
    111          1           0        6.952111    0.913191   -0.903219
    112          1           0        9.122340    1.793131    0.647541
    113          1           0        7.893940    3.083500    0.692518
    114          1           0        9.779757    3.161510   -0.944524
    115          1           0        7.472815    2.692024   -2.887381
    116          1           0        8.175150    4.287525   -2.530713
    117          1           0        6.879088    3.532335   -1.557174
    118          1           0        8.633416    0.992589   -2.729588
    119          1           0        9.363908    0.475639   -1.299133
    120          1           0       10.993168    2.600561   -2.808420
    121          1           0       10.667997    1.120613   -3.565373
    122          1           0       12.356265    0.091917   -2.578364
    123          1           0       11.302015    0.227458   -1.100663
    124          1           0       12.409613    2.517793   -0.874705
    125          1           0       14.750688    1.354582   -2.504181
    126          1           0       14.358253    2.957100   -1.918457
    127          1           0       13.342736    2.235075   -3.203306
    128          1           0       14.568314    0.891292   -0.246491
    129          1           0       13.408934   -0.373360   -0.381855
    130          1           0       12.154286    1.690957    1.150049
    131          1           0       13.725204    1.711701    1.832656
    132          1           0       13.182022    0.012957    3.006454
    133          1           0       13.332576   -1.004764    1.627496
    134          1           0       10.840919   -0.116877    1.145285
    135          1           0        9.739589    0.844172    3.282538
    136          1           0       11.331963    1.167731    3.743035
    137          1           0       10.529597   -0.439160    4.101859
    138          1           0       11.863125   -2.542114    2.023568
    139          1           0       10.231053   -2.317431    1.522464
    140          1           0       10.514966   -2.265752    3.238736
 ---------------------------------------------------------------------
 Rotational constants (GHZ):           0.0567726           0.0096161           0.0086667
 Leave Link  202 at Sat Apr 30 05:26:28 2022, MaxMem= 10066329600 cpu:               0.2 elap:               0.0
 (Enter /sw/apps/gaussian-16.0/g16/l301.exe)
 Standard basis: def2SVP (5D, 7F)
 Ernie: Thresh=  0.10000D-02 Tol=  0.10000D-05 Strict=F.
 There are  1364 symmetry adapted cartesian basis functions of A   symmetry.
 There are  1298 symmetry adapted basis functions of A   symmetry.
  1298 basis functions,  2180 primitive gaussians,  1364 cartesian basis functions
   246 alpha electrons      246 beta electrons
       nuclear repulsion energy      9641.0926158719 Hartrees.
 IExCor=  402 DFT=T Ex=B Corr=LYP ExCW=0 ScaHFX=  0.000000
 ScaDFX=  1.000000  1.000000  1.000000  1.000000 ScalE2=  1.000000  1.000000
 IRadAn=      5 IRanWt=     -1 IRanGd=            0 ICorTp=0 IEmpDi=  4
 NAtoms=  140 NActive=  140 NUniq=  140 SFac= 1.00D+00 NAtFMM=   60 NAOKFM=T Big=T
 Integral buffers will be    131072 words long.
 Regular integral format.
 Two-electron integral symmetry is turned on.
 Leave Link  301 at Sat Apr 30 05:26:28 2022, MaxMem= 10066329600 cpu:               1.3 elap:               0.1
 (Enter /sw/apps/gaussian-16.0/g16/l302.exe)
 NPDir=0 NMtPBC=     1 NCelOv=     1 NCel=       1 NClECP=     1 NCelD=      1
         NCelK=      1 NCelE2=     1 NClLst=     1 CellRange=     0.0.
 One-electron integrals computed using PRISM.
 One-electron integral symmetry used in STVInt
   1 Symmetry operations used in ECPInt.
 ECPInt:  NShTT=  192510 NPrTT=  683786 LenC2=   95820 LenP2D=  211762.
 LDataN:  DoStor=T MaxTD1= 4 Len=   56
 NBasis=  1298 RedAO= T EigKep=  3.37D-04  NBF=  1298
 NBsUse=  1298 1.00D-06 EigRej= -1.00D+00 NBFU=  1298
 Precomputing XC quadrature grid using
 IXCGrd= 4 IRadAn=           5 IRanWt=          -1 IRanGd=           0 AccXCQ= 0.00D+00.
 Generated NRdTot=       0 NPtTot=           0 NUsed=           0 NTot=          32
 NSgBfM=  1025  1016  1018  1023  1025 MxSgAt=   140 MxSgA2=   140.
 Leave Link  302 at Sat Apr 30 05:26:31 2022, MaxMem= 10066329600 cpu:              77.6 elap:               3.3
 (Enter /sw/apps/gaussian-16.0/g16/l303.exe)
 DipDrv:  MaxL=1.
 Leave Link  303 at Sat Apr 30 05:26:31 2022, MaxMem= 10066329600 cpu:               6.3 elap:               0.3
 (Enter /sw/apps/gaussian-16.0/g16/l308.exe)
 Leave Link  308 at Sat Apr 30 05:26:32 2022, MaxMem= 10066329600 cpu:              10.9 elap:               0.5
 (Enter /sw/apps/gaussian-16.0/g16/l401.exe)
 ExpMin= 3.36D-02 ExpMax= 4.95D+03 ExpMxC= 7.45D+02 IAcc=3 IRadAn=         5 AccDes= 0.00D+00
 Harris functional with IExCor=  402 and IRadAn=       5 diagonalized for initial guess.
 HarFok:  IExCor=  402 AccDes= 0.00D+00 IRadAn=         5 IDoV= 1 UseB2=F ITyADJ=14
 ICtDFT=  3500011 ScaDFX=  1.000000  1.000000  1.000000  1.000000
 FoFCou: FMM=F IPFlag=           0 FMFlag=      100000 FMFlg1=        2001
         NFxFlg=           0 DoJE=T BraDBF=F KetDBF=T FulRan=T
         wScrn=  0.000000 ICntrl=       500 IOpCl=  0 I1Cent=   200000004 NGrid=           0
         NMat0=    1 NMatS0=      1 NMatT0=    0 NMatD0=    1 NMtDS0=    0 NMtDT0=    0
 Petite list used in FoFCou.
 Harris En= -3008.76075665991    
 JPrj=0 DoOrth=F DoCkMO=F.
 Leave Link  401 at Sat Apr 30 05:26:38 2022, MaxMem= 10066329600 cpu:             136.5 elap:               5.7
 (Enter /sw/apps/gaussian-16.0/g16/l502.exe)
 Integral symmetry usage will be decided dynamically.
 Closed shell SCF:
 Using DIIS extrapolation, IDIIS=  1040.
 NGot= 10066329600 LenX= 10062561258 LenY= 10060699398
 Requested convergence on RMS density matrix=1.00D-08 within 128 cycles.
 Requested convergence on MAX density matrix=1.00D-06.
 Requested convergence on             energy=1.00D-06.
 No special actions if energy rises.
 Fock matrices will be formed incrementally for  20 cycles.

 Cycle   1  Pass 1  IDiag  1:
 FoFJK:  IHMeth= 1 ICntrl=     500 DoSepK=F KAlg= 0 I1Cent=           0 FoldK=F
 IRaf= 530000000 NMat=       1 IRICut=       1 DoRegI=T DoRafI=F ISym2E= 0 IDoP0=0 IntGTp=1.
 FoFCou: FMM=T IPFlag=           0 FMFlag=      100000 FMFlg1=        2001
         NFxFlg=           0 DoJE=T BraDBF=F KetDBF=F FulRan=T
         wScrn=  0.000000 ICntrl=       500 IOpCl=  0 I1Cent=           0 NGrid=           0
         NMat0=    1 NMatS0=      1 NMatT0=    0 NMatD0=    1 NMtDS0=    0 NMtDT0=    0
 Symmetry not used in FoFCou.
 FMM levels:  10  Number of levels for PrismC:   9
 E= -3005.65775282208    
 DIIS: error= 2.03D-02 at cycle   1 NSaved=   1.
 NSaved= 1 IEnMin= 1 EnMin= -3005.65775282208     IErMin= 1 ErrMin= 2.03D-02
 ErrMax= 2.03D-02  0.00D+00 EMaxC= 1.00D-01 BMatC= 1.55D+00 BMatP= 1.55D+00
 IDIUse=3 WtCom= 7.97D-01 WtEn= 2.03D-01
 Coeff-Com:  0.100D+01
 Coeff-En:   0.100D+01
 Coeff:      0.100D+01
 Gap=     0.045 Goal=   None    Shift=    0.000
 GapD=    0.045 DampG=0.250 DampE=0.500 DampFc=0.2500 IDamp=-1.
 Damping current iteration by 2.50D-01
 RMSDP=3.85D-03 MaxDP=6.03D-01              OVMax= 8.60D-01

 Cycle   2  Pass 1  IDiag  1:
 RMSU=  9.57D-04    CP:  9.90D-01
 E= -3006.16731794423     Delta-E=       -0.509565122151 Rises=F Damp=T
 DIIS: error= 7.46D-03 at cycle   2 NSaved=   2.
 NSaved= 2 IEnMin= 2 EnMin= -3006.16731794423     IErMin= 2 ErrMin= 7.46D-03
 ErrMax= 7.46D-03  0.00D+00 EMaxC= 1.00D-01 BMatC= 2.56D-01 BMatP= 1.55D+00
 IDIUse=3 WtCom= 9.25D-01 WtEn= 7.46D-02
 Coeff-Com: -0.320D+00 0.132D+01
 Coeff-En:   0.571D-01 0.943D+00
 Coeff:     -0.292D+00 0.129D+01
 Gap=    -0.259 Goal=   None    Shift=    0.000
 RMSDP=1.57D-03 MaxDP=2.40D-01 DE=-5.10D-01 OVMax= 4.82D-01

 Cycle   3  Pass 1  IDiag  1:
 RMSU=  1.54D-03    CP:  9.67D-01  1.19D+00
 E= -3005.37958883397     Delta-E=        0.787729110258 Rises=F Damp=F
 DIIS: error= 4.12D-02 at cycle   3 NSaved=   3.
 NSaved= 3 IEnMin= 2 EnMin= -3006.16731794423     IErMin= 2 ErrMin= 7.46D-03
 ErrMax= 4.12D-02  0.00D+00 EMaxC= 1.00D-01 BMatC= 1.48D+00 BMatP= 2.56D-01
 IDIUse=2 WtCom= 0.00D+00 WtEn= 1.00D+00
 Coeff-En:   0.000D+00 0.661D+00 0.339D+00
 Coeff:      0.000D+00 0.661D+00 0.339D+00
 Gap=     0.081 Goal=   None    Shift=    0.000
 RMSDP=2.23D-03 MaxDP=4.56D-01 DE= 7.88D-01 OVMax= 7.98D-01

 Cycle   4  Pass 1  IDiag  1:
 RMSU=  1.27D-03    CP:  9.67D-01  1.93D+00 -9.36D-02
 E= -3003.48799996232     Delta-E=        1.891588871649 Rises=F Damp=F
 DIIS: error= 5.17D-02 at cycle   4 NSaved=   4.
 NSaved= 4 IEnMin= 2 EnMin= -3006.16731794423     IErMin= 2 ErrMin= 7.46D-03
 ErrMax= 5.17D-02  0.00D+00 EMaxC= 1.00D-01 BMatC= 2.57D+00 BMatP= 2.56D-01
 IDIUse=2 WtCom= 0.00D+00 WtEn= 1.00D+00
 EnCoef did     1 forward-backward iterations
 Coeff-En:   0.102D+00 0.000D+00 0.537D+00 0.360D+00
 Coeff:      0.102D+00 0.000D+00 0.537D+00 0.360D+00
 Gap=     0.037 Goal=   None    Shift=    0.000
 RMSDP=1.61D-03 MaxDP=3.34D-01 DE= 1.89D+00 OVMax= 8.48D-01

 Cycle   5  Pass 1  IDiag  1:
 RMSU=  7.78D-04    CP:  9.81D-01  1.22D+00  9.15D-02  5.88D-02
 E= -3007.04181480756     Delta-E=       -3.553814845236 Rises=F Damp=F
 DIIS: error= 2.41D-02 at cycle   5 NSaved=   5.
 NSaved= 5 IEnMin= 5 EnMin= -3007.04181480756     IErMin= 2 ErrMin= 7.46D-03
 ErrMax= 2.41D-02  0.00D+00 EMaxC= 1.00D-01 BMatC= 3.54D-01 BMatP= 2.56D-01
 IDIUse=2 WtCom= 0.00D+00 WtEn= 1.00D+00
 EnCoef did     3 forward-backward iterations
 Coeff-En:   0.000D+00 0.000D+00 0.180D+00 0.987D-01 0.721D+00
 Coeff:      0.000D+00 0.000D+00 0.180D+00 0.987D-01 0.721D+00
 Gap=     0.167 Goal=   None    Shift=    0.000
 RMSDP=1.54D-03 MaxDP=1.97D-01 DE=-3.55D+00 OVMax= 5.36D-01

 Cycle   6  Pass 1  IDiag  1:
 RMSU=  1.26D-03    CP:  9.73D-01  1.05D+00  2.94D-01  2.39D-01  2.22D-03
 E= -3006.00880517021     Delta-E=        1.033009637342 Rises=F Damp=F
 DIIS: error= 4.39D-02 at cycle   6 NSaved=   6.
 NSaved= 6 IEnMin= 5 EnMin= -3007.04181480756     IErMin= 2 ErrMin= 7.46D-03
 ErrMax= 4.39D-02  0.00D+00 EMaxC= 1.00D-01 BMatC= 1.34D+00 BMatP= 2.56D-01
 IDIUse=2 WtCom= 0.00D+00 WtEn= 1.00D+00
 EnCoef did     1 forward-backward iterations
 Coeff-En:   0.000D+00 0.000D+00 0.368D-01 0.000D+00 0.712D+00 0.252D+00
 Coeff:      0.000D+00 0.000D+00 0.368D-01 0.000D+00 0.712D+00 0.252D+00
 Gap=     0.063 Goal=   None    Shift=    0.000
 RMSDP=1.10D-03 MaxDP=1.36D-01 DE= 1.03D+00 OVMax= 4.20D-01

 Cycle   7  Pass 1  IDiag  1:
 RMSU=  5.10D-04    CP:  9.76D-01  1.16D+00  3.32D-01 -1.19D-02  5.17D-01
                    CP:  3.48D-01
 E= -3007.18199728931     Delta-E=       -1.173192119095 Rises=F Damp=F
 DIIS: error= 1.57D-02 at cycle   7 NSaved=   7.
 NSaved= 7 IEnMin= 7 EnMin= -3007.18199728931     IErMin= 2 ErrMin= 7.46D-03
 ErrMax= 1.57D-02  0.00D+00 EMaxC= 1.00D-01 BMatC= 1.85D-01 BMatP= 2.56D-01
 IDIUse=3 WtCom= 8.43D-01 WtEn= 1.57D-01
 EnCoef did   100 forward-backward iterations
 Coeff-Com: -0.604D-01 0.150D+00 0.774D-02 0.333D-02 0.401D+00 0.104D+00
 Coeff-Com:  0.395D+00
 Coeff-En:   0.000D+00 0.000D+00 0.000D+00 0.196D-02 0.392D+00 0.161D-01
 Coeff-En:   0.590D+00
 Coeff:     -0.509D-01 0.126D+00 0.652D-02 0.312D-02 0.400D+00 0.900D-01
 Coeff:      0.425D+00
 Gap=     0.043 Goal=   None    Shift=    0.000
 RMSDP=6.39D-04 MaxDP=5.18D-02 DE=-1.17D+00 OVMax= 3.21D-01

 Cycle   8  Pass 1  IDiag  1:
 RMSU=  3.88D-04    CP:  9.78D-01  1.16D+00  2.10D-01  9.37D-02  6.61D-01
                    CP:  3.99D-01  1.54D-01
 E= -3007.27613309257     Delta-E=       -0.094135803265 Rises=F Damp=F
 DIIS: error= 8.17D-03 at cycle   8 NSaved=   8.
 NSaved= 8 IEnMin= 8 EnMin= -3007.27613309257     IErMin= 2 ErrMin= 7.46D-03
 ErrMax= 8.17D-03  0.00D+00 EMaxC= 1.00D-01 BMatC= 5.64D-02 BMatP= 1.85D-01
 IDIUse=3 WtCom= 9.18D-01 WtEn= 8.17D-02
 EnCoef did     4 forward-backward iterations
 Coeff-Com: -0.471D-01 0.125D+00-0.173D-01-0.342D-03 0.257D+00 0.242D-01
 Coeff-Com:  0.391D+00 0.268D+00
 Coeff-En:   0.000D+00 0.000D+00 0.000D+00 0.000D+00 0.172D+00 0.000D+00
 Coeff-En:   0.319D+00 0.509D+00
 Coeff:     -0.433D-01 0.115D+00-0.159D-01-0.314D-03 0.250D+00 0.223D-01
 Coeff:      0.385D+00 0.287D+00
 Gap=     0.036 Goal=   None    Shift=    0.000
 RMSDP=4.37D-04 MaxDP=4.65D-02 DE=-9.41D-02 OVMax= 2.95D-01

 Cycle   9  Pass 1  IDiag  1:
 RMSU=  1.57D-04    CP:  9.79D-01  1.16D+00  2.09D-01  2.88D-02  7.87D-01
                    CP:  3.02D-01  5.51D-01  2.11D-01
 E= -3007.35083298735     Delta-E=       -0.074699894776 Rises=F Damp=F
 DIIS: error= 3.94D-03 at cycle   9 NSaved=   9.
 NSaved= 9 IEnMin= 9 EnMin= -3007.35083298735     IErMin= 9 ErrMin= 3.94D-03
 ErrMax= 3.94D-03  0.00D+00 EMaxC= 1.00D-01 BMatC= 9.51D-03 BMatP= 5.64D-02
 IDIUse=3 WtCom= 9.61D-01 WtEn= 3.94D-02
 Coeff-Com: -0.240D-01 0.645D-01-0.131D-01 0.314D-02 0.112D+00-0.619D-02
 Coeff-Com:  0.219D+00 0.265D+00 0.379D+00
 Coeff-En:   0.000D+00 0.000D+00 0.000D+00 0.000D+00 0.000D+00 0.000D+00
 Coeff-En:   0.000D+00 0.219D+00 0.781D+00
 Coeff:     -0.231D-01 0.620D-01-0.125D-01 0.302D-02 0.108D+00-0.595D-02
 Coeff:      0.211D+00 0.263D+00 0.395D+00
 Gap=     0.040 Goal=   None    Shift=    0.000
 RMSDP=1.95D-04 MaxDP=2.27D-02 DE=-7.47D-02 OVMax= 1.61D-01

 Cycle  10  Pass 1  IDiag  1:
 RMSU=  1.06D-04    CP:  9.78D-01  1.17D+00  1.96D-01  5.12D-02  7.38D-01
                    CP:  3.16D-01  4.70D-01  4.48D-01  2.57D-01
 E= -3007.35915699547     Delta-E=       -0.008324008120 Rises=F Damp=F
 DIIS: error= 2.37D-03 at cycle  10 NSaved=  10.
 NSaved=10 IEnMin=10 EnMin= -3007.35915699547     IErMin=10 ErrMin= 2.37D-03
 ErrMax= 2.37D-03  0.00D+00 EMaxC= 1.00D-01 BMatC= 3.96D-03 BMatP= 9.51D-03
 IDIUse=3 WtCom= 9.76D-01 WtEn= 2.37D-02
 EnCoef did     5 forward-backward iterations
 Coeff-Com: -0.170D-01 0.427D-01-0.389D-02 0.645D-03 0.353D-01-0.668D-02
 Coeff-Com:  0.831D-01 0.172D+00 0.381D+00 0.313D+00
 Coeff-En:   0.000D+00 0.000D+00 0.000D+00 0.000D+00 0.000D+00 0.000D+00
 Coeff-En:   0.000D+00 0.130D-01 0.346D+00 0.640D+00
 Coeff:     -0.166D-01 0.417D-01-0.379D-02 0.630D-03 0.345D-01-0.652D-02
 Coeff:      0.811D-01 0.168D+00 0.380D+00 0.321D+00
 Gap=     0.042 Goal=   None    Shift=    0.000
 RMSDP=1.17D-04 MaxDP=1.57D-02 DE=-8.32D-03 OVMax= 9.53D-02

 Cycle  11  Pass 1  IDiag  1:
 RMSU=  5.09D-05    CP:  9.79D-01  1.17D+00  2.02D-01  4.08D-02  7.52D-01
                    CP:  3.12D-01  4.73D-01  4.05D-01  5.49D-01  1.40D-01
 E= -3007.36333293393     Delta-E=       -0.004175938460 Rises=F Damp=F
 DIIS: error= 1.30D-03 at cycle  11 NSaved=  11.
 NSaved=11 IEnMin=11 EnMin= -3007.36333293393     IErMin=11 ErrMin= 1.30D-03
 ErrMax= 1.30D-03  0.00D+00 EMaxC= 1.00D-01 BMatC= 1.09D-03 BMatP= 3.96D-03
 IDIUse=3 WtCom= 9.87D-01 WtEn= 1.30D-02
 Coeff-Com: -0.111D-01 0.248D-01-0.449D-04-0.458D-03-0.117D-02-0.185D-02
 Coeff-Com:  0.676D-02 0.761D-01 0.252D+00 0.319D+00 0.336D+00
 Coeff-En:   0.000D+00 0.000D+00 0.000D+00 0.000D+00 0.000D+00 0.000D+00
 Coeff-En:   0.000D+00 0.000D+00 0.000D+00 0.284D+00 0.716D+00
 Coeff:     -0.110D-01 0.245D-01-0.444D-04-0.452D-03-0.115D-02-0.182D-02
 Coeff:      0.667D-02 0.751D-01 0.248D+00 0.319D+00 0.341D+00
 Gap=     0.042 Goal=   None    Shift=    0.000
 RMSDP=5.27D-05 MaxDP=5.83D-03 DE=-4.18D-03 OVMax= 3.73D-02

 Cycle  12  Pass 1  IDiag  1:
 RMSU=  2.10D-05    CP:  9.79D-01  1.17D+00  2.00D-01  4.06D-02  7.57D-01
                    CP:  3.16D-01  4.73D-01  4.20D-01  5.29D-01  4.44D-01
                    CP:  3.19D-01
 E= -3007.36471539491     Delta-E=       -0.001382460980 Rises=F Damp=F
 DIIS: error= 3.82D-04 at cycle  12 NSaved=  12.
 NSaved=12 IEnMin=12 EnMin= -3007.36471539491     IErMin=12 ErrMin= 3.82D-04
 ErrMax= 3.82D-04  0.00D+00 EMaxC= 1.00D-01 BMatC= 1.70D-04 BMatP= 1.09D-03
 IDIUse=3 WtCom= 9.96D-01 WtEn= 3.82D-03
 Coeff-Com: -0.606D-02 0.121D-01 0.709D-03-0.467D-03-0.850D-02 0.105D-02
 Coeff-Com: -0.138D-01 0.269D-01 0.136D+00 0.208D+00 0.292D+00 0.352D+00
 Coeff-En:   0.000D+00 0.000D+00 0.000D+00 0.000D+00 0.000D+00 0.000D+00
 Coeff-En:   0.000D+00 0.000D+00 0.000D+00 0.000D+00 0.158D+00 0.842D+00
 Coeff:     -0.604D-02 0.120D-01 0.706D-03-0.465D-03-0.847D-02 0.105D-02
 Coeff:     -0.137D-01 0.268D-01 0.136D+00 0.207D+00 0.292D+00 0.354D+00
 Gap=     0.042 Goal=   None    Shift=    0.000
 RMSDP=1.85D-05 MaxDP=2.13D-03 DE=-1.38D-03 OVMax= 1.19D-02

 Cycle  13  Pass 1  IDiag  1:
 RMSU=  8.36D-06    CP:  9.79D-01  1.17D+00  2.00D-01  4.16D-02  7.55D-01
                    CP:  3.19D-01  4.71D-01  4.25D-01  5.34D-01  4.13D-01
                    CP:  4.72D-01  3.55D-01
 E= -3007.36490380679     Delta-E=       -0.000188411883 Rises=F Damp=F
 DIIS: error= 1.15D-04 at cycle  13 NSaved=  13.
 NSaved=13 IEnMin=13 EnMin= -3007.36490380679     IErMin=13 ErrMin= 1.15D-04
 ErrMax= 1.15D-04  0.00D+00 EMaxC= 1.00D-01 BMatC= 2.50D-05 BMatP= 1.70D-04
 IDIUse=3 WtCom= 9.99D-01 WtEn= 1.15D-03
 Coeff-Com: -0.273D-02 0.493D-02 0.107D-03-0.106D-03-0.691D-02 0.123D-02
 Coeff-Com: -0.121D-01 0.560D-02 0.612D-01 0.102D+00 0.168D+00 0.283D+00
 Coeff-Com:  0.396D+00
 Coeff-En:   0.000D+00 0.000D+00 0.000D+00 0.000D+00 0.000D+00 0.000D+00
 Coeff-En:   0.000D+00 0.000D+00 0.000D+00 0.000D+00 0.000D+00 0.149D+00
 Coeff-En:   0.851D+00
 Coeff:     -0.273D-02 0.493D-02 0.107D-03-0.105D-03-0.690D-02 0.122D-02
 Coeff:     -0.121D-01 0.560D-02 0.611D-01 0.102D+00 0.168D+00 0.283D+00
 Coeff:      0.396D+00
 Gap=     0.042 Goal=   None    Shift=    0.000
 RMSDP=6.64D-06 MaxDP=6.83D-04 DE=-1.88D-04 OVMax= 3.54D-03

 Cycle  14  Pass 1  IDiag  1:
 RMSU=  3.04D-06    CP:  9.79D-01  1.17D+00  2.00D-01  4.19D-02  7.56D-01
                    CP:  3.19D-01  4.72D-01  4.22D-01  5.42D-01  4.25D-01
                    CP:  4.60D-01  4.83D-01  4.53D-01
 E= -3007.36493076064     Delta-E=       -0.000026953843 Rises=F Damp=F
 DIIS: error= 4.65D-05 at cycle  14 NSaved=  14.
 NSaved=14 IEnMin=14 EnMin= -3007.36493076064     IErMin=14 ErrMin= 4.65D-05
 ErrMax= 4.65D-05  0.00D+00 EMaxC= 1.00D-01 BMatC= 4.43D-06 BMatP= 2.50D-05
 IDIUse=1 WtCom= 1.00D+00 WtEn= 0.00D+00
 Coeff-Com: -0.125D-02 0.220D-02-0.172D-03 0.106D-04-0.445D-02 0.796D-03
 Coeff-Com: -0.760D-02-0.710D-03 0.243D-01 0.410D-01 0.795D-01 0.159D+00
 Coeff-Com:  0.307D+00 0.400D+00
 Coeff:     -0.125D-02 0.220D-02-0.172D-03 0.106D-04-0.445D-02 0.796D-03
 Coeff:     -0.760D-02-0.710D-03 0.243D-01 0.410D-01 0.795D-01 0.159D+00
 Coeff:      0.307D+00 0.400D+00
 Gap=     0.042 Goal=   None    Shift=    0.000
 RMSDP=2.45D-06 MaxDP=3.33D-04 DE=-2.70D-05 OVMax= 7.06D-04

 Cycle  15  Pass 1  IDiag  1:
 RMSU=  1.40D-06    CP:  9.79D-01  1.17D+00  1.99D-01  4.19D-02  7.56D-01
                    CP:  3.19D-01  4.72D-01  4.23D-01  5.46D-01  4.26D-01
                    CP:  4.60D-01  4.67D-01  5.37D-01  4.92D-01
 E= -3007.36493498256     Delta-E=       -0.000004221922 Rises=F Damp=F
 DIIS: error= 2.37D-05 at cycle  15 NSaved=  15.
 NSaved=15 IEnMin=15 EnMin= -3007.36493498256     IErMin=15 ErrMin= 2.37D-05
 ErrMax= 2.37D-05  0.00D+00 EMaxC= 1.00D-01 BMatC= 6.29D-07 BMatP= 4.43D-06
 IDIUse=1 WtCom= 1.00D+00 WtEn= 0.00D+00
 Coeff-Com: -0.489D-03 0.884D-03-0.108D-03 0.203D-04-0.173D-02 0.322D-03
 Coeff-Com: -0.301D-02-0.121D-02 0.468D-02 0.506D-02 0.156D-01 0.372D-01
 Coeff-Com:  0.952D-01 0.232D+00 0.616D+00
 Coeff:     -0.489D-03 0.884D-03-0.108D-03 0.203D-04-0.173D-02 0.322D-03
 Coeff:     -0.301D-02-0.121D-02 0.468D-02 0.506D-02 0.156D-01 0.372D-01
 Coeff:      0.952D-01 0.232D+00 0.616D+00
 Gap=     0.042 Goal=   None    Shift=    0.000
 RMSDP=1.05D-06 MaxDP=1.00D-04 DE=-4.22D-06 OVMax= 3.03D-04

 Cycle  16  Pass 1  IDiag  1:
 RMSU=  7.40D-07    CP:  9.79D-01  1.17D+00  1.99D-01  4.20D-02  7.56D-01
                    CP:  3.19D-01  4.72D-01  4.23D-01  5.48D-01  4.26D-01
                    CP:  4.64D-01  4.71D-01  5.26D-01  5.96D-01  6.91D-01
 E= -3007.36493535826     Delta-E=       -0.000000375700 Rises=F Damp=F
 DIIS: error= 1.46D-05 at cycle  16 NSaved=  16.
 NSaved=16 IEnMin=16 EnMin= -3007.36493535826     IErMin=16 ErrMin= 1.46D-05
 ErrMax= 1.46D-05  0.00D+00 EMaxC= 1.00D-01 BMatC= 2.96D-07 BMatP= 6.29D-07
 IDIUse=1 WtCom= 1.00D+00 WtEn= 0.00D+00
 Coeff-Com: -0.200D-03 0.403D-03-0.168D-04-0.772D-05-0.388D-03 0.804D-04
 Coeff-Com: -0.765D-03-0.483D-03-0.151D-02-0.601D-02-0.781D-02-0.124D-01
 Coeff-Com: -0.923D-02 0.710D-01 0.518D+00 0.449D+00
 Coeff:     -0.200D-03 0.403D-03-0.168D-04-0.772D-05-0.388D-03 0.804D-04
 Coeff:     -0.765D-03-0.483D-03-0.151D-02-0.601D-02-0.781D-02-0.124D-01
 Coeff:     -0.923D-02 0.710D-01 0.518D+00 0.449D+00
 Gap=     0.042 Goal=   None    Shift=    0.000
 RMSDP=6.79D-07 MaxDP=1.34D-04 DE=-3.76D-07 OVMax= 2.34D-04

 Cycle  17  Pass 1  IDiag  1:
 RMSU=  3.43D-07    CP:  9.79D-01  1.17D+00  1.99D-01  4.20D-02  7.57D-01
                    CP:  3.19D-01  4.71D-01  4.24D-01  5.49D-01  4.26D-01
                    CP:  4.63D-01  4.72D-01  5.37D-01  5.79D-01  8.70D-01
                    CP:  5.36D-01
 E= -3007.36493565489     Delta-E=       -0.000000296634 Rises=F Damp=F
 DIIS: error= 2.79D-06 at cycle  17 NSaved=  17.
 NSaved=17 IEnMin=17 EnMin= -3007.36493565489     IErMin=17 ErrMin= 2.79D-06
 ErrMax= 2.79D-06  0.00D+00 EMaxC= 1.00D-01 BMatC= 2.92D-08 BMatP= 2.96D-07
 IDIUse=1 WtCom= 1.00D+00 WtEn= 0.00D+00
 Coeff-Com: -0.772D-04 0.150D-03-0.231D-05-0.396D-05-0.638D-04 0.180D-04
 Coeff-Com: -0.197D-03-0.162D-03-0.151D-02-0.483D-02-0.742D-02-0.136D-01
 Coeff-Com: -0.207D-01 0.149D-01 0.282D+00 0.317D+00 0.435D+00
 Coeff:     -0.772D-04 0.150D-03-0.231D-05-0.396D-05-0.638D-04 0.180D-04
 Coeff:     -0.197D-03-0.162D-03-0.151D-02-0.483D-02-0.742D-02-0.136D-01
 Coeff:     -0.207D-01 0.149D-01 0.282D+00 0.317D+00 0.435D+00
 Gap=     0.042 Goal=   None    Shift=    0.000
 RMSDP=2.06D-07 MaxDP=2.55D-05 DE=-2.97D-07 OVMax= 4.15D-05

 Cycle  18  Pass 1  IDiag  1:
 RMSU=  1.08D-07    CP:  9.79D-01  1.17D+00  1.99D-01  4.20D-02  7.57D-01
                    CP:  3.20D-01  4.71D-01  4.24D-01  5.49D-01  4.26D-01
                    CP:  4.63D-01  4.72D-01  5.36D-01  5.92D-01  8.90D-01
                    CP:  5.91D-01  5.87D-01
 E= -3007.36493568271     Delta-E=       -0.000000027818 Rises=F Damp=F
 DIIS: error= 1.15D-06 at cycle  18 NSaved=  18.
 NSaved=18 IEnMin=18 EnMin= -3007.36493568271     IErMin=18 ErrMin= 1.15D-06
 ErrMax= 1.15D-06  0.00D+00 EMaxC= 1.00D-01 BMatC= 2.38D-09 BMatP= 2.92D-08
 IDIUse=1 WtCom= 1.00D+00 WtEn= 0.00D+00
 Coeff-Com: -0.291D-04 0.510D-04 0.189D-06-0.118D-05-0.202D-05 0.121D-05
 Coeff-Com: -0.471D-04-0.254D-04-0.591D-03-0.196D-02-0.321D-02-0.627D-02
 Coeff-Com: -0.115D-01-0.162D-02 0.984D-01 0.131D+00 0.265D+00 0.531D+00
 Coeff:     -0.291D-04 0.510D-04 0.189D-06-0.118D-05-0.202D-05 0.121D-05
 Coeff:     -0.471D-04-0.254D-04-0.591D-03-0.196D-02-0.321D-02-0.627D-02
 Coeff:     -0.115D-01-0.162D-02 0.984D-01 0.131D+00 0.265D+00 0.531D+00
 Gap=     0.042 Goal=   None    Shift=    0.000
 RMSDP=6.56D-08 MaxDP=6.50D-06 DE=-2.78D-08 OVMax= 1.27D-05

 Cycle  19  Pass 1  IDiag  1:
 RMSU=  3.64D-08    CP:  9.79D-01  1.17D+00  1.99D-01  4.20D-02  7.57D-01
                    CP:  3.20D-01  4.71D-01  4.24D-01  5.50D-01  4.26D-01
                    CP:  4.63D-01  4.72D-01  5.36D-01  5.92D-01  8.99D-01
                    CP:  5.91D-01  5.93D-01  5.86D-01
 E= -3007.36493568469     Delta-E=       -0.000000001981 Rises=F Damp=F
 DIIS: error= 5.26D-07 at cycle  19 NSaved=  19.
 NSaved=19 IEnMin=19 EnMin= -3007.36493568469     IErMin=19 ErrMin= 5.26D-07
 ErrMax= 5.26D-07  0.00D+00 EMaxC= 1.00D-01 BMatC= 4.02D-10 BMatP= 2.38D-09
 IDIUse=1 WtCom= 1.00D+00 WtEn= 0.00D+00
 Coeff-Com: -0.138D-04 0.230D-04 0.482D-07-0.576D-06 0.261D-05-0.403D-06
 Coeff-Com: -0.168D-04-0.721D-05-0.265D-03-0.891D-03-0.151D-02-0.304D-02
 Coeff-Com: -0.608D-02-0.295D-02 0.402D-01 0.593D-01 0.138D+00 0.358D+00
 Coeff-Com:  0.420D+00
 Coeff:     -0.138D-04 0.230D-04 0.482D-07-0.576D-06 0.261D-05-0.403D-06
 Coeff:     -0.168D-04-0.721D-05-0.265D-03-0.891D-03-0.151D-02-0.304D-02
 Coeff:     -0.608D-02-0.295D-02 0.402D-01 0.593D-01 0.138D+00 0.358D+00
 Coeff:      0.420D+00
 Gap=     0.042 Goal=   None    Shift=    0.000
 RMSDP=2.55D-08 MaxDP=3.41D-06 DE=-1.98D-09 OVMax= 6.41D-06

 Cycle  20  Pass 1  IDiag  1:
 RMSU=  1.64D-08    CP:  9.79D-01  1.17D+00  1.99D-01  4.20D-02  7.57D-01
                    CP:  3.20D-01  4.71D-01  4.24D-01  5.50D-01  4.26D-01
                    CP:  4.63D-01  4.72D-01  5.36D-01  5.94D-01  8.99D-01
                    CP:  5.94D-01  5.97D-01  6.46D-01  5.75D-01
 E= -3007.36493568509     Delta-E=       -0.000000000406 Rises=F Damp=F
 DIIS: error= 3.20D-07 at cycle  20 NSaved=  20.
 NSaved=20 IEnMin=20 EnMin= -3007.36493568509     IErMin=20 ErrMin= 3.20D-07
 ErrMax= 3.20D-07  0.00D+00 EMaxC= 1.00D-01 BMatC= 9.35D-11 BMatP= 4.02D-10
 IDIUse=1 WtCom= 1.00D+00 WtEn= 0.00D+00
 Coeff-Com: -0.496D-05 0.766D-05 0.353D-07-0.228D-06 0.190D-05-0.212D-06
 Coeff-Com: -0.414D-05-0.577D-06-0.784D-04-0.275D-03-0.492D-03-0.106D-02
 Coeff-Com: -0.237D-02-0.224D-02 0.990D-02 0.179D-01 0.504D-01 0.164D+00
 Coeff-Com:  0.328D+00 0.437D+00
 Coeff:     -0.496D-05 0.766D-05 0.353D-07-0.228D-06 0.190D-05-0.212D-06
 Coeff:     -0.414D-05-0.577D-06-0.784D-04-0.275D-03-0.492D-03-0.106D-02
 Coeff:     -0.237D-02-0.224D-02 0.990D-02 0.179D-01 0.504D-01 0.164D+00
 Coeff:      0.328D+00 0.437D+00
 Gap=     0.042 Goal=   None    Shift=    0.000
 RMSDP=1.11D-08 MaxDP=1.74D-06 DE=-4.06D-10 OVMax= 2.80D-06

 Cycle  21  Pass 1  IDiag  1:
 Restarting incremental Fock formation.
 E= -3007.36493568518     Delta-E=       -0.000000000084 Rises=F Damp=F
 DIIS: error= 9.65D-08 at cycle  21 NSaved=  20.
 NSaved=20 IEnMin=20 EnMin= -3007.36493568518     IErMin=20 ErrMin= 9.65D-08
 ErrMax= 9.65D-08  0.00D+00 EMaxC= 1.00D-01 BMatC= 1.16D-11 BMatP= 9.35D-11
 IDIUse=1 WtCom= 1.00D+00 WtEn= 0.00D+00
 Coeff-Com: -0.150D-05 0.176D-05 0.299D-07 0.969D-06-0.634D-07-0.108D-05
 Coeff-Com:  0.300D-06-0.215D-04-0.789D-04-0.161D-03-0.373D-03-0.974D-03
 Coeff-Com: -0.140D-02 0.159D-02 0.485D-02 0.182D-01 0.710D-01 0.181D+00
 Coeff-Com:  0.311D+00 0.416D+00
 Coeff:     -0.150D-05 0.176D-05 0.299D-07 0.969D-06-0.634D-07-0.108D-05
 Coeff:      0.300D-06-0.215D-04-0.789D-04-0.161D-03-0.373D-03-0.974D-03
 Coeff:     -0.140D-02 0.159D-02 0.485D-02 0.182D-01 0.710D-01 0.181D+00
 Coeff:      0.311D+00 0.416D+00
 Gap=     0.042 Goal=   None    Shift=    0.000
 RMSDP=4.08D-09 MaxDP=5.35D-07 DE=-8.37D-11 OVMax= 1.09D-06

 SCF Done:  E(RB-LYP) =  -3007.36493569     A.U. after   21 cycles
            NFock= 21  Conv=0.41D-08     -V/T= 2.0098
 KE= 2.978181156797D+03 PE=-2.627806265974D+04 EE= 1.065142395139D+04
 Leave Link  502 at Sat Apr 30 05:30:39 2022, MaxMem= 10066329600 cpu:            5762.1 elap:             241.0
 (Enter /sw/apps/gaussian-16.0/g16/l801.exe)
 DoSCS=F DFT=T ScalE2(SS,OS)=  1.000000  1.000000
 ExpMin= 3.36D-02 ExpMax= 4.95D+03 ExpMxC= 7.45D+02 IAcc=3 IRadAn=         5 AccDes= 0.00D+00
 HarFok:  IExCor=  205 AccDes= 0.00D+00 IRadAn=         5 IDoV=-2 UseB2=F ITyADJ=14
 ICtDFT= 12500011 ScaDFX=  1.000000  1.000000  1.000000  1.000000
 GSVD:  LWork=       -5460 too small for GESVD, short by       25550 words or       25550 for optimal perf.
 Largest valence mixing into a core orbital is  1.47D-04
 Largest core mixing into a valence orbital is  4.49D-05
 Range of M.O.s used for correlation:    71  1298
 NBasis=  1298 NAE=   246 NBE=   246 NFC=    70 NFV=     0
 NROrb=   1228 NOA=   176 NOB=   176 NVA=  1052 NVB=  1052

 **** Warning!!: The smallest alpha delta epsilon is  0.42057834D-01

 Leave Link  801 at Sat Apr 30 05:30:39 2022, MaxMem= 10066329600 cpu:               6.6 elap:               0.3
 (Enter /sw/apps/gaussian-16.0/g16/l914.exe)
 RHF ground state
 Two-electron integrals replicated using symmetry.
 MDV= 10066329600 DFT=T DoStab=F Mixed=F DoRPA=T DoScal=T NonHer=F
 Making orbital integer symmetry assigments:
 Orbital symmetries:
       Occupied  (A) (A) (A) (A) (A) (A) (A) (A) (A) (A) (A) (A)
                 (A) (A) (A) (A) (A) (A) (A) (A) (A) (A) (A) (A)
                 (A) (A) (A) (A) (A) (A) (A) (A) (A) (A) (A) (A)
                 (A) (A) (A) (A) (A) (A) (A) (A) (A) (A) (A) (A)
                 (A) (A) (A) (A) (A) (A) (A) (A) (A) (A) (A) (A)
                 (A) (A) (A) (A) (A) (A) (A) (A) (A) (A) (A) (A)
                 (A) (A) (A) (A) (A) (A) (A) (A) (A) (A) (A) (A)
                 (A) (A) (A) (A) (A) (A) (A) (A) (A) (A) (A) (A)
                 (A) (A) (A) (A) (A) (A) (A) (A) (A) (A) (A) (A)
                 (A) (A) (A) (A) (A) (A) (A) (A) (A) (A) (A) (A)
                 (A) (A) (A) (A) (A) (A) (A) (A) (A) (A) (A) (A)
                 (A) (A) (A) (A) (A) (A) (A) (A) (A) (A) (A) (A)
                 (A) (A) (A) (A) (A) (A) (A) (A) (A) (A) (A) (A)
                 (A) (A) (A) (A) (A) (A) (A) (A) (A) (A) (A) (A)
                 (A) (A) (A) (A) (A) (A) (A) (A) (A) (A) (A) (A)
                 (A) (A) (A) (A) (A) (A) (A) (A) (A) (A) (A) (A)
                 (A) (A) (A) (A) (A) (A) (A) (A) (A) (A) (A) (A)
                 (A) (A) (A) (A) (A) (A) (A) (A) (A) (A) (A) (A)
                 (A) (A) (A) (A) (A) (A) (A) (A) (A) (A) (A) (A)
                 (A) (A) (A) (A) (A) (A) (A) (A) (A) (A) (A) (A)
                 (A) (A) (A) (A) (A) (A)
       Virtual   (A) (A) (A) (A) (A) (A) (A) (A) (A) (A) (A) (A)
                 (A) (A) (A) (A) (A) (A) (A) (A) (A) (A) (A) (A)
                 (A) (A) (A) (A) (A) (A) (A) (A) (A) (A) (A) (A)
                 (A) (A) (A) (A) (A) (A) (A) (A) (A) (A) (A) (A)
                 (A) (A) (A) (A) (A) (A) (A) (A) (A) (A) (A) (A)
                 (A) (A) (A) (A) (A) (A) (A) (A) (A) (A) (A) (A)
                 (A) (A) (A) (A) (A) (A) (A) (A) (A) (A) (A) (A)
                 (A) (A) (A) (A) (A) (A) (A) (A) (A) (A) (A) (A)
                 (A) (A) (A) (A) (A) (A) (A) (A) (A) (A) (A) (A)
                 (A) (A) (A) (A) (A) (A) (A) (A) (A) (A) (A) (A)
                 (A) (A) (A) (A) (A) (A) (A) (A) (A) (A) (A) (A)
                 (A) (A) (A) (A) (A) (A) (A) (A) (A) (A) (A) (A)
                 (A) (A) (A) (A) (A) (A) (A) (A) (A) (A) (A) (A)
                 (A) (A) (A) (A) (A) (A) (A) (A) (A) (A) (A) (A)
                 (A) (A) (A) (A) (A) (A) (A) (A) (A) (A) (A) (A)
                 (A) (A) (A) (A) (A) (A) (A) (A) (A) (A) (A) (A)
                 (A) (A) (A) (A) (A) (A) (A) (A) (A) (A) (A) (A)
                 (A) (A) (A) (A) (A) (A) (A) (A) (A) (A) (A) (A)
                 (A) (A) (A) (A) (A) (A) (A) (A) (A) (A) (A) (A)
                 (A) (A) (A) (A) (A) (A) (A) (A) (A) (A) (A) (A)
                 (A) (A) (A) (A) (A) (A) (A) (A) (A) (A) (A) (A)
                 (A) (A) (A) (A) (A) (A) (A) (A) (A) (A) (A) (A)
                 (A) (A) (A) (A) (A) (A) (A) (A) (A) (A) (A) (A)
                 (A) (A) (A) (A) (A) (A) (A) (A) (A) (A) (A) (A)
                 (A) (A) (A) (A) (A) (A) (A) (A) (A) (A) (A) (A)
                 (A) (A) (A) (A) (A) (A) (A) (A) (A) (A) (A) (A)
                 (A) (A) (A) (A) (A) (A) (A) (A) (A) (A) (A) (A)
                 (A) (A) (A) (A) (A) (A) (A) (A) (A) (A) (A) (A)
                 (A) (A) (A) (A) (A) (A) (A) (A) (A) (A) (A) (A)
                 (A) (A) (A) (A) (A) (A) (A) (A) (A) (A) (A) (A)
                 (A) (A) (A) (A) (A) (A) (A) (A) (A) (A) (A) (A)
                 (A) (A) (A) (A) (A) (A) (A) (A) (A) (A) (A) (A)
                 (A) (A) (A) (A) (A) (A) (A) (A) (A) (A) (A) (A)
                 (A) (A) (A) (A) (A) (A) (A) (A) (A) (A) (A) (A)
                 (A) (A) (A) (A) (A) (A) (A) (A) (A) (A) (A) (A)
                 (A) (A) (A) (A) (A) (A) (A) (A) (A) (A) (A) (A)
                 (A) (A) (A) (A) (A) (A) (A) (A) (A) (A) (A) (A)
                 (A) (A) (A) (A) (A) (A) (A) (A) (A) (A) (A) (A)
                 (A) (A) (A) (A) (A) (A) (A) (A) (A) (A) (A) (A)
                 (A) (A) (A) (A) (A) (A) (A) (A) (A) (A) (A) (A)
                 (A) (A) (A) (A) (A) (A) (A) (A) (A) (A) (A) (A)
                 (A) (A) (A) (A) (A) (A) (A) (A) (A) (A) (A) (A)
                 (A) (A) (A) (A) (A) (A) (A) (A) (A) (A) (A) (A)
                 (A) (A) (A) (A) (A) (A) (A) (A) (A) (A) (A) (A)
                 (A) (A) (A) (A) (A) (A) (A) (A) (A) (A) (A) (A)
                 (A) (A) (A) (A) (A) (A) (A) (A) (A) (A) (A) (A)
                 (A) (A) (A) (A) (A) (A) (A) (A) (A) (A) (A) (A)
                 (A) (A) (A) (A) (A) (A) (A) (A) (A) (A) (A) (A)
                 (A) (A) (A) (A) (A) (A) (A) (A) (A) (A) (A) (A)
                 (A) (A) (A) (A) (A) (A) (A) (A) (A) (A) (A) (A)
                 (A) (A) (A) (A) (A) (A) (A) (A) (A) (A) (A) (A)
                 (A) (A) (A) (A) (A) (A) (A) (A) (A) (A) (A) (A)
                 (A) (A) (A) (A) (A) (A) (A) (A) (A) (A) (A) (A)
                 (A) (A) (A) (A) (A) (A) (A) (A) (A) (A) (A) (A)
                 (A) (A) (A) (A) (A) (A) (A) (A) (A) (A) (A) (A)
                 (A) (A) (A) (A) (A) (A) (A) (A) (A) (A) (A) (A)
                 (A) (A) (A) (A) (A) (A) (A) (A) (A) (A) (A) (A)
                 (A) (A) (A) (A) (A) (A) (A) (A) (A) (A) (A) (A)
                 (A) (A) (A) (A) (A) (A) (A) (A) (A) (A) (A) (A)
                 (A) (A) (A) (A) (A) (A) (A) (A) (A) (A) (A) (A)
                 (A) (A) (A) (A) (A) (A) (A) (A) (A) (A) (A) (A)
                 (A) (A) (A) (A) (A) (A) (A) (A) (A) (A) (A) (A)
                 (A) (A) (A) (A) (A) (A) (A) (A) (A) (A) (A) (A)
                 (A) (A) (A) (A) (A) (A) (A) (A) (A) (A) (A) (A)
                 (A) (A) (A) (A) (A) (A) (A) (A) (A) (A) (A) (A)
                 (A) (A) (A) (A) (A) (A) (A) (A) (A) (A) (A) (A)
                 (A) (A) (A) (A) (A) (A) (A) (A) (A) (A) (A) (A)
                 (A) (A) (A) (A) (A) (A) (A) (A) (A) (A) (A) (A)
                 (A) (A) (A) (A) (A) (A) (A) (A) (A) (A) (A) (A)
                 (A) (A) (A) (A) (A) (A) (A) (A) (A) (A) (A) (A)
                 (A) (A) (A) (A) (A) (A) (A) (A) (A) (A) (A) (A)
                 (A) (A) (A) (A) (A) (A) (A) (A) (A) (A) (A) (A)
                 (A) (A) (A) (A) (A) (A) (A) (A) (A) (A) (A) (A)
                 (A) (A) (A) (A) (A) (A) (A) (A) (A) (A) (A) (A)
                 (A) (A) (A) (A) (A) (A) (A) (A) (A) (A) (A) (A)
                 (A) (A) (A) (A) (A) (A) (A) (A) (A) (A) (A) (A)
                 (A) (A) (A) (A) (A) (A) (A) (A) (A) (A) (A) (A)
                 (A) (A) (A) (A) (A) (A) (A) (A) (A) (A) (A) (A)
                 (A) (A) (A) (A) (A) (A) (A) (A) (A) (A) (A) (A)
                 (A) (A) (A) (A) (A) (A) (A) (A) (A) (A) (A) (A)
                 (A) (A) (A) (A) (A) (A) (A) (A) (A) (A) (A) (A)
                 (A) (A) (A) (A) (A) (A) (A) (A) (A) (A) (A) (A)
                 (A) (A) (A) (A) (A) (A) (A) (A) (A) (A) (A) (A)
                 (A) (A) (A) (A) (A) (A) (A) (A) (A) (A) (A) (A)
                 (A) (A) (A) (A) (A) (A) (A) (A) (A) (A) (A) (A)
                 (A) (A) (A) (A) (A) (A) (A) (A) (A) (A) (A) (A)
                 (A) (A) (A) (A) (A) (A) (A) (A) (A) (A) (A) (A)
                 (A) (A) (A) (A) (A) (A) (A) (A)
    20 initial guesses have been made.
 Convergence on wavefunction:    0.001000000000000
 Davidson Disk Diagonalization:  ConvIn= 1.00D-03 SkipCon=T Conv= 1.00D-03.
 Max sub-space:  2000 roots to seek:    20 dimension of matrix:       370304
 Iteration     1 Dimension    20 NMult     0 NNew     20
 CISAX will form    20 AO SS matrices at one time.
 NMat=    20 NSing=    20 JSym2X= 0.
 FoFJK:  IHMeth= 1 ICntrl=     500 DoSepK=F KAlg= 0 I1Cent=           0 FoldK=F
 IRaf= 530000000 NMat=      20 IRICut=       1 DoRegI=T DoRafI=F ISym2E= 0 IDoP0=0 IntGTp=1.
 FoFCou: FMM=T IPFlag=           0 FMFlag=      100000 FMFlg1=        2001
         NFxFlg=           0 DoJE=F BraDBF=F KetDBF=F FulRan=T
         wScrn=  0.000000 ICntrl=       500 IOpCl=  0 I1Cent=           0 NGrid=           0
         NMat0=   20 NMatS0=     20 NMatT0=    0 NMatD0=   20 NMtDS0=    0 NMtDT0=    0
 Symmetry not used in FoFCou.
 FMM levels:  10  Number of levels for PrismC:   9
 New state      1 was old state      3
 New state      2 was old state      4
 New state      3 was old state      1
 New state      4 was old state      5
 New state      5 was old state      2
 Excitation Energies [eV] at current iteration:
 Root      1 :     1.961296193349315
 Root      2 :     1.987668753158353
 Root      3 :     2.140383443364348
 Root      4 :     2.199406811994605
 Root      5 :     2.349142830565321
 Root      6 :     2.614950337710849
 Root      7 :     2.829460373468756
 Root      8 :     2.953314484551066
 Root      9 :     3.008527360416166
 Root     10 :     3.039294921216933
 Root     11 :     3.157799859889046
 Root     12 :     3.186413341997580
 Root     13 :     3.202164349322371
 Root     14 :     3.248431648515604
 Root     15 :     3.297300475105149
 Root     16 :     3.496179574872283
 Root     17 :     3.910174468679537
 Root     18 :     3.984685903666271
 Root     19 :     4.314640678407959
 Root     20 :     4.486439405085538
 Iteration     2 Dimension    40 NMult    20 NNew     20
 CISAX will form    20 AO SS matrices at one time.
 NMat=    20 NSing=    20 JSym2X= 0.
 New state      1 was old state      3
 Root      1 not converged, maximum delta is    0.136087773875122
 New state      2 was old state      1
 Root      2 not converged, maximum delta is    0.118986073594447
 New state      3 was old state      2
 Root      3 not converged, maximum delta is    0.141236543090508
 New state      4 was old state      5
 Root      4 not converged, maximum delta is    0.110910676681851
 New state      5 was old state      4
 Root      5 not converged, maximum delta is    0.003279431443313
 Excitation Energies [eV] at current iteration:
 Root      1 :     1.877320333590187   Change is   -0.263063109774161
 Root      2 :     1.946122395664742   Change is   -0.015173797684572
 Root      3 :     1.981860951804674   Change is   -0.005807801353679
 Root      4 :     2.105015286567249   Change is   -0.244127543998072
 Root      5 :     2.199405273797646   Change is   -0.000001538196959
 Root      6 :     2.531876060831783   Change is   -0.297584312636972
 Root      7 :     2.604910484769287   Change is   -0.010039852941562
 Root      8 :     2.791602355733676   Change is   -0.394810986263903
 Root      9 :     2.870934138167251   Change is   -0.286865721721795
 Root     10 :     2.951413858916706   Change is   -0.001900625634360
 Root     11 :     3.010577935005041   Change is    0.002050574588875
 Root     12 :     3.038449948013006   Change is   -0.000844973203928
 Root     13 :     3.202164288625684   Change is   -0.000000060696686
 Root     14 :     3.233122217761374   Change is   -0.263057357110909
 Root     15 :     3.248431621614086   Change is   -0.000000026901518
 Root     16 :     3.289143676381856   Change is   -0.008156798723294
 Root     17 :     3.569796901814012   Change is   -0.414889001852259
 Root     18 :     3.603378526947330   Change is   -0.306795941732207
 Root     19 :     4.002080180867755   Change is   -0.484359224217783
 Root     20 :     4.086744858845162   Change is   -0.227895819562796
 Iteration     3 Dimension    45 NMult    40 NNew      5
 CISAX will form     5 AO SS matrices at one time.
 NMat=     5 NSing=     5 JSym2X= 0.
 Root      1 not converged, maximum delta is    0.034569295522512
 Root      2 not converged, maximum delta is    0.069550441219409
 Root      3 not converged, maximum delta is    0.053884865379570
 Root      4 not converged, maximum delta is    0.069002316880190
 Root      5 has converged.
 Excitation Energies [eV] at current iteration:
 Root      1 :     1.832410157920673   Change is   -0.044910175669514
 Root      2 :     1.938346991747391   Change is   -0.007775403917351
 Root      3 :     1.978109017463237   Change is   -0.003751934341437
 Root      4 :     2.065700395857281   Change is   -0.039314890709968
 Root      5 :     2.199404903888639   Change is   -0.000000369909007
 Iteration     4 Dimension    49 NMult    45 NNew      4
 CISAX will form     4 AO SS matrices at one time.
 NMat=     4 NSing=     4 JSym2X= 0.
 Root      1 not converged, maximum delta is    0.008352569824110
 Root      2 not converged, maximum delta is    0.038876419180490
 Root      3 not converged, maximum delta is    0.034385173248188
 Root      4 not converged, maximum delta is    0.039896464816563
 Root      5 has converged.
 Excitation Energies [eV] at current iteration:
 Root      1 :     1.818113274146068   Change is   -0.014296883774605
 Root      2 :     1.934055322604393   Change is   -0.004291669142999
 Root      3 :     1.976431778960788   Change is   -0.001677238502449
 Root      4 :     2.051962420524085   Change is   -0.013737975333196
 Root      5 :     2.199404885323515   Change is   -0.000000018565125
 Iteration     5 Dimension    53 NMult    49 NNew      4
 CISAX will form     4 AO SS matrices at one time.
 NMat=     4 NSing=     4 JSym2X= 0.
 Root      1 not converged, maximum delta is    0.004656649123430
 Root      2 not converged, maximum delta is    0.013597852592898
 Root      3 not converged, maximum delta is    0.011286159216716
 Root      4 not converged, maximum delta is    0.013428664629143
 Root      5 has converged.
 Excitation Energies [eV] at current iteration:
 Root      1 :     1.813439762582997   Change is   -0.004673511563071
 Root      2 :     1.932334733565761   Change is   -0.001720589038631
 Root      3 :     1.975866011546861   Change is   -0.000565767413927
 Root      4 :     2.047716522990376   Change is   -0.004245897533709
 Root      5 :     2.199404880723245   Change is   -0.000000004600269
 Iteration     6 Dimension    57 NMult    53 NNew      4
 CISAX will form     4 AO SS matrices at one time.
 NMat=     4 NSing=     4 JSym2X= 0.
 Root      1 not converged, maximum delta is    0.002488997731479
 Root      2 not converged, maximum delta is    0.006124105767350
 Root      3 not converged, maximum delta is    0.005208751209414
 Root      4 not converged, maximum delta is    0.006216828688936
 Root      5 has converged.
 Excitation Energies [eV] at current iteration:
 Root      1 :     1.811260826769262   Change is   -0.002178935813735
 Root      2 :     1.931415657866460   Change is   -0.000919075699301
 Root      3 :     1.975584338196403   Change is   -0.000281673350458
 Root      4 :     2.045870495960630   Change is   -0.001846027029746
 Root      5 :     2.199404876987809   Change is   -0.000000003735436
 Iteration     7 Dimension    61 NMult    57 NNew      4
 CISAX will form     4 AO SS matrices at one time.
 NMat=     4 NSing=     4 JSym2X= 0.
 Root      1 not converged, maximum delta is    0.001669388052726
 Root      2 not converged, maximum delta is    0.002380902236888
 Root      3 not converged, maximum delta is    0.002108387584954
 Root      4 not converged, maximum delta is    0.002501210805799
 Root      5 has converged.
 Excitation Energies [eV] at current iteration:
 Root      1 :     1.810320448044173   Change is   -0.000940378725089
 Root      2 :     1.931013467584233   Change is   -0.000402190282228
 Root      3 :     1.975454915830585   Change is   -0.000129422365817
 Root      4 :     2.045142361256527   Change is   -0.000728134704103
 Root      5 :     2.199404876899038   Change is   -0.000000000088771
 Iteration     8 Dimension    65 NMult    61 NNew      4
 CISAX will form     4 AO SS matrices at one time.
 NMat=     4 NSing=     4 JSym2X= 0.
 Root      1 not converged, maximum delta is    0.001062259574207
 Root      2 not converged, maximum delta is    0.001397789558827
 Root      3 has converged.
 Root      4 not converged, maximum delta is    0.001701838075445
 Root      5 has converged.
 Excitation Energies [eV] at current iteration:
 Root      1 :     1.809915799855119   Change is   -0.000404648189054
 Root      2 :     1.930831688420081   Change is   -0.000181779164151
 Root      3 :     1.975401019670529   Change is   -0.000053896160056
 Root      4 :     2.044798693847633   Change is   -0.000343667408894
 Root      5 :     2.199404876447336   Change is   -0.000000000451703
 Iteration     9 Dimension    68 NMult    65 NNew      3
 CISAX will form     3 AO SS matrices at one time.
 NMat=     3 NSing=     3 JSym2X= 0.
 Root      1 has converged.
 Root      2 has converged.
 Root      3 has converged.
 Root      4 not converged, maximum delta is    0.001059735786707
 Root      5 has converged.
[...]
 Alpha virt. eigenvalues --    1.09092   1.09644   1.09762   1.10295   1.10597
 Alpha virt. eigenvalues --    1.11055   1.11554   1.11791   1.12004   1.12225
 Alpha virt. eigenvalues --    1.12717   1.12795   1.13377   1.14127   1.14505
 Alpha virt. eigenvalues --    1.15396   1.16525   1.16582   1.17016   1.17520
 Alpha virt. eigenvalues --    1.18054   1.18131   1.19079   1.19349   1.19724
 Alpha virt. eigenvalues --    1.20548   1.20935   1.21344   1.21699   1.22323
 Alpha virt. eigenvalues --    1.23287   1.23533   1.23649   1.23828   1.24406
 Alpha virt. eigenvalues --    1.25650   1.25923   1.26201   1.26792   1.27130
 Alpha virt. eigenvalues --    1.27657   1.28016   1.28137   1.28467   1.28960
 Alpha virt. eigenvalues --    1.29847   1.30511   1.30724   1.31006   1.31467
 Alpha virt. eigenvalues --    1.31755   1.32027   1.32678   1.33002   1.33272
 Alpha virt. eigenvalues --    1.33470   1.33700   1.34125   1.34421   1.34717
 Alpha virt. eigenvalues --    1.35534   1.35632   1.36061   1.36241   1.36548
 Alpha virt. eigenvalues --    1.37326   1.37457   1.37660   1.38454   1.38930
 Alpha virt. eigenvalues --    1.39224   1.39540   1.39625   1.39862   1.40526
 Alpha virt. eigenvalues --    1.40889   1.41346   1.41756   1.42325   1.43066
 Alpha virt. eigenvalues --    1.43264   1.43349   1.43863   1.44411   1.44780
 Alpha virt. eigenvalues --    1.44996   1.45257   1.45833   1.45945   1.46400
 Alpha virt. eigenvalues --    1.46487   1.46638   1.46675   1.46729   1.47001
 Alpha virt. eigenvalues --    1.47460   1.48030   1.48317   1.48480   1.48749
 Alpha virt. eigenvalues --    1.49019   1.49270   1.49677   1.49927   1.50322
 Alpha virt. eigenvalues --    1.50493   1.50723   1.50991   1.51257   1.51468
 Alpha virt. eigenvalues --    1.52006   1.52336   1.52952   1.53087   1.53283
 Alpha virt. eigenvalues --    1.53478   1.53803   1.54046   1.54426   1.54886
 Alpha virt. eigenvalues --    1.55259   1.55573   1.56196   1.56298   1.57265
 Alpha virt. eigenvalues --    1.57384   1.58221   1.58646   1.59028   1.59693
 Alpha virt. eigenvalues --    1.59712   1.60086   1.60104   1.60589   1.61181
 Alpha virt. eigenvalues --    1.61701   1.62118   1.62487   1.62971   1.63442
 Alpha virt. eigenvalues --    1.63706   1.64019   1.64132   1.65034   1.65226
 Alpha virt. eigenvalues --    1.65324   1.65433   1.65619   1.65735   1.65882
 Alpha virt. eigenvalues --    1.66140   1.66486   1.66718   1.66834   1.67350
 Alpha virt. eigenvalues --    1.67670   1.67889   1.68102   1.68385   1.69066
 Alpha virt. eigenvalues --    1.69189   1.69242   1.69430   1.69485   1.69550
 Alpha virt. eigenvalues --    1.69729   1.69862   1.69933   1.70116   1.70564
 Alpha virt. eigenvalues --    1.71131   1.71295   1.71404   1.71802   1.71928
 Alpha virt. eigenvalues --    1.72085   1.72132   1.72411   1.72689   1.72723
 Alpha virt. eigenvalues --    1.73009   1.73253   1.73628   1.73892   1.73996
 Alpha virt. eigenvalues --    1.74083   1.74405   1.74554   1.74867   1.74947
 Alpha virt. eigenvalues --    1.75087   1.75163   1.75238   1.75642   1.75860
 Alpha virt. eigenvalues --    1.76056   1.76253   1.76460   1.76524   1.77036
 Alpha virt. eigenvalues --    1.77210   1.77512   1.77793   1.77841   1.78015
 Alpha virt. eigenvalues --    1.78265   1.78753   1.78886   1.78966   1.79028
 Alpha virt. eigenvalues --    1.79267   1.79429   1.79589   1.79843   1.80305
 Alpha virt. eigenvalues --    1.80656   1.80845   1.80972   1.81070   1.81259
 Alpha virt. eigenvalues --    1.81604   1.81876   1.82015   1.82388   1.82533
 Alpha virt. eigenvalues --    1.82858   1.83286   1.83356   1.83734   1.83914
 Alpha virt. eigenvalues --    1.83954   1.84194   1.84299   1.84324   1.84596
 Alpha virt. eigenvalues --    1.84885   1.85186   1.85818   1.85988   1.86120
 Alpha virt. eigenvalues --    1.86415   1.86722   1.86839   1.87003   1.87287
 Alpha virt. eigenvalues --    1.87666   1.87856   1.88447   1.88510   1.88830
 Alpha virt. eigenvalues --    1.89151   1.89397   1.89681   1.89834   1.90123
 Alpha virt. eigenvalues --    1.90373   1.90659   1.90871   1.91383   1.91480
 Alpha virt. eigenvalues --    1.91706   1.92050   1.92344   1.92841   1.93088
 Alpha virt. eigenvalues --    1.93274   1.93884   1.94048   1.94299   1.94442
 Alpha virt. eigenvalues --    1.94791   1.94864   1.95478   1.95945   1.96028
 Alpha virt. eigenvalues --    1.96619   1.96820   1.96828   1.97040   1.97410
 Alpha virt. eigenvalues --    1.97697   1.97932   1.98148   1.98550   1.98827
 Alpha virt. eigenvalues --    1.98921   1.99171   1.99338   1.99726   2.00050
 Alpha virt. eigenvalues --    2.00058   2.00751   2.01000   2.01033   2.01450
 Alpha virt. eigenvalues --    2.01810   2.02009   2.02358   2.02492   2.02711
 Alpha virt. eigenvalues --    2.03195   2.03324   2.03888   2.04006   2.04611
 Alpha virt. eigenvalues --    2.04915   2.05077   2.05382   2.05645   2.06102
 Alpha virt. eigenvalues --    2.06463   2.06906   2.07160   2.07393   2.07609
 Alpha virt. eigenvalues --    2.07892   2.08857   2.09288   2.09567   2.09647
 Alpha virt. eigenvalues --    2.10106   2.10297   2.10466   2.11040   2.11516
 Alpha virt. eigenvalues --    2.11657   2.11834   2.12331   2.12808   2.13223
 Alpha virt. eigenvalues --    2.13893   2.14403   2.14490   2.14576   2.14794
 Alpha virt. eigenvalues --    2.15502   2.15843   2.16574   2.17381   2.17920
 Alpha virt. eigenvalues --    2.18088   2.18292   2.18855   2.19345   2.19458
 Alpha virt. eigenvalues --    2.19779   2.20007   2.20539   2.20893   2.21726
 Alpha virt. eigenvalues --    2.21902   2.22339   2.22655   2.23349   2.23365
 Alpha virt. eigenvalues --    2.24118   2.24719   2.24849   2.25053   2.25610
 Alpha virt. eigenvalues --    2.26614   2.26753   2.26967   2.27201   2.27908
 Alpha virt. eigenvalues --    2.28071   2.28383   2.28612   2.28784   2.29103
 Alpha virt. eigenvalues --    2.29397   2.29728   2.29922   2.30235   2.30480
 Alpha virt. eigenvalues --    2.30917   2.31623   2.31945   2.32231   2.32460
 Alpha virt. eigenvalues --    2.32630   2.32692   2.33130   2.33535   2.33857
 Alpha virt. eigenvalues --    2.34128   2.34392   2.34831   2.35034   2.35762
 Alpha virt. eigenvalues --    2.35911   2.36610   2.36788   2.36975   2.37427
 Alpha virt. eigenvalues --    2.37448   2.37580   2.38186   2.38422   2.38743
 Alpha virt. eigenvalues --    2.38833   2.39958   2.40597   2.40857   2.41194
 Alpha virt. eigenvalues --    2.42115   2.42812   2.42943   2.43532   2.43867
 Alpha virt. eigenvalues --    2.44102   2.44533   2.44873   2.45250   2.45481
 Alpha virt. eigenvalues --    2.46167   2.46325   2.47048   2.47339   2.47954
 Alpha virt. eigenvalues --    2.48305   2.48807   2.48955   2.49324   2.50352
 Alpha virt. eigenvalues --    2.50653   2.50793   2.50955   2.51781   2.51829
 Alpha virt. eigenvalues --    2.52018   2.52593   2.53212   2.53635   2.53963
 Alpha virt. eigenvalues --    2.54190   2.54450   2.54625   2.55109   2.55412
 Alpha virt. eigenvalues --    2.55460   2.56044   2.56657   2.56869   2.57238
 Alpha virt. eigenvalues --    2.57933   2.58087   2.58324   2.59083   2.59592
 Alpha virt. eigenvalues --    2.60127   2.60442   2.60747   2.61131   2.61441
 Alpha virt. eigenvalues --    2.61747   2.62625   2.62739   2.62960   2.63435
 Alpha virt. eigenvalues --    2.63620   2.64139   2.64371   2.64794   2.65252
 Alpha virt. eigenvalues --    2.65850   2.65932   2.65994   2.66473   2.67067
 Alpha virt. eigenvalues --    2.67640   2.68381   2.68517   2.69180   2.69370
 Alpha virt. eigenvalues --    2.69997   2.70473   2.71361   2.71801   2.71968
 Alpha virt. eigenvalues --    2.72588   2.73172   2.73795   2.74746   2.75485
 Alpha virt. eigenvalues --    2.75879   2.76075   2.76210   2.76656   2.76710
 Alpha virt. eigenvalues --    2.77420   2.77576   2.77867   2.78776   2.79487
 Alpha virt. eigenvalues --    2.79957   2.80095   2.80560   2.80916   2.80979
 Alpha virt. eigenvalues --    2.81230   2.81418   2.82328   2.82824   2.83324
 Alpha virt. eigenvalues --    2.83582   2.83847   2.83921   2.84226   2.84342
 Alpha virt. eigenvalues --    2.84817   2.85355   2.85806   2.85896   2.86254
 Alpha virt. eigenvalues --    2.86499   2.86963   2.87176   2.87535   2.87927
 Alpha virt. eigenvalues --    2.88036   2.88340   2.88633   2.88996   2.89470
 Alpha virt. eigenvalues --    2.90085   2.90188   2.90233   2.90479   2.90901
 Alpha virt. eigenvalues --    2.90991   2.91218   2.91928   2.92187   2.92668
 Alpha virt. eigenvalues --    2.92734   2.92778   2.93708   2.93820   2.94050
 Alpha virt. eigenvalues --    2.94278   2.95083   2.95206   2.95790   2.96166
 Alpha virt. eigenvalues --    2.96683   2.97255   2.97502   2.98312   2.98341
 Alpha virt. eigenvalues --    2.99051   2.99622   3.00540   3.00913   3.01079
 Alpha virt. eigenvalues --    3.01712   3.01858   3.02366   3.02913   3.03648
 Alpha virt. eigenvalues --    3.04164   3.04717   3.05411   3.05626   3.06363
 Alpha virt. eigenvalues --    3.06653   3.08021   3.08754   3.09421   3.09768
 Alpha virt. eigenvalues --    3.10189   3.11886   3.13263   3.15435   3.15546
 Alpha virt. eigenvalues --    3.18302   3.18584   3.27441   3.29110   3.30471
 Alpha virt. eigenvalues --    3.32112   3.32767   3.36085   3.40856   3.42611
 Alpha virt. eigenvalues --    3.45099   3.52136   3.52862   3.53683   3.57495
 Alpha virt. eigenvalues --    3.58139   3.60541
          Condensed to atoms (all electrons):
 Mulliken charges:
               1
     1  Mg   0.688458
     2  C    0.084683
     3  C   -0.053661
     4  C   -0.055380
     5  C   -0.086274
     6  N   -0.245670
     7  C   -0.093669
     8  C    0.023118
     9  C   -0.049342
    10  C    0.033028
    11  C    0.117026
    12  C    0.178171
    13  C    0.077217
    14  C    0.058047
    15  O   -0.138978
    16  O   -0.288632
    17  N   -0.298384
    18  C    0.133451
    19  C   -0.129205
    20  C    0.029159
    21  C    0.070370
    22  C    0.169264
    23  C   -0.075167
    24  O   -0.173280
    25  C    0.161051
    26  N   -0.229554
    27  C    0.047886
    28  C    0.021345
    29  C    0.068165
    30  C    0.004842
    31  C    0.130612
    32  C    0.062952
    33  C    0.074382
    34  N   -0.219681
    35  C    0.136664
    36  C   -0.196614
    37  C    0.114421
    38  C    0.036130
    39  C    0.188369
    40  C   -0.058366
    41  O   -0.118573
    42  C   -0.004727
    43  C    0.116804
    44  O   -0.165480
    45  O   -0.286759
    46  C    0.199494
    47  C    0.326252
    48  C   -0.118842
    49  C   -0.154596
    50  C    0.168173
    51  C    0.135419
    52  C    0.040022
    53  C    0.078378
    54  C   -0.041587
    55  C    0.120463
    56  C    0.078247
    57  C    0.095592
    58  C    0.086788
    59  C   -0.106873
    60  C    0.105082
    61  C    0.181814
    62  C    0.042570
    63  C    0.069120
    64  C   -0.103605
    65  C    0.104512
    66  C    0.091864
    67  H   -0.055313
    68  H   -0.038517
    69  H   -0.057418
    70  H   -0.014821
    71  H   -0.024432
    72  H   -0.003556
    73  H    0.010920
    74  H    0.001995
    75  H   -0.019882
    76  H   -0.015950
    77  H    0.027311
    78  H    0.006915
    79  H   -0.015114
    80  H    0.000045
    81  H   -0.022917
    82  H    0.018729
    83  H   -0.011921
    84  H    0.008053
    85  H   -0.034401
    86  H   -0.042555
    87  H    0.010385
    88  H   -0.000043
    89  H   -0.003162
    90  H   -0.026000
    91  H   -0.021982
    92  H   -0.004222
    93  H   -0.013657
    94  H    0.001826
    95  H    0.000930
    96  H    0.001216
    97  H   -0.004143
    98  H   -0.011896
    99  H    0.026960
   100  H    0.020305
   101  H    0.021646
   102  H    0.002495
   103  H   -0.003651
   104  H   -0.038794
   105  H    0.004603
   106  H    0.003578
   107  H   -0.027200
   108  H   -0.050647
   109  H   -0.019961
   110  H   -0.027237
   111  H   -0.030196
   112  H   -0.037360
   113  H   -0.035730
   114  H   -0.032312
   115  H   -0.025785
   116  H   -0.008802
   117  H   -0.020373
   118  H   -0.026372
   119  H   -0.036309
   120  H   -0.023724
   121  H   -0.060785
   122  H   -0.031559
   123  H   -0.043499
   124  H   -0.034940
   125  H   -0.011469
   126  H   -0.020824
   127  H   -0.021906
   128  H   -0.055879
   129  H   -0.026655
   130  H   -0.033344
   131  H   -0.033272
   132  H   -0.047000
   133  H   -0.036022
   134  H    0.012556
   135  H   -0.019554
   136  H   -0.006873
   137  H   -0.017717
   138  H   -0.016877
   139  H   -0.025244
   140  H   -0.007197
 Sum of Mulliken charges =  -0.00000
 Mulliken charges with hydrogens summed into heavy atoms:
               1
     1  Mg   0.688458
     2  C    0.084683
     3  C   -0.108974
     4  C   -0.093897
     5  C   -0.143692
     6  N   -0.245670
     7  C   -0.093669
     8  C    0.008297
     9  C   -0.073774
    10  C    0.033028
    11  C    0.126384
    12  C    0.142339
    13  C    0.111443
    14  C    0.058047
    15  O   -0.138978
    16  O   -0.288632
    17  N   -0.298384
    18  C    0.133451
    19  C   -0.129205
    20  C    0.029159
    21  C    0.070370
    22  C    0.131277
    23  C   -0.075167
    24  O   -0.173280
    25  C    0.175913
    26  N   -0.229554
    27  C    0.047886
    28  C   -0.013055
    29  C    0.025610
    30  C    0.004842
    31  C    0.137791
    32  C    0.014970
    33  C    0.058330
    34  N   -0.219681
    35  C    0.136664
    36  C   -0.196614
    37  C    0.114421
    38  C    0.036130
    39  C    0.186371
    40  C   -0.058366
    41  O   -0.118573
    42  C   -0.016623
    43  C    0.116804
    44  O   -0.165480
    45  O   -0.286759
    46  C    0.268405
    47  C    0.325096
    48  C   -0.157637
    49  C   -0.154596
    50  C    0.149153
    51  C    0.064811
    52  C   -0.017412
    53  C    0.005287
    54  C   -0.073899
    55  C    0.065504
    56  C    0.015566
    57  C    0.011083
    58  C    0.011730
    59  C   -0.141813
    60  C    0.050883
    61  C    0.099280
    62  C   -0.024047
    63  C   -0.013902
    64  C   -0.091049
    65  C    0.060368
    66  C    0.042546
 Electronic spatial extent (au):  <R**2>=         119991.0224
 Charge=             -0.0000 electrons
 Dipole moment (field-independent basis, Debye):
    X=              1.8612    Y=              2.8010    Z=             -1.0152  Tot=              3.5129
 Quadrupole moment (field-independent basis, Debye-Ang):
   XX=           -376.8135   YY=           -416.0654   ZZ=           -409.8585
   XY=              0.9975   XZ=             17.5558   YZ=              4.0471
 Traceless Quadrupole moment (field-independent basis, Debye-Ang):
   XX=             24.0989   YY=            -15.1529   ZZ=             -8.9460
   XY=              0.9975   XZ=             17.5558   YZ=              4.0471
 Octapole moment (field-independent basis, Debye-Ang**2):
  XXX=           -133.0722  YYY=            151.3984  ZZZ=              6.5503  XYY=             98.4887
  XXY=           -303.5509  XXZ=           -145.6613  XZZ=            -20.0749  YZZ=            -16.3475
  YYZ=             15.3245  XYZ=              9.3461
 Hexadecapole moment (field-independent basis, Debye-Ang**3):
 XXXX=        -139377.1441 YYYY=         -19929.2079 ZZZZ=          -5024.8972 XXXY=           2861.7989
 XXXZ=            919.8521 YYYX=           -542.7707 YYYZ=            -87.8180 ZZZX=             11.9105
 ZZZY=             14.2401 XXYY=         -27824.7004 XXZZ=         -24849.8794 YYZZ=          -4055.8253
 XXYZ=            161.3073 YYXZ=            145.6897 ZZXY=           -165.6332
 N-N= 9.641092615872D+03 E-N=-2.627806263564D+04  KE= 2.978181156797D+03
 Leave Link  601 at Sat Apr 30 05:39:53 2022, MaxMem= 10066329600 cpu:              10.0 elap:               0.5
 (Enter /sw/apps/gaussian-16.0/g16/l9999.exe)
 1\1\GINC-BP1-COMPUTE082\SP\RBLYP TD-FC\def2SVP\C55H74Mg1N4O6\OF15641\3
 0-Apr-2022\0\\#p blyp/Def2SVP td=(nstates=5)\\step_601_chromophore_13 
 TDDFT with blyp functional\\0,1\Mg,0,46.192,24.376,28.456\C,0,46.598,2
 6.635,31.177\C,0,45.279,21.844,30.781\C,0,46.33,22.249,26.016\C,0,47.6
 16,26.907,26.32\N,0,46.021,24.271,30.734\C,0,46.097,25.401,31.591\C,0,
 45.601,25.03,33.062\C,0,45.413,23.463,32.901\C,0,45.555,23.108,31.352\
 C,0,46.29,22.595,33.899\C,0,44.417,25.815,33.559\C,0,44.74,26.678,34.8
 14\C,0,43.767,26.7,35.964\O,0,42.636,26.347,35.928\O,0,44.373,27.354,3
 7.049\N,0,45.8,22.388,28.371\C,0,45.338,21.563,29.342\C,0,45.028,20.28
 6,28.756\C,0,45.502,20.289,27.429\C,0,45.909,21.672,27.205\C,0,44.304,
 19.176,29.525\C,0,45.397,19.177,26.346\O,0,45.863,19.243,25.201\C,0,44
 .805,17.886,26.765\N,0,46.749,24.599,26.442\C,0,46.723,23.495,25.651\C
 ,0,47.334,23.756,24.294\C,0,47.521,25.312,24.327\C,0,47.278,25.666,25.
 765\C,0,48.584,22.895,23.974\C,0,46.676,26.183,23.391\C,0,45.162,26.18
 5,23.483\N,0,46.905,26.42,28.624\C,0,47.364,27.286,27.657\C,0,47.723,2
 8.508,28.339\C,0,47.377,28.356,29.692\C,0,46.903,27.036,29.804\C,0,48.
 331,29.722,27.714\C,0,47.296,29.029,30.942\O,0,47.621,30.122,31.362\C,
 0,46.85,27.851,31.969\C,0,47.975,27.681,32.931\O,0,48.949,26.98,32.781
 \O,0,47.692,28.355,34.083\C,0,48.448,28.151,35.366\C,0,43.522,27.578,3
 8.187\C,0,43.566,26.449,39.194\C,0,43.201,26.492,40.487\C,0,42.61,27.5
 98,41.222\C,0,43.253,25.133,41.258\C,0,42.258,24.041,40.767\C,0,41.517
 ,23.155,41.76\C,0,40.006,23.4,41.938\C,0,39.276,22.995,40.588\C,0,39.7
 43,24.844,42.225\C,0,38.694,24.948,43.378\C,0,39.277,25.466,44.691\C,0
 ,39.213,24.471,45.819\C,0,37.793,24.55,46.463\C,0,40.275,24.91,46.776\
 C,0,41.467,23.956,46.746\C,0,42.792,24.792,46.771\C,0,43.405,24.909,45
 .382\C,0,44.349,23.673,45.183\C,0,44.251,26.276,45.291\H,0,44.857,21.1
 58,31.518\H,0,46.174,21.542,25.198\H,0,48.15,27.557,25.624\H,0,46.455,
 25.131,33.731\H,0,44.389,23.109,33.018\H,0,46.045,23.202,34.771\H,0,47
 .37,22.645,33.759\H,0,45.888,21.582,33.873\H,0,43.668,25.055,33.782\H,
 0,43.926,26.424,32.801\H,0,44.723,27.682,34.39\H,0,45.715,26.558,35.28
 5\H,0,44.907,18.272,29.61\H,0,43.374,18.831,29.074\H,0,44.111,19.35,30
 .584\H,0,45.357,17.526,27.634\H,0,44.871,17.145,25.969\H,0,43.754,18.1
 5,26.889\H,0,46.59,23.477,23.548\H,0,48.554,25.551,24.076\H,0,48.343,2
 1.832,23.94\H,0,49.356,23.038,24.73\H,0,48.779,23.262,22.966\H,0,46.82
 1,25.816,22.375\H,0,47.065,27.197,23.492\H,0,44.777,25.514,24.25\H,0,4
 4.798,25.741,22.556\H,0,44.833,27.213,23.633\H,0,48.86,29.618,26.766\H
 ,0,48.891,30.163,28.538\H,0,47.534,30.462,27.636\H,0,45.943,28.15,32.4
 94\H,0,49.322,27.512,35.237\H,0,47.793,27.741,36.135\H,0,48.74,29.134,
 35.738\H,0,42.475,27.742,37.934\H,0,43.876,28.426,38.772\H,0,43.987,25
 .546,38.752\H,0,43.226,27.826,42.092\H,0,41.608,27.28,41.511\H,0,42.56
 4,28.543,40.68\H,0,42.918,25.256,42.288\H,0,44.273,24.758,41.336\H,0,4
 2.614,23.371,39.984\H,0,41.532,24.717,40.315\H,0,41.884,23.382,42.761\
 H,0,41.78,22.131,41.496\H,0,39.764,22.797,42.813\H,0,38.95,23.908,40.0
 89\H,0,38.42,22.335,40.73\H,0,39.951,22.58,39.839\H,0,39.412,25.449,41
 .382\H,0,40.641,25.379,42.536\H,0,38.004,24.11,43.476\H,0,38.028,25.75
 4,43.069\H,0,38.788,26.371,45.05\H,0,40.333,25.609,44.462\H,0,39.294,2
 3.47,45.394\H,0,37.639,25.288,47.25\H,0,37.632,23.57,46.913\H,0,37.104
 ,24.703,45.632\H,0,39.838,24.798,47.769\H,0,40.566,25.96,46.729\H,0,41
 .456,23.403,45.806\H,0,41.572,23.177,47.5\H,0,43.425,24.237,47.463\H,0
 ,42.584,25.728,47.291\H,0,42.558,25.003,44.702\H,0,44.364,23.219,44.19
 2\H,0,44.161,22.806,45.817\H,0,45.347,24.098,45.289\H,0,43.974,26.913,
 46.132\H,0,43.937,26.839,44.412\H,0,45.323,26.115,45.176\\Version=ES64
 L-G16RevA.03\State=1-A\HF=-3007.3649357\RMSD=4.080e-09\PG=C01 [X(C55H7
 4Mg1N4O6)]\\@


 THERE'S A SUCKER BORN EVERY MINUTE

              -- PHINEAS TAYLOR (P.T.) BARNUM
 Job cpu time:       0 days  5 hours 20 minutes 55.0 seconds.
 Elapsed time:       0 days  0 hours 13 minutes 25.4 seconds.
 File lengths (MBytes):  RWF=   8017 Int=      0 D2E=      0 Chk=    390 Scr=      1
 Normal termination of Gaussian 16 at Sat Apr 30 05:39:54 2022.
