 Entering Gaussian System, Link 0=g16
 Initial command:
 /sw/apps/gaussian-16.0/g16/l1.exe "/tmp/Gau-293326.inp" -scrdir="/tmp/"
 Entering Link 1 = /sw/apps/gaussian-16.0/g16/l1.exe PID=    293328.
  
 Copyright (c) 1988,1990,1992,1993,1995,1998,2003,2009,2016,
            Gaussian, Inc.  All Rights Reserved.
  
 This is part of the Gaussian(R) 16 program.  It is based on
 the Gaussian(R) 09 system (copyright 2009, Gaussian, Inc.),
 the Gaussian(R) 03 system (copyright 2003, Gaussian, Inc.),
 the Gaussian(R) 98 system (copyright 1998, Gaussian, Inc.),
 the Gaussian(R) 94 system (copyright 1995, Gaussian, Inc.),
 the Gaussian 92(TM) system (copyright 1992, Gaussian, Inc.),
 the Gaussian 90(TM) system (copyright 1990, Gaussian, Inc.),
 the Gaussian 88(TM) system (copyright 1988, Gaussian, Inc.),
 the Gaussian 86(TM) system (copyright 1986, Carnegie Mellon
 University), and the Gaussian 82(TM) system (copyright 1983,
 Carnegie Mellon University). Gaussian is a federally registered
 trademark of Gaussian, Inc.
  
 This software contains proprietary and confidential information,
 including trade secrets, belonging to Gaussian, Inc.
  
 This software is provided under written license and may be
 used, copied, transmitted, or stored only in accord with that
 written license.
  
 The following legend is applicable only to US Government
 contracts under FAR:
  
                    RESTRICTED RIGHTS LEGEND
  
 Use, reproduction and disclosure by the US Government is
 subject to restrictions as set forth in subparagraphs (a)
 and (c) of the Commercial Computer Software - Restricted
 Rights clause in FAR 52.227-19.
  
 Gaussian, Inc.
 340 Quinnipiac St., Bldg. 40, Wallingford CT 06492
  
  
 ---------------------------------------------------------------
 Warning -- This program may not be used in any manner that
 competes with the business of Gaussian, Inc. or will provide
 assistance to any competitor of Gaussian, Inc.  The licensee
 of this program is prohibited from giving any competitor of
 Gaussian, Inc. access to this program.  By using this program,
 the user acknowledges that Gaussian, Inc. is engaged in the
 business of creating and licensing software in the field of
 computational chemistry and represents and warrants to the
 licensee that it is not a competitor of Gaussian, Inc. and that
 it will not use this program in any manner prohibited above.
 ---------------------------------------------------------------
  

 Cite this work as:
 Gaussian 16, Revision A.03,
 M. J. Frisch, G. W. Trucks, H. B. Schlegel, G. E. Scuseria, 
 M. A. Robb, J. R. Cheeseman, G. Scalmani, V. Barone, 
 G. A. Petersson, H. Nakatsuji, X. Li, M. Caricato, A. V. Marenich, 
 J. Bloino, B. G. Janesko, R. Gomperts, B. Mennucci, H. P. Hratchian, 
 J. V. Ortiz, A. F. Izmaylov, J. L. Sonnenberg, D. Williams-Young, 
 F. Ding, F. Lipparini, F. Egidi, J. Goings, B. Peng, A. Petrone, 
 T. Henderson, D. Ranasinghe, V. G. Zakrzewski, J. Gao, N. Rega, 
 G. Zheng, W. Liang, M. Hada, M. Ehara, K. Toyota, R. Fukuda, 
 J. Hasegawa, M. Ishida, T. Nakajima, Y. Honda, O. Kitao, H. Nakai, 
 T. Vreven, K. Throssell, J. A. Montgomery, Jr., J. E. Peralta, 
 F. Ogliaro, M. J. Bearpark, J. J. Heyd, E. N. Brothers, K. N. Kudin, 
 V. N. Staroverov, T. A. Keith, R. Kobayashi, J. Normand, 
 K. Raghavachari, A. P. Rendell, J. C. Burant, S. S. Iyengar, 
 J. Tomasi, M. Cossi, J. M. Millam, M. Klene, C. Adamo, R. Cammi, 
 J. W. Ochterski, R. L. Martin, K. Morokuma, O. Farkas, 
 J. B. Foresman, and D. J. Fox, Gaussian, Inc., Wallingford CT, 2016.
 
 ******************************************
 Gaussian 16:  ES64L-G16RevA.03 25-Dec-2016
                 5-May-2022 
 ******************************************
 %nproc=24
 Will use up to   24 processors via shared memory.
 %mem=50gb
 --------------------
 #p ZINDO=(nstates=5)
 --------------------
 1/38=1,172=1/1;
 2/12=2,17=6,18=5,40=1/2;
 3/5=2,25=1,41=400000/1,2,3,8;
 4/5=3,35=1/1;
 5/5=2,35=1,38=5/2;
 8/6=1,108=5/1;
 9/41=5,42=1,49=10/14;
 6/7=2,8=2,9=2,10=2/1;
 99/5=1,9=1/99;
 Leave Link    1 at Thu May  5 16:17:30 2022, MaxMem=  6710886400 cpu:               2.4 elap:               0.1
 (Enter /sw/apps/gaussian-16.0/g16/l101.exe)
 ----------------------------
 step_951_chromophore_6 ZINDO
 ----------------------------
 Symbolic Z-matrix:
 Charge =  0 Multiplicity = 1
 Mg                    17.206   -2.654     27.69 
 C                     16.308   -0.56      30.371 
 C                     19.108   -4.612     29.625 
 C                     18.258   -4.352     24.929 
 C                     15.505   -0.346     25.502 
 N                     17.835   -2.399     29.738 
 C                     17.23    -1.576     30.714 
 C                     17.732   -1.961     32.108 
 C                     18.518   -3.25      31.801 
 C                     18.569   -3.455     30.29 
 C                     19.958   -3.251     32.342 
 C                     16.586   -2.188     33.14 
 C                     16.725   -1.717     34.641 
 C                     18.033   -1.16      35.175 
 O                     18.546   -0.109     34.806 
 O                     18.568   -2.104     36.02 
 N                     18.401   -4.39      27.35 
 C                     19.06    -5.113     28.358 
 C                     19.756   -6.227     27.766 
 C                     19.482   -6.183     26.388 
 C                     18.642   -4.936     26.184 
 C                     20.635   -7.03      28.675 
 C                     19.994   -7.116     25.288 
 O                     19.592   -7.068     24.109 
 C                     20.917   -8.333     25.662 
 N                     16.925   -2.385     25.572 
 C                     17.568   -3.14      24.669 
 C                     17.467   -2.56      23.197 
 C                     16.356   -1.489     23.415 
 C                     16.16    -1.43      24.967 
 C                     18.843   -2.055     22.689 
 C                     15.003   -1.823     22.784 
 C                     14.43    -0.69      21.845 
 N                     16.063   -0.777     27.857 
 C                     15.358   -0.08      26.867 
 C                     14.737    1.058     27.547 
 C                     15.07     0.884     28.9 
 C                     15.876   -0.202     29.032 
 C                     13.85     2.027     26.873 
 C                     14.792    1.413     30.257 
 O                     13.981    2.313     30.683 
 C                     15.611    0.508     31.209 
 C                     16.54     1.377     31.954 
 O                     17.776    1.365     31.856 
 O                     15.88     2.091     32.901 
 C                     16.706    2.96      33.773 
 C                     19.868   -1.665     36.651 
 C                     20.435   -2.741     37.46 
 C                     19.917   -3.131     38.646 
 C                     18.452   -2.788     39.155 
 C                     20.641   -4.221     39.423 
 C                     20.317   -5.752     39.263 
 C                     21.384   -6.537     40.029 
 C                     21.429   -7.919     39.401 
 C                     20.324   -8.883     39.838 
 C                     22.787   -8.536     39.25 
 C                     23.446   -8.769     40.645 
 C                     24.901   -8.177     40.899 
 C                     25.784   -9.142     41.747 
 C                     27.08    -8.375     42.16 
 C                     26.07    -10.481    41.006 
 C                     25.997   -11.694    41.949 
 C                     24.782   -12.628    41.755 
 C                     24.284   -13.08     43.185 
 C                     22.889   -12.479    43.509 
 C                     24.336   -14.682    43.338 
 H                     19.532   -5.311     30.349 
 H                     18.77    -4.87      24.115 
 H                     14.955    0.291     24.806 
 H                     18.304   -1.069     32.364 
 H                     17.962   -4.072     32.251 
 H                     20.622   -3.001     31.515 
 H                     20.207   -4.26      32.669 
 H                     20.174   -2.582     33.174 
 H                     16.354   -3.245     33.271 
 H                     15.636   -1.918     32.678 
 H                     16.461   -2.51      35.34 
 H                     16.      -0.937     34.873 
 H                     21.117   -7.917     28.265 
 H                     20.185   -7.144     29.661 
 H                     21.437   -6.402     29.063 
 H                     21.833   -8.128     26.217 
 H                     21.13    -8.971     24.805 
 H                     20.374   -9.09      26.229 
 H                     17.148   -3.308     22.471 
 H                     16.774   -0.567     23.013 
 H                     18.814   -1.006     22.394 
 H                     19.221   -2.803     21.992 
 H                     19.516   -2.036     23.546 
 H                     14.287   -2.004     23.585 
 H                     15.03    -2.775     22.253 
 H                     13.874   -1.314     21.145 
 H                     15.106   -0.021     21.312 
 H                     13.786   -0.146     22.536 
 H                     14.408    2.287     25.973 
 H                     13.613    2.931     27.433 
 H                     12.887    1.639     26.542 
 H                     14.948    0.083     31.962 
 H                     16.765    3.898     33.221 
 H                     17.74     2.62      33.832 
 H                     16.324    3.144     34.777 
 H                     19.698   -0.829     37.33 
 H                     20.514   -1.253     35.876 
 H                     21.447   -3.093     37.259 
 H                     17.993   -3.763     39.324 
 H                     17.822   -2.281     38.424 
 H                     18.408   -2.244     40.099 
 H                     20.64    -3.834     40.442 
 H                     21.694   -4.077     39.184 
 H                     20.167   -5.92      38.197 
 H                     19.38    -5.911     39.797 
 H                     21.192   -6.643     41.097 
 H                     22.39    -6.143     39.882 
 H                     21.246   -7.758     38.339 
 H                     19.722   -8.562     40.688 
 H                     20.758   -9.852     40.085 
 H                     19.685   -9.088     38.979 
 H                     23.425   -7.918     38.619 
 H                     22.679   -9.503     38.758 
 H                     23.449   -9.854     40.748 
 H                     22.75    -8.434     41.414 
 H                     24.773   -7.242     41.444 
 H                     25.407   -7.935     39.964 
 H                     25.25    -9.408     42.659 
 H                     27.22    -7.557     41.454 
 H                     27.994   -8.969     42.182 
 H                     27.039   -7.809     43.091 
 H                     27.066   -10.659    40.601 
 H                     25.428   -10.508    40.126 
 H                     26.149   -11.359    42.975 
 H                     26.856   -12.35     41.807 
 H                     25.026   -13.554    41.235 
 H                     24.14    -11.955    41.187 
 H                     24.826   -12.661    44.032 
 H                     22.787   -12.12     44.533 
 H                     22.004   -13.109    43.414 
 H                     22.752   -11.584    42.902 
 H                     23.391   -14.939    43.816 
 H                     25.104   -14.989    44.048 
 H                     24.506   -15.255    42.426 
 
 ITRead=  0  0  0  0  0  0  0  0  0  0  0  0  0  0  0  0  0  0  0  0
 ITRead=  0  0  0  0  0  0  0  0  0  0  0  0  0  0  0  0  0  0  0  0
 ITRead=  0  0  0  0  0  0  0  0  0  0  0  0  0  0  0  0  0  0  0  0
 ITRead=  0  0  0  0  0  0  0  0  0  0  0  0  0  0  0  0  0  0  0  0
 ITRead=  0  0  0  0  0  0  0  0  0  0  0  0  0  0  0  0  0  0  0  0
 ITRead=  0  0  0  0  0  0  0  0  0  0  0  0  0  0  0  0  0  0  0  0
 ITRead=  0  0  0  0  0  0  0  0  0  0  0  0  0  0  0  0  0  0  0  0
 MicOpt= -1 -1 -1 -1 -1 -1 -1 -1 -1 -1 -1 -1 -1 -1 -1 -1 -1 -1 -1 -1
 MicOpt= -1 -1 -1 -1 -1 -1 -1 -1 -1 -1 -1 -1 -1 -1 -1 -1 -1 -1 -1 -1
 MicOpt= -1 -1 -1 -1 -1 -1 -1 -1 -1 -1 -1 -1 -1 -1 -1 -1 -1 -1 -1 -1
 MicOpt= -1 -1 -1 -1 -1 -1 -1 -1 -1 -1 -1 -1 -1 -1 -1 -1 -1 -1 -1 -1
 MicOpt= -1 -1 -1 -1 -1 -1 -1 -1 -1 -1 -1 -1 -1 -1 -1 -1 -1 -1 -1 -1
 MicOpt= -1 -1 -1 -1 -1 -1 -1 -1 -1 -1 -1 -1 -1 -1 -1 -1 -1 -1 -1 -1
 MicOpt= -1 -1 -1 -1 -1 -1 -1 -1 -1 -1 -1 -1 -1 -1 -1 -1 -1 -1 -1 -1
 NAtoms=    140 NQM=      140 NQMF=       0 NMMI=      0 NMMIF=      0
                NMic=       0 NMicF=      0.
                    Isotopes and Nuclear Properties:
 (Nuclear quadrupole moments (NQMom) in fm**2, nuclear magnetic moments (NMagM)
  in nuclear magnetons)

  Atom         1           2           3           4           5           6           7           8           9          10
 IAtWgt=          24          12          12          12          12          14          12          12          12          12
 AtmWgt=  23.9850450  12.0000000  12.0000000  12.0000000  12.0000000  14.0030740  12.0000000  12.0000000  12.0000000  12.0000000
 NucSpn=           0           0           0           0           0           2           0           0           0           0
 AtZEff=  -0.0000000  -0.0000000  -0.0000000  -0.0000000  -0.0000000  -0.0000000  -0.0000000  -0.0000000  -0.0000000  -0.0000000
 NQMom=    0.0000000   0.0000000   0.0000000   0.0000000   0.0000000   2.0440000   0.0000000   0.0000000   0.0000000   0.0000000
 NMagM=    0.0000000   0.0000000   0.0000000   0.0000000   0.0000000   0.4037610   0.0000000   0.0000000   0.0000000   0.0000000
 AtZNuc=  12.0000000   6.0000000   6.0000000   6.0000000   6.0000000   7.0000000   6.0000000   6.0000000   6.0000000   6.0000000

  Atom        11          12          13          14          15          16          17          18          19          20
 IAtWgt=          12          12          12          12          16          16          14          12          12          12
 AtmWgt=  12.0000000  12.0000000  12.0000000  12.0000000  15.9949146  15.9949146  14.0030740  12.0000000  12.0000000  12.0000000
 NucSpn=           0           0           0           0           0           0           2           0           0           0
 AtZEff=  -0.0000000  -0.0000000  -0.0000000  -0.0000000  -0.0000000  -0.0000000  -0.0000000  -0.0000000  -0.0000000  -0.0000000
 NQMom=    0.0000000   0.0000000   0.0000000   0.0000000   0.0000000   0.0000000   2.0440000   0.0000000   0.0000000   0.0000000
 NMagM=    0.0000000   0.0000000   0.0000000   0.0000000   0.0000000   0.0000000   0.4037610   0.0000000   0.0000000   0.0000000
 AtZNuc=   6.0000000   6.0000000   6.0000000   6.0000000   8.0000000   8.0000000   7.0000000   6.0000000   6.0000000   6.0000000

  Atom        21          22          23          24          25          26          27          28          29          30
 IAtWgt=          12          12          12          16          12          14          12          12          12          12
 AtmWgt=  12.0000000  12.0000000  12.0000000  15.9949146  12.0000000  14.0030740  12.0000000  12.0000000  12.0000000  12.0000000
 NucSpn=           0           0           0           0           0           2           0           0           0           0
 AtZEff=  -0.0000000  -0.0000000  -0.0000000  -0.0000000  -0.0000000  -0.0000000  -0.0000000  -0.0000000  -0.0000000  -0.0000000
 NQMom=    0.0000000   0.0000000   0.0000000   0.0000000   0.0000000   2.0440000   0.0000000   0.0000000   0.0000000   0.0000000
 NMagM=    0.0000000   0.0000000   0.0000000   0.0000000   0.0000000   0.4037610   0.0000000   0.0000000   0.0000000   0.0000000
 AtZNuc=   6.0000000   6.0000000   6.0000000   8.0000000   6.0000000   7.0000000   6.0000000   6.0000000   6.0000000   6.0000000

  Atom        31          32          33          34          35          36          37          38          39          40
 IAtWgt=          12          12          12          14          12          12          12          12          12          12
 AtmWgt=  12.0000000  12.0000000  12.0000000  14.0030740  12.0000000  12.0000000  12.0000000  12.0000000  12.0000000  12.0000000
 NucSpn=           0           0           0           2           0           0           0           0           0           0
 AtZEff=  -0.0000000  -0.0000000  -0.0000000  -0.0000000  -0.0000000  -0.0000000  -0.0000000  -0.0000000  -0.0000000  -0.0000000
 NQMom=    0.0000000   0.0000000   0.0000000   2.0440000   0.0000000   0.0000000   0.0000000   0.0000000   0.0000000   0.0000000
 NMagM=    0.0000000   0.0000000   0.0000000   0.4037610   0.0000000   0.0000000   0.0000000   0.0000000   0.0000000   0.0000000
 AtZNuc=   6.0000000   6.0000000   6.0000000   7.0000000   6.0000000   6.0000000   6.0000000   6.0000000   6.0000000   6.0000000

  Atom        41          42          43          44          45          46          47          48          49          50
 IAtWgt=          16          12          12          16          16          12          12          12          12          12
 AtmWgt=  15.9949146  12.0000000  12.0000000  15.9949146  15.9949146  12.0000000  12.0000000  12.0000000  12.0000000  12.0000000
 NucSpn=           0           0           0           0           0           0           0           0           0           0
 AtZEff=  -0.0000000  -0.0000000  -0.0000000  -0.0000000  -0.0000000  -0.0000000  -0.0000000  -0.0000000  -0.0000000  -0.0000000
 NQMom=    0.0000000   0.0000000   0.0000000   0.0000000   0.0000000   0.0000000   0.0000000   0.0000000   0.0000000   0.0000000
 NMagM=    0.0000000   0.0000000   0.0000000   0.0000000   0.0000000   0.0000000   0.0000000   0.0000000   0.0000000   0.0000000
 AtZNuc=   8.0000000   6.0000000   6.0000000   8.0000000   8.0000000   6.0000000   6.0000000   6.0000000   6.0000000   6.0000000

  Atom        51          52          53          54          55          56          57          58          59          60
 IAtWgt=          12          12          12          12          12          12          12          12          12          12
 AtmWgt=  12.0000000  12.0000000  12.0000000  12.0000000  12.0000000  12.0000000  12.0000000  12.0000000  12.0000000  12.0000000
 NucSpn=           0           0           0           0           0           0           0           0           0           0
 AtZEff=  -0.0000000  -0.0000000  -0.0000000  -0.0000000  -0.0000000  -0.0000000  -0.0000000  -0.0000000  -0.0000000  -0.0000000
 NQMom=    0.0000000   0.0000000   0.0000000   0.0000000   0.0000000   0.0000000   0.0000000   0.0000000   0.0000000   0.0000000
 NMagM=    0.0000000   0.0000000   0.0000000   0.0000000   0.0000000   0.0000000   0.0000000   0.0000000   0.0000000   0.0000000
 AtZNuc=   6.0000000   6.0000000   6.0000000   6.0000000   6.0000000   6.0000000   6.0000000   6.0000000   6.0000000   6.0000000

  Atom        61          62          63          64          65          66          67          68          69          70
 IAtWgt=          12          12          12          12          12          12           1           1           1           1
 AtmWgt=  12.0000000  12.0000000  12.0000000  12.0000000  12.0000000  12.0000000   1.0078250   1.0078250   1.0078250   1.0078250
 NucSpn=           0           0           0           0           0           0           1           1           1           1
 AtZEff=  -0.0000000  -0.0000000  -0.0000000  -0.0000000  -0.0000000  -0.0000000  -0.0000000  -0.0000000  -0.0000000  -0.0000000
 NQMom=    0.0000000   0.0000000   0.0000000   0.0000000   0.0000000   0.0000000   0.0000000   0.0000000   0.0000000   0.0000000
 NMagM=    0.0000000   0.0000000   0.0000000   0.0000000   0.0000000   0.0000000   2.7928460   2.7928460   2.7928460   2.7928460
 AtZNuc=   6.0000000   6.0000000   6.0000000   6.0000000   6.0000000   6.0000000   1.0000000   1.0000000   1.0000000   1.0000000

  Atom        71          72          73          74          75          76          77          78          79          80
 IAtWgt=           1           1           1           1           1           1           1           1           1           1
 AtmWgt=   1.0078250   1.0078250   1.0078250   1.0078250   1.0078250   1.0078250   1.0078250   1.0078250   1.0078250   1.0078250
 NucSpn=           1           1           1           1           1           1           1           1           1           1
 AtZEff=  -0.0000000  -0.0000000  -0.0000000  -0.0000000  -0.0000000  -0.0000000  -0.0000000  -0.0000000  -0.0000000  -0.0000000
 NQMom=    0.0000000   0.0000000   0.0000000   0.0000000   0.0000000   0.0000000   0.0000000   0.0000000   0.0000000   0.0000000
 NMagM=    2.7928460   2.7928460   2.7928460   2.7928460   2.7928460   2.7928460   2.7928460   2.7928460   2.7928460   2.7928460
 AtZNuc=   1.0000000   1.0000000   1.0000000   1.0000000   1.0000000   1.0000000   1.0000000   1.0000000   1.0000000   1.0000000

  Atom        81          82          83          84          85          86          87          88          89          90
 IAtWgt=           1           1           1           1           1           1           1           1           1           1
 AtmWgt=   1.0078250   1.0078250   1.0078250   1.0078250   1.0078250   1.0078250   1.0078250   1.0078250   1.0078250   1.0078250
 NucSpn=           1           1           1           1           1           1           1           1           1           1
 AtZEff=  -0.0000000  -0.0000000  -0.0000000  -0.0000000  -0.0000000  -0.0000000  -0.0000000  -0.0000000  -0.0000000  -0.0000000
 NQMom=    0.0000000   0.0000000   0.0000000   0.0000000   0.0000000   0.0000000   0.0000000   0.0000000   0.0000000   0.0000000
 NMagM=    2.7928460   2.7928460   2.7928460   2.7928460   2.7928460   2.7928460   2.7928460   2.7928460   2.7928460   2.7928460
 AtZNuc=   1.0000000   1.0000000   1.0000000   1.0000000   1.0000000   1.0000000   1.0000000   1.0000000   1.0000000   1.0000000

  Atom        91          92          93          94          95          96          97          98          99         100
 IAtWgt=           1           1           1           1           1           1           1           1           1           1
 AtmWgt=   1.0078250   1.0078250   1.0078250   1.0078250   1.0078250   1.0078250   1.0078250   1.0078250   1.0078250   1.0078250
 NucSpn=           1           1           1           1           1           1           1           1           1           1
 AtZEff=  -0.0000000  -0.0000000  -0.0000000  -0.0000000  -0.0000000  -0.0000000  -0.0000000  -0.0000000  -0.0000000  -0.0000000
 NQMom=    0.0000000   0.0000000   0.0000000   0.0000000   0.0000000   0.0000000   0.0000000   0.0000000   0.0000000   0.0000000
 NMagM=    2.7928460   2.7928460   2.7928460   2.7928460   2.7928460   2.7928460   2.7928460   2.7928460   2.7928460   2.7928460
 AtZNuc=   1.0000000   1.0000000   1.0000000   1.0000000   1.0000000   1.0000000   1.0000000   1.0000000   1.0000000   1.0000000

  Atom       101         102         103         104         105         106         107         108         109         110
 IAtWgt=           1           1           1           1           1           1           1           1           1           1
 AtmWgt=   1.0078250   1.0078250   1.0078250   1.0078250   1.0078250   1.0078250   1.0078250   1.0078250   1.0078250   1.0078250
 NucSpn=           1           1           1           1           1           1           1           1           1           1
 AtZEff=  -0.0000000  -0.0000000  -0.0000000  -0.0000000  -0.0000000  -0.0000000  -0.0000000  -0.0000000  -0.0000000  -0.0000000
 NQMom=    0.0000000   0.0000000   0.0000000   0.0000000   0.0000000   0.0000000   0.0000000   0.0000000   0.0000000   0.0000000
 NMagM=    2.7928460   2.7928460   2.7928460   2.7928460   2.7928460   2.7928460   2.7928460   2.7928460   2.7928460   2.7928460
 AtZNuc=   1.0000000   1.0000000   1.0000000   1.0000000   1.0000000   1.0000000   1.0000000   1.0000000   1.0000000   1.0000000

  Atom       111         112         113         114         115         116         117         118         119         120
 IAtWgt=           1           1           1           1           1           1           1           1           1           1
 AtmWgt=   1.0078250   1.0078250   1.0078250   1.0078250   1.0078250   1.0078250   1.0078250   1.0078250   1.0078250   1.0078250
 NucSpn=           1           1           1           1           1           1           1           1           1           1
 AtZEff=  -0.0000000  -0.0000000  -0.0000000  -0.0000000  -0.0000000  -0.0000000  -0.0000000  -0.0000000  -0.0000000  -0.0000000
 NQMom=    0.0000000   0.0000000   0.0000000   0.0000000   0.0000000   0.0000000   0.0000000   0.0000000   0.0000000   0.0000000
 NMagM=    2.7928460   2.7928460   2.7928460   2.7928460   2.7928460   2.7928460   2.7928460   2.7928460   2.7928460   2.7928460
 AtZNuc=   1.0000000   1.0000000   1.0000000   1.0000000   1.0000000   1.0000000   1.0000000   1.0000000   1.0000000   1.0000000

  Atom       121         122         123         124         125         126         127         128         129         130
 IAtWgt=           1           1           1           1           1           1           1           1           1           1
 AtmWgt=   1.0078250   1.0078250   1.0078250   1.0078250   1.0078250   1.0078250   1.0078250   1.0078250   1.0078250   1.0078250
 NucSpn=           1           1           1           1           1           1           1           1           1           1
 AtZEff=  -0.0000000  -0.0000000  -0.0000000  -0.0000000  -0.0000000  -0.0000000  -0.0000000  -0.0000000  -0.0000000  -0.0000000
 NQMom=    0.0000000   0.0000000   0.0000000   0.0000000   0.0000000   0.0000000   0.0000000   0.0000000   0.0000000   0.0000000
 NMagM=    2.7928460   2.7928460   2.7928460   2.7928460   2.7928460   2.7928460   2.7928460   2.7928460   2.7928460   2.7928460
 AtZNuc=   1.0000000   1.0000000   1.0000000   1.0000000   1.0000000   1.0000000   1.0000000   1.0000000   1.0000000   1.0000000

  Atom       131         132         133         134         135         136         137         138         139         140
 IAtWgt=           1           1           1           1           1           1           1           1           1           1
 AtmWgt=   1.0078250   1.0078250   1.0078250   1.0078250   1.0078250   1.0078250   1.0078250   1.0078250   1.0078250   1.0078250
 NucSpn=           1           1           1           1           1           1           1           1           1           1
 AtZEff=  -0.0000000  -0.0000000  -0.0000000  -0.0000000  -0.0000000  -0.0000000  -0.0000000  -0.0000000  -0.0000000  -0.0000000
 NQMom=    0.0000000   0.0000000   0.0000000   0.0000000   0.0000000   0.0000000   0.0000000   0.0000000   0.0000000   0.0000000
 NMagM=    2.7928460   2.7928460   2.7928460   2.7928460   2.7928460   2.7928460   2.7928460   2.7928460   2.7928460   2.7928460
 AtZNuc=   1.0000000   1.0000000   1.0000000   1.0000000   1.0000000   1.0000000   1.0000000   1.0000000   1.0000000   1.0000000
 Leave Link  101 at Thu May  5 16:17:31 2022, MaxMem=  6710886400 cpu:               4.1 elap:               0.2
 (Enter /sw/apps/gaussian-16.0/g16/l202.exe)
 Stoichiometry    C55H74MgN4O6
 Framework group  C1[X(C55H74MgN4O6)]
 Deg. of freedom   414
 Full point group                 C1      NOp   1
 Largest Abelian subgroup         C1      NOp   1
 Largest concise Abelian subgroup C1      NOp   1
                         Standard orientation:                         
 ---------------------------------------------------------------------
 Center     Atomic      Atomic             Coordinates (Angstroms)
 Number     Number       Type             X           Y           Z
 ---------------------------------------------------------------------
      1         12           0       -5.212517    1.093160   -0.286878
      2          6           0       -4.319061   -2.308928   -0.367719
      3          6           0       -2.044349    2.098381    0.097611
      4          6           0       -6.286434    4.299710    0.134744
      5          6           0       -8.662502    0.041872   -0.290095
      6          7           0       -3.425641   -0.051660    0.102262
      7          6           0       -3.234891   -1.431324   -0.134532
      8          6           0       -1.742688   -1.769650   -0.086243
      9          6           0       -1.115960   -0.363887   -0.018345
     10          6           0       -2.227488    0.671139    0.126480
     11          6           0       -0.120646   -0.175628    1.139321
     12          6           0       -1.251057   -2.587281   -1.318982
     13          6           0       -0.191874   -3.748804   -1.166798
     14          6           0        0.499589   -4.017100    0.158406
     15          8           0       -0.065716   -4.410370    1.173147
     16          8           0        1.808094   -3.614032    0.029038
     17          7           0       -4.256236    2.991468   -0.088702
     18          6           0       -2.865775    3.179685   -0.023369
     19          6           0       -2.581875    4.587369    0.093678
     20          6           0       -3.821887    5.248862    0.067390
     21          6           0       -4.864196    4.148207    0.001241
     22          6           0       -1.150908    4.967716    0.320400
     23          6           0       -4.100207    6.749205    0.186314
     24          8           0       -5.230587    7.249611    0.025740
     25          6           0       -2.901569    7.758892    0.315511
     26          7           0       -7.153365    2.008509   -0.106617
     27          6           0       -7.300480    3.308934    0.186870
     28          6           0       -8.786919    3.685346    0.589609
     29          6           0       -9.514876    2.380441    0.146678
     30          6           0       -8.361655    1.380460   -0.200769
     31          6           0       -8.888846    4.075685    2.087512
     32          6           0      -10.400957    2.522881   -1.092232
     33          6           0      -11.883889    2.019942   -0.888016
     34          7           0       -6.351030   -0.793023   -0.346637
     35          6           0       -7.733222   -0.988091   -0.466748
     36          6           0       -7.927552   -2.438103   -0.519527
     37          6           0       -6.627355   -2.968232   -0.504527
     38          6           0       -5.727732   -1.957837   -0.377103
     39          6           0       -9.245064   -3.079190   -0.701665
     40          6           0       -5.871712   -4.234440   -0.660391
     41          8           0       -6.239610   -5.427655   -0.960534
     42          6           0       -4.384021   -3.823568   -0.541852
     43          6           0       -3.806758   -4.575546    0.587096
     44          8           0       -3.402330   -4.083754    1.651061
     45          8           0       -3.612480   -5.876536    0.252603
     46          6           0       -2.972368   -6.736778    1.276352
     47          6           0        2.627165   -3.852860    1.275218
     48          6           0        3.977394   -3.319967    1.111960
     49          6           0        4.908814   -3.887694    0.313735
     50          6           0        4.601581   -4.939994   -0.835712
     51          6           0        6.300126   -3.271862    0.282015
     52          6           0        6.723302   -2.153535   -0.740142
     53          6           0        8.103405   -1.639803   -0.324375
     54          6           0        8.224911   -0.236977   -0.893276
     55          6           0        8.577562   -0.151742   -2.379770
     56          6           0        8.901606    0.777218   -0.020840
     57          6           0       10.388071    0.379487    0.237668
     58          6           0       10.894474    0.296201    1.743864
     59          6           0       12.349393    0.833328    1.901106
     60          6           0       12.845356    0.473976    3.337546
     61          6           0       12.453741    2.352073    1.575036
     62          6           0       13.725312    2.689166    0.777901
     63          6           0       13.511772    3.075319   -0.702471
     64          6           0       14.675727    2.420932   -1.547571
     65          6           0       14.131714    1.306828   -2.482998
     66          6           0       15.529012    3.542713   -2.326049
     67          1           0       -0.985159    2.350181    0.012365
     68          1           0       -6.517223    5.327699    0.422912
     69          1           0       -9.720357   -0.223353   -0.347404
     70          1           0       -1.709268   -2.382075    0.814980
     71          1           0       -0.603196   -0.202140   -0.966096
     72          1           0       -0.643215    0.341123    1.943818
     73          1           0        0.687010    0.473554    0.802773
     74          1           0        0.339592   -1.074854    1.546770
     75          1           0       -0.766826   -1.956284   -2.064366
     76          1           0       -2.111954   -2.851631   -1.933653
     77          1           0        0.622444   -3.650339   -1.883971
     78          1           0       -0.630249   -4.712027   -1.427332
     79          1           0       -0.903160    6.028506    0.343607
     80          1           0       -0.477146    4.332695   -0.254478
     81          1           0       -0.804805    4.555481    1.268243
     82          1           0       -2.188962    7.605007    1.126447
     83          1           0       -3.229717    8.797501    0.293746
     84          1           0       -2.317932    7.809813   -0.604360
     85          1           0       -9.166309    4.547082    0.040231
     86          1           0      -10.086512    2.069198    1.020045
     87          1           0       -9.603188    3.454399    2.627869
     88          1           0       -8.975019    5.161481    2.130140
     89          1           0       -7.943673    3.803348    2.556787
     90          1           0       -9.950098    1.951744   -1.903124
     91          1           0      -10.398386    3.544174   -1.474265
     92          1           0      -12.388889    2.692744   -1.581432
     93          1           0      -12.349583    2.060927    0.096908
     94          1           0      -11.815182    0.997450   -1.259423
     95          1           0       -9.872127   -2.564688    0.027064
     96          1           0       -9.284203   -4.153895   -0.527129
     97          1           0       -9.713660   -2.933663   -1.674657
     98          1           0       -3.843419   -4.167465   -1.423150
     99          1           0       -3.811350   -7.098011    1.871036
    100          1           0       -2.373895   -6.160672    1.982163
    101          1           0       -2.389693   -7.580247    0.906424
    102          1           0        2.740314   -4.921980    1.456925
    103          1           0        2.067947   -3.492572    2.138440
    104          1           0        4.362387   -2.593698    1.828035
    105          1           0        4.992377   -4.470112   -1.739236
    106          1           0        3.542025   -5.116125   -1.021801
    107          1           0        5.107127   -5.900144   -0.728271
    108          1           0        6.952496   -4.143336    0.337473
    109          1           0        6.450608   -2.878559    1.286671
    110          1           0        5.877497   -1.470164   -0.808684
    111          1           0        6.862944   -2.664499   -1.692939
    112          1           0        8.939799   -2.238631   -0.685726
    113          1           0        8.199396   -1.501319    0.752885
    114          1           0        7.223877    0.188032   -0.825806
    115          1           0        8.889871   -1.084905   -2.848401
    116          1           0        9.374405    0.577364   -2.527320
    117          1           0        7.726298    0.271808   -2.912856
    118          1           0        8.364531    0.899111    0.919278
    119          1           0        8.890113    1.740728   -0.531069
    120          1           0       10.953009    1.128478   -0.317040
    121          1           0       10.592289   -0.550176   -0.293391
    122          1           0       10.871663   -0.755336    2.029141
    123          1           0       10.226950    0.826170    2.423841
    124          1           0       12.998106    0.324706    1.188273
    125          1           0       11.966313    0.318111    3.962166
    126          1           0       13.479940    1.218729    3.818548
    127          1           0       13.331806   -0.494058    3.460324
    128          1           0       12.590500    3.060192    2.392098
    129          1           0       11.505507    2.654230    1.131362
    130          1           0       14.465587    1.905185    0.937185
    131          1           0       14.233427    3.554918    1.202958
    132          1           0       13.595712    4.145905   -0.887438
    133          1           0       12.505890    2.678283   -0.837681
    134          1           0       15.384977    1.811607   -0.988626
    135          1           0       14.761437    0.418441   -2.528590
    136          1           0       13.991341    1.524167   -3.542342
    137          1           0       13.191433    0.941383   -2.070003
    138          1           0       15.663665    3.133926   -3.327208
    139          1           0       16.536428    3.629773   -1.918978
    140          1           0       15.110956    4.549618   -2.344604
 ---------------------------------------------------------------------
 Rotational constants (GHZ):           0.0421788           0.0097791           0.0082107
 Leave Link  202 at Thu May  5 16:17:31 2022, MaxMem=  6710886400 cpu:               1.9 elap:               0.1
 (Enter /sw/apps/gaussian-16.0/g16/l301.exe)
 Standard basis: VSTO-6G (5D, 7F)
 Ernie: Thresh=  0.10000D-02 Tol=  0.10000D-05 Strict=F.
 There are   338 symmetry adapted cartesian basis functions of A   symmetry.
 There are   338 symmetry adapted basis functions of A   symmetry.
   338 basis functions,  2028 primitive gaussians,   338 cartesian basis functions
   176 alpha electrons      176 beta electrons
       nuclear repulsion energy      4763.7976934679 Hartrees.
 IExCor=    0 DFT=F Ex=HF Corr=None ExCW=0 ScaHFX=  1.000000
 ScaDFX=  1.000000  1.000000  1.000000  1.000000 ScalE2=  1.000000  1.000000
 IRadAn=      5 IRanWt=     -1 IRanGd=            0 ICorTp=0 IEmpDi=  4
 Integral buffers will be    131072 words long.
 Regular integral format.
 Two-electron integral symmetry is turned off.
 Leave Link  301 at Thu May  5 16:17:31 2022, MaxMem=  6710886400 cpu:               2.0 elap:               0.1
 (Enter /sw/apps/gaussian-16.0/g16/l302.exe)
 Do NDO integrals.
 NPDir=0 NMtPBC=     1 NCelOv=     1 NCel=       1 NClECP=     1 NCelD=      1
         NCelK=      1 NCelE2=     1 NClLst=     1 CellRange=     0.0.
 One-electron integrals computed using PRISM.
 Generate ZINDO/S integrals.
 NDO Nuclear repulsion=  4282.763865945917 Hartrees.
 NBasis=   338 RedAO= F EigKep=  0.00D+00  NBF=   338
 NBsUse=   338 1.00D-04 EigRej=  0.00D+00 NBFU=   338
 Leave Link  302 at Thu May  5 16:17:31 2022, MaxMem=  6710886400 cpu:              10.2 elap:               0.4
 (Enter /sw/apps/gaussian-16.0/g16/l303.exe)
 DipDrv:  MaxL=1.
 DipDrv:  will hold  3 matrices at once.
 Leave Link  303 at Thu May  5 16:17:31 2022, MaxMem=  6710886400 cpu:               1.4 elap:               0.1
 (Enter /sw/apps/gaussian-16.0/g16/l308.exe)
 Leave Link  308 at Thu May  5 16:17:32 2022, MaxMem=  6710886400 cpu:               8.0 elap:               0.4
 (Enter /sw/apps/gaussian-16.0/g16/l401.exe)
 Simple Huckel Guess.
 JPrj=0 DoOrth=F DoCkMO=F.
 Leave Link  401 at Thu May  5 16:17:32 2022, MaxMem=  6710886400 cpu:               2.9 elap:               0.1
 (Enter /sw/apps/gaussian-16.0/g16/l502.exe)
 Two-electron integral symmetry not used.
 Closed shell SCF:
 Using DIIS extrapolation, IDIIS=  1040.
 Overlap will be assumed to be unity.
 NGot=  6710886400 LenX=  6710643598 LenY=  6710528913
 Requested convergence on RMS density matrix=1.00D-08 within 128 cycles.
 Requested convergence on MAX density matrix=1.00D-06.
 Requested convergence on             energy=1.00D-06.
 No special actions if energy rises.
 Fock matrices will be formed incrementally for  20 cycles.

 Cycle   1  Pass 1  IDiag  1:
 E= -472.030209286324    
 DIIS: error= 5.55D-02 at cycle   1 NSaved=   1.
 NSaved= 1 IEnMin= 1 EnMin= -472.030209286324     IErMin= 1 ErrMin= 5.55D-02
 ErrMax= 5.55D-02  0.00D+00 EMaxC= 1.00D-01 BMatC= 8.35D-01 BMatP= 8.35D-01
 IDIUse=3 WtCom= 4.45D-01 WtEn= 5.55D-01
 Coeff-Com:  0.100D+01
 Coeff-En:   0.100D+01
 Coeff:      0.100D+01
 GapD=    2.000 DampG=2.000 DampE=0.500 DampFc=1.0000 IDamp=-1.
 RMSDP=4.06D-03 MaxDP=1.69D-01              OVMax= 0.00D+00

 Cycle   2  Pass 1  IDiag  1:
 RMSU=  4.06D-03    CP:  9.95D-01
 E= -473.872265055451     Delta-E=       -1.842055769127 Rises=F Damp=F
 DIIS: error= 2.05D-02 at cycle   2 NSaved=   2.
 NSaved= 2 IEnMin= 2 EnMin= -473.872265055451     IErMin= 2 ErrMin= 2.05D-02
 ErrMax= 2.05D-02  0.00D+00 EMaxC= 1.00D-01 BMatC= 5.48D-02 BMatP= 8.35D-01
 IDIUse=3 WtCom= 7.95D-01 WtEn= 2.05D-01
 Coeff-Com: -0.596D-01 0.106D+01
 Coeff-En:   0.000D+00 0.100D+01
 Coeff:     -0.474D-01 0.105D+01
 RMSDP=1.18D-03 MaxDP=6.74D-02 DE=-1.84D+00 OVMax= 0.00D+00

 Cycle   3  Pass 1  IDiag  1:
 RMSU=  1.13D-03    CP:  9.93D-01  1.08D+00
 E= -473.977101939876     Delta-E=       -0.104836884425 Rises=F Damp=F
 DIIS: error= 9.44D-03 at cycle   3 NSaved=   3.
 NSaved= 3 IEnMin= 3 EnMin= -473.977101939876     IErMin= 3 ErrMin= 9.44D-03
 ErrMax= 9.44D-03  0.00D+00 EMaxC= 1.00D-01 BMatC= 8.50D-03 BMatP= 5.48D-02
 IDIUse=3 WtCom= 9.06D-01 WtEn= 9.44D-02
 Coeff-Com: -0.700D-01 0.252D+00 0.818D+00
 Coeff-En:   0.000D+00 0.000D+00 0.100D+01
 Coeff:     -0.634D-01 0.228D+00 0.835D+00
 RMSDP=4.14D-04 MaxDP=1.70D-02 DE=-1.05D-01 OVMax= 0.00D+00

 Cycle   4  Pass 1  IDiag  1:
 RMSU=  2.66D-04    CP:  9.93D-01  1.15D+00  9.00D-01
 E= -473.991985204284     Delta-E=       -0.014883264408 Rises=F Damp=F
 DIIS: error= 1.66D-03 at cycle   4 NSaved=   4.
 NSaved= 4 IEnMin= 4 EnMin= -473.991985204284     IErMin= 4 ErrMin= 1.66D-03
 ErrMax= 1.66D-03  0.00D+00 EMaxC= 1.00D-01 BMatC= 3.62D-04 BMatP= 8.50D-03
 IDIUse=3 WtCom= 9.83D-01 WtEn= 1.66D-02
 Coeff-Com: -0.308D-02-0.243D-01 0.565D-01 0.971D+00
 Coeff-En:   0.000D+00 0.000D+00 0.000D+00 0.100D+01
 Coeff:     -0.303D-02-0.239D-01 0.555D-01 0.971D+00
 RMSDP=1.73D-04 MaxDP=1.08D-02 DE=-1.49D-02 OVMax= 0.00D+00

 Cycle   5  Pass 1  IDiag  1:
 RMSU=  1.21D-04    CP:  9.92D-01  1.15D+00  1.01D+00  9.64D-01
 E= -473.993234636072     Delta-E=       -0.001249431788 Rises=F Damp=F
 DIIS: error= 7.88D-04 at cycle   5 NSaved=   5.
 NSaved= 5 IEnMin= 5 EnMin= -473.993234636072     IErMin= 5 ErrMin= 7.88D-04
 ErrMax= 7.88D-04  0.00D+00 EMaxC= 1.00D-01 BMatC= 1.03D-04 BMatP= 3.62D-04
 IDIUse=3 WtCom= 9.92D-01 WtEn= 7.88D-03
 Coeff-Com:  0.705D-02-0.312D-01-0.103D+00 0.266D+00 0.862D+00
 Coeff-En:   0.000D+00 0.000D+00 0.000D+00 0.000D+00 0.100D+01
 Coeff:      0.699D-02-0.310D-01-0.103D+00 0.264D+00 0.863D+00
 RMSDP=6.88D-05 MaxDP=3.28D-03 DE=-1.25D-03 OVMax= 0.00D+00

 Cycle   6  Pass 1  IDiag  1:
 RMSU=  4.00D-05    CP:  9.92D-01  1.15D+00  1.03D+00  1.15D+00  1.13D+00
 E= -473.993565760970     Delta-E=       -0.000331124898 Rises=F Damp=F
 DIIS: error= 3.16D-04 at cycle   6 NSaved=   6.
 NSaved= 6 IEnMin= 6 EnMin= -473.993565760970     IErMin= 6 ErrMin= 3.16D-04
 ErrMax= 3.16D-04  0.00D+00 EMaxC= 1.00D-01 BMatC= 1.14D-05 BMatP= 1.03D-04
 IDIUse=3 WtCom= 9.97D-01 WtEn= 3.16D-03
 Coeff-Com:  0.306D-04 0.544D-02-0.178D-01-0.831D-01-0.764D-01 0.117D+01
 Coeff-En:   0.000D+00 0.000D+00 0.000D+00 0.000D+00 0.000D+00 0.100D+01
 Coeff:      0.305D-04 0.542D-02-0.177D-01-0.828D-01-0.762D-01 0.117D+01
 RMSDP=6.12D-05 MaxDP=3.70D-03 DE=-3.31D-04 OVMax= 0.00D+00

 Cycle   7  Pass 1  IDiag  1:
 RMSU=  2.46D-05    CP:  9.92D-01  1.16D+00  1.04D+00  1.17D+00  1.51D+00
                    CP:  1.61D+00
 E= -473.993676242065     Delta-E=       -0.000110481094 Rises=F Damp=F
 DIIS: error= 1.76D-04 at cycle   7 NSaved=   7.
 NSaved= 7 IEnMin= 7 EnMin= -473.993676242065     IErMin= 7 ErrMin= 1.76D-04
 ErrMax= 1.76D-04  0.00D+00 EMaxC= 1.00D-01 BMatC= 5.64D-06 BMatP= 1.14D-05
 IDIUse=3 WtCom= 9.98D-01 WtEn= 1.76D-03
 Coeff-Com: -0.112D-02 0.522D-02 0.126D-01-0.166D-01-0.226D+00 0.192D+00
 Coeff-Com:  0.103D+01
 Coeff-En:   0.000D+00 0.000D+00 0.000D+00 0.000D+00 0.000D+00 0.000D+00
 Coeff-En:   0.100D+01
 Coeff:     -0.112D-02 0.521D-02 0.126D-01-0.166D-01-0.226D+00 0.192D+00
 Coeff:      0.103D+01
 RMSDP=4.24D-05 MaxDP=2.20D-03 DE=-1.10D-04 OVMax= 0.00D+00

 Cycle   8  Pass 1  IDiag  1:
 RMSU=  8.00D-06    CP:  9.92D-01  1.15D+00  1.05D+00  1.18D+00  1.73D+00
                    CP:  2.21D+00  1.80D+00
 E= -473.993735518324     Delta-E=       -0.000059276259 Rises=F Damp=F
 DIIS: error= 1.06D-04 at cycle   8 NSaved=   8.
 NSaved= 8 IEnMin= 8 EnMin= -473.993735518324     IErMin= 8 ErrMin= 1.06D-04
 ErrMax= 1.06D-04  0.00D+00 EMaxC= 1.00D-01 BMatC= 2.74D-06 BMatP= 5.64D-06
 IDIUse=3 WtCom= 9.99D-01 WtEn= 1.06D-03
 Coeff-Com:  0.212D-03-0.317D-02 0.387D-02 0.559D-01-0.273D-01-0.247D+00
 Coeff-Com: -0.675D+00 0.189D+01
 Coeff-En:   0.000D+00 0.000D+00 0.000D+00 0.000D+00 0.000D+00 0.000D+00
 Coeff-En:   0.000D+00 0.100D+01
 Coeff:      0.211D-03-0.316D-02 0.386D-02 0.558D-01-0.273D-01-0.247D+00
 Coeff:     -0.674D+00 0.189D+01
 RMSDP=6.54D-05 MaxDP=3.15D-03 DE=-5.93D-05 OVMax= 0.00D+00

 Cycle   9  Pass 1  IDiag  1:
 RMSU=  9.31D-06    CP:  9.92D-01  1.15D+00  1.06D+00  1.18D+00  2.05D+00
                    CP:  3.00D+00  3.00D+00  2.44D+00
 E= -473.993797386710     Delta-E=       -0.000061868386 Rises=F Damp=F
 DIIS: error= 8.92D-05 at cycle   9 NSaved=   9.
 NSaved= 9 IEnMin= 9 EnMin= -473.993797386710     IErMin= 9 ErrMin= 8.92D-05
 ErrMax= 8.92D-05  0.00D+00 EMaxC= 1.00D-01 BMatC= 1.19D-06 BMatP= 2.74D-06
 IDIUse=1 WtCom= 1.00D+00 WtEn= 0.00D+00
 Coeff-Com:  0.573D-03-0.230D-02-0.772D-02 0.598D-02 0.772D-01 0.102D+00
 Coeff-Com: -0.941D+00 0.315D-01 0.173D+01
 Coeff:      0.573D-03-0.230D-02-0.772D-02 0.598D-02 0.772D-01 0.102D+00
 Coeff:     -0.941D+00 0.315D-01 0.173D+01
 RMSDP=7.42D-05 MaxDP=3.19D-03 DE=-6.19D-05 OVMax= 0.00D+00

 Cycle  10  Pass 1  IDiag  1:
 RMSU=  4.64D-05    CP:  9.92D-01  1.15D+00  1.07D+00  1.18D+00  2.41D+00
                    CP:  3.00D+00  3.00D+00  3.00D+00  3.00D+00
 E= -473.993833179229     Delta-E=       -0.000035792519 Rises=F Damp=F
 DIIS: error= 3.32D-05 at cycle  10 NSaved=  10.
 NSaved=10 IEnMin=10 EnMin= -473.993833179229     IErMin=10 ErrMin= 3.32D-05
 ErrMax= 3.32D-05  0.00D+00 EMaxC= 1.00D-01 BMatC= 1.44D-07 BMatP= 1.19D-06
 IDIUse=1 WtCom= 1.00D+00 WtEn= 0.00D+00
 Coeff-Com: -0.907D-04 0.110D-02-0.109D-02-0.177D-01 0.602D-03 0.124D+00
 Coeff-Com:  0.140D+00-0.467D+00-0.611D-01 0.128D+01
 Coeff:     -0.907D-04 0.110D-02-0.109D-02-0.177D-01 0.602D-03 0.124D+00
 Coeff:      0.140D+00-0.467D+00-0.611D-01 0.128D+01
 RMSDP=2.33D-05 MaxDP=9.85D-04 DE=-3.58D-05 OVMax= 0.00D+00

 Cycle  11  Pass 1  IDiag  1:
 RMSU=  7.86D-06    CP:  9.92D-01  1.15D+00  1.08D+00  1.18D+00  2.51D+00
                    CP:  3.00D+00  3.00D+00  3.00D+00  3.00D+00  1.37D+00
 E= -473.993836890932     Delta-E=       -0.000003711703 Rises=F Damp=F
 DIIS: error= 1.68D-05 at cycle  11 NSaved=  11.
 NSaved=11 IEnMin=11 EnMin= -473.993836890932     IErMin=11 ErrMin= 1.68D-05
 ErrMax= 1.68D-05  0.00D+00 EMaxC= 1.00D-01 BMatC= 2.08D-08 BMatP= 1.44D-07
 IDIUse=1 WtCom= 1.00D+00 WtEn= 0.00D+00
 Coeff-Com: -0.820D-04 0.343D-03 0.126D-02-0.207D-02-0.111D-01-0.117D-01
 Coeff-Com:  0.123D+00 0.250D-02-0.278D+00-0.362D-01 0.121D+01
 Coeff:     -0.820D-04 0.343D-03 0.126D-02-0.207D-02-0.111D-01-0.117D-01
 Coeff:      0.123D+00 0.250D-02-0.278D+00-0.362D-01 0.121D+01
 RMSDP=9.18D-06 MaxDP=3.96D-04 DE=-3.71D-06 OVMax= 0.00D+00

 Cycle  12  Pass 1  IDiag  1:
 RMSU=  1.06D-06    CP:  9.92D-01  1.15D+00  1.08D+00  1.17D+00  2.55D+00
                    CP:  3.00D+00  3.00D+00  3.00D+00  3.00D+00  1.52D+00
                    CP:  1.43D+00
 E= -473.993837335055     Delta-E=       -0.000000444123 Rises=F Damp=F
 DIIS: error= 5.36D-06 at cycle  12 NSaved=  12.
 NSaved=12 IEnMin=12 EnMin= -473.993837335055     IErMin=12 ErrMin= 5.36D-06
 ErrMax= 5.36D-06  0.00D+00 EMaxC= 1.00D-01 BMatC= 3.72D-09 BMatP= 2.08D-08
 IDIUse=1 WtCom= 1.00D+00 WtEn= 0.00D+00
 Coeff-Com:  0.249D-04-0.217D-03 0.981D-04 0.292D-02 0.977D-03-0.172D-01
 Coeff-Com: -0.364D-01 0.828D-01 0.466D-01-0.252D+00-0.626D-01 0.124D+01
 Coeff:      0.249D-04-0.217D-03 0.981D-04 0.292D-02 0.977D-03-0.172D-01
 Coeff:     -0.364D-01 0.828D-01 0.466D-01-0.252D+00-0.626D-01 0.124D+01
 RMSDP=1.26D-06 MaxDP=1.01D-04 DE=-4.44D-07 OVMax= 0.00D+00

 Cycle  13  Pass 1  IDiag  1:
 RMSU=  4.71D-07    CP:  9.92D-01  1.15D+00  1.08D+00  1.17D+00  2.55D+00
                    CP:  3.00D+00  3.00D+00  3.00D+00  3.00D+00  1.53D+00
                    CP:  1.52D+00  1.72D+00
 E= -473.993837368927     Delta-E=       -0.000000033872 Rises=F Damp=F
 DIIS: error= 1.87D-06 at cycle  13 NSaved=  13.
 NSaved=13 IEnMin=13 EnMin= -473.993837368927     IErMin=13 ErrMin= 1.87D-06
 ErrMax= 1.87D-06  0.00D+00 EMaxC= 1.00D-01 BMatC= 5.88D-10 BMatP= 3.72D-09
 IDIUse=1 WtCom= 1.00D+00 WtEn= 0.00D+00
 Coeff-Com:  0.114D-04-0.521D-04-0.177D-03 0.424D-03 0.163D-02 0.322D-03
 Coeff-Com: -0.181D-01-0.373D-02 0.468D-01-0.134D-01-0.129D+00-0.362D-02
 Coeff-Com:  0.112D+01
 Coeff:      0.114D-04-0.521D-04-0.177D-03 0.424D-03 0.163D-02 0.322D-03
 Coeff:     -0.181D-01-0.373D-02 0.468D-01-0.134D-01-0.129D+00-0.362D-02
 Coeff:      0.112D+01
 RMSDP=6.81D-07 MaxDP=3.72D-05 DE=-3.39D-08 OVMax= 0.00D+00

 Cycle  14  Pass 1  IDiag  1:
 RMSU=  2.06D-07    CP:  9.92D-01  1.15D+00  1.08D+00  1.17D+00  2.56D+00
                    CP:  3.00D+00  3.00D+00  3.00D+00  3.00D+00  1.53D+00
                    CP:  1.55D+00  2.03D+00  1.49D+00
 E= -473.993837376344     Delta-E=       -0.000000007417 Rises=F Damp=F
 DIIS: error= 9.61D-07 at cycle  14 NSaved=  14.
 NSaved=14 IEnMin=14 EnMin= -473.993837376344     IErMin=14 ErrMin= 9.61D-07
 ErrMax= 9.61D-07  0.00D+00 EMaxC= 1.00D-01 BMatC= 2.37D-10 BMatP= 5.88D-10
 IDIUse=1 WtCom= 1.00D+00 WtEn= 0.00D+00
 Coeff-Com: -0.110D-04 0.729D-04 0.330D-04-0.729D-03-0.121D-02 0.360D-02
 Coeff-Com:  0.182D-01-0.239D-01-0.171D-01 0.476D-01 0.802D-01-0.304D+00
 Coeff-Com: -0.392D+00 0.159D+01
 Coeff:     -0.110D-04 0.729D-04 0.330D-04-0.729D-03-0.121D-02 0.360D-02
 Coeff:      0.182D-01-0.239D-01-0.171D-01 0.476D-01 0.802D-01-0.304D+00
 Coeff:     -0.392D+00 0.159D+01
 RMSDP=4.90D-07 MaxDP=2.42D-05 DE=-7.42D-09 OVMax= 0.00D+00

 Cycle  15  Pass 1  IDiag  1:
 RMSU=  1.00D-07    CP:  9.92D-01  1.15D+00  1.08D+00  1.17D+00  2.56D+00
                    CP:  3.00D+00  3.00D+00  3.00D+00  3.00D+00  1.53D+00
                    CP:  1.56D+00  2.30D+00  2.06D+00  2.16D+00
 E= -473.993837380456     Delta-E=       -0.000000004112 Rises=F Damp=F
 DIIS: error= 9.88D-07 at cycle  15 NSaved=  15.
 NSaved=15 IEnMin=15 EnMin= -473.993837380456     IErMin=14 ErrMin= 9.61D-07
 ErrMax= 9.88D-07  0.00D+00 EMaxC= 1.00D-01 BMatC= 9.58D-11 BMatP= 2.37D-10
 IDIUse=1 WtCom= 1.00D+00 WtEn= 0.00D+00
 Coeff-Com: -0.494D-05 0.239D-04 0.723D-04-0.133D-03-0.103D-02 0.304D-03
 Coeff-Com:  0.932D-02-0.461D-02-0.136D-01-0.566D-03 0.637D-01-0.230D-01
 Coeff-Com: -0.465D+00 0.228D+00 0.121D+01
 Coeff:     -0.494D-05 0.239D-04 0.723D-04-0.133D-03-0.103D-02 0.304D-03
 Coeff:      0.932D-02-0.461D-02-0.136D-01-0.566D-03 0.637D-01-0.230D-01
 Coeff:     -0.465D+00 0.228D+00 0.121D+01
 RMSDP=3.23D-07 MaxDP=1.54D-05 DE=-4.11D-09 OVMax= 0.00D+00

 Cycle  16  Pass 1  IDiag  1:
 RMSU=  3.97D-08    CP:  9.92D-01  1.15D+00  1.08D+00  1.17D+00  2.56D+00
                    CP:  3.00D+00  3.00D+00  3.00D+00  3.00D+00  1.53D+00
                    CP:  1.56D+00  2.45D+00  2.40D+00  3.00D+00  1.72D+00
 E= -473.993837381937     Delta-E=       -0.000000001481 Rises=F Damp=F
 DIIS: error= 4.34D-07 at cycle  16 NSaved=  16.
 NSaved=16 IEnMin=16 EnMin= -473.993837381937     IErMin=16 ErrMin= 4.34D-07
 ErrMax= 4.34D-07  0.00D+00 EMaxC= 1.00D-01 BMatC= 2.26D-11 BMatP= 9.58D-11
 IDIUse=1 WtCom= 1.00D+00 WtEn= 0.00D+00
 Coeff-Com:  0.446D-05-0.296D-04-0.101D-04 0.330D-03 0.237D-03-0.110D-02
 Coeff-Com: -0.699D-02 0.785D-02 0.996D-02-0.221D-01-0.254D-01 0.114D+00
 Coeff-Com:  0.133D+00-0.517D+00-0.297D+00 0.160D+01
 Coeff:      0.446D-05-0.296D-04-0.101D-04 0.330D-03 0.237D-03-0.110D-02
 Coeff:     -0.699D-02 0.785D-02 0.996D-02-0.221D-01-0.254D-01 0.114D+00
 Coeff:      0.133D+00-0.517D+00-0.297D+00 0.160D+01
 RMSDP=2.29D-07 MaxDP=1.07D-05 DE=-1.48D-09 OVMax= 0.00D+00

 Cycle  17  Pass 1  IDiag  1:
 RMSU=  1.27D-07    CP:  9.92D-01  1.15D+00  1.08D+00  1.17D+00  2.56D+00
                    CP:  3.00D+00  3.00D+00  3.00D+00  3.00D+00  1.53D+00
                    CP:  1.56D+00  2.55D+00  2.65D+00  3.00D+00  2.53D+00
                    CP:  2.46D+00
 E= -473.993837382357     Delta-E=       -0.000000000420 Rises=F Damp=F
 DIIS: error= 1.61D-07 at cycle  17 NSaved=  17.
 NSaved=17 IEnMin=17 EnMin= -473.993837382357     IErMin=17 ErrMin= 1.61D-07
 ErrMax= 1.61D-07  0.00D+00 EMaxC= 1.00D-01 BMatC= 2.23D-12 BMatP= 2.26D-11
 IDIUse=1 WtCom= 1.00D+00 WtEn= 0.00D+00
 Coeff-Com:  0.490D-06-0.241D-05-0.100D-04 0.172D-04 0.926D-04 0.176D-04
 Coeff-Com: -0.104D-02 0.259D-03 0.214D-02-0.830D-03-0.513D-02-0.107D-02
 Coeff-Com:  0.457D-01 0.141D-01-0.209D+00 0.681D-01 0.109D+01
 Coeff:      0.490D-06-0.241D-05-0.100D-04 0.172D-04 0.926D-04 0.176D-04
 Coeff:     -0.104D-02 0.259D-03 0.214D-02-0.830D-03-0.513D-02-0.107D-02
 Coeff:      0.457D-01 0.141D-01-0.209D+00 0.681D-01 0.109D+01
 RMSDP=3.84D-08 MaxDP=1.89D-06 DE=-4.20D-10 OVMax= 0.00D+00

 Cycle  18  Pass 1  IDiag  1:
 RMSU=  8.42D-09    CP:  9.92D-01  1.15D+00  1.08D+00  1.17D+00  2.56D+00
                    CP:  3.00D+00  3.00D+00  3.00D+00  3.00D+00  1.53D+00
                    CP:  1.56D+00  2.57D+00  2.68D+00  3.00D+00  2.70D+00
                    CP:  2.88D+00  1.14D+00
 E= -473.993837382402     Delta-E=       -0.000000000045 Rises=F Damp=F
 DIIS: error= 6.50D-08 at cycle  18 NSaved=  18.
 NSaved=18 IEnMin=18 EnMin= -473.993837382402     IErMin=18 ErrMin= 6.50D-08
 ErrMax= 6.50D-08  0.00D+00 EMaxC= 1.00D-01 BMatC= 3.70D-13 BMatP= 2.23D-12
 IDIUse=1 WtCom= 1.00D+00 WtEn= 0.00D+00
 Coeff-Com: -0.934D-06 0.626D-05 0.108D-05-0.683D-04-0.457D-04 0.240D-03
 Coeff-Com:  0.138D-02-0.167D-02-0.179D-02 0.405D-02 0.573D-02-0.237D-01
 Coeff-Com: -0.284D-01 0.117D+00 0.283D-01-0.306D+00-0.177D-01 0.122D+01
 Coeff:     -0.934D-06 0.626D-05 0.108D-05-0.683D-04-0.457D-04 0.240D-03
 Coeff:      0.138D-02-0.167D-02-0.179D-02 0.405D-02 0.573D-02-0.237D-01
 Coeff:     -0.284D-01 0.117D+00 0.283D-01-0.306D+00-0.177D-01 0.122D+01
 RMSDP=1.85D-08 MaxDP=1.10D-06 DE=-4.55D-11 OVMax= 0.00D+00

 Cycle  19  Pass 1  IDiag  1:
 RMSU=  4.90D-09    CP:  9.92D-01  1.15D+00  1.08D+00  1.17D+00  2.56D+00
                    CP:  3.00D+00  3.00D+00  3.00D+00  3.00D+00  1.53D+00
                    CP:  1.56D+00  2.57D+00  2.69D+00  3.00D+00  2.78D+00
                    CP:  3.00D+00  1.20D+00  1.74D+00
 E= -473.993837382401     Delta-E=        0.000000000002 Rises=F Damp=F
 DIIS: error= 2.59D-08 at cycle  19 NSaved=  19.
 NSaved=19 IEnMin=18 EnMin= -473.993837382402     IErMin=19 ErrMin= 2.59D-08
 ErrMax= 2.59D-08  0.00D+00 EMaxC= 1.00D-01 BMatC= 4.02D-14 BMatP= 3.70D-13
 IDIUse=1 WtCom= 1.00D+00 WtEn= 0.00D+00
 Coeff-Com: -0.383D-08-0.235D-07 0.134D-05 0.164D-05-0.956D-05-0.133D-04
 Coeff-Com:  0.232D-04 0.458D-04-0.651D-04-0.207D-03 0.321D-03 0.197D-02
 Coeff-Com: -0.383D-02-0.938D-02 0.200D-01 0.289D-01-0.164D+00-0.555D-01
 Coeff-Com:  0.118D+01
 Coeff:     -0.383D-08-0.235D-07 0.134D-05 0.164D-05-0.956D-05-0.133D-04
 Coeff:      0.232D-04 0.458D-04-0.651D-04-0.207D-03 0.321D-03 0.197D-02
 Coeff:     -0.383D-02-0.938D-02 0.200D-01 0.289D-01-0.164D+00-0.555D-01
 Coeff:      0.118D+01
 RMSDP=3.55D-09 MaxDP=2.27D-07 DE= 1.82D-12 OVMax= 0.00D+00

 SCF Done:  E(RZINDO/S) =  -473.993837382     A.U. after   19 cycles
            NFock= 19  Conv=0.35D-08     -V/T= 0.9487
 KE=-9.239851058327D+03 PE=-9.604500519345D-07 EE= 4.483093355959D+03
 Leave Link  502 at Thu May  5 16:17:33 2022, MaxMem=  6710886400 cpu:              23.4 elap:               1.0
 (Enter /sw/apps/gaussian-16.0/g16/l801.exe)
 Range of M.O.s used for correlation:     1   338
 NBasis=   338 NAE=   176 NBE=   176 NFC=     0 NFV=     0
 NROrb=    338 NOA=   176 NOB=   176 NVA=   162 NVB=   162
 Leave Link  801 at Thu May  5 16:17:33 2022, MaxMem=  6710886400 cpu:               1.4 elap:               0.1
 (Enter /sw/apps/gaussian-16.0/g16/l914.exe)
 RHF ground state
 Two-electron integral symmetry not used.
 MDV=  6710886400 DFT=F DoStab=F Mixed=F DoRPA=F DoScal=F NonHer=F
 Making orbital integer symmetry assigments:
 Orbital symmetries:
       Occupied  (A) (A) (A) (A) (A) (A) (A) (A) (A) (A) (A) (A)
                 (A) (A) (A) (A) (A) (A) (A) (A) (A) (A) (A) (A)
                 (A) (A) (A) (A) (A) (A) (A) (A) (A) (A) (A) (A)
                 (A) (A) (A) (A) (A) (A) (A) (A) (A) (A) (A) (A)
                 (A) (A) (A) (A) (A) (A) (A) (A) (A) (A) (A) (A)
                 (A) (A) (A) (A) (A) (A) (A) (A) (A) (A) (A) (A)
                 (A) (A) (A) (A) (A) (A) (A) (A) (A) (A) (A) (A)
                 (A) (A) (A) (A) (A) (A) (A) (A) (A) (A) (A) (A)
                 (A) (A) (A) (A) (A) (A) (A) (A) (A) (A) (A) (A)
                 (A) (A) (A) (A) (A) (A) (A) (A) (A) (A) (A) (A)
                 (A) (A) (A) (A) (A) (A) (A) (A) (A) (A) (A) (A)
                 (A) (A) (A) (A) (A) (A) (A) (A) (A) (A) (A) (A)
                 (A) (A) (A) (A) (A) (A) (A) (A) (A) (A) (A) (A)
                 (A) (A) (A) (A) (A) (A) (A) (A) (A) (A) (A) (A)
                 (A) (A) (A) (A) (A) (A) (A) (A)
       Virtual   (A) (A) (A) (A) (A) (A) (A) (A) (A) (A) (A) (A)
                 (A) (A) (A) (A) (A) (A) (A) (A) (A) (A) (A) (A)
                 (A) (A) (A) (A) (A) (A) (A) (A) (A) (A) (A) (A)
                 (A) (A) (A) (A) (A) (A) (A) (A) (A) (A) (A) (A)
                 (A) (A) (A) (A) (A) (A) (A) (A) (A) (A) (A) (A)
                 (A) (A) (A) (A) (A) (A) (A) (A) (A) (A) (A) (A)
                 (A) (A) (A) (A) (A) (A) (A) (A) (A) (A) (A) (A)
                 (A) (A) (A) (A) (A) (A) (A) (A) (A) (A) (A) (A)
                 (A) (A) (A) (A) (A) (A) (A) (A) (A) (A) (A) (A)
                 (A) (A) (A) (A) (A) (A) (A) (A) (A) (A) (A) (A)
                 (A) (A) (A) (A) (A) (A) (A) (A) (A) (A) (A) (A)
                 (A) (A) (A) (A) (A) (A) (A) (A) (A) (A) (A) (A)
                 (A) (A) (A) (A) (A) (A) (A) (A) (A) (A) (A) (A)
                 (A) (A) (A) (A) (A) (A)
    20 initial guesses have been made.
 Convergence on wavefunction:    0.001000000000000
 Davidson Disk Diagonalization:  ConvIn= 1.00D-03 SkipCon=T Conv= 1.00D-03.
 Max sub-space:  2000 roots to seek:    20 dimension of matrix:        57024
 Iteration     1 Dimension    20 NMult     0 NNew     20
 CISAX will form    20 AO SS matrices at one time.
 NMat=    20 NSing=    20 JSym2X= 0.
 New state      3 was old state      4
 New state      4 was old state      3
 New state      5 was old state      9
 Excitation Energies [eV] at current iteration:
 Root      1 :     1.614601415511205
 Root      2 :     2.149586489886310
 Root      3 :     3.208922561281301
 Root      4 :     3.336853461969453
 Root      5 :     3.426382208358591
 Root      6 :     3.496140029392788
 Root      7 :     3.510443197439460
 Root      8 :     3.715544770162909
 Root      9 :     3.895340617236618
 Root     10 :     4.085106638300477
 Root     11 :     4.207461606017003
 Root     12 :     4.346360516551028
 Root     13 :     4.374779088739683
 Root     14 :     4.461614696802102
 Root     15 :     4.467297361722101
 Root     16 :     4.577768602077423
 Root     17 :     4.733682317367768
 Root     18 :     4.904178233097541
 Root     19 :     5.287912483837153
 Root     20 :     5.604942175957057
 Iteration     2 Dimension    40 NMult    20 NNew     20
 CISAX will form    20 AO SS matrices at one time.
 NMat=    20 NSing=    20 JSym2X= 0.
 Root      1 not converged, maximum delta is    0.029637782505555
 Root      2 not converged, maximum delta is    0.026794402933583
 Root      3 not converged, maximum delta is    0.308431632484004
 Root      4 not converged, maximum delta is    0.375016372103570
 Root      5 not converged, maximum delta is    0.365513395432916
 Excitation Energies [eV] at current iteration:
 Root      1 :     1.292742727217993   Change is   -0.321858688293212
 Root      2 :     1.958462424125364   Change is   -0.191124065760945
 Root      3 :     2.981276664309705   Change is   -0.227645896971596
 Root      4 :     3.027090277259324   Change is   -0.309763184710129
 Root      5 :     3.293566549862267   Change is   -0.132815658496323
 Root      6 :     3.308842360539143   Change is   -0.201600836900318
 Root      7 :     3.427203537171607   Change is   -0.068936492221181
 Root      8 :     3.496136070876112   Change is   -0.219408699286797
 Root      9 :     3.606235715788138   Change is   -0.289104901448480
 Root     10 :     3.779873757343692   Change is   -0.305232880956785
 Root     11 :     3.830326587482159   Change is   -0.377135018534844
 Root     12 :     3.889934208034322   Change is   -0.843748109333446
 Root     13 :     4.036424349247930   Change is   -0.338354739491753
 Root     14 :     4.206175832663762   Change is   -0.140184683887266
 Root     15 :     4.224424425035126   Change is   -0.242872936686976
 Root     16 :     4.373445559674369   Change is   -0.204323042403054
 Root     17 :     4.409601030331467   Change is   -0.052013666470635
 Root     18 :     4.707119824962527   Change is   -0.197058408135014
 Root     19 :     5.274637598135988   Change is   -0.013274885701165
 Root     20 :     5.587860817717444   Change is   -0.017081358239613
 Iteration     3 Dimension    45 NMult    40 NNew      5
 CISAX will form     5 AO SS matrices at one time.
 NMat=     5 NSing=     5 JSym2X= 0.
 Root      1 not converged, maximum delta is    0.008085540308041
 Root      2 not converged, maximum delta is    0.018637463638644
 Root      3 not converged, maximum delta is    0.073088884689512
 Root      4 not converged, maximum delta is    0.066101594216972
 Root      5 not converged, maximum delta is    0.054005070579959
 Excitation Energies [eV] at current iteration:
 Root      1 :     1.277412093999954   Change is   -0.015330633218039
 Root      2 :     1.932671370389925   Change is   -0.025791053735439
 Root      3 :     2.958548503194665   Change is   -0.022728161115041
 Root      4 :     3.003220504775868   Change is   -0.023869772483456
 Root      5 :     3.266459649523502   Change is   -0.027106900338765
 Iteration     4 Dimension    50 NMult    45 NNew      5
 CISAX will form     5 AO SS matrices at one time.
 NMat=     5 NSing=     5 JSym2X= 0.
 Root      1 not converged, maximum delta is    0.001763909577200
 Root      2 not converged, maximum delta is    0.002164682325056
 Root      3 not converged, maximum delta is    0.006089291626314
 Root      4 not converged, maximum delta is    0.007578620626857
 Root      5 not converged, maximum delta is    0.045828588367615
 Excitation Energies [eV] at current iteration:
 Root      1 :     1.276646189171462   Change is   -0.000765904828492
 Root      2 :     1.932023013892503   Change is   -0.000648356497423
 Root      3 :     2.956258482869694   Change is   -0.002290020324971
 Root      4 :     3.000543753529395   Change is   -0.002676751246472
 Root      5 :     3.263236801942101   Change is   -0.003222847581401
 Iteration     5 Dimension    55 NMult    50 NNew      5
 CISAX will form     5 AO SS matrices at one time.
 NMat=     5 NSing=     5 JSym2X= 0.
 Root      1 has converged.
 Root      2 has converged.
 Root      3 not converged, maximum delta is    0.003064887986112
 Root      4 not converged, maximum delta is    0.005003915931561
 Root      5 not converged, maximum delta is    0.034955415620323
 Excitation Energies [eV] at current iteration:
 Root      1 :     1.276596264265525   Change is   -0.000049924905937
 Root      2 :     1.931983749737311   Change is   -0.000039264155192
 Root      3 :     2.955696201873380   Change is   -0.000562280996314
 Root      4 :     2.999751269290331   Change is   -0.000792484239065
 Root      5 :     3.262436309486252   Change is   -0.000800492455849
 Iteration     6 Dimension    58 NMult    55 NNew      3
 CISAX will form     3 AO SS matrices at one time.
 NMat=     3 NSing=     3 JSym2X= 0.
 Root      1 has converged.
 Root      2 has converged.
 Root      3 not converged, maximum delta is    0.008274762971299
 Root      4 not converged, maximum delta is    0.019946890405673
 Root      5 not converged, maximum delta is    0.038412811859836
 Excitation Energies [eV] at current iteration:
 Root      1 :     1.276595539792531   Change is   -0.000000724472994
 Root      2 :     1.931979709474658   Change is   -0.000004040262653
 Root      3 :     2.955235605652432   Change is   -0.000460596220948
 Root      4 :     2.998224159638579   Change is   -0.001527109651752
 Root      5 :     3.261644813881678   Change is   -0.000791495604574
 Iteration     7 Dimension    61 NMult    58 NNew      3
 CISAX will form     3 AO SS matrices at one time.
 NMat=     3 NSing=     3 JSym2X= 0.
 Root      1 has converged.
 Root      2 has converged.
 Root      3 not converged, maximum delta is    0.073300779090177
 Root      4 not converged, maximum delta is    0.202157939143038
 No map to state      5
 Excitation Energies [eV] at current iteration:
 Root      1 :     1.276595336599236   Change is   -0.000000203193295
 Root      2 :     1.931977429978576   Change is   -0.000002279496082
 Root      3 :     2.953283332192812   Change is   -0.001952273459619
 Root      4 :     2.981849224265146   Change is   -0.016374935373433
 Root      5 :     3.033674913339529
 Iteration     8 Dimension    64 NMult    61 NNew      3
 CISAX will form     3 AO SS matrices at one time.
 NMat=     3 NSing=     3 JSym2X= 0.
 Root      1 has converged.
 Root      2 has converged.
 Root      3 not converged, maximum delta is    0.287969512706975
 Root      4 not converged, maximum delta is    0.520495167262943
 Root      5 not converged, maximum delta is    0.158411285138706
 Excitation Energies [eV] at current iteration:
 Root      1 :     1.276595123469804   Change is   -0.000000213129433
 Root      2 :     1.931977102674637   Change is   -0.000000327303939
 Root      3 :     2.939438830315242   Change is   -0.013844501877571
 Root      4 :     2.959071280713430   Change is   -0.022777943551716
 Root      5 :     3.010475634461928   Change is   -0.023199278877600
 Iteration     9 Dimension    67 NMult    64 NNew      3
 CISAX will form     3 AO SS matrices at one time.
 NMat=     3 NSing=     3 JSym2X= 0.
 Root      1 has converged.
 Root      2 has converged.
 Root      3 not converged, maximum delta is    0.051939750843137
 Root      4 not converged, maximum delta is    0.054095824890479
 Root      5 not converged, maximum delta is    0.020572883904371
 Excitation Energies [eV] at current iteration:
 Root      1 :     1.276595011490456   Change is   -0.000000111979348
 Root      2 :     1.931976950830262   Change is   -0.000000151844375
 Root      3 :     2.932461612468331   Change is   -0.006977217846911
 Root      4 :     2.957710508156488   Change is   -0.001360772556942
 Root      5 :     3.008695769169031   Change is   -0.001779865292898
 Iteration    10 Dimension    70 NMult    67 NNew      3
 CISAX will form     3 AO SS matrices at one time.
 NMat=     3 NSing=     3 JSym2X= 0.
 Root      1 has converged.
 Root      2 has converged.
 Root      3 not converged, maximum delta is    0.006868835107245
 Root      4 not converged, maximum delta is    0.007903210432813
 Root      5 not converged, maximum delta is    0.019638011853036
 Excitation Energies [eV] at current iteration:
 Root      1 :     1.276595006781827   Change is   -0.000000004708629
 Root      2 :     1.931976920601575   Change is   -0.000000030228688
 Root      3 :     2.931401938342774   Change is   -0.001059674125557
 Root      4 :     2.957502209617655   Change is   -0.000208298538834
 Root      5 :     3.008267365938393   Change is   -0.000428403230638
 Iteration    11 Dimension    73 NMult    70 NNew      3
 CISAX will form     3 AO SS matrices at one time.
 NMat=     3 NSing=     3 JSym2X= 0.
 Root      1 has converged.
 Root      2 has converged.
 Root      3 not converged, maximum delta is    0.002769007437617
 Root      4 not converged, maximum delta is    0.003200011863192
 Root      5 not converged, maximum delta is    0.011528891235391
 Excitation Energies [eV] at current iteration:
 Root      1 :     1.276594973350805   Change is   -0.000000033431022
 Root      2 :     1.931976848823009   Change is   -0.000000071778565
 Root      3 :     2.931186770221373   Change is   -0.000215168121401
 Root      4 :     2.957442932822423   Change is   -0.000059276795232
 Root      5 :     3.008085196266450   Change is   -0.000182169671943
 Iteration    12 Dimension    76 NMult    73 NNew      3
 CISAX will form     3 AO SS matrices at one time.
 NMat=     3 NSing=     3 JSym2X= 0.
 Root      1 has converged.
 Root      2 has converged.
 Root      3 not converged, maximum delta is    0.001501499836879
 Root      4 has converged.
 Root      5 not converged, maximum delta is    0.002780681091493
 Excitation Energies [eV] at current iteration:
 Root      1 :     1.276594953471284   Change is   -0.000000019879521
 Root      2 :     1.931976824597141   Change is   -0.000000024225869
 Root      3 :     2.931123352034364   Change is   -0.000063418187009
 Root      4 :     2.957428635012317   Change is   -0.000014297810105
 Root      5 :     3.008038855934342   Change is   -0.000046340332108
 Iteration    13 Dimension    78 NMult    76 NNew      2
 CISAX will form     2 AO SS matrices at one time.
 NMat=     2 NSing=     2 JSym2X= 0.
 Root      1 has converged.
 Root      2 has converged.
 Root      3 not converged, maximum delta is    0.001585566446502
 Root      4 has converged.
 Root      5 has converged.
 Excitation Energies [eV] at current iteration:
 Root      1 :     1.276594946176722   Change is   -0.000000007294562
 Root      2 :     1.931976811478534   Change is   -0.000000013118606
 Root      3 :     2.931092987301445   Change is   -0.000030364732919
 Root      4 :     2.957424274715914   Change is   -0.000004360296404
 Root      5 :     3.008026798464017   Change is   -0.000012057470325
 Iteration    14 Dimension    79 NMult    78 NNew      1
 CISAX will form     1 AO SS matrices at one time.
 NMat=     1 NSing=     1 JSym2X= 0.
 Root      1 has converged.
 Root      2 has converged.
 Root      3 not converged, maximum delta is    0.001045950711751
 Root      4 has converged.
 Root      5 has converged.
 Excitation Energies [eV] at current iteration:
 Root      1 :     1.276594935844104   Change is   -0.000000010332617
 Root      2 :     1.931976809226755   Change is   -0.000000002251779
 Root      3 :     2.931079749954376   Change is   -0.000013237347069
 Root      4 :     2.957422908454459   Change is   -0.000001366261454
 Root      5 :     3.008023644458967   Change is   -0.000003154005050
 Iteration    15 Dimension    80 NMult    79 NNew      1
 CISAX will form     1 AO SS matrices at one time.
 NMat=     1 NSing=     1 JSym2X= 0.
 Root      1 has converged.
 Root      2 has converged.
 Root      3 has converged.
 Root      4 has converged.
 Root      5 has converged.
 Excitation Energies [eV] at current iteration:
 Root      1 :     1.276594935693685   Change is   -0.000000000150419
 Root      2 :     1.931976808164637   Change is   -0.000000001062118
 Root      3 :     2.931076735238688   Change is   -0.000003014715689
 Root      4 :     2.957422633444564   Change is   -0.000000275009895
 Root      5 :     3.008023001081653   Change is   -0.000000643377314
 Convergence achieved on expansion vectors.
 ***********************************************************************
 Excited states from <AA,BB:AA,BB> singles matrix:
 ***********************************************************************
 
 1PDM for each excited state written to RWF  633
 Ground to excited state transition densities written to RWF  633
 Ground to excited state transition electric dipole moments (Au):
       state          X           Y           Z        Dip. S.      Osc.
         1        -2.7127     -3.3106     -0.3898     18.4705      0.5777
         2         0.6315     -0.6800     -0.0604      0.8648      0.0409
         3        -0.0661     -0.4338     -0.0525      0.1953      0.0140
         4         2.0131     -1.3342      0.0352      5.8339      0.4227
         5         1.5976     -2.6204     -0.1400      9.4387      0.6956
 Ground to excited state transition velocity dipole moments (Au):
       state          X           Y           Z        Dip. S.      Osc.
         1        -0.0525     -0.0257     -0.0014      0.0034      0.0485
         2        -0.0124      0.0111      0.0034      0.0003      0.0027
         3         0.0018      0.0216      0.0086      0.0005      0.0034
         4        -0.0628      0.0543      0.0094      0.0070      0.0428
         5        -0.0643      0.0941      0.0119      0.0131      0.0792
 Ground to excited state transition magnetic dipole moments (Au):
       state          X           Y           Z
         1         0.0714      0.0353      0.0407
         2        -0.0039      0.0148      0.9680
         3        -0.4959      0.4535     -0.6390
         4        -0.1479      0.0971     -0.0430
         5         0.3585      0.1928     -1.3766
 Ground to excited state transition velocity quadrupole moments (Au):
       state          XX          YY          ZZ          XY          XZ          YZ
         1         0.9867      0.0652     -0.0200      0.2824     -0.0204      0.0462
         2         0.2210     -0.0206     -0.0046     -0.0721     -0.0424      0.0007
         3         0.1349     -0.0130      0.0212     -0.3199     -0.0934      0.1103
         4         0.6315      0.3695      0.0004     -0.1412     -0.0314      0.0948
         5         1.3861     -0.3842      0.0379     -1.1512     -0.1893      0.0188
 <0|del|b> * <b|rxdel|0> + <0|del|b> * <b|delr+rdel|0>
 Rotatory Strengths (R) in cgs (10**-40 erg-esu-cm/Gauss)
       state          XX          YY          ZZ    R(velocity)    E-M Angle
         1       -14.0999    -43.9901    -12.8478    -23.6459      154.27
         2        18.5312     18.0337     -1.2428     11.7741       77.58
         3        11.9374    -11.2969     21.9105      7.5170       80.87
         4        17.0779     13.8377     61.1718     30.6958       21.48
         5        19.1039    -86.1521    -68.7798    -45.2760       97.41
 1/2[<0|r|b>*<b|rxdel|0> + (<0|rxdel|b>*<b|r|0>)*]
 Rotatory Strengths (R) in cgs (10**-40 erg-esu-cm/Gauss)
       state          XX          YY          ZZ     R(length)
         1       136.9130     82.7272     11.2185     76.9529
         2         1.7593      7.1144     41.3792     16.7510
         3       -23.1784    139.1288    -23.7396     30.7369
         4       210.4927     91.5851      1.0702    101.0493
         5      -404.9740    357.2462   -136.2870    -61.3383
  1/2[<0|del|b>*<b|r|0> + (<0|r|b>*<b|del|0>)*] (Au)
       state          X           Y           Z        Dip. S.   Osc.(frdel)
         1         0.1423      0.0849      0.0005     -0.2278     -0.1518
         2        -0.0079     -0.0076     -0.0002      0.0156      0.0104
         3        -0.0001     -0.0094     -0.0004      0.0100      0.0066
         4        -0.1264     -0.0725      0.0003      0.1985      0.1324
         5        -0.1027     -0.2467     -0.0017      0.3511      0.2340

 Excitation energies and oscillator strengths:
 
 Excited State   1:      Singlet-A      1.2766 eV  971.21 nm  f=0.5777  <S**2>=0.000
     175 ->178         0.15603
     176 ->177         0.67203
 This state for optimization and/or second-order correction.
 Total Energy, E(CIS/TDA) =  -473.946923382    
 Copying the excited state density for this state as the 1-particle RhoCI density.
 
 Excited State   2:      Singlet-A      1.9320 eV  641.75 nm  f=0.0409  <S**2>=0.000
     175 ->177         0.54803
     176 ->178        -0.40197
 
 Excited State   3:      Singlet-A      2.9311 eV  423.00 nm  f=0.0140  <S**2>=0.000
     166 ->177        -0.12898
     166 ->179         0.19476
     167 ->177        -0.25435
     167 ->179         0.37652
     167 ->180        -0.14179
     167 ->186        -0.12954
     168 ->177         0.11107
     168 ->179        -0.14060
     176 ->179         0.26583
 
 Excited State   4:      Singlet-A      2.9574 eV  419.23 nm  f=0.4227  <S**2>=0.000
     167 ->179         0.10610
     175 ->177         0.26500
     176 ->178         0.45382
     176 ->179        -0.26871
     176 ->180        -0.28068
 
 Excited State   5:      Singlet-A      3.0080 eV  412.18 nm  f=0.6956  <S**2>=0.000
     167 ->179        -0.13127
     175 ->177         0.28355
     176 ->178         0.27617
     176 ->179         0.47898
     176 ->180         0.10549
 SavETr:  write IOETrn=   770 NScale= 10 NData=  16 NLR=1 NState=    5 LETran=     100.
 Leave Link  914 at Thu May  5 16:17:38 2022, MaxMem=  6710886400 cpu:             123.4 elap:               5.2
 (Enter /sw/apps/gaussian-16.0/g16/l601.exe)
 Copying SCF densities to generalized density rwf, IOpCl= 0 IROHF=0.

 **********************************************************************

            Population analysis using the SCF density.

 **********************************************************************

 Orbital symmetries:
       Occupied  (A) (A) (A) (A) (A) (A) (A) (A) (A) (A) (A) (A)
                 (A) (A) (A) (A) (A) (A) (A) (A) (A) (A) (A) (A)
                 (A) (A) (A) (A) (A) (A) (A) (A) (A) (A) (A) (A)
                 (A) (A) (A) (A) (A) (A) (A) (A) (A) (A) (A) (A)
                 (A) (A) (A) (A) (A) (A) (A) (A) (A) (A) (A) (A)
                 (A) (A) (A) (A) (A) (A) (A) (A) (A) (A) (A) (A)
                 (A) (A) (A) (A) (A) (A) (A) (A) (A) (A) (A) (A)
                 (A) (A) (A) (A) (A) (A) (A) (A) (A) (A) (A) (A)
                 (A) (A) (A) (A) (A) (A) (A) (A) (A) (A) (A) (A)
                 (A) (A) (A) (A) (A) (A) (A) (A) (A) (A) (A) (A)
                 (A) (A) (A) (A) (A) (A) (A) (A) (A) (A) (A) (A)
                 (A) (A) (A) (A) (A) (A) (A) (A) (A) (A) (A) (A)
                 (A) (A) (A) (A) (A) (A) (A) (A) (A) (A) (A) (A)
                 (A) (A) (A) (A) (A) (A) (A) (A) (A) (A) (A) (A)
                 (A) (A) (A) (A) (A) (A) (A) (A)
       Virtual   (A) (A) (A) (A) (A) (A) (A) (A) (A) (A) (A) (A)
                 (A) (A) (A) (A) (A) (A) (A) (A) (A) (A) (A) (A)
                 (A) (A) (A) (A) (A) (A) (A) (A) (A) (A) (A) (A)
                 (A) (A) (A) (A) (A) (A) (A) (A) (A) (A) (A) (A)
                 (A) (A) (A) (A) (A) (A) (A) (A) (A) (A) (A) (A)
                 (A) (A) (A) (A) (A) (A) (A) (A) (A) (A) (A) (A)
                 (A) (A) (A) (A) (A) (A) (A) (A) (A) (A) (A) (A)
                 (A) (A) (A) (A) (A) (A) (A) (A) (A) (A) (A) (A)
                 (A) (A) (A) (A) (A) (A) (A) (A) (A) (A) (A) (A)
                 (A) (A) (A) (A) (A) (A) (A) (A) (A) (A) (A) (A)
                 (A) (A) (A) (A) (A) (A) (A) (A) (A) (A) (A) (A)
                 (A) (A) (A) (A) (A) (A) (A) (A) (A) (A) (A) (A)
                 (A) (A) (A) (A) (A) (A) (A) (A) (A) (A) (A) (A)
                 (A) (A) (A) (A) (A) (A)
 The electronic state is 1-A.
 Alpha  occ. eigenvalues --   -1.82747  -1.81411  -1.78855  -1.72397  -1.71486
 Alpha  occ. eigenvalues --   -1.70248  -1.67083  -1.61458  -1.56641  -1.54987
 Alpha  occ. eigenvalues --   -1.53490  -1.51012  -1.47454  -1.46460  -1.46191
 Alpha  occ. eigenvalues --   -1.42918  -1.41626  -1.40094  -1.38863  -1.37287
 Alpha  occ. eigenvalues --   -1.35887  -1.33720  -1.32515  -1.31866  -1.28433
 Alpha  occ. eigenvalues --   -1.27066  -1.24723  -1.22988  -1.21339  -1.18096
 Alpha  occ. eigenvalues --   -1.16725  -1.15926  -1.15869  -1.14780  -1.13424
 Alpha  occ. eigenvalues --   -1.12578  -1.12117  -1.11532  -1.04431  -1.03046
 Alpha  occ. eigenvalues --   -1.02580  -1.00814  -0.99348  -0.98689  -0.96698
 Alpha  occ. eigenvalues --   -0.95002  -0.94479  -0.94310  -0.93300  -0.92587
 Alpha  occ. eigenvalues --   -0.92145  -0.90635  -0.89043  -0.87834  -0.86566
 Alpha  occ. eigenvalues --   -0.84600  -0.84096  -0.83895  -0.81577  -0.80793
 Alpha  occ. eigenvalues --   -0.79455  -0.78800  -0.77763  -0.76622  -0.76194
 Alpha  occ. eigenvalues --   -0.75852  -0.75040  -0.74633  -0.74243  -0.73762
 Alpha  occ. eigenvalues --   -0.73324  -0.72537  -0.71855  -0.70988  -0.70848
 Alpha  occ. eigenvalues --   -0.70343  -0.69666  -0.68991  -0.67906  -0.67635
 Alpha  occ. eigenvalues --   -0.67315  -0.66615  -0.66420  -0.66245  -0.65021
 Alpha  occ. eigenvalues --   -0.64725  -0.64392  -0.64082  -0.63590  -0.62871
 Alpha  occ. eigenvalues --   -0.62720  -0.62437  -0.62320  -0.61716  -0.61331
 Alpha  occ. eigenvalues --   -0.61077  -0.60857  -0.60513  -0.59890  -0.59592
 Alpha  occ. eigenvalues --   -0.59343  -0.59235  -0.59058  -0.58595  -0.58476
 Alpha  occ. eigenvalues --   -0.57754  -0.57691  -0.57175  -0.56674  -0.56388
 Alpha  occ. eigenvalues --   -0.56274  -0.55703  -0.55167  -0.55069  -0.54685
 Alpha  occ. eigenvalues --   -0.54106  -0.53796  -0.53456  -0.53045  -0.52761
 Alpha  occ. eigenvalues --   -0.52620  -0.52246  -0.52142  -0.52024  -0.51779
 Alpha  occ. eigenvalues --   -0.51565  -0.51335  -0.51082  -0.50667  -0.50539
 Alpha  occ. eigenvalues --   -0.49888  -0.49645  -0.49460  -0.49245  -0.49104
 Alpha  occ. eigenvalues --   -0.48648  -0.48375  -0.48108  -0.47648  -0.47562
 Alpha  occ. eigenvalues --   -0.47433  -0.47024  -0.46969  -0.46657  -0.46197
 Alpha  occ. eigenvalues --   -0.46152  -0.46016  -0.45763  -0.45603  -0.45388
 Alpha  occ. eigenvalues --   -0.45258  -0.44466  -0.44335  -0.44150  -0.43853
 Alpha  occ. eigenvalues --   -0.43050  -0.42581  -0.42496  -0.42131  -0.41639
 Alpha  occ. eigenvalues --   -0.41518  -0.40811  -0.40155  -0.39001  -0.38732
 Alpha  occ. eigenvalues --   -0.37206  -0.36978  -0.36170  -0.34912  -0.34578
 Alpha  occ. eigenvalues --   -0.34200  -0.33106  -0.31912  -0.31229  -0.26836
 Alpha  occ. eigenvalues --   -0.21630
 Alpha virt. eigenvalues --   -0.08453  -0.01911  -0.01103   0.00724   0.01655
 Alpha virt. eigenvalues --    0.02411   0.02844   0.03634   0.03983   0.04523
 Alpha virt. eigenvalues --    0.05641   0.06290   0.06889   0.07486   0.07734
 Alpha virt. eigenvalues --    0.08325   0.08457   0.09098   0.09474   0.09695
 Alpha virt. eigenvalues --    0.09862   0.09994   0.10372   0.10438   0.10508
 Alpha virt. eigenvalues --    0.10959   0.11141   0.11431   0.11971   0.12163
 Alpha virt. eigenvalues --    0.12562   0.12703   0.12909   0.13065   0.13331
 Alpha virt. eigenvalues --    0.13794   0.13942   0.14367   0.14727   0.15130
 Alpha virt. eigenvalues --    0.15191   0.15334   0.15363   0.15548   0.15585
 Alpha virt. eigenvalues --    0.15700   0.16335   0.16708   0.16744   0.17187
 Alpha virt. eigenvalues --    0.17314   0.17631   0.17802   0.17998   0.18332
 Alpha virt. eigenvalues --    0.18577   0.18784   0.18984   0.19245   0.19440
 Alpha virt. eigenvalues --    0.19730   0.19849   0.20209   0.20844   0.21181
 Alpha virt. eigenvalues --    0.21412   0.21459   0.22267   0.22612   0.22817
 Alpha virt. eigenvalues --    0.23157   0.23465   0.23725   0.24197   0.24371
 Alpha virt. eigenvalues --    0.24387   0.24410   0.24688   0.24700   0.24716
 Alpha virt. eigenvalues --    0.24735   0.24739   0.24809   0.24865   0.24921
 Alpha virt. eigenvalues --    0.24994   0.25066   0.25132   0.25160   0.25192
 Alpha virt. eigenvalues --    0.25257   0.25326   0.25412   0.25544   0.25555
 Alpha virt. eigenvalues --    0.25621   0.25716   0.25769   0.25813   0.25826
 Alpha virt. eigenvalues --    0.25955   0.26131   0.26199   0.26257   0.26552
 Alpha virt. eigenvalues --    0.26602   0.26638   0.27064   0.27156   0.27241
 Alpha virt. eigenvalues --    0.27274   0.27448   0.27680   0.27878   0.27976
 Alpha virt. eigenvalues --    0.28094   0.28256   0.29010   0.29454   0.29745
 Alpha virt. eigenvalues --    0.29964   0.30089   0.30501   0.31585   0.31702
 Alpha virt. eigenvalues --    0.31797   0.32177   0.32459   0.32697   0.34136
 Alpha virt. eigenvalues --    0.35223   0.35540   0.35646   0.36077   0.36173
 Alpha virt. eigenvalues --    0.36278   0.36458   0.37265   0.38208   0.38439
 Alpha virt. eigenvalues --    0.38763   0.39061   0.39538   0.39781   0.40191
 Alpha virt. eigenvalues --    0.40457   0.40982   0.41178   0.41692   0.43569
 Alpha virt. eigenvalues --    0.44200   0.44474   0.45064   0.46262   0.46822
 Alpha virt. eigenvalues --    0.47618   0.47800   0.48286   0.51130   0.53359
 Alpha virt. eigenvalues --    0.54083   0.57500
          Condensed to atoms (all electrons):
 Mulliken charges:
               1
     1  Mg   0.421860
     2  C   -0.037439
     3  C   -0.070604
     4  C   -0.100656
     5  C   -0.048477
     6  N   -0.283506
     7  C    0.094810
     8  C    0.011785
     9  C    0.020137
    10  C    0.167382
    11  C   -0.050082
    12  C   -0.022595
    13  C    0.001892
    14  C    0.468471
    15  O   -0.505755
    16  O   -0.271307
    17  N   -0.327760
    18  C    0.124629
    19  C    0.042628
    20  C   -0.033182
    21  C    0.171297
    22  C   -0.046426
    23  C    0.325986
    24  O   -0.506195
    25  C   -0.037460
    26  N   -0.264796
    27  C    0.175807
    28  C   -0.004655
    29  C   -0.004898
    30  C    0.089113
    31  C   -0.053664
    32  C   -0.031830
    33  C   -0.067359
    34  N   -0.326803
    35  C    0.049288
    36  C    0.013769
    37  C   -0.053075
    38  C    0.110031
    39  C   -0.036744
    40  C    0.320800
    41  O   -0.553436
    42  C    0.068683
    43  C    0.491230
    44  O   -0.538321
    45  O   -0.257221
    46  C    0.070285
    47  C    0.106431
    48  C   -0.080404
    49  C   -0.010494
    50  C   -0.047824
    51  C   -0.037241
    52  C   -0.020368
    53  C   -0.021913
    54  C   -0.011629
    55  C   -0.053991
    56  C   -0.028301
    57  C   -0.051071
    58  C   -0.032303
    59  C   -0.004625
    60  C   -0.063116
    61  C   -0.037240
    62  C   -0.040890
    63  C   -0.038283
    64  C   -0.017734
    65  C   -0.062030
    66  C   -0.065748
    67  H    0.014513
    68  H    0.043002
    69  H    0.028990
    70  H    0.068572
    71  H    0.029542
    72  H    0.023762
    73  H    0.011188
    74  H    0.031871
    75  H    0.012682
    76  H    0.027767
    77  H    0.026960
    78  H    0.039795
    79  H    0.033492
    80  H    0.036240
    81  H    0.031103
    82  H    0.036495
    83  H    0.036136
    84  H    0.032569
    85  H    0.032208
    86  H    0.029648
    87  H    0.030521
    88  H    0.031111
    89  H    0.016860
    90  H    0.021960
    91  H    0.016255
    92  H    0.018384
    93  H    0.032385
    94  H    0.024232
    95  H    0.019972
    96  H    0.030503
    97  H    0.029402
    98  H    0.061261
    99  H    0.035036
   100  H    0.053361
   101  H    0.040546
   102  H    0.045416
   103  H    0.046482
   104  H    0.031557
   105  H    0.020323
   106  H    0.027328
   107  H    0.031852
   108  H    0.018029
   109  H    0.009068
   110  H    0.038098
   111  H    0.019097
   112  H    0.028533
   113  H    0.020306
   114  H   -0.001091
   115  H    0.022106
   116  H    0.014774
   117  H    0.015747
   118  H    0.016241
   119  H    0.012836
   120  H    0.015403
   121  H    0.019294
   122  H    0.015322
   123  H    0.024597
   124  H    0.023562
   125  H    0.012412
   126  H    0.020553
   127  H    0.016589
   128  H    0.017493
   129  H    0.021500
   130  H    0.023098
   131  H    0.005728
   132  H    0.028044
   133  H    0.031902
   134  H    0.028899
   135  H    0.010238
   136  H    0.019980
   137  H    0.012190
   138  H    0.017344
   139  H    0.015843
   140  H    0.028117
 Sum of Mulliken charges =  -0.00000
 Mulliken charges with hydrogens summed into heavy atoms:
               1
     1  Mg   0.421860
     2  C   -0.037439
     3  C   -0.056091
     4  C   -0.057654
     5  C   -0.019487
     6  N   -0.283506
     7  C    0.094810
     8  C    0.080357
     9  C    0.049679
    10  C    0.167382
    11  C    0.016739
    12  C    0.017854
    13  C    0.068647
    14  C    0.468471
    15  O   -0.505755
    16  O   -0.271307
    17  N   -0.327760
    18  C    0.124629
    19  C    0.042628
    20  C   -0.033182
    21  C    0.171297
    22  C    0.054409
    23  C    0.325986
    24  O   -0.506195
    25  C    0.067741
    26  N   -0.264796
    27  C    0.175807
    28  C    0.027553
    29  C    0.024750
    30  C    0.089113
    31  C    0.024827
    32  C    0.006384
    33  C    0.007642
    34  N   -0.326803
    35  C    0.049288
    36  C    0.013769
    37  C   -0.053075
    38  C    0.110031
    39  C    0.043134
    40  C    0.320800
    41  O   -0.553436
    42  C    0.129944
    43  C    0.491230
    44  O   -0.538321
    45  O   -0.257221
    46  C    0.199228
    47  C    0.198329
    48  C   -0.048847
    49  C   -0.010494
    50  C    0.031679
    51  C   -0.010144
    52  C    0.036828
    53  C    0.026926
    54  C   -0.012720
    55  C   -0.001364
    56  C    0.000777
    57  C   -0.016374
    58  C    0.007616
    59  C    0.018937
    60  C   -0.013562
    61  C    0.001753
    62  C   -0.012065
    63  C    0.021663
    64  C    0.011164
    65  C   -0.019621
    66  C   -0.004444
 Charge=             -0.0000 electrons
 Dipole moment (field-independent basis, Debye):
    X=             10.2115    Y=              6.3699    Z=             -2.0049  Tot=             12.2012
 N-N= 4.282763865946D+03 E-N= 0.000000000000D+00  KE=-9.239851058327D+03
 Leave Link  601 at Thu May  5 16:17:38 2022, MaxMem=  6710886400 cpu:               0.7 elap:               0.0
 (Enter /sw/apps/gaussian-16.0/g16/l9999.exe)
 1\1\GINC-BP1-COMPUTE135\SP\RZINDO CIS\STO-3G\C55H74Mg1N4O6\OF15641\05-
 May-2022\0\\#p ZINDO=(nstates=5)\\step_951_chromophore_6 ZINDO\\0,1\Mg
 ,0,17.206,-2.654,27.69\C,0,16.308,-0.56,30.371\C,0,19.108,-4.612,29.62
 5\C,0,18.258,-4.352,24.929\C,0,15.505,-0.346,25.502\N,0,17.835,-2.399,
 29.738\C,0,17.23,-1.576,30.714\C,0,17.732,-1.961,32.108\C,0,18.518,-3.
 25,31.801\C,0,18.569,-3.455,30.29\C,0,19.958,-3.251,32.342\C,0,16.586,
 -2.188,33.14\C,0,16.725,-1.717,34.641\C,0,18.033,-1.16,35.175\O,0,18.5
 46,-0.109,34.806\O,0,18.568,-2.104,36.02\N,0,18.401,-4.39,27.35\C,0,19
 .06,-5.113,28.358\C,0,19.756,-6.227,27.766\C,0,19.482,-6.183,26.388\C,
 0,18.642,-4.936,26.184\C,0,20.635,-7.03,28.675\C,0,19.994,-7.116,25.28
 8\O,0,19.592,-7.068,24.109\C,0,20.917,-8.333,25.662\N,0,16.925,-2.385,
 25.572\C,0,17.568,-3.14,24.669\C,0,17.467,-2.56,23.197\C,0,16.356,-1.4
 89,23.415\C,0,16.16,-1.43,24.967\C,0,18.843,-2.055,22.689\C,0,15.003,-
 1.823,22.784\C,0,14.43,-0.69,21.845\N,0,16.063,-0.777,27.857\C,0,15.35
 8,-0.08,26.867\C,0,14.737,1.058,27.547\C,0,15.07,0.884,28.9\C,0,15.876
 ,-0.202,29.032\C,0,13.85,2.027,26.873\C,0,14.792,1.413,30.257\O,0,13.9
 81,2.313,30.683\C,0,15.611,0.508,31.209\C,0,16.54,1.377,31.954\O,0,17.
 776,1.365,31.856\O,0,15.88,2.091,32.901\C,0,16.706,2.96,33.773\C,0,19.
 868,-1.665,36.651\C,0,20.435,-2.741,37.46\C,0,19.917,-3.131,38.646\C,0
 ,18.452,-2.788,39.155\C,0,20.641,-4.221,39.423\C,0,20.317,-5.752,39.26
 3\C,0,21.384,-6.537,40.029\C,0,21.429,-7.919,39.401\C,0,20.324,-8.883,
 39.838\C,0,22.787,-8.536,39.25\C,0,23.446,-8.769,40.645\C,0,24.901,-8.
 177,40.899\C,0,25.784,-9.142,41.747\C,0,27.08,-8.375,42.16\C,0,26.07,-
 10.481,41.006\C,0,25.997,-11.694,41.949\C,0,24.782,-12.628,41.755\C,0,
 24.284,-13.08,43.185\C,0,22.889,-12.479,43.509\C,0,24.336,-14.682,43.3
 38\H,0,19.532,-5.311,30.349\H,0,18.77,-4.87,24.115\H,0,14.955,0.291,24
 .806\H,0,18.304,-1.069,32.364\H,0,17.962,-4.072,32.251\H,0,20.622,-3.0
 01,31.515\H,0,20.207,-4.26,32.669\H,0,20.174,-2.582,33.174\H,0,16.354,
 -3.245,33.271\H,0,15.636,-1.918,32.678\H,0,16.461,-2.51,35.34\H,0,16.,
 -0.937,34.873\H,0,21.117,-7.917,28.265\H,0,20.185,-7.144,29.661\H,0,21
 .437,-6.402,29.063\H,0,21.833,-8.128,26.217\H,0,21.13,-8.971,24.805\H,
 0,20.374,-9.09,26.229\H,0,17.148,-3.308,22.471\H,0,16.774,-0.567,23.01
 3\H,0,18.814,-1.006,22.394\H,0,19.221,-2.803,21.992\H,0,19.516,-2.036,
 23.546\H,0,14.287,-2.004,23.585\H,0,15.03,-2.775,22.253\H,0,13.874,-1.
 314,21.145\H,0,15.106,-0.021,21.312\H,0,13.786,-0.146,22.536\H,0,14.40
 8,2.287,25.973\H,0,13.613,2.931,27.433\H,0,12.887,1.639,26.542\H,0,14.
 948,0.083,31.962\H,0,16.765,3.898,33.221\H,0,17.74,2.62,33.832\H,0,16.
 324,3.144,34.777\H,0,19.698,-0.829,37.33\H,0,20.514,-1.253,35.876\H,0,
 21.447,-3.093,37.259\H,0,17.993,-3.763,39.324\H,0,17.822,-2.281,38.424
 \H,0,18.408,-2.244,40.099\H,0,20.64,-3.834,40.442\H,0,21.694,-4.077,39
 .184\H,0,20.167,-5.92,38.197\H,0,19.38,-5.911,39.797\H,0,21.192,-6.643
 ,41.097\H,0,22.39,-6.143,39.882\H,0,21.246,-7.758,38.339\H,0,19.722,-8
 .562,40.688\H,0,20.758,-9.852,40.085\H,0,19.685,-9.088,38.979\H,0,23.4
 25,-7.918,38.619\H,0,22.679,-9.503,38.758\H,0,23.449,-9.854,40.748\H,0
 ,22.75,-8.434,41.414\H,0,24.773,-7.242,41.444\H,0,25.407,-7.935,39.964
 \H,0,25.25,-9.408,42.659\H,0,27.22,-7.557,41.454\H,0,27.994,-8.969,42.
 182\H,0,27.039,-7.809,43.091\H,0,27.066,-10.659,40.601\H,0,25.428,-10.
 508,40.126\H,0,26.149,-11.359,42.975\H,0,26.856,-12.35,41.807\H,0,25.0
 26,-13.554,41.235\H,0,24.14,-11.955,41.187\H,0,24.826,-12.661,44.032\H
 ,0,22.787,-12.12,44.533\H,0,22.004,-13.109,43.414\H,0,22.752,-11.584,4
 2.902\H,0,23.391,-14.939,43.816\H,0,25.104,-14.989,44.048\H,0,24.506,-
 15.255,42.426\\Version=ES64L-G16RevA.03\State=1-A\HF=-473.9938374\RMSD
 =3.549e-09\PG=C01 [X(C55H74Mg1N4O6)]\\@


0EVERYBODY IS IGNORANT, ONLY ON DIFFERENT SUBJECTS.
0          WILL ROGERS
 Job cpu time:       0 days  0 hours  3 minutes  4.1 seconds.
 Elapsed time:       0 days  0 hours  0 minutes  8.1 seconds.
 File lengths (MBytes):  RWF=   1275 Int=      0 D2E=      0 Chk=     38 Scr=      1
 Normal termination of Gaussian 16 at Thu May  5 16:17:38 2022.
