 Entering Gaussian System, Link 0=g16
 Initial command:
 /sw/apps/gaussian-16.0/g16/l1.exe "/tmp/Gau-114526.inp" -scrdir="/tmp/"
 Entering Link 1 = /sw/apps/gaussian-16.0/g16/l1.exe PID=    114527.
  
 Copyright (c) 1988,1990,1992,1993,1995,1998,2003,2009,2016,
            Gaussian, Inc.  All Rights Reserved.
  
 This is part of the Gaussian(R) 16 program.  It is based on
 the Gaussian(R) 09 system (copyright 2009, Gaussian, Inc.),
 the Gaussian(R) 03 system (copyright 2003, Gaussian, Inc.),
 the Gaussian(R) 98 system (copyright 1998, Gaussian, Inc.),
 the Gaussian(R) 94 system (copyright 1995, Gaussian, Inc.),
 the Gaussian 92(TM) system (copyright 1992, Gaussian, Inc.),
 the Gaussian 90(TM) system (copyright 1990, Gaussian, Inc.),
 the Gaussian 88(TM) system (copyright 1988, Gaussian, Inc.),
 the Gaussian 86(TM) system (copyright 1986, Carnegie Mellon
 University), and the Gaussian 82(TM) system (copyright 1983,
 Carnegie Mellon University). Gaussian is a federally registered
 trademark of Gaussian, Inc.
  
 This software contains proprietary and confidential information,
 including trade secrets, belonging to Gaussian, Inc.
  
 This software is provided under written license and may be
 used, copied, transmitted, or stored only in accord with that
 written license.
  
 The following legend is applicable only to US Government
 contracts under FAR:
  
                    RESTRICTED RIGHTS LEGEND
  
 Use, reproduction and disclosure by the US Government is
 subject to restrictions as set forth in subparagraphs (a)
 and (c) of the Commercial Computer Software - Restricted
 Rights clause in FAR 52.227-19.
  
 Gaussian, Inc.
 340 Quinnipiac St., Bldg. 40, Wallingford CT 06492
  
  
 ---------------------------------------------------------------
 Warning -- This program may not be used in any manner that
 competes with the business of Gaussian, Inc. or will provide
 assistance to any competitor of Gaussian, Inc.  The licensee
 of this program is prohibited from giving any competitor of
 Gaussian, Inc. access to this program.  By using this program,
 the user acknowledges that Gaussian, Inc. is engaged in the
 business of creating and licensing software in the field of
 computational chemistry and represents and warrants to the
 licensee that it is not a competitor of Gaussian, Inc. and that
 it will not use this program in any manner prohibited above.
 ---------------------------------------------------------------
  

 Cite this work as:
 Gaussian 16, Revision A.03,
 M. J. Frisch, G. W. Trucks, H. B. Schlegel, G. E. Scuseria, 
 M. A. Robb, J. R. Cheeseman, G. Scalmani, V. Barone, 
 G. A. Petersson, H. Nakatsuji, X. Li, M. Caricato, A. V. Marenich, 
 J. Bloino, B. G. Janesko, R. Gomperts, B. Mennucci, H. P. Hratchian, 
 J. V. Ortiz, A. F. Izmaylov, J. L. Sonnenberg, D. Williams-Young, 
 F. Ding, F. Lipparini, F. Egidi, J. Goings, B. Peng, A. Petrone, 
 T. Henderson, D. Ranasinghe, V. G. Zakrzewski, J. Gao, N. Rega, 
 G. Zheng, W. Liang, M. Hada, M. Ehara, K. Toyota, R. Fukuda, 
 J. Hasegawa, M. Ishida, T. Nakajima, Y. Honda, O. Kitao, H. Nakai, 
 T. Vreven, K. Throssell, J. A. Montgomery, Jr., J. E. Peralta, 
 F. Ogliaro, M. J. Bearpark, J. J. Heyd, E. N. Brothers, K. N. Kudin, 
 V. N. Staroverov, T. A. Keith, R. Kobayashi, J. Normand, 
 K. Raghavachari, A. P. Rendell, J. C. Burant, S. S. Iyengar, 
 J. Tomasi, M. Cossi, J. M. Millam, M. Klene, C. Adamo, R. Cammi, 
 J. W. Ochterski, R. L. Martin, K. Morokuma, O. Farkas, 
 J. B. Foresman, and D. J. Fox, Gaussian, Inc., Wallingford CT, 2016.
 
 ******************************************
 Gaussian 16:  ES64L-G16RevA.03 25-Dec-2016
                 5-May-2022 
 ******************************************
 %nproc=24
 Will use up to   24 processors via shared memory.
 %mem=75GB
 ---------------------------------
 #p PBE1PBE/Def2SVP td=(nstates=5)
 ---------------------------------
 1/38=1,172=1/1;
 2/12=2,17=6,18=5,40=1/2;
 3/5=43,7=101,11=9,25=1,30=1,74=-13/1,2,3,8;
 4//1;
 5/5=2,38=5/2;
 8/6=1,10=1,108=5/1;
 9/41=5,42=1,70=2/14;
 6/7=2,8=2,9=2,10=2/1;
 99/5=1,9=1/99;
 Leave Link    1 at Thu May  5 10:11:35 2022, MaxMem= 10066329600 cpu:               1.9 elap:               0.1
 (Enter /sw/apps/gaussian-16.0/g16/l101.exe)
 ----------------------------------------------------
 step_801_chromophore_5 TDDFT with PBE1PBE functional
 ----------------------------------------------------
 Symbolic Z-matrix:
 Charge =  0 Multiplicity = 1
 Mg                    25.372   -5.769     46.487 
 C                     27.132   -2.888     45.595 
 C                     22.792   -4.846     44.472 
 C                     23.983   -8.829     46.766 
 C                     28.235   -6.842     48.04 
 N                     24.976   -4.042     45.276 
 C                     25.931   -3.042     44.966 
 C                     25.444   -2.12      43.802 
 C                     23.871   -2.577     43.688 
 C                     23.823   -3.881     44.536 
 C                     22.98    -1.51      44.316 
 C                     26.227   -2.197     42.435 
 C                     26.407   -1.01      41.522 
 C                     25.552   -1.04      40.226 
 O                     24.295   -0.923     40.163 
 O                     26.361   -1.228     39.14 
 N                     23.574   -6.691     45.798 
 C                     22.572   -6.106     45.048 
 C                     21.503   -7.031     44.874 
 C                     21.798   -8.183     45.638 
 C                     23.123   -7.893     46.183 
 C                     20.214   -6.79      43.993 
 C                     20.905   -9.316     45.764 
 O                     19.878   -9.35      45.144 
 C                     21.278   -10.462    46.668 
 N                     26.064   -7.608     47.171 
 C                     25.265   -8.747     47.234 
 C                     25.9     -9.874     48.029 
 C                     27.343   -9.238     48.365 
 C                     27.243   -7.839     47.853 
 C                     25.093   -10.504    49.282 
 C                     28.536   -10.052    47.805 
 C                     29.525   -10.774    48.716 
 N                     27.257   -5.024     46.885 
 C                     28.339   -5.551     47.527 
 C                     29.47    -4.674     47.549 
 C                     28.985   -3.603     46.768 
 C                     27.617   -3.84      46.453 
 C                     30.829   -4.871     48.171 
 C                     29.415   -2.287     46.205 
 O                     30.399   -1.637     46.342 
 C                     28.24    -1.88      45.289 
 C                     27.86    -0.535     45.638 
 O                     28.234    0.43      45.009 
 O                     27.114   -0.583     46.802 
 C                     26.551    0.655     47.268 
 C                     25.616   -1.228     37.851 
 C                     24.822   -2.466     37.709 
 C                     25.162   -3.705     37.396 
 C                     26.59    -4.151     37.587 
 C                     24.119   -4.766     37.263 
 C                     23.468   -4.629     35.917 
 C                     23.781   -5.936     35.215 
 C                     22.929   -5.903     33.901 
 C                     21.863   -7.088     33.88 
 C                     23.854   -6.049     32.718 
 C                     23.973   -4.749     31.889 
 C                     25.34    -4.752     31.106 
 C                     25.422   -4.088     29.713 
 C                     26.699   -3.227     29.559 
 C                     24.931   -4.957     28.498 
 C                     23.515   -4.644     28.076 
 C                     23.504   -3.536     27.005 
 C                     22.858   -3.986     25.684 
 C                     23.911   -4.569     24.676 
 C                     22.066   -2.861     24.992 
 H                     21.914   -4.64      43.856 
 H                     23.692   -9.88      46.824 
 H                     29.136   -7.123     48.59 
 H                     25.561   -1.095     44.153 
 H                     23.488   -2.708     42.676 
 H                     23.469   -0.54      44.222 
 H                     22.815   -1.607     45.389 
 H                     22.092   -1.405     43.694 
 H                     25.775   -3.037     41.907 
 H                     27.192   -2.624     42.708 
 H                     27.454   -1.022     41.22 
 H                     26.223   -0.146     42.16 
 H                     19.998   -7.53      43.222 
 H                     20.355   -5.896     43.386 
 H                     19.402   -6.662     44.71 
 H                     21.497   -10.042    47.65 
 H                     22.036   -11.159    46.31 
 H                     20.468   -11.165    46.86 
 H                     25.921   -10.668    47.283 
 H                     27.532   -9.229     49.439 
 H                     25.431   -9.985     50.179 
 H                     25.312   -11.572    49.317 
 H                     24.052   -10.203    49.165 
 H                     29.261   -9.431     47.279 
 H                     28.162   -10.794    47.1 
 H                     29.082   -10.943    49.698 
 H                     30.307   -10.05     48.94 
 H                     29.932   -11.641    48.195 
 H                     31.427   -3.963     48.103 
 H                     31.323   -5.745     47.748 
 H                     30.777   -5.138     49.227 
 H                     28.503   -1.854     44.232 
 H                     25.488    0.48      47.437 
 H                     26.584    1.433     46.504 
 H                     27.061    1.047     48.148 
 H                     26.281   -1.153     36.991 
 H                     24.893   -0.419     37.75 
 H                     23.764   -2.204     37.71 
 H                     27.063   -4.417     36.642 
 H                     26.61    -5.018     38.247 
 H                     27.171   -3.384     38.099 
 H                     23.449   -4.581     38.103 
 H                     24.505   -5.752     37.52 
 H                     23.892   -3.809     35.339 
 H                     22.402   -4.556     36.135 
 H                     23.607   -6.854     35.776 
 H                     24.838   -5.906     34.948 
 H                     22.264   -5.042     33.842 
 H                     21.467   -7.198     32.871 
 H                     20.982   -6.739     34.42 
 H                     22.402   -7.991     34.165 
 H                     23.521   -6.877     32.092 
 H                     24.885   -6.391     32.799 
 H                     23.987   -3.965     32.646 
 H                     23.162   -4.631     31.17 
 H                     25.426   -5.8       30.817 
 H                     26.228   -4.415     31.64 
 H                     24.66    -3.323     29.862 
 H                     26.578   -2.248     30.024 
 H                     27.043   -3.199     28.525 
 H                     27.452   -3.573     30.267 
 H                     25.105   -6.033     28.533 
 H                     25.582   -4.76      27.646 
 H                     22.883   -4.486     28.95 
 H                     23.1     -5.57      27.679 
 H                     24.51    -3.165     26.811 
 H                     22.843   -2.745     27.36 
 H                     22.141   -4.794     25.825 
 H                     23.574   -5.376     24.025 
 H                     24.778   -4.8       25.294 
 H                     24.142   -3.715     24.039 
 H                     21.055   -2.841     25.398 
 H                     22.05    -3.053     23.92 
 H                     22.584   -1.912     25.135 
 
 ITRead=  0  0  0  0  0  0  0  0  0  0  0  0  0  0  0  0  0  0  0  0
 ITRead=  0  0  0  0  0  0  0  0  0  0  0  0  0  0  0  0  0  0  0  0
 ITRead=  0  0  0  0  0  0  0  0  0  0  0  0  0  0  0  0  0  0  0  0
 ITRead=  0  0  0  0  0  0  0  0  0  0  0  0  0  0  0  0  0  0  0  0
 ITRead=  0  0  0  0  0  0  0  0  0  0  0  0  0  0  0  0  0  0  0  0
 ITRead=  0  0  0  0  0  0  0  0  0  0  0  0  0  0  0  0  0  0  0  0
 ITRead=  0  0  0  0  0  0  0  0  0  0  0  0  0  0  0  0  0  0  0  0
 MicOpt= -1 -1 -1 -1 -1 -1 -1 -1 -1 -1 -1 -1 -1 -1 -1 -1 -1 -1 -1 -1
 MicOpt= -1 -1 -1 -1 -1 -1 -1 -1 -1 -1 -1 -1 -1 -1 -1 -1 -1 -1 -1 -1
 MicOpt= -1 -1 -1 -1 -1 -1 -1 -1 -1 -1 -1 -1 -1 -1 -1 -1 -1 -1 -1 -1
 MicOpt= -1 -1 -1 -1 -1 -1 -1 -1 -1 -1 -1 -1 -1 -1 -1 -1 -1 -1 -1 -1
 MicOpt= -1 -1 -1 -1 -1 -1 -1 -1 -1 -1 -1 -1 -1 -1 -1 -1 -1 -1 -1 -1
 MicOpt= -1 -1 -1 -1 -1 -1 -1 -1 -1 -1 -1 -1 -1 -1 -1 -1 -1 -1 -1 -1
 MicOpt= -1 -1 -1 -1 -1 -1 -1 -1 -1 -1 -1 -1 -1 -1 -1 -1 -1 -1 -1 -1
 NAtoms=    140 NQM=      140 NQMF=       0 NMMI=      0 NMMIF=      0
                NMic=       0 NMicF=      0.
                    Isotopes and Nuclear Properties:
 (Nuclear quadrupole moments (NQMom) in fm**2, nuclear magnetic moments (NMagM)
  in nuclear magnetons)

  Atom         1           2           3           4           5           6           7           8           9          10
 IAtWgt=          24          12          12          12          12          14          12          12          12          12
 AtmWgt=  23.9850450  12.0000000  12.0000000  12.0000000  12.0000000  14.0030740  12.0000000  12.0000000  12.0000000  12.0000000
 NucSpn=           0           0           0           0           0           2           0           0           0           0
 AtZEff=  -0.0000000  -0.0000000  -0.0000000  -0.0000000  -0.0000000  -0.0000000  -0.0000000  -0.0000000  -0.0000000  -0.0000000
 NQMom=    0.0000000   0.0000000   0.0000000   0.0000000   0.0000000   2.0440000   0.0000000   0.0000000   0.0000000   0.0000000
 NMagM=    0.0000000   0.0000000   0.0000000   0.0000000   0.0000000   0.4037610   0.0000000   0.0000000   0.0000000   0.0000000
 AtZNuc=  12.0000000   6.0000000   6.0000000   6.0000000   6.0000000   7.0000000   6.0000000   6.0000000   6.0000000   6.0000000

  Atom        11          12          13          14          15          16          17          18          19          20
 IAtWgt=          12          12          12          12          16          16          14          12          12          12
 AtmWgt=  12.0000000  12.0000000  12.0000000  12.0000000  15.9949146  15.9949146  14.0030740  12.0000000  12.0000000  12.0000000
 NucSpn=           0           0           0           0           0           0           2           0           0           0
 AtZEff=  -0.0000000  -0.0000000  -0.0000000  -0.0000000  -0.0000000  -0.0000000  -0.0000000  -0.0000000  -0.0000000  -0.0000000
 NQMom=    0.0000000   0.0000000   0.0000000   0.0000000   0.0000000   0.0000000   2.0440000   0.0000000   0.0000000   0.0000000
 NMagM=    0.0000000   0.0000000   0.0000000   0.0000000   0.0000000   0.0000000   0.4037610   0.0000000   0.0000000   0.0000000
 AtZNuc=   6.0000000   6.0000000   6.0000000   6.0000000   8.0000000   8.0000000   7.0000000   6.0000000   6.0000000   6.0000000

  Atom        21          22          23          24          25          26          27          28          29          30
 IAtWgt=          12          12          12          16          12          14          12          12          12          12
 AtmWgt=  12.0000000  12.0000000  12.0000000  15.9949146  12.0000000  14.0030740  12.0000000  12.0000000  12.0000000  12.0000000
 NucSpn=           0           0           0           0           0           2           0           0           0           0
 AtZEff=  -0.0000000  -0.0000000  -0.0000000  -0.0000000  -0.0000000  -0.0000000  -0.0000000  -0.0000000  -0.0000000  -0.0000000
 NQMom=    0.0000000   0.0000000   0.0000000   0.0000000   0.0000000   2.0440000   0.0000000   0.0000000   0.0000000   0.0000000
 NMagM=    0.0000000   0.0000000   0.0000000   0.0000000   0.0000000   0.4037610   0.0000000   0.0000000   0.0000000   0.0000000
 AtZNuc=   6.0000000   6.0000000   6.0000000   8.0000000   6.0000000   7.0000000   6.0000000   6.0000000   6.0000000   6.0000000

  Atom        31          32          33          34          35          36          37          38          39          40
 IAtWgt=          12          12          12          14          12          12          12          12          12          12
 AtmWgt=  12.0000000  12.0000000  12.0000000  14.0030740  12.0000000  12.0000000  12.0000000  12.0000000  12.0000000  12.0000000
 NucSpn=           0           0           0           2           0           0           0           0           0           0
 AtZEff=  -0.0000000  -0.0000000  -0.0000000  -0.0000000  -0.0000000  -0.0000000  -0.0000000  -0.0000000  -0.0000000  -0.0000000
 NQMom=    0.0000000   0.0000000   0.0000000   2.0440000   0.0000000   0.0000000   0.0000000   0.0000000   0.0000000   0.0000000
 NMagM=    0.0000000   0.0000000   0.0000000   0.4037610   0.0000000   0.0000000   0.0000000   0.0000000   0.0000000   0.0000000
 AtZNuc=   6.0000000   6.0000000   6.0000000   7.0000000   6.0000000   6.0000000   6.0000000   6.0000000   6.0000000   6.0000000

  Atom        41          42          43          44          45          46          47          48          49          50
 IAtWgt=          16          12          12          16          16          12          12          12          12          12
 AtmWgt=  15.9949146  12.0000000  12.0000000  15.9949146  15.9949146  12.0000000  12.0000000  12.0000000  12.0000000  12.0000000
 NucSpn=           0           0           0           0           0           0           0           0           0           0
 AtZEff=  -0.0000000  -0.0000000  -0.0000000  -0.0000000  -0.0000000  -0.0000000  -0.0000000  -0.0000000  -0.0000000  -0.0000000
 NQMom=    0.0000000   0.0000000   0.0000000   0.0000000   0.0000000   0.0000000   0.0000000   0.0000000   0.0000000   0.0000000
 NMagM=    0.0000000   0.0000000   0.0000000   0.0000000   0.0000000   0.0000000   0.0000000   0.0000000   0.0000000   0.0000000
 AtZNuc=   8.0000000   6.0000000   6.0000000   8.0000000   8.0000000   6.0000000   6.0000000   6.0000000   6.0000000   6.0000000

  Atom        51          52          53          54          55          56          57          58          59          60
 IAtWgt=          12          12          12          12          12          12          12          12          12          12
 AtmWgt=  12.0000000  12.0000000  12.0000000  12.0000000  12.0000000  12.0000000  12.0000000  12.0000000  12.0000000  12.0000000
 NucSpn=           0           0           0           0           0           0           0           0           0           0
 AtZEff=  -0.0000000  -0.0000000  -0.0000000  -0.0000000  -0.0000000  -0.0000000  -0.0000000  -0.0000000  -0.0000000  -0.0000000
 NQMom=    0.0000000   0.0000000   0.0000000   0.0000000   0.0000000   0.0000000   0.0000000   0.0000000   0.0000000   0.0000000
 NMagM=    0.0000000   0.0000000   0.0000000   0.0000000   0.0000000   0.0000000   0.0000000   0.0000000   0.0000000   0.0000000
 AtZNuc=   6.0000000   6.0000000   6.0000000   6.0000000   6.0000000   6.0000000   6.0000000   6.0000000   6.0000000   6.0000000

  Atom        61          62          63          64          65          66          67          68          69          70
 IAtWgt=          12          12          12          12          12          12           1           1           1           1
 AtmWgt=  12.0000000  12.0000000  12.0000000  12.0000000  12.0000000  12.0000000   1.0078250   1.0078250   1.0078250   1.0078250
 NucSpn=           0           0           0           0           0           0           1           1           1           1
 AtZEff=  -0.0000000  -0.0000000  -0.0000000  -0.0000000  -0.0000000  -0.0000000  -0.0000000  -0.0000000  -0.0000000  -0.0000000
 NQMom=    0.0000000   0.0000000   0.0000000   0.0000000   0.0000000   0.0000000   0.0000000   0.0000000   0.0000000   0.0000000
 NMagM=    0.0000000   0.0000000   0.0000000   0.0000000   0.0000000   0.0000000   2.7928460   2.7928460   2.7928460   2.7928460
 AtZNuc=   6.0000000   6.0000000   6.0000000   6.0000000   6.0000000   6.0000000   1.0000000   1.0000000   1.0000000   1.0000000

  Atom        71          72          73          74          75          76          77          78          79          80
 IAtWgt=           1           1           1           1           1           1           1           1           1           1
 AtmWgt=   1.0078250   1.0078250   1.0078250   1.0078250   1.0078250   1.0078250   1.0078250   1.0078250   1.0078250   1.0078250
 NucSpn=           1           1           1           1           1           1           1           1           1           1
 AtZEff=  -0.0000000  -0.0000000  -0.0000000  -0.0000000  -0.0000000  -0.0000000  -0.0000000  -0.0000000  -0.0000000  -0.0000000
 NQMom=    0.0000000   0.0000000   0.0000000   0.0000000   0.0000000   0.0000000   0.0000000   0.0000000   0.0000000   0.0000000
 NMagM=    2.7928460   2.7928460   2.7928460   2.7928460   2.7928460   2.7928460   2.7928460   2.7928460   2.7928460   2.7928460
 AtZNuc=   1.0000000   1.0000000   1.0000000   1.0000000   1.0000000   1.0000000   1.0000000   1.0000000   1.0000000   1.0000000

  Atom        81          82          83          84          85          86          87          88          89          90
 IAtWgt=           1           1           1           1           1           1           1           1           1           1
 AtmWgt=   1.0078250   1.0078250   1.0078250   1.0078250   1.0078250   1.0078250   1.0078250   1.0078250   1.0078250   1.0078250
 NucSpn=           1           1           1           1           1           1           1           1           1           1
 AtZEff=  -0.0000000  -0.0000000  -0.0000000  -0.0000000  -0.0000000  -0.0000000  -0.0000000  -0.0000000  -0.0000000  -0.0000000
 NQMom=    0.0000000   0.0000000   0.0000000   0.0000000   0.0000000   0.0000000   0.0000000   0.0000000   0.0000000   0.0000000
 NMagM=    2.7928460   2.7928460   2.7928460   2.7928460   2.7928460   2.7928460   2.7928460   2.7928460   2.7928460   2.7928460
 AtZNuc=   1.0000000   1.0000000   1.0000000   1.0000000   1.0000000   1.0000000   1.0000000   1.0000000   1.0000000   1.0000000

  Atom        91          92          93          94          95          96          97          98          99         100
 IAtWgt=           1           1           1           1           1           1           1           1           1           1
 AtmWgt=   1.0078250   1.0078250   1.0078250   1.0078250   1.0078250   1.0078250   1.0078250   1.0078250   1.0078250   1.0078250
 NucSpn=           1           1           1           1           1           1           1           1           1           1
 AtZEff=  -0.0000000  -0.0000000  -0.0000000  -0.0000000  -0.0000000  -0.0000000  -0.0000000  -0.0000000  -0.0000000  -0.0000000
 NQMom=    0.0000000   0.0000000   0.0000000   0.0000000   0.0000000   0.0000000   0.0000000   0.0000000   0.0000000   0.0000000
 NMagM=    2.7928460   2.7928460   2.7928460   2.7928460   2.7928460   2.7928460   2.7928460   2.7928460   2.7928460   2.7928460
 AtZNuc=   1.0000000   1.0000000   1.0000000   1.0000000   1.0000000   1.0000000   1.0000000   1.0000000   1.0000000   1.0000000

  Atom       101         102         103         104         105         106         107         108         109         110
 IAtWgt=           1           1           1           1           1           1           1           1           1           1
 AtmWgt=   1.0078250   1.0078250   1.0078250   1.0078250   1.0078250   1.0078250   1.0078250   1.0078250   1.0078250   1.0078250
 NucSpn=           1           1           1           1           1           1           1           1           1           1
 AtZEff=  -0.0000000  -0.0000000  -0.0000000  -0.0000000  -0.0000000  -0.0000000  -0.0000000  -0.0000000  -0.0000000  -0.0000000
 NQMom=    0.0000000   0.0000000   0.0000000   0.0000000   0.0000000   0.0000000   0.0000000   0.0000000   0.0000000   0.0000000
 NMagM=    2.7928460   2.7928460   2.7928460   2.7928460   2.7928460   2.7928460   2.7928460   2.7928460   2.7928460   2.7928460
 AtZNuc=   1.0000000   1.0000000   1.0000000   1.0000000   1.0000000   1.0000000   1.0000000   1.0000000   1.0000000   1.0000000

  Atom       111         112         113         114         115         116         117         118         119         120
 IAtWgt=           1           1           1           1           1           1           1           1           1           1
 AtmWgt=   1.0078250   1.0078250   1.0078250   1.0078250   1.0078250   1.0078250   1.0078250   1.0078250   1.0078250   1.0078250
 NucSpn=           1           1           1           1           1           1           1           1           1           1
 AtZEff=  -0.0000000  -0.0000000  -0.0000000  -0.0000000  -0.0000000  -0.0000000  -0.0000000  -0.0000000  -0.0000000  -0.0000000
 NQMom=    0.0000000   0.0000000   0.0000000   0.0000000   0.0000000   0.0000000   0.0000000   0.0000000   0.0000000   0.0000000
 NMagM=    2.7928460   2.7928460   2.7928460   2.7928460   2.7928460   2.7928460   2.7928460   2.7928460   2.7928460   2.7928460
 AtZNuc=   1.0000000   1.0000000   1.0000000   1.0000000   1.0000000   1.0000000   1.0000000   1.0000000   1.0000000   1.0000000

  Atom       121         122         123         124         125         126         127         128         129         130
 IAtWgt=           1           1           1           1           1           1           1           1           1           1
 AtmWgt=   1.0078250   1.0078250   1.0078250   1.0078250   1.0078250   1.0078250   1.0078250   1.0078250   1.0078250   1.0078250
 NucSpn=           1           1           1           1           1           1           1           1           1           1
 AtZEff=  -0.0000000  -0.0000000  -0.0000000  -0.0000000  -0.0000000  -0.0000000  -0.0000000  -0.0000000  -0.0000000  -0.0000000
 NQMom=    0.0000000   0.0000000   0.0000000   0.0000000   0.0000000   0.0000000   0.0000000   0.0000000   0.0000000   0.0000000
 NMagM=    2.7928460   2.7928460   2.7928460   2.7928460   2.7928460   2.7928460   2.7928460   2.7928460   2.7928460   2.7928460
 AtZNuc=   1.0000000   1.0000000   1.0000000   1.0000000   1.0000000   1.0000000   1.0000000   1.0000000   1.0000000   1.0000000

  Atom       131         132         133         134         135         136         137         138         139         140
 IAtWgt=           1           1           1           1           1           1           1           1           1           1
 AtmWgt=   1.0078250   1.0078250   1.0078250   1.0078250   1.0078250   1.0078250   1.0078250   1.0078250   1.0078250   1.0078250
 NucSpn=           1           1           1           1           1           1           1           1           1           1
 AtZEff=  -0.0000000  -0.0000000  -0.0000000  -0.0000000  -0.0000000  -0.0000000  -0.0000000  -0.0000000  -0.0000000  -0.0000000
 NQMom=    0.0000000   0.0000000   0.0000000   0.0000000   0.0000000   0.0000000   0.0000000   0.0000000   0.0000000   0.0000000
 NMagM=    2.7928460   2.7928460   2.7928460   2.7928460   2.7928460   2.7928460   2.7928460   2.7928460   2.7928460   2.7928460
 AtZNuc=   1.0000000   1.0000000   1.0000000   1.0000000   1.0000000   1.0000000   1.0000000   1.0000000   1.0000000   1.0000000
 Leave Link  101 at Thu May  5 10:11:36 2022, MaxMem= 10066329600 cpu:               4.6 elap:               0.2
 (Enter /sw/apps/gaussian-16.0/g16/l202.exe)
 Stoichiometry    C55H74MgN4O6
 Framework group  C1[X(C55H74MgN4O6)]
 Deg. of freedom   414
 Full point group                 C1      NOp   1
 Largest Abelian subgroup         C1      NOp   1
 Largest concise Abelian subgroup C1      NOp   1
                         Standard orientation:                         
 ---------------------------------------------------------------------
 Center     Atomic      Atomic             Coordinates (Angstroms)
 Number     Number       Type             X           Y           Z
 ---------------------------------------------------------------------
      1         12           0        5.297134    0.596974   -0.312773
      2          6           0        4.341792   -2.757674   -0.148203
      3          6           0        2.865596    1.201711   -2.612875
      4          6           0        5.717979    3.924892    0.031629
      5          6           0        7.327933   -0.016803    2.381488
      6          7           0        3.863449   -0.641602   -1.320910
      7          6           0        3.577685   -1.985467   -0.973790
      8          6           0        2.265568   -2.491074   -1.655596
      9          6           0        1.991685   -1.278261   -2.728092
     10          6           0        2.962219   -0.160542   -2.247892
     11          6           0        2.374595   -1.738044   -4.131207
     12          6           0        1.032661   -2.802342   -0.722451
     13          6           0        0.028550   -3.887622   -1.020556
     14          6           0       -1.359532   -3.386294   -1.503709
     15          8           0       -1.603130   -2.829034   -2.611784
     16          8           0       -2.300109   -3.622912   -0.540097
     17          7           0        4.477221    2.336963   -1.238942
     18          6           0        3.540337    2.377867   -2.253488
     19          6           0        3.325917    3.728353   -2.652077
     20          6           0        4.243262    4.539467   -1.946105
     21          6           0        4.926505    3.588524   -1.071100
     22          6           0        2.258847    4.215356   -3.710355
     23          6           0        4.370576    5.968663   -2.141563
     24          8           0        3.625660    6.547564   -2.883358
     25          6           0        5.435639    6.730759   -1.396907
     26          7           0        6.263674    1.788815    1.092203
     27          6           0        6.342213    3.175551    0.989799
     28          6           0        7.333040    3.787299    1.964174
     29          6           0        7.788667    2.484513    2.797716
     30          6           0        7.118876    1.355231    2.086768
     31          6           0        8.527283    4.716710    1.391341
     32          6           0        7.485797    2.569437    4.314457
     33          6           0        8.594404    2.648459    5.360436
     34          7           0        5.861347   -1.030734    0.826914
     35          6           0        6.696295   -1.160346    1.897744
     36          6           0        6.774546   -2.498734    2.399112
     37          6           0        5.823742   -3.141276    1.577322
     38          6           0        5.355504   -2.218399    0.599637
     39          6           0        7.591131   -3.053817    3.538255
     40          6           0        5.183924   -4.475020    1.364055
     41          8           0        5.380374   -5.545774    1.837784
     42          6           0        4.079648   -4.188252    0.323061
     43          6           0        4.226171   -5.145243   -0.743675
     44          8           0        3.551974   -6.148893   -0.813594
     45          8           0        5.277686   -4.741991   -1.547055
     46          6           0        5.526500   -5.514967   -2.733381
     47          6           0       -3.669783   -3.204704   -0.947084
     48          6           0       -3.781729   -1.731424   -0.959618
     49          6           0       -3.909686   -0.844807    0.013124
     50          6           0       -3.481288   -1.213591    1.411356
     51          6           0       -4.065449    0.607171   -0.301134
     52          6           0       -5.493532    0.860816   -0.689114
     53          6           0       -6.000874    1.828459    0.362214
     54          6           0       -7.413131    2.274904   -0.147499
     55          6           0       -7.448190    3.842061   -0.436998
     56          6           0       -8.438234    1.944193    0.909017
     57          6           0       -9.380083    0.792418    0.487429
     58          6           0       -9.967379    0.100013    1.774847
     59          6           0      -11.400587   -0.477046    1.743424
     60          6           0      -11.474341   -1.873887    2.406117
     61          6           0      -12.568806    0.548158    1.981514
     62          6           0      -13.208663    1.029434    0.700863
     63          6           0      -14.385464    0.114785    0.309222
     64          6           0      -15.724449    0.865902    0.220911
     65          6           0      -16.512493    0.837126    1.578453
     66          6           0      -16.634694    0.335375   -0.902365
     67          1           0        2.118546    1.498110   -3.352361
     68          1           0        5.850258    4.971735    0.313175
     69          1           0        8.021217   -0.259712    3.189952
     70          1           0        2.515594   -3.434397   -2.140513
     71          1           0        0.957703   -0.943498   -2.810609
     72          1           0        2.242255   -2.818243   -4.198398
     73          1           0        3.419840   -1.593933   -4.404446
     74          1           0        1.631270   -1.350149   -4.826518
     75          1           0        0.543195   -1.838013   -0.583953
     76          1           0        1.477576   -2.947735    0.261925
     77          1           0       -0.126981   -4.416514   -0.080534
     78          1           0        0.538332   -4.543238   -1.726024
     79          1           0        1.550864    4.976895   -3.382460
     80          1           0        1.582743    3.393280   -3.944108
     81          1           0        2.842091    4.513200   -4.582669
     82          1           0        6.386633    6.235732   -1.595007
     83          1           0        5.260589    6.938125   -0.341022
     84          1           0        5.592371    7.748398   -1.753303
     85          1           0        6.687382    4.470710    2.515053
     86          1           0        8.870921    2.353561    2.768453
     87          1           0        9.399778    4.077135    1.257512
     88          1           0        8.707254    5.512586    2.115222
     89          1           0        8.239510    5.005620    0.380555
     90          1           0        6.997585    1.673750    4.698300
     91          1           0        6.821818    3.413570    4.498945
     92          1           0        9.520505    3.001065    4.905310
     93          1           0        8.841372    1.617944    5.611279
     94          1           0        8.230140    3.187635    6.235296
     95          1           0        7.505778   -4.138583    3.590111
     96          1           0        7.335839   -2.556300    4.473211
     97          1           0        8.653286   -2.823258    3.449945
     98          1           0        3.071043   -4.323288    0.712386
     99          1           0        5.569208   -4.815177   -3.568621
    100          1           0        4.693860   -6.178167   -2.972013
    101          1           0        6.419156   -6.135540   -2.654526
    102          1           0       -4.435685   -3.595730   -0.277798
    103          1           0       -3.954302   -3.515294   -1.952069
    104          1           0       -3.951321   -1.403098   -1.985020
    105          1           0       -4.319634   -1.211682    2.107546
    106          1           0       -2.734291   -0.499734    1.757900
    107          1           0       -2.982321   -2.182571    1.421566
    108          1           0       -3.348178    0.779509   -1.103971
    109          1           0       -3.653300    1.240902    0.483569
    110          1           0       -6.095019   -0.046414   -0.651597
    111          1           0       -5.429920    1.349523   -1.661908
    112          1           0       -5.371902    2.689275    0.588293
    113          1           0       -6.125154    1.257724    1.283221
    114          1           0       -7.654144    1.888747   -1.137359
    115          1           0       -8.483245    4.165625   -0.541705
    116          1           0       -7.072572    3.991472   -1.449988
    117          1           0       -6.996934    4.324559    0.429443
    118          1           0       -9.009547    2.838475    1.158436
    119          1           0       -8.182805    1.696295    1.938477
    120          1           0       -8.717802    0.099028   -0.030737
    121          1           0      -10.210020    1.131297   -0.133031
    122          1           0      -10.126572    0.955650    2.431935
    123          1           0       -9.358772   -0.662843    2.259531
    124          1           0      -11.439321   -0.735516    0.685236
    125          1           0      -11.138996   -2.656466    1.724634
    126          1           0      -12.449631   -2.053403    2.858731
    127          1           0      -10.638246   -1.987800    3.096014
    128          1           0      -12.394010    1.374328    2.671563
    129          1           0      -13.341969    0.060196    2.575337
    130          1           0      -12.449865    1.204199   -0.061991
    131          1           0      -13.554782    2.044802    0.892017
    132          1           0      -14.481755   -0.721870    1.000633
    133          1           0      -14.210557   -0.223277   -0.712419
    134          1           0      -15.594047    1.925764    0.005224
    135          1           0      -17.111250    1.716158    1.818059
    136          1           0      -15.762233    0.567741    2.321094
    137          1           0      -17.201711    0.002916    1.446095
    138          1           0      -16.372761    0.836276   -1.833948
    139          1           0      -17.671852    0.532133   -0.634233
    140          1           0      -16.527421   -0.747489   -0.974982
 ---------------------------------------------------------------------
 Rotational constants (GHZ):           0.0404505           0.0101253           0.0091110
 Leave Link  202 at Thu May  5 10:11:36 2022, MaxMem= 10066329600 cpu:               1.8 elap:               0.1
 (Enter /sw/apps/gaussian-16.0/g16/l301.exe)
 Standard basis: def2SVP (5D, 7F)
 Ernie: Thresh=  0.10000D-02 Tol=  0.10000D-05 Strict=F.
 There are  1364 symmetry adapted cartesian basis functions of A   symmetry.
 There are  1298 symmetry adapted basis functions of A   symmetry.
  1298 basis functions,  2180 primitive gaussians,  1364 cartesian basis functions
   246 alpha electrons      246 beta electrons
       nuclear repulsion energy      9598.6141500058 Hartrees.
 IExCor= 1009 DFT=T Ex+Corr=PBE1PBE ExCW=0 ScaHFX=  0.250000
 ScaDFX=  0.750000  0.750000  1.000000  1.000000 ScalE2=  1.000000  1.000000
 IRadAn=      5 IRanWt=     -1 IRanGd=            0 ICorTp=0 IEmpDi=  4
 NAtoms=  140 NActive=  140 NUniq=  140 SFac= 1.00D+00 NAtFMM=   60 NAOKFM=T Big=T
 Integral buffers will be    131072 words long.
 Regular integral format.
 Two-electron integral symmetry is turned on.
 Leave Link  301 at Thu May  5 10:11:36 2022, MaxMem= 10066329600 cpu:               2.2 elap:               0.1
 (Enter /sw/apps/gaussian-16.0/g16/l302.exe)
 NPDir=0 NMtPBC=     1 NCelOv=     1 NCel=       1 NClECP=     1 NCelD=      1
         NCelK=      1 NCelE2=     1 NClLst=     1 CellRange=     0.0.
 One-electron integrals computed using PRISM.
 One-electron integral symmetry used in STVInt
   1 Symmetry operations used in ECPInt.
 ECPInt:  NShTT=  192510 NPrTT=  683786 LenC2=   95778 LenP2D=  209336.
 LDataN:  DoStor=T MaxTD1= 4 Len=   56
 NBasis=  1298 RedAO= T EigKep=  2.88D-04  NBF=  1298
 NBsUse=  1298 1.00D-06 EigRej= -1.00D+00 NBFU=  1298
 Precomputing XC quadrature grid using
 IXCGrd= 4 IRadAn=           5 IRanWt=          -1 IRanGd=           0 AccXCQ= 0.00D+00.
 Generated NRdTot=       0 NPtTot=           0 NUsed=           0 NTot=          32
 NSgBfM=   989   989   989   989   989 MxSgAt=   140 MxSgA2=   140.
 Leave Link  302 at Thu May  5 10:11:40 2022, MaxMem= 10066329600 cpu:              97.0 elap:               4.1
 (Enter /sw/apps/gaussian-16.0/g16/l303.exe)
 DipDrv:  MaxL=1.
 Leave Link  303 at Thu May  5 10:11:41 2022, MaxMem= 10066329600 cpu:              10.8 elap:               0.5
 (Enter /sw/apps/gaussian-16.0/g16/l308.exe)
 Leave Link  308 at Thu May  5 10:11:41 2022, MaxMem= 10066329600 cpu:               8.4 elap:               0.4
 (Enter /sw/apps/gaussian-16.0/g16/l401.exe)
 ExpMin= 3.36D-02 ExpMax= 4.95D+03 ExpMxC= 7.45D+02 IAcc=3 IRadAn=         5 AccDes= 0.00D+00
 Harris functional with IExCor= 1009 and IRadAn=       5 diagonalized for initial guess.
 HarFok:  IExCor= 1009 AccDes= 0.00D+00 IRadAn=         5 IDoV= 1 UseB2=F ITyADJ=14
 ICtDFT=  3500011 ScaDFX=  1.000000  1.000000  1.000000  1.000000
 FoFCou: FMM=F IPFlag=           0 FMFlag=      100000 FMFlg1=        2001
         NFxFlg=           0 DoJE=T BraDBF=F KetDBF=T FulRan=T
         wScrn=  0.000000 ICntrl=       500 IOpCl=  0 I1Cent=   200000004 NGrid=           0
         NMat0=    1 NMatS0=      1 NMatT0=    0 NMatD0=    1 NMtDS0=    0 NMtDT0=    0
 Petite list used in FoFCou.
 Harris En= -3006.15330915604    
 JPrj=0 DoOrth=F DoCkMO=F.
 Leave Link  401 at Thu May  5 10:11:47 2022, MaxMem= 10066329600 cpu:             153.9 elap:               6.4
 (Enter /sw/apps/gaussian-16.0/g16/l502.exe)
 Integral symmetry usage will be decided dynamically.
 Closed shell SCF:
 Using DIIS extrapolation, IDIIS=  1040.
 NGot= 10066329600 LenX= 10062561258 LenY= 10060699398
 Requested convergence on RMS density matrix=1.00D-08 within 128 cycles.
 Requested convergence on MAX density matrix=1.00D-06.
 Requested convergence on             energy=1.00D-06.
 No special actions if energy rises.
 Fock matrices will be formed incrementally for  20 cycles.

 Cycle   1  Pass 1  IDiag  1:
 FoFJK:  IHMeth= 1 ICntrl=       0 DoSepK=F KAlg= 0 I1Cent=           0 FoldK=F
 IRaf= 520000000 NMat=       1 IRICut=       1 DoRegI=T DoRafI=F ISym2E= 0 IDoP0=0 IntGTp=1.
 FoFCou: FMM=T IPFlag=           0 FMFlag=      100000 FMFlg1=        2001
         NFxFlg=           0 DoJE=F BraDBF=F KetDBF=F FulRan=T
         wScrn=  0.000000 ICntrl=         0 IOpCl=  0 I1Cent=           0 NGrid=           0
         NMat0=    1 NMatS0=      1 NMatT0=    0 NMatD0=    1 NMtDS0=    0 NMtDT0=    0
 Symmetry not used in FoFCou.
 FMM levels:  10  Number of levels for PrismC:   9
 E= -3003.78058550140    
 DIIS: error= 2.06D-02 at cycle   1 NSaved=   1.
 NSaved= 1 IEnMin= 1 EnMin= -3003.78058550140     IErMin= 1 ErrMin= 2.06D-02
 ErrMax= 2.06D-02  0.00D+00 EMaxC= 1.00D-01 BMatC= 1.47D+00 BMatP= 1.47D+00
 IDIUse=3 WtCom= 7.94D-01 WtEn= 2.06D-01
 Coeff-Com:  0.100D+01
 Coeff-En:   0.100D+01
 Coeff:      0.100D+01
 Gap=     0.086 Goal=   None    Shift=    0.000
 GapD=    0.086 DampG=0.500 DampE=0.500 DampFc=0.2500 IDamp=-1.
 Damping current iteration by 2.50D-01
 RMSDP=2.82D-03 MaxDP=8.61D-01              OVMax= 2.27D-01

 Cycle   2  Pass 1  IDiag  1:
 RMSU=  6.98D-04    CP:  9.90D-01
 E= -3004.33567771940     Delta-E=       -0.555092217997 Rises=F Damp=T
 DIIS: error= 9.81D-03 at cycle   2 NSaved=   2.
 NSaved= 2 IEnMin= 2 EnMin= -3004.33567771940     IErMin= 2 ErrMin= 9.81D-03
 ErrMax= 9.81D-03  0.00D+00 EMaxC= 1.00D-01 BMatC= 3.71D-01 BMatP= 1.47D+00
 IDIUse=3 WtCom= 9.02D-01 WtEn= 9.81D-02
 Coeff-Com: -0.783D+00 0.178D+01
 Coeff-En:   0.000D+00 0.100D+01
 Coeff:     -0.706D+00 0.171D+01
 Gap=     0.187 Goal=   None    Shift=    0.000
 RMSDP=1.01D-03 MaxDP=7.36D-02 DE=-5.55D-01 OVMax= 2.12D-01

 Cycle   3  Pass 1  IDiag  1:
 RMSU=  8.42D-04    CP:  9.64D-01  1.71D+00
 E= -3005.17617161372     Delta-E=       -0.840493894315 Rises=F Damp=F
 DIIS: error= 1.55D-02 at cycle   3 NSaved=   3.
 NSaved= 3 IEnMin= 3 EnMin= -3005.17617161372     IErMin= 2 ErrMin= 9.81D-03
 ErrMax= 1.55D-02  0.00D+00 EMaxC= 1.00D-01 BMatC= 1.76D-01 BMatP= 3.71D-01
 IDIUse=3 WtCom= 8.45D-01 WtEn= 1.55D-01
 Coeff-Com: -0.505D+00 0.107D+01 0.437D+00
 Coeff-En:   0.000D+00 0.000D+00 0.100D+01
 Coeff:     -0.427D+00 0.903D+00 0.524D+00
 Gap=     0.076 Goal=   None    Shift=    0.000
 RMSDP=6.09D-04 MaxDP=1.40D-01 DE=-8.40D-01 OVMax= 1.45D-01

 Cycle   4  Pass 1  IDiag  1:
 RMSU=  4.21D-04    CP:  9.70D-01  1.95D+00  5.23D-01
 E= -3005.28265556269     Delta-E=       -0.106483948977 Rises=F Damp=F
 DIIS: error= 9.27D-03 at cycle   4 NSaved=   4.
 NSaved= 4 IEnMin= 4 EnMin= -3005.28265556269     IErMin= 4 ErrMin= 9.27D-03
 ErrMax= 9.27D-03  0.00D+00 EMaxC= 1.00D-01 BMatC= 5.72D-02 BMatP= 1.76D-01
 IDIUse=3 WtCom= 9.07D-01 WtEn= 9.27D-02
 Coeff-Com: -0.968D-01 0.216D+00 0.356D+00 0.525D+00
 Coeff-En:   0.000D+00 0.000D+00 0.292D+00 0.708D+00
 Coeff:     -0.879D-01 0.196D+00 0.350D+00 0.542D+00
 Gap=     0.076 Goal=   None    Shift=    0.000
 RMSDP=3.04D-04 MaxDP=7.49D-02 DE=-1.06D-01 OVMax= 1.20D-01

 Cycle   5  Pass 1  IDiag  1:
 RMSU=  1.39D-04    CP:  9.68D-01  1.83D+00  7.01D-01  5.11D-01
 E= -3005.32759041588     Delta-E=       -0.044934853182 Rises=F Damp=F
 DIIS: error= 1.26D-03 at cycle   5 NSaved=   5.
 NSaved= 5 IEnMin= 5 EnMin= -3005.32759041588     IErMin= 5 ErrMin= 1.26D-03
 ErrMax= 1.26D-03  0.00D+00 EMaxC= 1.00D-01 BMatC= 5.89D-03 BMatP= 5.72D-02
 IDIUse=3 WtCom= 9.87D-01 WtEn= 1.26D-02
 Coeff-Com: -0.186D-01 0.471D-01 0.200D+00 0.373D+00 0.398D+00
 Coeff-En:   0.000D+00 0.000D+00 0.000D+00 0.103D+00 0.897D+00
 Coeff:     -0.184D-01 0.465D-01 0.198D+00 0.370D+00 0.404D+00
 Gap=     0.076 Goal=   None    Shift=    0.000
 RMSDP=1.23D-04 MaxDP=1.12D-02 DE=-4.49D-02 OVMax= 6.29D-02

 Cycle   6  Pass 1  IDiag  1:
 RMSU=  5.08D-05    CP:  9.68D-01  1.83D+00  6.83D-01  6.31D-01  2.92D-01
 E= -3005.33391533870     Delta-E=       -0.006324922828 Rises=F Damp=F
 DIIS: error= 4.36D-04 at cycle   6 NSaved=   6.
 NSaved= 6 IEnMin= 6 EnMin= -3005.33391533870     IErMin= 6 ErrMin= 4.36D-04
 ErrMax= 4.36D-04  0.00D+00 EMaxC= 1.00D-01 BMatC= 6.60D-04 BMatP= 5.89D-03
 IDIUse=3 WtCom= 9.96D-01 WtEn= 4.36D-03
 Coeff-Com:  0.268D-02-0.234D-02 0.718D-01 0.153D+00 0.278D+00 0.497D+00
 Coeff-En:   0.000D+00 0.000D+00 0.000D+00 0.000D+00 0.135D+00 0.865D+00
 Coeff:      0.267D-02-0.233D-02 0.715D-01 0.152D+00 0.277D+00 0.499D+00
 Gap=     0.076 Goal=   None    Shift=    0.000
 RMSDP=4.16D-05 MaxDP=3.88D-03 DE=-6.32D-03 OVMax= 2.24D-02

 Cycle   7  Pass 1  IDiag  1:
 RMSU=  2.07D-05    CP:  9.68D-01  1.83D+00  6.93D-01  6.05D-01  4.59D-01
                    CP:  5.26D-01
 E= -3005.33465499985     Delta-E=       -0.000739661142 Rises=F Damp=F
 DIIS: error= 3.40D-04 at cycle   7 NSaved=   7.
 NSaved= 7 IEnMin= 7 EnMin= -3005.33465499985     IErMin= 7 ErrMin= 3.40D-04
 ErrMax= 3.40D-04  0.00D+00 EMaxC= 1.00D-01 BMatC= 9.90D-05 BMatP= 6.60D-04
 IDIUse=3 WtCom= 9.97D-01 WtEn= 3.40D-03
 Coeff-Com:  0.358D-02-0.654D-02 0.223D-01 0.526D-01 0.135D+00 0.339D+00
 Coeff-Com:  0.454D+00
 Coeff-En:   0.000D+00 0.000D+00 0.000D+00 0.000D+00 0.000D+00 0.120D+00
 Coeff-En:   0.880D+00
 Coeff:      0.357D-02-0.652D-02 0.222D-01 0.524D-01 0.134D+00 0.339D+00
 Coeff:      0.455D+00
 Gap=     0.076 Goal=   None    Shift=    0.000
 RMSDP=1.54D-05 MaxDP=2.20D-03 DE=-7.40D-04 OVMax= 1.03D-02

 Cycle   8  Pass 1  IDiag  1:
 RMSU=  8.56D-06    CP:  9.68D-01  1.83D+00  6.92D-01  6.11D-01  4.41D-01
                    CP:  6.10D-01  4.45D-01
 E= -3005.33474934979     Delta-E=       -0.000094349944 Rises=F Damp=F
 DIIS: error= 7.77D-05 at cycle   8 NSaved=   8.
 NSaved= 8 IEnMin= 8 EnMin= -3005.33474934979     IErMin= 8 ErrMin= 7.77D-05
 ErrMax= 7.77D-05  0.00D+00 EMaxC= 1.00D-01 BMatC= 1.58D-05 BMatP= 9.90D-05
 IDIUse=1 WtCom= 1.00D+00 WtEn= 0.00D+00
 Coeff-Com:  0.198D-02-0.392D-02 0.618D-02 0.161D-01 0.585D-01 0.174D+00
 Coeff-Com:  0.319D+00 0.428D+00
 Coeff:      0.198D-02-0.392D-02 0.618D-02 0.161D-01 0.585D-01 0.174D+00
 Coeff:      0.319D+00 0.428D+00
 Gap=     0.076 Goal=   None    Shift=    0.000
 RMSDP=6.95D-06 MaxDP=4.80D-04 DE=-9.43D-05 OVMax= 4.95D-03

 Cycle   9  Pass 1  IDiag  1:
 RMSU=  3.31D-06    CP:  9.68D-01  1.83D+00  6.92D-01  6.12D-01  4.44D-01
                    CP:  6.05D-01  5.84D-01  3.75D-01
 E= -3005.33476640969     Delta-E=       -0.000017059901 Rises=F Damp=F
 DIIS: error= 3.42D-05 at cycle   9 NSaved=   9.
 NSaved= 9 IEnMin= 9 EnMin= -3005.33476640969     IErMin= 9 ErrMin= 3.42D-05
 ErrMax= 3.42D-05  0.00D+00 EMaxC= 1.00D-01 BMatC= 3.02D-06 BMatP= 1.58D-05
 IDIUse=1 WtCom= 1.00D+00 WtEn= 0.00D+00
 Coeff-Com:  0.809D-03-0.167D-02 0.118D-02 0.339D-02 0.224D-01 0.758D-01
 Coeff-Com:  0.164D+00 0.318D+00 0.416D+00
 Coeff:      0.809D-03-0.167D-02 0.118D-02 0.339D-02 0.224D-01 0.758D-01
 Coeff:      0.164D+00 0.318D+00 0.416D+00
 Gap=     0.076 Goal=   None    Shift=    0.000
 RMSDP=2.83D-06 MaxDP=2.50D-04 DE=-1.71D-05 OVMax= 1.99D-03

 Cycle  10  Pass 1  IDiag  1:
 RMSU=  1.36D-06    CP:  9.68D-01  1.83D+00  6.92D-01  6.11D-01  4.45D-01
                    CP:  6.14D-01  5.49D-01  5.29D-01  4.42D-01
 E= -3005.33477023528     Delta-E=       -0.000003825591 Rises=F Damp=F
 DIIS: error= 1.53D-05 at cycle  10 NSaved=  10.
 NSaved=10 IEnMin=10 EnMin= -3005.33477023528     IErMin=10 ErrMin= 1.53D-05
 ErrMax= 1.53D-05  0.00D+00 EMaxC= 1.00D-01 BMatC= 3.37D-07 BMatP= 3.02D-06
 IDIUse=1 WtCom= 1.00D+00 WtEn= 0.00D+00
 Coeff-Com:  0.117D-03-0.271D-03-0.369D-03-0.107D-02 0.348D-02 0.155D-01
 Coeff-Com:  0.455D-01 0.126D+00 0.281D+00 0.530D+00
 Coeff:      0.117D-03-0.271D-03-0.369D-03-0.107D-02 0.348D-02 0.155D-01
 Coeff:      0.455D-01 0.126D+00 0.281D+00 0.530D+00
 Gap=     0.076 Goal=   None    Shift=    0.000
 RMSDP=8.06D-07 MaxDP=5.61D-05 DE=-3.83D-06 OVMax= 3.69D-04

 Cycle  11  Pass 1  IDiag  1:
 RMSU=  4.06D-07    CP:  9.68D-01  1.83D+00  6.92D-01  6.11D-01  4.45D-01
                    CP:  6.15D-01  5.57D-01  5.19D-01  5.88D-01  6.63D-01
 E= -3005.33477060873     Delta-E=       -0.000000373448 Rises=F Damp=F
 DIIS: error= 5.41D-06 at cycle  11 NSaved=  11.
 NSaved=11 IEnMin=11 EnMin= -3005.33477060873     IErMin=11 ErrMin= 5.41D-06
 ErrMax= 5.41D-06  0.00D+00 EMaxC= 1.00D-01 BMatC= 3.89D-08 BMatP= 3.37D-07
 IDIUse=1 WtCom= 1.00D+00 WtEn= 0.00D+00
 Coeff-Com: -0.254D-04 0.348D-04-0.395D-03-0.119D-02-0.627D-03-0.357D-03
 Coeff-Com:  0.758D-02 0.373D-01 0.123D+00 0.327D+00 0.507D+00
 Coeff:     -0.254D-04 0.348D-04-0.395D-03-0.119D-02-0.627D-03-0.357D-03
 Coeff:      0.758D-02 0.373D-01 0.123D+00 0.327D+00 0.507D+00
 Gap=     0.076 Goal=   None    Shift=    0.000
 RMSDP=2.56D-07 MaxDP=1.93D-05 DE=-3.73D-07 OVMax= 9.04D-05

 Cycle  12  Pass 1  IDiag  1:
 RMSU=  1.74D-07    CP:  9.68D-01  1.83D+00  6.92D-01  6.11D-01  4.45D-01
                    CP:  6.15D-01  5.60D-01  5.25D-01  5.83D-01  7.39D-01
                    CP:  6.96D-01
 E= -3005.33477064722     Delta-E=       -0.000000038486 Rises=F Damp=F
 DIIS: error= 9.48D-07 at cycle  12 NSaved=  12.
 NSaved=12 IEnMin=12 EnMin= -3005.33477064722     IErMin=12 ErrMin= 9.48D-07
 ErrMax= 9.48D-07  0.00D+00 EMaxC= 1.00D-01 BMatC= 3.24D-09 BMatP= 3.89D-08
 IDIUse=1 WtCom= 1.00D+00 WtEn= 0.00D+00
 Coeff-Com: -0.222D-04 0.422D-04-0.158D-03-0.501D-03-0.635D-03-0.206D-02
 Coeff-Com: -0.833D-03 0.475D-02 0.318D-01 0.108D+00 0.264D+00 0.596D+00
 Coeff:     -0.222D-04 0.422D-04-0.158D-03-0.501D-03-0.635D-03-0.206D-02
 Coeff:     -0.833D-03 0.475D-02 0.318D-01 0.108D+00 0.264D+00 0.596D+00
 Gap=     0.076 Goal=   None    Shift=    0.000
 RMSDP=9.85D-08 MaxDP=1.44D-05 DE=-3.85D-08 OVMax= 3.27D-05

 Cycle  13  Pass 1  IDiag  1:
 RMSU=  6.83D-08    CP:  9.68D-01  1.83D+00  6.92D-01  6.11D-01  4.45D-01
                    CP:  6.15D-01  5.60D-01  5.26D-01  5.91D-01  7.50D-01
                    CP:  8.08D-01  7.98D-01
 E= -3005.33477065072     Delta-E=       -0.000000003509 Rises=F Damp=F
 DIIS: error= 6.80D-07 at cycle  13 NSaved=  13.
 NSaved=13 IEnMin=13 EnMin= -3005.33477065072     IErMin=13 ErrMin= 6.80D-07
 ErrMax= 6.80D-07  0.00D+00 EMaxC= 1.00D-01 BMatC= 7.93D-10 BMatP= 3.24D-09
 IDIUse=1 WtCom= 1.00D+00 WtEn= 0.00D+00
 Coeff-Com: -0.776D-05 0.174D-04-0.228D-04-0.880D-04-0.261D-03-0.136D-02
 Coeff-Com: -0.195D-02-0.480D-02-0.461D-02 0.129D-02 0.599D-01 0.361D+00
 Coeff-Com:  0.591D+00
 Coeff:     -0.776D-05 0.174D-04-0.228D-04-0.880D-04-0.261D-03-0.136D-02
 Coeff:     -0.195D-02-0.480D-02-0.461D-02 0.129D-02 0.599D-01 0.361D+00
 Coeff:      0.591D+00
 Gap=     0.076 Goal=   None    Shift=    0.000
 RMSDP=4.40D-08 MaxDP=2.78D-06 DE=-3.51D-09 OVMax= 1.76D-05

 Cycle  14  Pass 1  IDiag  1:
 RMSU=  2.86D-08    CP:  9.68D-01  1.83D+00  6.92D-01  6.11D-01  4.45D-01
                    CP:  6.15D-01  5.60D-01  5.27D-01  5.93D-01  7.64D-01
                    CP:  8.27D-01  9.29D-01  8.62D-01
 E= -3005.33477065170     Delta-E=       -0.000000000971 Rises=F Damp=F
 DIIS: error= 2.78D-07 at cycle  14 NSaved=  14.
 NSaved=14 IEnMin=14 EnMin= -3005.33477065170     IErMin=14 ErrMin= 2.78D-07
 ErrMax= 2.78D-07  0.00D+00 EMaxC= 1.00D-01 BMatC= 1.46D-10 BMatP= 7.93D-10
 IDIUse=1 WtCom= 1.00D+00 WtEn= 0.00D+00
 Coeff-Com:  0.103D-06 0.169D-05 0.149D-04 0.356D-04-0.392D-04-0.521D-03
 Coeff-Com: -0.103D-02-0.415D-02-0.891D-02-0.198D-01-0.131D-01 0.108D+00
 Coeff-Com:  0.352D+00 0.587D+00
 Coeff:      0.103D-06 0.169D-05 0.149D-04 0.356D-04-0.392D-04-0.521D-03
 Coeff:     -0.103D-02-0.415D-02-0.891D-02-0.198D-01-0.131D-01 0.108D+00
 Coeff:      0.352D+00 0.587D+00
 Gap=     0.076 Goal=   None    Shift=    0.000
 RMSDP=2.10D-08 MaxDP=2.46D-06 DE=-9.71D-10 OVMax= 8.87D-06

 Cycle  15  Pass 1  IDiag  1:
 RMSU=  1.23D-08    CP:  9.68D-01  1.83D+00  6.92D-01  6.11D-01  4.45D-01
                    CP:  6.15D-01  5.60D-01  5.27D-01  5.94D-01  7.66D-01
                    CP:  8.47D-01  9.70D-01  9.80D-01  8.71D-01
 E= -3005.33477065183     Delta-E=       -0.000000000131 Rises=F Damp=F
 DIIS: error= 1.44D-07 at cycle  15 NSaved=  15.
 NSaved=15 IEnMin=15 EnMin= -3005.33477065183     IErMin=15 ErrMin= 1.44D-07
 ErrMax= 1.44D-07  0.00D+00 EMaxC= 1.00D-01 BMatC= 2.84D-11 BMatP= 1.46D-10
 IDIUse=1 WtCom= 1.00D+00 WtEn= 0.00D+00
 Coeff-Com:  0.163D-05-0.238D-05 0.129D-04 0.348D-04 0.341D-04-0.612D-04
 Coeff-Com: -0.151D-03-0.147D-02-0.391D-02-0.112D-01-0.176D-01-0.305D-02
 Coeff-Com:  0.935D-01 0.358D+00 0.586D+00
 Coeff:      0.163D-05-0.238D-05 0.129D-04 0.348D-04 0.341D-04-0.612D-04
 Coeff:     -0.151D-03-0.147D-02-0.391D-02-0.112D-01-0.176D-01-0.305D-02
 Coeff:      0.935D-01 0.358D+00 0.586D+00
 Gap=     0.076 Goal=   None    Shift=    0.000
 RMSDP=8.35D-09 MaxDP=6.14D-07 DE=-1.31D-10 OVMax= 4.02D-06

 SCF Done:  E(RPBE1PBE) =  -3005.33477065     A.U. after   15 cycles
            NFock= 15  Conv=0.83D-08     -V/T= 2.0099
 KE= 2.975895076377D+03 PE=-2.618880133852D+04 EE= 1.060895734149D+04
 Leave Link  502 at Thu May  5 10:17:59 2022, MaxMem= 10066329600 cpu:            8879.8 elap:             371.6
 (Enter /sw/apps/gaussian-16.0/g16/l801.exe)
 DoSCS=F DFT=T ScalE2(SS,OS)=  1.000000  1.000000
 ExpMin= 3.36D-02 ExpMax= 4.95D+03 ExpMxC= 7.45D+02 IAcc=3 IRadAn=         5 AccDes= 0.00D+00
 HarFok:  IExCor=  205 AccDes= 0.00D+00 IRadAn=         5 IDoV=-2 UseB2=F ITyADJ=14
 ICtDFT= 12500011 ScaDFX=  1.000000  1.000000  1.000000  1.000000
 GSVD:  LWork=       -5460 too small for GESVD, short by       25550 words or       25550 for optimal perf.
 Largest valence mixing into a core orbital is  1.36D-04
 Largest core mixing into a valence orbital is  5.39D-05
 Range of M.O.s used for correlation:    71  1298
 NBasis=  1298 NAE=   246 NBE=   246 NFC=    70 NFV=     0
 NROrb=   1228 NOA=   176 NOB=   176 NVA=  1052 NVB=  1052

 **** Warning!!: The smallest alpha delta epsilon is  0.75940855D-01

 Leave Link  801 at Thu May  5 10:18:00 2022, MaxMem= 10066329600 cpu:               9.8 elap:               0.4
 (Enter /sw/apps/gaussian-16.0/g16/l914.exe)
 RHF ground state
 Two-electron integrals replicated using symmetry.
 MDV= 10066329600 DFT=T DoStab=F Mixed=T DoRPA=T DoScal=F NonHer=T
 Making orbital integer symmetry assigments:
 Orbital symmetries:
       Occupied  (A) (A) (A) (A) (A) (A) (A) (A) (A) (A) (A) (A)
                 (A) (A) (A) (A) (A) (A) (A) (A) (A) (A) (A) (A)
                 (A) (A) (A) (A) (A) (A) (A) (A) (A) (A) (A) (A)
                 (A) (A) (A) (A) (A) (A) (A) (A) (A) (A) (A) (A)
                 (A) (A) (A) (A) (A) (A) (A) (A) (A) (A) (A) (A)
                 (A) (A) (A) (A) (A) (A) (A) (A) (A) (A) (A) (A)
                 (A) (A) (A) (A) (A) (A) (A) (A) (A) (A) (A) (A)
                 (A) (A) (A) (A) (A) (A) (A) (A) (A) (A) (A) (A)
                 (A) (A) (A) (A) (A) (A) (A) (A) (A) (A) (A) (A)
                 (A) (A) (A) (A) (A) (A) (A) (A) (A) (A) (A) (A)
                 (A) (A) (A) (A) (A) (A) (A) (A) (A) (A) (A) (A)
                 (A) (A) (A) (A) (A) (A) (A) (A) (A) (A) (A) (A)
                 (A) (A) (A) (A) (A) (A) (A) (A) (A) (A) (A) (A)
                 (A) (A) (A) (A) (A) (A) (A) (A) (A) (A) (A) (A)
                 (A) (A) (A) (A) (A) (A) (A) (A) (A) (A) (A) (A)
                 (A) (A) (A) (A) (A) (A) (A) (A) (A) (A) (A) (A)
                 (A) (A) (A) (A) (A) (A) (A) (A) (A) (A) (A) (A)
                 (A) (A) (A) (A) (A) (A) (A) (A) (A) (A) (A) (A)
                 (A) (A) (A) (A) (A) (A) (A) (A) (A) (A) (A) (A)
                 (A) (A) (A) (A) (A) (A) (A) (A) (A) (A) (A) (A)
                 (A) (A) (A) (A) (A) (A)
       Virtual   (A) (A) (A) (A) (A) (A) (A) (A) (A) (A) (A) (A)
                 (A) (A) (A) (A) (A) (A) (A) (A) (A) (A) (A) (A)
                 (A) (A) (A) (A) (A) (A) (A) (A) (A) (A) (A) (A)
                 (A) (A) (A) (A) (A) (A) (A) (A) (A) (A) (A) (A)
                 (A) (A) (A) (A) (A) (A) (A) (A) (A) (A) (A) (A)
                 (A) (A) (A) (A) (A) (A) (A) (A) (A) (A) (A) (A)
                 (A) (A) (A) (A) (A) (A) (A) (A) (A) (A) (A) (A)
                 (A) (A) (A) (A) (A) (A) (A) (A) (A) (A) (A) (A)
                 (A) (A) (A) (A) (A) (A) (A) (A) (A) (A) (A) (A)
                 (A) (A) (A) (A) (A) (A) (A) (A) (A) (A) (A) (A)
                 (A) (A) (A) (A) (A) (A) (A) (A) (A) (A) (A) (A)
                 (A) (A) (A) (A) (A) (A) (A) (A) (A) (A) (A) (A)
                 (A) (A) (A) (A) (A) (A) (A) (A) (A) (A) (A) (A)
                 (A) (A) (A) (A) (A) (A) (A) (A) (A) (A) (A) (A)
                 (A) (A) (A) (A) (A) (A) (A) (A) (A) (A) (A) (A)
                 (A) (A) (A) (A) (A) (A) (A) (A) (A) (A) (A) (A)
                 (A) (A) (A) (A) (A) (A) (A) (A) (A) (A) (A) (A)
                 (A) (A) (A) (A) (A) (A) (A) (A) (A) (A) (A) (A)
                 (A) (A) (A) (A) (A) (A) (A) (A) (A) (A) (A) (A)
                 (A) (A) (A) (A) (A) (A) (A) (A) (A) (A) (A) (A)
                 (A) (A) (A) (A) (A) (A) (A) (A) (A) (A) (A) (A)
                 (A) (A) (A) (A) (A) (A) (A) (A) (A) (A) (A) (A)
                 (A) (A) (A) (A) (A) (A) (A) (A) (A) (A) (A) (A)
                 (A) (A) (A) (A) (A) (A) (A) (A) (A) (A) (A) (A)
                 (A) (A) (A) (A) (A) (A) (A) (A) (A) (A) (A) (A)
                 (A) (A) (A) (A) (A) (A) (A) (A) (A) (A) (A) (A)
                 (A) (A) (A) (A) (A) (A) (A) (A) (A) (A) (A) (A)
                 (A) (A) (A) (A) (A) (A) (A) (A) (A) (A) (A) (A)
                 (A) (A) (A) (A) (A) (A) (A) (A) (A) (A) (A) (A)
                 (A) (A) (A) (A) (A) (A) (A) (A) (A) (A) (A) (A)
                 (A) (A) (A) (A) (A) (A) (A) (A) (A) (A) (A) (A)
                 (A) (A) (A) (A) (A) (A) (A) (A) (A) (A) (A) (A)
                 (A) (A) (A) (A) (A) (A) (A) (A) (A) (A) (A) (A)
                 (A) (A) (A) (A) (A) (A) (A) (A) (A) (A) (A) (A)
                 (A) (A) (A) (A) (A) (A) (A) (A) (A) (A) (A) (A)
                 (A) (A) (A) (A) (A) (A) (A) (A) (A) (A) (A) (A)
                 (A) (A) (A) (A) (A) (A) (A) (A) (A) (A) (A) (A)
                 (A) (A) (A) (A) (A) (A) (A) (A) (A) (A) (A) (A)
                 (A) (A) (A) (A) (A) (A) (A) (A) (A) (A) (A) (A)
                 (A) (A) (A) (A) (A) (A) (A) (A) (A) (A) (A) (A)
                 (A) (A) (A) (A) (A) (A) (A) (A) (A) (A) (A) (A)
                 (A) (A) (A) (A) (A) (A) (A) (A) (A) (A) (A) (A)
                 (A) (A) (A) (A) (A) (A) (A) (A) (A) (A) (A) (A)
                 (A) (A) (A) (A) (A) (A) (A) (A) (A) (A) (A) (A)
                 (A) (A) (A) (A) (A) (A) (A) (A) (A) (A) (A) (A)
                 (A) (A) (A) (A) (A) (A) (A) (A) (A) (A) (A) (A)
                 (A) (A) (A) (A) (A) (A) (A) (A) (A) (A) (A) (A)
                 (A) (A) (A) (A) (A) (A) (A) (A) (A) (A) (A) (A)
                 (A) (A) (A) (A) (A) (A) (A) (A) (A) (A) (A) (A)
                 (A) (A) (A) (A) (A) (A) (A) (A) (A) (A) (A) (A)
                 (A) (A) (A) (A) (A) (A) (A) (A) (A) (A) (A) (A)
                 (A) (A) (A) (A) (A) (A) (A) (A) (A) (A) (A) (A)
                 (A) (A) (A) (A) (A) (A) (A) (A) (A) (A) (A) (A)
                 (A) (A) (A) (A) (A) (A) (A) (A) (A) (A) (A) (A)
                 (A) (A) (A) (A) (A) (A) (A) (A) (A) (A) (A) (A)
                 (A) (A) (A) (A) (A) (A) (A) (A) (A) (A) (A) (A)
                 (A) (A) (A) (A) (A) (A) (A) (A) (A) (A) (A) (A)
                 (A) (A) (A) (A) (A) (A) (A) (A) (A) (A) (A) (A)
                 (A) (A) (A) (A) (A) (A) (A) (A) (A) (A) (A) (A)
                 (A) (A) (A) (A) (A) (A) (A) (A) (A) (A) (A) (A)
                 (A) (A) (A) (A) (A) (A) (A) (A) (A) (A) (A) (A)
                 (A) (A) (A) (A) (A) (A) (A) (A) (A) (A) (A) (A)
                 (A) (A) (A) (A) (A) (A) (A) (A) (A) (A) (A) (A)
                 (A) (A) (A) (A) (A) (A) (A) (A) (A) (A) (A) (A)
                 (A) (A) (A) (A) (A) (A) (A) (A) (A) (A) (A) (A)
                 (A) (A) (A) (A) (A) (A) (A) (A) (A) (A) (A) (A)
                 (A) (A) (A) (A) (A) (A) (A) (A) (A) (A) (A) (A)
                 (A) (A) (A) (A) (A) (A) (A) (A) (A) (A) (A) (A)
                 (A) (A) (A) (A) (A) (A) (A) (A) (A) (A) (A) (A)
                 (A) (A) (A) (A) (A) (A) (A) (A) (A) (A) (A) (A)
                 (A) (A) (A) (A) (A) (A) (A) (A) (A) (A) (A) (A)
                 (A) (A) (A) (A) (A) (A) (A) (A) (A) (A) (A) (A)
                 (A) (A) (A) (A) (A) (A) (A) (A) (A) (A) (A) (A)
                 (A) (A) (A) (A) (A) (A) (A) (A) (A) (A) (A) (A)
                 (A) (A) (A) (A) (A) (A) (A) (A) (A) (A) (A) (A)
                 (A) (A) (A) (A) (A) (A) (A) (A) (A) (A) (A) (A)
                 (A) (A) (A) (A) (A) (A) (A) (A) (A) (A) (A) (A)
                 (A) (A) (A) (A) (A) (A) (A) (A) (A) (A) (A) (A)
                 (A) (A) (A) (A) (A) (A) (A) (A) (A) (A) (A) (A)
                 (A) (A) (A) (A) (A) (A) (A) (A) (A) (A) (A) (A)
                 (A) (A) (A) (A) (A) (A) (A) (A) (A) (A) (A) (A)
                 (A) (A) (A) (A) (A) (A) (A) (A) (A) (A) (A) (A)
                 (A) (A) (A) (A) (A) (A) (A) (A) (A) (A) (A) (A)
                 (A) (A) (A) (A) (A) (A) (A) (A) (A) (A) (A) (A)
                 (A) (A) (A) (A) (A) (A) (A) (A) (A) (A) (A) (A)
                 (A) (A) (A) (A) (A) (A) (A) (A) (A) (A) (A) (A)
                 (A) (A) (A) (A) (A) (A) (A) (A) (A) (A) (A) (A)
                 (A) (A) (A) (A) (A) (A) (A) (A)
    20 initial guesses have been made.
 Convergence on wavefunction:    0.001000000000000
 Davidson Disk Diagonalization:  ConvIn= 1.00D-03 SkipCon=T Conv= 1.00D-03.
 Max sub-space:  2000 roots to seek:    20 dimension of matrix:       370304
 Iteration     1 Dimension    20 NMult     0 NNew     20
 CISAX will form    20 AO SS matrices at one time.
 NMat=    20 NSing=    20 JSym2X= 0.
 FoFJK:  IHMeth= 1 ICntrl=       0 DoSepK=F KAlg= 0 I1Cent=           0 FoldK=F
 IRaf= 520000000 NMat=      40 IRICut=       1 DoRegI=T DoRafI=F ISym2E= 0 IDoP0=3 IntGTp=3.
 FoFCou: FMM=T IPFlag=           0 FMFlag=      100000 FMFlg1=        2001
         NFxFlg=           0 DoJE=F BraDBF=F KetDBF=F FulRan=T
         wScrn=  0.000000 ICntrl=         0 IOpCl=  0 I1Cent=           0 NGrid=           0
         NMat0=   40 NMatS0=     20 NMatT0=    0 NMatD0=   40 NMtDS0=    0 NMtDT0=    0
 Symmetry not used in FoFCou.
 FMM levels:  10  Number of levels for PrismC:   9
 New state      3 was old state      5
 New state      4 was old state      3
 New state      5 was old state      8
 Excitation Energies [eV] at current iteration:
 Root      1 :     2.251424589176091
 Root      2 :     2.568523358895541
 Root      3 :     3.131206179674942
 Root      4 :     3.286202488048978
 Root      5 :     3.311572151861130
 Root      6 :     3.385069961430619
 Root      7 :     3.596038764052351
 Root      8 :     3.812445737510790
 Root      9 :     3.994626322685964
 Root     10 :     4.052308475939948
 Root     11 :     4.235783867638566
 Root     12 :     4.256544087945985
 Root     13 :     4.302799683816969
 Root     14 :     4.463885586948212
 Root     15 :     4.539479141891475
 Root     16 :     4.597510413024333
 Root     17 :     4.655726109823508
 Root     18 :     4.751370400900468
 Root     19 :     4.793450225316232
 Root     20 :     4.958282567298693
 Iteration     2 Dimension    30 NMult    20 NNew     10
 CISAX will form    10 AO SS matrices at one time.
 NMat=    10 NSing=    10 JSym2X= 0.
 Root      1 not converged, maximum delta is    0.056775171272056
 Root      2 not converged, maximum delta is    0.054147787625058
 Root      3 not converged, maximum delta is    0.134877019578386
 New state      4 was old state      6
 Root      4 not converged, maximum delta is    0.168347918587631
 Root      5 not converged, maximum delta is    0.290930809712191
 Excitation Energies [eV] at current iteration:
 Root      1 :     1.894703838222143   Change is   -0.356720750953948
 Root      2 :     2.295911036601583   Change is   -0.272612322293958
 Root      3 :     3.005981205304613   Change is   -0.125224974370329
 Root      4 :     3.179691163002059   Change is   -0.205378798428560
 Root      5 :     3.201809488867319   Change is   -0.109762662993811
 Iteration     3 Dimension    40 NMult    30 NNew     10
 CISAX will form    10 AO SS matrices at one time.
 NMat=    10 NSing=    10 JSym2X= 0.
 Root      1 not converged, maximum delta is    0.024502461666485
 Root      2 not converged, maximum delta is    0.021853672756163
 Root      3 not converged, maximum delta is    0.017318153597560
 Root      4 not converged, maximum delta is    0.097051435136549
 Root      5 not converged, maximum delta is    0.094938867557119
 Excitation Energies [eV] at current iteration:
 Root      1 :     1.863745188663643   Change is   -0.030958649558500
 Root      2 :     2.277022860788599   Change is   -0.018888175812984
 Root      3 :     2.995022425826390   Change is   -0.010958779478223
 Root      4 :     3.132143565476398   Change is   -0.047547597525660
 Root      5 :     3.188960693457485   Change is   -0.012848795409834
 Iteration     4 Dimension    50 NMult    40 NNew     10
 CISAX will form    10 AO SS matrices at one time.
 NMat=    10 NSing=    10 JSym2X= 0.
 Root      1 not converged, maximum delta is    0.002519019828250
 Root      2 not converged, maximum delta is    0.008228473350842
 Root      3 not converged, maximum delta is    0.003411788503922
 Root      4 not converged, maximum delta is    0.012180054506494
 Root      5 not converged, maximum delta is    0.005515257329362
 Excitation Energies [eV] at current iteration:
 Root      1 :     1.860780099969450   Change is   -0.002965088694193
 Root      2 :     2.274044359132367   Change is   -0.002978501656232
 Root      3 :     2.993944624205165   Change is   -0.001077801621225
 Root      4 :     3.126888268213028   Change is   -0.005255297263370
 Root      5 :     3.187445600671277   Change is   -0.001515092786207
 Iteration     5 Dimension    60 NMult    50 NNew     10
 CISAX will form    10 AO SS matrices at one time.
 NMat=    10 NSing=    10 JSym2X= 0.
 Root      1 has converged.
 Root      2 has converged.
 Root      3 has converged.
 Root      4 not converged, maximum delta is    0.004343890578974
 Root      5 not converged, maximum delta is    0.001672514921449
 Excitation Energies [eV] at current iteration:
 Root      1 :     1.860448152961813   Change is   -0.000331947007637
 Root      2 :     2.273783323559420   Change is   -0.000261035572947
 Root      3 :     2.993830802626649   Change is   -0.000113821578516
 Root      4 :     3.126061527261482   Change is   -0.000826740951546
 Root      5 :     3.187212525623393   Change is   -0.000233075047885
 Iteration     6 Dimension    64 NMult    60 NNew      4
 CISAX will form     4 AO SS matrices at one time.
 NMat=     4 NSing=     4 JSym2X= 0.
 Root      1 has converged.
 Root      2 has converged.
 Root      3 has converged.
 Root      4 has converged.
 Root      5 has converged.
 Excitation Energies [eV] at current iteration:
 Root      1 :     1.860446220518002   Change is   -0.000001932443811
 Root      2 :     2.273780096779427   Change is   -0.000003226779993
 Root      3 :     2.993829886326082   Change is   -0.000000916300568
 Root      4 :     3.125948395953640   Change is   -0.000113131307842
 Root      5 :     3.187180407750526   Change is   -0.000032117872866
 Convergence achieved on expansion vectors.
 ***********************************************************************
 Excited states from <AA,BB:AA,BB> singles matrix:
 ***********************************************************************
 
 1PDM for each excited state written to RWF  633
 Ground to excited state transition densities written to RWF  633
 Ground to excited state transition electric dipole moments (Au):
       state          X           Y           Z        Dip. S.      Osc.
         1        -0.9927      2.0968     -1.5960      7.9294      0.3614
         2        -0.7057     -1.1184     -0.4897      1.9888      0.1108
         3        -0.0299     -0.0625      0.0037      0.0048      0.0004
         4        -0.0141      0.1274     -0.0491      0.0188      0.0014
         5        -0.0738     -0.1019      0.0093      0.0159      0.0012
 Ground to excited state transition velocity dipole moments (Au):
       state          X           Y           Z        Dip. S.      Osc.
         1         0.0649     -0.1387      0.1066      0.0348      0.3393
         2         0.0565      0.0902      0.0384      0.0128      0.1021
         3         0.0002      0.0068      0.0012      0.0000      0.0003
         4         0.0013     -0.0141      0.0053      0.0002      0.0013
         5         0.0080      0.0116      0.0007      0.0002      0.0011
 Ground to excited state transition magnetic dipole moments (Au):
       state          X           Y           Z
         1         0.0829     -1.0867     -1.4210
         2         0.1652     -0.4514      0.7798
         3        -0.0353      0.2094     -0.3546
         4        -0.5924      0.1526      0.2790
         5         0.1304     -0.4833      0.1700
 Ground to excited state transition velocity quadrupole moments (Au):
       state          XX          YY          ZZ          XY          XZ          YZ
         1         1.2385     -0.3369     -0.0448     -1.2573      1.0372      0.2300
         2         0.9553      0.1663      0.0164      0.9087      0.4134     -0.0427
         3        -0.0069      0.1126     -0.0176      0.0449      0.0018     -0.0434
         4         0.1205     -0.3294      0.0379     -0.1730      0.1069      0.0560
         5         0.1016      0.0738      0.0410      0.0854      0.0172     -0.0080
 <0|del|b> * <b|rxdel|0> + <0|del|b> * <b|delr+rdel|0>
 Rotatory Strengths (R) in cgs (10**-40 erg-esu-cm/Gauss)
       state          XX          YY          ZZ    R(velocity)    E-M Angle
         1        47.1628     14.8298    -13.8516     16.0470       89.20
         2       -55.8433      8.3453     35.1908     -4.1024       90.80
         3         3.3843     -1.5478      4.6216      2.1527       69.38
         4        -0.2752      5.1416    -13.9267     -3.0201       98.31
         5       -16.9464      3.1215    -12.9119     -8.9123      126.56
 1/2[<0|r|b>*<b|rxdel|0> + (<0|rxdel|b>*<b|r|0>)*]
 Rotatory Strengths (R) in cgs (10**-40 erg-esu-cm/Gauss)
       state          XX          YY          ZZ     R(length)
         1        58.2074   1611.3521  -1603.7924     21.9224
         2        82.4562   -357.0351    270.0836     -1.4985
         3        -0.7443      9.2482      0.9336      3.1459
         4        -5.8934    -13.7454      9.6938     -3.3150
         5         6.8012    -34.8158     -1.1190     -9.7112
  1/2[<0|del|b>*<b|r|0> + (<0|r|b>*<b|del|0>)*] (Au)
       state          X           Y           Z        Dip. S.   Osc.(frdel)
         1        -0.0644     -0.2908     -0.1701      0.5253      0.3502
         2        -0.0398     -0.1009     -0.0188      0.1595      0.1063
         3        -0.0000     -0.0004      0.0000      0.0004      0.0003
         4        -0.0000     -0.0018     -0.0003      0.0021      0.0014
         5        -0.0006     -0.0012      0.0000      0.0018      0.0012

 Excitation energies and oscillator strengths:
 
 Excited State   1:      Singlet-A      1.8604 eV  666.42 nm  f=0.3614  <S**2>=0.000
     245 -> 248       -0.16362
     246 -> 247        0.69550
     246 <- 247       -0.11127
 This state for optimization and/or second-order correction.
 Total Energy, E(TD-HF/TD-DFT) =  -3005.26640051    
 Copying the excited state density for this state as the 1-particle RhoCI density.
 
 Excited State   2:      Singlet-A      2.2738 eV  545.28 nm  f=0.1108  <S**2>=0.000
     245 -> 247        0.64886
     246 -> 248        0.26713
 
 Excited State   3:      Singlet-A      2.9938 eV  414.13 nm  f=0.0004  <S**2>=0.000
     242 -> 247        0.15473
     243 -> 247        0.65948
     243 -> 249        0.10510
 
 Excited State   4:      Singlet-A      3.1259 eV  396.63 nm  f=0.0014  <S**2>=0.000
     242 -> 247        0.67225
     243 -> 247       -0.17272
 
 Excited State   5:      Singlet-A      3.1872 eV  389.01 nm  f=0.0012  <S**2>=0.000
     240 -> 247        0.50139
     240 -> 249       -0.13345
     241 -> 247        0.45162
 SavETr:  write IOETrn=   770 NScale= 10 NData=  16 NLR=1 NState=    5 LETran=     100.
 Leave Link  914 at Thu May  5 10:34:50 2022, MaxMem= 10066329600 cpu:           24209.7 elap:            1010.7
 (Enter /sw/apps/gaussian-16.0/g16/l601.exe)
 Copying SCF densities to generalized density rwf, IOpCl= 0 IROHF=0.
 Hyperfine terms turned off by default for NAtoms > 100.

 **********************************************************************

            Population analysis using the SCF density.

 **********************************************************************

 Orbital symmetries:
       Occupied  (A) (A) (A) (A) (A) (A) (A) (A) (A) (A) (A) (A)
                 (A) (A) (A) (A) (A) (A) (A) (A) (A) (A) (A) (A)
                 (A) (A) (A) (A) (A) (A) (A) (A) (A) (A) (A) (A)
                 (A) (A) (A) (A) (A) (A) (A) (A) (A) (A) (A) (A)
                 (A) (A) (A) (A) (A) (A) (A) (A) (A) (A) (A) (A)
                 (A) (A) (A) (A) (A) (A) (A) (A) (A) (A) (A) (A)
                 (A) (A) (A) (A) (A) (A) (A) (A) (A) (A) (A) (A)
                 (A) (A) (A) (A) (A) (A) (A) (A) (A) (A) (A) (A)
                 (A) (A) (A) (A) (A) (A) (A) (A) (A) (A) (A) (A)
                 (A) (A) (A) (A) (A) (A) (A) (A) (A) (A) (A) (A)
                 (A) (A) (A) (A) (A) (A) (A) (A) (A) (A) (A) (A)
                 (A) (A) (A) (A) (A) (A) (A) (A) (A) (A) (A) (A)
                 (A) (A) (A) (A) (A) (A) (A) (A) (A) (A) (A) (A)
                 (A) (A) (A) (A) (A) (A) (A) (A) (A) (A) (A) (A)
                 (A) (A) (A) (A) (A) (A) (A) (A) (A) (A) (A) (A)
                 (A) (A) (A) (A) (A) (A) (A) (A) (A) (A) (A) (A)
                 (A) (A) (A) (A) (A) (A) (A) (A) (A) (A) (A) (A)
                 (A) (A) (A) (A) (A) (A) (A) (A) (A) (A) (A) (A)
                 (A) (A) (A) (A) (A) (A) (A) (A) (A) (A) (A) (A)
                 (A) (A) (A) (A) (A) (A) (A) (A) (A) (A) (A) (A)
                 (A) (A) (A) (A) (A) (A)
       Virtual   (A) (A) (A) (A) (A) (A) (A) (A) (A) (A) (A) (A)
                 (A) (A) (A) (A) (A) (A) (A) (A) (A) (A) (A) (A)
                 (A) (A) (A) (A) (A) (A) (A) (A) (A) (A) (A) (A)
                 (A) (A) (A) (A) (A) (A) (A) (A) (A) (A) (A) (A)
                 (A) (A) (A) (A) (A) (A) (A) (A) (A) (A) (A) (A)
                 (A) (A) (A) (A) (A) (A) (A) (A) (A) (A) (A) (A)
                 (A) (A) (A) (A) (A) (A) (A) (A) (A) (A) (A) (A)
                 (A) (A) (A) (A) (A) (A) (A) (A) (A) (A) (A) (A)
                 (A) (A) (A) (A) (A) (A) (A) (A) (A) (A) (A) (A)
                 (A) (A) (A) (A) (A) (A) (A) (A) (A) (A) (A) (A)
                 (A) (A) (A) (A) (A) (A) (A) (A) (A) (A) (A) (A)
                 (A) (A) (A) (A) (A) (A) (A) (A) (A) (A) (A) (A)
                 (A) (A) (A) (A) (A) (A) (A) (A) (A) (A) (A) (A)
                 (A) (A) (A) (A) (A) (A) (A) (A) (A) (A) (A) (A)
                 (A) (A) (A) (A) (A) (A) (A) (A) (A) (A) (A) (A)
                 (A) (A) (A) (A) (A) (A) (A) (A) (A) (A) (A) (A)
                 (A) (A) (A) (A) (A) (A) (A) (A) (A) (A) (A) (A)
                 (A) (A) (A) (A) (A) (A) (A) (A) (A) (A) (A) (A)
                 (A) (A) (A) (A) (A) (A) (A) (A) (A) (A) (A) (A)
                 (A) (A) (A) (A) (A) (A) (A) (A) (A) (A) (A) (A)
                 (A) (A) (A) (A) (A) (A) (A) (A) (A) (A) (A) (A)
                 (A) (A) (A) (A) (A) (A) (A) (A) (A) (A) (A) (A)
                 (A) (A) (A) (A) (A) (A) (A) (A) (A) (A) (A) (A)
                 (A) (A) (A) (A) (A) (A) (A) (A) (A) (A) (A) (A)
                 (A) (A) (A) (A) (A) (A) (A) (A) (A) (A) (A) (A)
                 (A) (A) (A) (A) (A) (A) (A) (A) (A) (A) (A) (A)
                 (A) (A) (A) (A) (A) (A) (A) (A) (A) (A) (A) (A)
                 (A) (A) (A) (A) (A) (A) (A) (A) (A) (A) (A) (A)
                 (A) (A) (A) (A) (A) (A) (A) (A) (A) (A) (A) (A)
                 (A) (A) (A) (A) (A) (A) (A) (A) (A) (A) (A) (A)
                 (A) (A) (A) (A) (A) (A) (A) (A) (A) (A) (A) (A)
                 (A) (A) (A) (A) (A) (A) (A) (A) (A) (A) (A) (A)
                 (A) (A) (A) (A) (A) (A) (A) (A) (A) (A) (A) (A)
                 (A) (A) (A) (A) (A) (A) (A) (A) (A) (A) (A) (A)
                 (A) (A) (A) (A) (A) (A) (A) (A) (A) (A) (A) (A)
                 (A) (A) (A) (A) (A) (A) (A) (A) (A) (A) (A) (A)
                 (A) (A) (A) (A) (A) (A) (A) (A) (A) (A) (A) (A)
                 (A) (A) (A) (A) (A) (A) (A) (A) (A) (A) (A) (A)
                 (A) (A) (A) (A) (A) (A) (A) (A) (A) (A) (A) (A)
                 (A) (A) (A) (A) (A) (A) (A) (A) (A) (A) (A) (A)
                 (A) (A) (A) (A) (A) (A) (A) (A) (A) (A) (A) (A)
                 (A) (A) (A) (A) (A) (A) (A) (A) (A) (A) (A) (A)
                 (A) (A) (A) (A) (A) (A) (A) (A) (A) (A) (A) (A)
                 (A) (A) (A) (A) (A) (A) (A) (A) (A) (A) (A) (A)
                 (A) (A) (A) (A) (A) (A) (A) (A) (A) (A) (A) (A)
                 (A) (A) (A) (A) (A) (A) (A) (A) (A) (A) (A) (A)
                 (A) (A) (A) (A) (A) (A) (A) (A) (A) (A) (A) (A)
                 (A) (A) (A) (A) (A) (A) (A) (A) (A) (A) (A) (A)
                 (A) (A) (A) (A) (A) (A) (A) (A) (A) (A) (A) (A)
                 (A) (A) (A) (A) (A) (A) (A) (A) (A) (A) (A) (A)
                 (A) (A) (A) (A) (A) (A) (A) (A) (A) (A) (A) (A)
                 (A) (A) (A) (A) (A) (A) (A) (A) (A) (A) (A) (A)
                 (A) (A) (A) (A) (A) (A) (A) (A) (A) (A) (A) (A)
                 (A) (A) (A) (A) (A) (A) (A) (A) (A) (A) (A) (A)
                 (A) (A) (A) (A) (A) (A) (A) (A) (A) (A) (A) (A)
                 (A) (A) (A) (A) (A) (A) (A) (A) (A) (A) (A) (A)
                 (A) (A) (A) (A) (A) (A) (A) (A) (A) (A) (A) (A)
                 (A) (A) (A) (A) (A) (A) (A) (A) (A) (A) (A) (A)
                 (A) (A) (A) (A) (A) (A) (A) (A) (A) (A) (A) (A)
                 (A) (A) (A) (A) (A) (A) (A) (A) (A) (A) (A) (A)
                 (A) (A) (A) (A) (A) (A) (A) (A) (A) (A) (A) (A)
                 (A) (A) (A) (A) (A) (A) (A) (A) (A) (A) (A) (A)
                 (A) (A) (A) (A) (A) (A) (A) (A) (A) (A) (A) (A)
                 (A) (A) (A) (A) (A) (A) (A) (A) (A) (A) (A) (A)
[...]
 Alpha virt. eigenvalues --    1.27197   1.27495   1.27713   1.28190   1.28293
 Alpha virt. eigenvalues --    1.28707   1.29064   1.29778   1.29951   1.30271
 Alpha virt. eigenvalues --    1.30412   1.31461   1.31669   1.32055   1.32572
 Alpha virt. eigenvalues --    1.33187   1.33402   1.33860   1.34147   1.34877
 Alpha virt. eigenvalues --    1.34972   1.35234   1.35304   1.36164   1.36347
 Alpha virt. eigenvalues --    1.36563   1.37036   1.37569   1.38501   1.38772
 Alpha virt. eigenvalues --    1.38965   1.39962   1.40009   1.40392   1.40814
 Alpha virt. eigenvalues --    1.41167   1.41257   1.41986   1.42587   1.42956
 Alpha virt. eigenvalues --    1.43312   1.43929   1.43970   1.45075   1.45214
 Alpha virt. eigenvalues --    1.45481   1.46003   1.46184   1.46358   1.46872
 Alpha virt. eigenvalues --    1.47475   1.47770   1.47883   1.48323   1.48933
 Alpha virt. eigenvalues --    1.49510   1.49767   1.49897   1.50313   1.50802
 Alpha virt. eigenvalues --    1.51088   1.51898   1.52250   1.52277   1.52329
 Alpha virt. eigenvalues --    1.52336   1.52586   1.53135   1.53240   1.53571
 Alpha virt. eigenvalues --    1.53669   1.53716   1.54427   1.54816   1.54981
 Alpha virt. eigenvalues --    1.55147   1.55407   1.55705   1.55903   1.55969
 Alpha virt. eigenvalues --    1.56359   1.56574   1.56741   1.56843   1.57023
 Alpha virt. eigenvalues --    1.57572   1.57766   1.58069   1.58666   1.58864
 Alpha virt. eigenvalues --    1.59338   1.59805   1.60422   1.60667   1.60832
 Alpha virt. eigenvalues --    1.61364   1.61827   1.62427   1.63031   1.63241
 Alpha virt. eigenvalues --    1.63652   1.64624   1.64994   1.65642   1.66471
 Alpha virt. eigenvalues --    1.67041   1.67494   1.67844   1.68276   1.68609
 Alpha virt. eigenvalues --    1.68768   1.68990   1.69436   1.69598   1.70132
 Alpha virt. eigenvalues --    1.70639   1.70729   1.71216   1.71445   1.71716
 Alpha virt. eigenvalues --    1.72284   1.72458   1.72556   1.72600   1.72971
 Alpha virt. eigenvalues --    1.73569   1.73945   1.74236   1.74329   1.74670
 Alpha virt. eigenvalues --    1.74824   1.75075   1.75330   1.75339   1.75888
 Alpha virt. eigenvalues --    1.75919   1.76028   1.76051   1.76239   1.76476
 Alpha virt. eigenvalues --    1.76636   1.76925   1.77203   1.77343   1.77524
 Alpha virt. eigenvalues --    1.77642   1.77808   1.77974   1.78196   1.78370
 Alpha virt. eigenvalues --    1.79014   1.79210   1.79403   1.79519   1.79609
 Alpha virt. eigenvalues --    1.79735   1.80098   1.80176   1.80348   1.80502
 Alpha virt. eigenvalues --    1.80545   1.81104   1.81141   1.81352   1.81570
 Alpha virt. eigenvalues --    1.81670   1.81762   1.81898   1.82153   1.82199
 Alpha virt. eigenvalues --    1.82332   1.82720   1.82999   1.83349   1.83588
 Alpha virt. eigenvalues --    1.83614   1.83792   1.84093   1.84201   1.84512
 Alpha virt. eigenvalues --    1.84631   1.85101   1.85406   1.85668   1.85901
 Alpha virt. eigenvalues --    1.86454   1.86619   1.86800   1.87052   1.87347
 Alpha virt. eigenvalues --    1.87451   1.87699   1.87977   1.88130   1.88508
 Alpha virt. eigenvalues --    1.88610   1.88788   1.88902   1.89219   1.89449
 Alpha virt. eigenvalues --    1.89546   1.90116   1.90169   1.90592   1.90809
 Alpha virt. eigenvalues --    1.91004   1.91141   1.91183   1.91413   1.91939
 Alpha virt. eigenvalues --    1.92208   1.92512   1.92884   1.93161   1.93312
 Alpha virt. eigenvalues --    1.93480   1.93574   1.93776   1.94346   1.94547
 Alpha virt. eigenvalues --    1.94834   1.94908   1.94975   1.95347   1.95402
 Alpha virt. eigenvalues --    1.95869   1.96333   1.96515   1.97012   1.97396
 Alpha virt. eigenvalues --    1.97536   1.97630   1.98433   1.98488   1.98675
 Alpha virt. eigenvalues --    1.98791   1.98969   1.99722   1.99780   1.99871
 Alpha virt. eigenvalues --    2.00203   2.00341   2.00885   2.01221   2.01396
 Alpha virt. eigenvalues --    2.01621   2.01808   2.02026   2.02161   2.02982
 Alpha virt. eigenvalues --    2.03188   2.03273   2.04007   2.04137   2.04802
 Alpha virt. eigenvalues --    2.04973   2.05240   2.05689   2.05888   2.06008
 Alpha virt. eigenvalues --    2.06273   2.06701   2.07634   2.07914   2.08539
 Alpha virt. eigenvalues --    2.08712   2.08849   2.09098   2.09160   2.09357
 Alpha virt. eigenvalues --    2.09677   2.09900   2.10141   2.10221   2.10608
 Alpha virt. eigenvalues --    2.10786   2.11193   2.11313   2.11983   2.12136
 Alpha virt. eigenvalues --    2.12356   2.12725   2.13096   2.13157   2.13568
 Alpha virt. eigenvalues --    2.14060   2.14573   2.14771   2.15388   2.15846
 Alpha virt. eigenvalues --    2.16172   2.16350   2.16634   2.17325   2.17508
 Alpha virt. eigenvalues --    2.18113   2.18398   2.18601   2.18956   2.18976
 Alpha virt. eigenvalues --    2.19276   2.19669   2.19864   2.20711   2.21089
 Alpha virt. eigenvalues --    2.21219   2.21732   2.22244   2.22891   2.23417
 Alpha virt. eigenvalues --    2.23433   2.23718   2.24217   2.24805   2.25016
 Alpha virt. eigenvalues --    2.25171   2.25582   2.26308   2.26684   2.26793
 Alpha virt. eigenvalues --    2.27112   2.27866   2.28422   2.28845   2.29199
 Alpha virt. eigenvalues --    2.29514   2.29894   2.30512   2.30685   2.30787
 Alpha virt. eigenvalues --    2.31351   2.31533   2.32171   2.32427   2.32812
 Alpha virt. eigenvalues --    2.33502   2.33844   2.33944   2.34430   2.34526
 Alpha virt. eigenvalues --    2.35055   2.35057   2.35942   2.36733   2.36995
 Alpha virt. eigenvalues --    2.37180   2.37197   2.37541   2.37777   2.38134
 Alpha virt. eigenvalues --    2.38751   2.39130   2.39290   2.39343   2.39780
 Alpha virt. eigenvalues --    2.40046   2.40357   2.40567   2.40985   2.41078
 Alpha virt. eigenvalues --    2.41526   2.41876   2.42799   2.43470   2.43733
 Alpha virt. eigenvalues --    2.44260   2.44882   2.44998   2.45189   2.45346
 Alpha virt. eigenvalues --    2.45595   2.46716   2.47033   2.47760   2.48268
 Alpha virt. eigenvalues --    2.48588   2.49009   2.49217   2.49269   2.49689
 Alpha virt. eigenvalues --    2.49793   2.50837   2.51766   2.51887   2.52009
 Alpha virt. eigenvalues --    2.52169   2.53180   2.53446   2.53577   2.53965
 Alpha virt. eigenvalues --    2.54927   2.55017   2.55118   2.55204   2.55500
 Alpha virt. eigenvalues --    2.55906   2.56633   2.57006   2.57795   2.58025
 Alpha virt. eigenvalues --    2.59121   2.59369   2.59688   2.60369   2.60504
 Alpha virt. eigenvalues --    2.60951   2.61260   2.61389   2.61856   2.62231
 Alpha virt. eigenvalues --    2.63137   2.63667   2.63813   2.64486   2.64523
 Alpha virt. eigenvalues --    2.65187   2.65428   2.65827   2.66238   2.66455
 Alpha virt. eigenvalues --    2.66528   2.66658   2.67836   2.67988   2.68152
 Alpha virt. eigenvalues --    2.68240   2.68712   2.69398   2.69872   2.70591
 Alpha virt. eigenvalues --    2.70769   2.71122   2.71528   2.72052   2.72470
 Alpha virt. eigenvalues --    2.72669   2.73260   2.73459   2.73960   2.74502
 Alpha virt. eigenvalues --    2.74730   2.75171   2.75319   2.75495   2.76433
 Alpha virt. eigenvalues --    2.76597   2.76774   2.77019   2.77418   2.78416
 Alpha virt. eigenvalues --    2.78692   2.79176   2.80209   2.80856   2.81140
 Alpha virt. eigenvalues --    2.82414   2.83132   2.84008   2.84362   2.84814
 Alpha virt. eigenvalues --    2.85760   2.85989   2.86804   2.86965   2.87093
 Alpha virt. eigenvalues --    2.87698   2.87744   2.88034   2.88889   2.89062
 Alpha virt. eigenvalues --    2.89430   2.89822   2.90178   2.90219   2.90575
 Alpha virt. eigenvalues --    2.91249   2.91282   2.91497   2.92178   2.92283
 Alpha virt. eigenvalues --    2.92349   2.92467   2.93230   2.93538   2.94258
 Alpha virt. eigenvalues --    2.94627   2.94804   2.95030   2.95378   2.95869
 Alpha virt. eigenvalues --    2.96238   2.96636   2.96714   2.97057   2.97482
 Alpha virt. eigenvalues --    2.97672   2.98134   2.98447   2.98726   2.98917
 Alpha virt. eigenvalues --    2.98991   2.99268   2.99617   2.99750   3.00018
 Alpha virt. eigenvalues --    3.00357   3.00558   3.00671   3.01164   3.01879
 Alpha virt. eigenvalues --    3.02022   3.02531   3.02898   3.03457   3.03571
 Alpha virt. eigenvalues --    3.04021   3.04140   3.04315   3.04637   3.05088
 Alpha virt. eigenvalues --    3.05118   3.05682   3.06060   3.06265   3.07585
 Alpha virt. eigenvalues --    3.07932   3.07964   3.08625   3.09722   3.09894
 Alpha virt. eigenvalues --    3.10972   3.11458   3.11698   3.12380   3.13084
 Alpha virt. eigenvalues --    3.13326   3.13687   3.14657   3.15844   3.16688
 Alpha virt. eigenvalues --    3.16981   3.17795   3.18240   3.18801   3.19225
 Alpha virt. eigenvalues --    3.20729   3.21166   3.22633   3.24638   3.26679
 Alpha virt. eigenvalues --    3.28169   3.29597   3.35100   3.39426   3.42306
 Alpha virt. eigenvalues --    3.43079   3.49192   3.49553   3.50844   3.53547
 Alpha virt. eigenvalues --    3.56789   3.58360   3.61426   3.63259   3.69243
 Alpha virt. eigenvalues --    3.70284   3.71289
          Condensed to atoms (all electrons):
 Mulliken charges:
               1
     1  Mg   0.984714
     2  C   -0.034530
     3  C   -0.053675
     4  C   -0.092103
     5  C   -0.084934
     6  N   -0.435754
     7  C    0.037460
     8  C   -0.103378
     9  C   -0.136313
    10  C    0.133345
    11  C    0.022193
    12  C   -0.012716
    13  C    0.046540
    14  C    0.244679
    15  O   -0.308936
    16  O   -0.350228
    17  N   -0.456933
    18  C    0.111465
    19  C   -0.156602
    20  C   -0.066996
    21  C    0.212333
    22  C    0.083545
    23  C    0.013355
    24  O   -0.216518
    25  C   -0.039617
    26  N   -0.441881
    27  C    0.050522
    28  C   -0.110569
    29  C   -0.069287
    30  C    0.119694
    31  C    0.010714
    32  C   -0.047082
    33  C   -0.067971
    34  N   -0.444127
    35  C    0.101457
    36  C   -0.156797
    37  C   -0.136272
    38  C    0.205122
    39  C    0.074164
    40  C    0.181165
    41  O   -0.162375
    42  C   -0.108348
    43  C    0.262843
    44  O   -0.224144
    45  O   -0.372780
    46  C    0.119006
    47  C    0.264717
    48  C   -0.178107
    49  C   -0.221390
    50  C    0.007171
    51  C    0.051815
    52  C   -0.043514
    53  C    0.003726
    54  C   -0.217923
    55  C   -0.025977
    56  C   -0.007810
    57  C   -0.041569
    58  C   -0.020065
    59  C   -0.211756
    60  C   -0.003977
    61  C   -0.003306
    62  C   -0.036372
    63  C    0.015903
    64  C   -0.272175
    65  C   -0.019255
    66  C   -0.017782
    67  H   -0.005107
    68  H   -0.008671
    69  H   -0.011164
    70  H    0.046890
    71  H    0.057071
    72  H    0.029936
    73  H    0.047014
    74  H    0.048972
    75  H    0.040825
    76  H    0.033235
    77  H    0.059379
    78  H    0.066270
    79  H    0.063948
    80  H    0.018002
    81  H    0.068324
    82  H    0.057620
    83  H    0.074826
    84  H    0.037460
    85  H    0.054809
    86  H    0.043420
    87  H    0.041049
    88  H    0.060274
    89  H    0.047489
    90  H    0.042250
    91  H    0.034589
    92  H    0.033407
    93  H    0.034376
    94  H    0.055907
    95  H    0.068537
    96  H    0.049001
    97  H    0.042087
    98  H    0.078316
    99  H    0.053192
   100  H    0.054977
   101  H    0.065657
   102  H    0.053245
   103  H    0.052274
   104  H    0.024663
   105  H    0.044242
   106  H    0.043876
   107  H    0.047331
   108  H    0.040569
   109  H    0.018955
   110  H    0.053975
   111  H    0.038741
   112  H    0.030658
   113  H    0.027850
   114  H    0.041130
   115  H    0.029590
   116  H    0.034129
   117  H    0.045453
   118  H    0.006218
   119  H    0.026887
   120  H    0.031761
   121  H    0.038261
   122  H    0.022853
   123  H    0.022355
   124  H    0.034636
   125  H    0.028619
   126  H    0.042442
   127  H    0.016619
   128  H    0.017213
   129  H    0.005095
   130  H    0.028155
   131  H    0.020561
   132  H    0.035956
   133  H    0.024960
   134  H    0.032269
   135  H    0.045464
   136  H    0.030689
   137  H    0.025900
   138  H    0.041142
   139  H    0.029884
   140  H    0.035408
 Sum of Mulliken charges =  -0.00000
 Mulliken charges with hydrogens summed into heavy atoms:
               1
     1  Mg   0.984714
     2  C   -0.034530
     3  C   -0.058782
     4  C   -0.100773
     5  C   -0.096098
     6  N   -0.435754
     7  C    0.037460
     8  C   -0.056488
     9  C   -0.079242
    10  C    0.133345
    11  C    0.148114
    12  C    0.061343
    13  C    0.172189
    14  C    0.244679
    15  O   -0.308936
    16  O   -0.350228
    17  N   -0.456933
    18  C    0.111465
    19  C   -0.156602
    20  C   -0.066996
    21  C    0.212333
    22  C    0.233819
    23  C    0.013355
    24  O   -0.216518
    25  C    0.130290
    26  N   -0.441881
    27  C    0.050522
    28  C   -0.055760
    29  C   -0.025867
    30  C    0.119694
    31  C    0.159527
    32  C    0.029757
    33  C    0.055718
    34  N   -0.444127
    35  C    0.101457
    36  C   -0.156797
    37  C   -0.136272
    38  C    0.205122
    39  C    0.233788
    40  C    0.181165
    41  O   -0.162375
    42  C   -0.030032
    43  C    0.262843
    44  O   -0.224144
    45  O   -0.372780
    46  C    0.292833
    47  C    0.370237
    48  C   -0.153444
    49  C   -0.221390
    50  C    0.142621
    51  C    0.111340
    52  C    0.049201
    53  C    0.062234
    54  C   -0.176794
    55  C    0.083195
    56  C    0.025296
    57  C    0.028452
    58  C    0.025142
    59  C   -0.177119
    60  C    0.083704
    61  C    0.019002
    62  C    0.012344
    63  C    0.076818
    64  C   -0.239906
    65  C    0.082799
    66  C    0.088651
 Electronic spatial extent (au):  <R**2>=         118555.2739
 Charge=              0.0000 electrons
 Dipole moment (field-independent basis, Debye):
    X=              2.0447    Y=              2.9914    Z=              1.8798  Tot=              4.0820
 Quadrupole moment (field-independent basis, Debye-Ang):
   XX=           -352.3908   YY=           -443.5749   ZZ=           -396.6009
   XY=             21.5222   XZ=              9.1417   YZ=             30.3993
 Traceless Quadrupole moment (field-independent basis, Debye-Ang):
   XX=             45.1314   YY=            -46.0527   ZZ=              0.9213
   XY=             21.5222   XZ=              9.1417   YZ=             30.3993
 Octapole moment (field-independent basis, Debye-Ang**2):
  XXX=            437.9126  YYY=             65.0694  ZZZ=              9.1138  XYY=            -67.0220
  XXY=            190.9517  XXZ=             60.9273  XZZ=            130.6212  YZZ=            -61.7983
  YYZ=             33.0660  XYZ=            166.0342
 Hexadecapole moment (field-independent basis, Debye-Ang**3):
 XXXX=        -126788.7889 YYYY=         -26119.2516 ZZZZ=          -9894.0364 XXXY=            233.5096
 XXXZ=            965.1828 YYYX=            909.8765 YYYZ=           1490.1423 ZZZX=            288.3453
 ZZZY=            279.0806 XXYY=         -25147.7507 XXZZ=         -22912.7362 YYZZ=          -5763.6646
 XXYZ=            750.4509 YYXZ=            -35.7714 ZZXY=           -365.0414
 N-N= 9.598614150006D+03 E-N=-2.618880133620D+04  KE= 2.975895076377D+03
 Leave Link  601 at Thu May  5 10:34:53 2022, MaxMem= 10066329600 cpu:              32.2 elap:               1.5
 (Enter /sw/apps/gaussian-16.0/g16/l9999.exe)
 1\1\GINC-BP1-COMPUTE176\SP\RPBE1PBE TD-FC\def2SVP\C55H74Mg1N4O6\OF1564
 1\05-May-2022\0\\#p PBE1PBE/Def2SVP td=(nstates=5)\\step_801_chromopho
 re_5 TDDFT with PBE1PBE functional\\0,1\Mg,0,25.372,-5.769,46.487\C,0,
 27.132,-2.888,45.595\C,0,22.792,-4.846,44.472\C,0,23.983,-8.829,46.766
 \C,0,28.235,-6.842,48.04\N,0,24.976,-4.042,45.276\C,0,25.931,-3.042,44
 .966\C,0,25.444,-2.12,43.802\C,0,23.871,-2.577,43.688\C,0,23.823,-3.88
 1,44.536\C,0,22.98,-1.51,44.316\C,0,26.227,-2.197,42.435\C,0,26.407,-1
 .01,41.522\C,0,25.552,-1.04,40.226\O,0,24.295,-0.923,40.163\O,0,26.361
 ,-1.228,39.14\N,0,23.574,-6.691,45.798\C,0,22.572,-6.106,45.048\C,0,21
 .503,-7.031,44.874\C,0,21.798,-8.183,45.638\C,0,23.123,-7.893,46.183\C
 ,0,20.214,-6.79,43.993\C,0,20.905,-9.316,45.764\O,0,19.878,-9.35,45.14
 4\C,0,21.278,-10.462,46.668\N,0,26.064,-7.608,47.171\C,0,25.265,-8.747
 ,47.234\C,0,25.9,-9.874,48.029\C,0,27.343,-9.238,48.365\C,0,27.243,-7.
 839,47.853\C,0,25.093,-10.504,49.282\C,0,28.536,-10.052,47.805\C,0,29.
 525,-10.774,48.716\N,0,27.257,-5.024,46.885\C,0,28.339,-5.551,47.527\C
 ,0,29.47,-4.674,47.549\C,0,28.985,-3.603,46.768\C,0,27.617,-3.84,46.45
 3\C,0,30.829,-4.871,48.171\C,0,29.415,-2.287,46.205\O,0,30.399,-1.637,
 46.342\C,0,28.24,-1.88,45.289\C,0,27.86,-0.535,45.638\O,0,28.234,0.43,
 45.009\O,0,27.114,-0.583,46.802\C,0,26.551,0.655,47.268\C,0,25.616,-1.
 228,37.851\C,0,24.822,-2.466,37.709\C,0,25.162,-3.705,37.396\C,0,26.59
 ,-4.151,37.587\C,0,24.119,-4.766,37.263\C,0,23.468,-4.629,35.917\C,0,2
 3.781,-5.936,35.215\C,0,22.929,-5.903,33.901\C,0,21.863,-7.088,33.88\C
 ,0,23.854,-6.049,32.718\C,0,23.973,-4.749,31.889\C,0,25.34,-4.752,31.1
 06\C,0,25.422,-4.088,29.713\C,0,26.699,-3.227,29.559\C,0,24.931,-4.957
 ,28.498\C,0,23.515,-4.644,28.076\C,0,23.504,-3.536,27.005\C,0,22.858,-
 3.986,25.684\C,0,23.911,-4.569,24.676\C,0,22.066,-2.861,24.992\H,0,21.
 914,-4.64,43.856\H,0,23.692,-9.88,46.824\H,0,29.136,-7.123,48.59\H,0,2
 5.561,-1.095,44.153\H,0,23.488,-2.708,42.676\H,0,23.469,-0.54,44.222\H
 ,0,22.815,-1.607,45.389\H,0,22.092,-1.405,43.694\H,0,25.775,-3.037,41.
 907\H,0,27.192,-2.624,42.708\H,0,27.454,-1.022,41.22\H,0,26.223,-0.146
 ,42.16\H,0,19.998,-7.53,43.222\H,0,20.355,-5.896,43.386\H,0,19.402,-6.
 662,44.71\H,0,21.497,-10.042,47.65\H,0,22.036,-11.159,46.31\H,0,20.468
 ,-11.165,46.86\H,0,25.921,-10.668,47.283\H,0,27.532,-9.229,49.439\H,0,
 25.431,-9.985,50.179\H,0,25.312,-11.572,49.317\H,0,24.052,-10.203,49.1
 65\H,0,29.261,-9.431,47.279\H,0,28.162,-10.794,47.1\H,0,29.082,-10.943
 ,49.698\H,0,30.307,-10.05,48.94\H,0,29.932,-11.641,48.195\H,0,31.427,-
 3.963,48.103\H,0,31.323,-5.745,47.748\H,0,30.777,-5.138,49.227\H,0,28.
 503,-1.854,44.232\H,0,25.488,0.48,47.437\H,0,26.584,1.433,46.504\H,0,2
 7.061,1.047,48.148\H,0,26.281,-1.153,36.991\H,0,24.893,-0.419,37.75\H,
 0,23.764,-2.204,37.71\H,0,27.063,-4.417,36.642\H,0,26.61,-5.018,38.247
 \H,0,27.171,-3.384,38.099\H,0,23.449,-4.581,38.103\H,0,24.505,-5.752,3
 7.52\H,0,23.892,-3.809,35.339\H,0,22.402,-4.556,36.135\H,0,23.607,-6.8
 54,35.776\H,0,24.838,-5.906,34.948\H,0,22.264,-5.042,33.842\H,0,21.467
 ,-7.198,32.871\H,0,20.982,-6.739,34.42\H,0,22.402,-7.991,34.165\H,0,23
 .521,-6.877,32.092\H,0,24.885,-6.391,32.799\H,0,23.987,-3.965,32.646\H
 ,0,23.162,-4.631,31.17\H,0,25.426,-5.8,30.817\H,0,26.228,-4.415,31.64\
 H,0,24.66,-3.323,29.862\H,0,26.578,-2.248,30.024\H,0,27.043,-3.199,28.
 525\H,0,27.452,-3.573,30.267\H,0,25.105,-6.033,28.533\H,0,25.582,-4.76
 ,27.646\H,0,22.883,-4.486,28.95\H,0,23.1,-5.57,27.679\H,0,24.51,-3.165
 ,26.811\H,0,22.843,-2.745,27.36\H,0,22.141,-4.794,25.825\H,0,23.574,-5
 .376,24.025\H,0,24.778,-4.8,25.294\H,0,24.142,-3.715,24.039\H,0,21.055
 ,-2.841,25.398\H,0,22.05,-3.053,23.92\H,0,22.584,-1.912,25.135\\Versio
 n=ES64L-G16RevA.03\State=1-A\HF=-3005.3347707\RMSD=8.346e-09\PG=C01 [X
 (C55H74Mg1N4O6)]\\@


 OUR LITTLE SYSTEMS HAVE THEIR DAY,    
   THEY HAVE THEIR DAY AND CEASE TO BE.
   THEY ARE BUT BROKEN LIGHTS OF THEE, 
 AND THOU, OH LORD, ART MORE THAN THEY.
          -------------------          
 LET KNOWLEDGE GROW FROM MORE TO MORE, 
   BUT MORE OF REVERENCE IN US DWELL.  
   THAT MIND AND SOUL, ACCORDING WELL, 
 MAY MAKE ONE MUSIC AS BEFORE.....     
          -------------------          
                    LORD TENNYSON      
 Job cpu time:       0 days  9 hours 17 minutes  1.5 seconds.
 Elapsed time:       0 days  0 hours 23 minutes 16.6 seconds.
 File lengths (MBytes):  RWF=   8929 Int=      0 D2E=      0 Chk=    390 Scr=      1
 Normal termination of Gaussian 16 at Thu May  5 10:34:53 2022.
