 Entering Gaussian System, Link 0=g16
 Initial command:
 /sw/apps/gaussian-16.0/g16/l1.exe "/tmp/Gau-106817.inp" -scrdir="/tmp/"
 Entering Link 1 = /sw/apps/gaussian-16.0/g16/l1.exe PID=    106818.
  
 Copyright (c) 1988,1990,1992,1993,1995,1998,2003,2009,2016,
            Gaussian, Inc.  All Rights Reserved.
  
 This is part of the Gaussian(R) 16 program.  It is based on
 the Gaussian(R) 09 system (copyright 2009, Gaussian, Inc.),
 the Gaussian(R) 03 system (copyright 2003, Gaussian, Inc.),
 the Gaussian(R) 98 system (copyright 1998, Gaussian, Inc.),
 the Gaussian(R) 94 system (copyright 1995, Gaussian, Inc.),
 the Gaussian 92(TM) system (copyright 1992, Gaussian, Inc.),
 the Gaussian 90(TM) system (copyright 1990, Gaussian, Inc.),
 the Gaussian 88(TM) system (copyright 1988, Gaussian, Inc.),
 the Gaussian 86(TM) system (copyright 1986, Carnegie Mellon
 University), and the Gaussian 82(TM) system (copyright 1983,
 Carnegie Mellon University). Gaussian is a federally registered
 trademark of Gaussian, Inc.
  
 This software contains proprietary and confidential information,
 including trade secrets, belonging to Gaussian, Inc.
  
 This software is provided under written license and may be
 used, copied, transmitted, or stored only in accord with that
 written license.
  
 The following legend is applicable only to US Government
 contracts under FAR:
  
                    RESTRICTED RIGHTS LEGEND
  
 Use, reproduction and disclosure by the US Government is
 subject to restrictions as set forth in subparagraphs (a)
 and (c) of the Commercial Computer Software - Restricted
 Rights clause in FAR 52.227-19.
  
 Gaussian, Inc.
 340 Quinnipiac St., Bldg. 40, Wallingford CT 06492
  
  
 ---------------------------------------------------------------
 Warning -- This program may not be used in any manner that
 competes with the business of Gaussian, Inc. or will provide
 assistance to any competitor of Gaussian, Inc.  The licensee
 of this program is prohibited from giving any competitor of
 Gaussian, Inc. access to this program.  By using this program,
 the user acknowledges that Gaussian, Inc. is engaged in the
 business of creating and licensing software in the field of
 computational chemistry and represents and warrants to the
 licensee that it is not a competitor of Gaussian, Inc. and that
 it will not use this program in any manner prohibited above.
 ---------------------------------------------------------------
  

 Cite this work as:
 Gaussian 16, Revision A.03,
 M. J. Frisch, G. W. Trucks, H. B. Schlegel, G. E. Scuseria, 
 M. A. Robb, J. R. Cheeseman, G. Scalmani, V. Barone, 
 G. A. Petersson, H. Nakatsuji, X. Li, M. Caricato, A. V. Marenich, 
 J. Bloino, B. G. Janesko, R. Gomperts, B. Mennucci, H. P. Hratchian, 
 J. V. Ortiz, A. F. Izmaylov, J. L. Sonnenberg, D. Williams-Young, 
 F. Ding, F. Lipparini, F. Egidi, J. Goings, B. Peng, A. Petrone, 
 T. Henderson, D. Ranasinghe, V. G. Zakrzewski, J. Gao, N. Rega, 
 G. Zheng, W. Liang, M. Hada, M. Ehara, K. Toyota, R. Fukuda, 
 J. Hasegawa, M. Ishida, T. Nakajima, Y. Honda, O. Kitao, H. Nakai, 
 T. Vreven, K. Throssell, J. A. Montgomery, Jr., J. E. Peralta, 
 F. Ogliaro, M. J. Bearpark, J. J. Heyd, E. N. Brothers, K. N. Kudin, 
 V. N. Staroverov, T. A. Keith, R. Kobayashi, J. Normand, 
 K. Raghavachari, A. P. Rendell, J. C. Burant, S. S. Iyengar, 
 J. Tomasi, M. Cossi, J. M. Millam, M. Klene, C. Adamo, R. Cammi, 
 J. W. Ochterski, R. L. Martin, K. Morokuma, O. Farkas, 
 J. B. Foresman, and D. J. Fox, Gaussian, Inc., Wallingford CT, 2016.
 
 ******************************************
 Gaussian 16:  ES64L-G16RevA.03 25-Dec-2016
                30-Apr-2022 
 ******************************************
 %nproc=24
 Will use up to   24 processors via shared memory.
 %mem=75GB
 --------------------------------
 #p wB97XD/Def2SVP td=(nstates=5)
 --------------------------------
 1/38=1,172=1/1;
 2/12=2,17=6,18=5,40=1/2;
 3/5=43,7=101,11=9,25=1,30=1,74=-58/1,2,3,8;
 4//1;
 5/5=2,38=5/2;
 8/6=1,10=1,108=5/1;
 9/41=5,42=1,70=2/14;
 6/7=2,8=2,9=2,10=2/1;
 99/5=1,9=1/99;
 Leave Link    1 at Sat Apr 30 21:25:35 2022, MaxMem= 10066329600 cpu:               1.5 elap:               0.1
 (Enter /sw/apps/gaussian-16.0/g16/l101.exe)
 ---------------------------------------------------
 step_901_chromophore_2 TDDFT with wB97XD functional
 ---------------------------------------------------
 Symbolic Z-matrix:
 Charge =  0 Multiplicity = 1
 Mg                    3.476     1.062     44.352 
 C                     6.226     3.258     43.847 
 C                     1.532     3.502     42.711 
 C                     1.157    -1.222     43.806 
 C                     5.849    -1.391     45.261 
 N                     3.885     3.03      43.26 
 C                     5.001     3.715     43.369 
 C                     4.815     5.112     42.743 
 C                     3.317     5.269     42.806 
 C                     2.858     3.861     42.857 
 C                     2.748     6.113     43.973 
 C                     5.355     5.255     41.342 
 C                     5.424     3.967     40.513 
 C                     5.67      4.104     39.014 
 O                     6.313     5.01      38.477 
 O                     5.216     3.025     38.207 
 N                     1.592     1.16      43.527 
 C                     0.944     2.25      42.999 
 C                    -0.447     1.931     42.856 
 C                    -0.584     0.544     43.172 
 C                     0.756     0.074     43.573 
 C                    -1.436     2.918     42.299 
 C                    -1.903    -0.265     43.151 
 O                    -2.949     0.22      42.774 
 C                    -1.959    -1.676     43.416 
 N                     3.591    -1.031     44.389 
 C                     2.446    -1.785     44.166 
 C                     2.576    -3.309     44.574 
 C                     3.994    -3.263     45.237 
 C                     4.603    -1.876     44.903 
 C                     1.441    -3.801     45.505 
 C                     4.824    -4.503     44.861 
 C                     5.432    -5.251     45.998 
 N                     5.661     0.95      44.565 
 C                     6.443    -0.13      44.993 
 C                     7.823     0.329     44.945 
 C                     7.721     1.694     44.582 
 C                     6.434     2.009     44.307 
 C                     9.084    -0.438     45.448 
 C                     8.526     2.871     44.398 
 O                     9.762     3.024     44.449 
 C                     7.576     3.921     43.838 
 C                     7.633     5.219     44.586 
 O                     8.122     6.276     44.256 
 O                     6.94      4.953     45.79 
 C                     6.575     6.207     46.525 
 C                     5.558     3.105     36.791 
 C                     4.685     2.111     36.026 
 C                     5.046     1.316     35.01 
 C                     6.456     1.357     34.326 
 C                     4.083     0.266     34.373 
 C                     3.166     0.635     33.099 
 C                     1.757     0.046     33.266 
 C                     0.664     1.074     33.593 
 C                    -0.14      0.707     34.88 
 C                    -0.29      1.469     32.442 
 C                    -0.012     2.82      31.772 
 C                    -0.968     3.977     31.982 
 C                    -1.439     4.635     30.692 
 C                    -2.046     5.982     30.952 
 C                    -2.407     3.77      29.844 
 C                    -1.719     3.379     28.541 
 C                    -2.506     2.238     27.682 
 C                    -2.659     2.509     26.209 
 C                    -3.295     3.89      26.027 
 C                    -3.44      1.49      25.351 
 H                     0.856     4.28      42.348 
 H                     0.457    -2.04      43.623 
 H                     6.521    -2.169     45.629 
 H                     5.332     5.909     43.277 
 H                     2.81      5.693     41.939 
 H                     2.549     7.151     43.707 
 H                     3.385     6.294     44.839 
 H                     1.821     5.761     44.425 
 H                     6.313     5.755     41.489 
 H                     4.751     5.942     40.749 
 H                     4.456     3.467     40.556 
 H                     6.246     3.317     40.812 
 H                    -1.431     2.988     41.211 
 H                    -1.191     3.918     42.657 
 H                    -2.479     2.705     42.534 
 H                    -1.741    -2.107     44.393 
 H                    -1.406    -2.112     42.583 
 H                    -2.964    -2.089     43.323 
 H                     2.634    -3.91      43.666 
 H                     3.871    -3.091     46.307 
 H                     0.542    -4.094     44.963 
 H                     1.16     -2.992     46.18 
 H                     1.7      -4.667     46.114 
 H                     5.653    -4.153     44.246 
 H                     4.256    -5.162     44.205 
 H                     5.303    -6.266     45.622 
 H                     4.968    -5.101     46.973 
 H                     6.519    -5.188     46.044 
 H                     9.761    -0.744     44.65 
 H                     8.801    -1.318     46.026 
 H                     9.599     0.127     46.225 
 H                     8.066     4.112     42.884 
 H                     5.694     5.928     47.103 
 H                     6.431     7.007     45.799 
 H                     7.342     6.405     47.274 
 H                     6.617     2.878     36.668 
 H                     5.5       4.115     36.388 
 H                     3.646     1.921     36.298 
 H                     7.137     2.056     34.811 
 H                     6.447     1.584     33.26 
 H                     6.846     0.344     34.422 
 H                     3.519    -0.136     35.214 
 H                     4.736    -0.536     34.027 
 H                     3.703     0.189     32.262 
 H                     3.033     1.706     32.943 
 H                     1.728    -0.788     33.967 
 H                     1.526    -0.24      32.24 
 H                     1.142     2.011     33.88 
 H                    -0.29     -0.368     34.981 
 H                    -1.128     1.167     34.893 
 H                     0.347     1.139     35.754 
 H                    -1.308     1.433     32.83 
 H                    -0.39      0.654     31.724 
 H                     0.048     2.572     30.712 
 H                     0.964     3.147     32.132 
 H                    -0.443     4.729     32.571 
 H                    -1.779     3.517     32.547 
 H                    -0.54      5.001     30.197 
 H                    -2.673     6.401     30.165 
 H                    -1.296     6.764     31.069 
 H                    -2.717     6.029     31.809 
 H                    -3.389     4.211     29.669 
 H                    -2.59      2.846     30.393 
 H                    -0.678     3.093     28.688 
 H                    -1.725     4.321     27.993 
 H                    -3.481     2.213     28.168 
 H                    -2.042     1.28      27.915 
 H                    -1.644     2.613     25.826 
 H                    -2.645     4.465     25.366 
 H                    -3.52      4.388     26.97 
 H                    -4.248     3.936     25.501 
 H                    -3.724     0.593     25.902 
 H                    -2.811     1.166     24.521 
 H                    -4.405     1.836     24.979 
 
 ITRead=  0  0  0  0  0  0  0  0  0  0  0  0  0  0  0  0  0  0  0  0
 ITRead=  0  0  0  0  0  0  0  0  0  0  0  0  0  0  0  0  0  0  0  0
 ITRead=  0  0  0  0  0  0  0  0  0  0  0  0  0  0  0  0  0  0  0  0
 ITRead=  0  0  0  0  0  0  0  0  0  0  0  0  0  0  0  0  0  0  0  0
 ITRead=  0  0  0  0  0  0  0  0  0  0  0  0  0  0  0  0  0  0  0  0
 ITRead=  0  0  0  0  0  0  0  0  0  0  0  0  0  0  0  0  0  0  0  0
 ITRead=  0  0  0  0  0  0  0  0  0  0  0  0  0  0  0  0  0  0  0  0
 MicOpt= -1 -1 -1 -1 -1 -1 -1 -1 -1 -1 -1 -1 -1 -1 -1 -1 -1 -1 -1 -1
 MicOpt= -1 -1 -1 -1 -1 -1 -1 -1 -1 -1 -1 -1 -1 -1 -1 -1 -1 -1 -1 -1
 MicOpt= -1 -1 -1 -1 -1 -1 -1 -1 -1 -1 -1 -1 -1 -1 -1 -1 -1 -1 -1 -1
 MicOpt= -1 -1 -1 -1 -1 -1 -1 -1 -1 -1 -1 -1 -1 -1 -1 -1 -1 -1 -1 -1
 MicOpt= -1 -1 -1 -1 -1 -1 -1 -1 -1 -1 -1 -1 -1 -1 -1 -1 -1 -1 -1 -1
 MicOpt= -1 -1 -1 -1 -1 -1 -1 -1 -1 -1 -1 -1 -1 -1 -1 -1 -1 -1 -1 -1
 MicOpt= -1 -1 -1 -1 -1 -1 -1 -1 -1 -1 -1 -1 -1 -1 -1 -1 -1 -1 -1 -1
 NAtoms=    140 NQM=      140 NQMF=       0 NMMI=      0 NMMIF=      0
                NMic=       0 NMicF=      0.
                    Isotopes and Nuclear Properties:
 (Nuclear quadrupole moments (NQMom) in fm**2, nuclear magnetic moments (NMagM)
  in nuclear magnetons)

  Atom         1           2           3           4           5           6           7           8           9          10
 IAtWgt=          24          12          12          12          12          14          12          12          12          12
 AtmWgt=  23.9850450  12.0000000  12.0000000  12.0000000  12.0000000  14.0030740  12.0000000  12.0000000  12.0000000  12.0000000
 NucSpn=           0           0           0           0           0           2           0           0           0           0
 AtZEff=  -0.0000000  -0.0000000  -0.0000000  -0.0000000  -0.0000000  -0.0000000  -0.0000000  -0.0000000  -0.0000000  -0.0000000
 NQMom=    0.0000000   0.0000000   0.0000000   0.0000000   0.0000000   2.0440000   0.0000000   0.0000000   0.0000000   0.0000000
 NMagM=    0.0000000   0.0000000   0.0000000   0.0000000   0.0000000   0.4037610   0.0000000   0.0000000   0.0000000   0.0000000
 AtZNuc=  12.0000000   6.0000000   6.0000000   6.0000000   6.0000000   7.0000000   6.0000000   6.0000000   6.0000000   6.0000000

  Atom        11          12          13          14          15          16          17          18          19          20
 IAtWgt=          12          12          12          12          16          16          14          12          12          12
 AtmWgt=  12.0000000  12.0000000  12.0000000  12.0000000  15.9949146  15.9949146  14.0030740  12.0000000  12.0000000  12.0000000
 NucSpn=           0           0           0           0           0           0           2           0           0           0
 AtZEff=  -0.0000000  -0.0000000  -0.0000000  -0.0000000  -0.0000000  -0.0000000  -0.0000000  -0.0000000  -0.0000000  -0.0000000
 NQMom=    0.0000000   0.0000000   0.0000000   0.0000000   0.0000000   0.0000000   2.0440000   0.0000000   0.0000000   0.0000000
 NMagM=    0.0000000   0.0000000   0.0000000   0.0000000   0.0000000   0.0000000   0.4037610   0.0000000   0.0000000   0.0000000
 AtZNuc=   6.0000000   6.0000000   6.0000000   6.0000000   8.0000000   8.0000000   7.0000000   6.0000000   6.0000000   6.0000000

  Atom        21          22          23          24          25          26          27          28          29          30
 IAtWgt=          12          12          12          16          12          14          12          12          12          12
 AtmWgt=  12.0000000  12.0000000  12.0000000  15.9949146  12.0000000  14.0030740  12.0000000  12.0000000  12.0000000  12.0000000
 NucSpn=           0           0           0           0           0           2           0           0           0           0
 AtZEff=  -0.0000000  -0.0000000  -0.0000000  -0.0000000  -0.0000000  -0.0000000  -0.0000000  -0.0000000  -0.0000000  -0.0000000
 NQMom=    0.0000000   0.0000000   0.0000000   0.0000000   0.0000000   2.0440000   0.0000000   0.0000000   0.0000000   0.0000000
 NMagM=    0.0000000   0.0000000   0.0000000   0.0000000   0.0000000   0.4037610   0.0000000   0.0000000   0.0000000   0.0000000
 AtZNuc=   6.0000000   6.0000000   6.0000000   8.0000000   6.0000000   7.0000000   6.0000000   6.0000000   6.0000000   6.0000000

  Atom        31          32          33          34          35          36          37          38          39          40
 IAtWgt=          12          12          12          14          12          12          12          12          12          12
 AtmWgt=  12.0000000  12.0000000  12.0000000  14.0030740  12.0000000  12.0000000  12.0000000  12.0000000  12.0000000  12.0000000
 NucSpn=           0           0           0           2           0           0           0           0           0           0
 AtZEff=  -0.0000000  -0.0000000  -0.0000000  -0.0000000  -0.0000000  -0.0000000  -0.0000000  -0.0000000  -0.0000000  -0.0000000
 NQMom=    0.0000000   0.0000000   0.0000000   2.0440000   0.0000000   0.0000000   0.0000000   0.0000000   0.0000000   0.0000000
 NMagM=    0.0000000   0.0000000   0.0000000   0.4037610   0.0000000   0.0000000   0.0000000   0.0000000   0.0000000   0.0000000
 AtZNuc=   6.0000000   6.0000000   6.0000000   7.0000000   6.0000000   6.0000000   6.0000000   6.0000000   6.0000000   6.0000000

  Atom        41          42          43          44          45          46          47          48          49          50
 IAtWgt=          16          12          12          16          16          12          12          12          12          12
 AtmWgt=  15.9949146  12.0000000  12.0000000  15.9949146  15.9949146  12.0000000  12.0000000  12.0000000  12.0000000  12.0000000
 NucSpn=           0           0           0           0           0           0           0           0           0           0
 AtZEff=  -0.0000000  -0.0000000  -0.0000000  -0.0000000  -0.0000000  -0.0000000  -0.0000000  -0.0000000  -0.0000000  -0.0000000
 NQMom=    0.0000000   0.0000000   0.0000000   0.0000000   0.0000000   0.0000000   0.0000000   0.0000000   0.0000000   0.0000000
 NMagM=    0.0000000   0.0000000   0.0000000   0.0000000   0.0000000   0.0000000   0.0000000   0.0000000   0.0000000   0.0000000
 AtZNuc=   8.0000000   6.0000000   6.0000000   8.0000000   8.0000000   6.0000000   6.0000000   6.0000000   6.0000000   6.0000000

  Atom        51          52          53          54          55          56          57          58          59          60
 IAtWgt=          12          12          12          12          12          12          12          12          12          12
 AtmWgt=  12.0000000  12.0000000  12.0000000  12.0000000  12.0000000  12.0000000  12.0000000  12.0000000  12.0000000  12.0000000
 NucSpn=           0           0           0           0           0           0           0           0           0           0
 AtZEff=  -0.0000000  -0.0000000  -0.0000000  -0.0000000  -0.0000000  -0.0000000  -0.0000000  -0.0000000  -0.0000000  -0.0000000
 NQMom=    0.0000000   0.0000000   0.0000000   0.0000000   0.0000000   0.0000000   0.0000000   0.0000000   0.0000000   0.0000000
 NMagM=    0.0000000   0.0000000   0.0000000   0.0000000   0.0000000   0.0000000   0.0000000   0.0000000   0.0000000   0.0000000
 AtZNuc=   6.0000000   6.0000000   6.0000000   6.0000000   6.0000000   6.0000000   6.0000000   6.0000000   6.0000000   6.0000000

  Atom        61          62          63          64          65          66          67          68          69          70
 IAtWgt=          12          12          12          12          12          12           1           1           1           1
 AtmWgt=  12.0000000  12.0000000  12.0000000  12.0000000  12.0000000  12.0000000   1.0078250   1.0078250   1.0078250   1.0078250
 NucSpn=           0           0           0           0           0           0           1           1           1           1
 AtZEff=  -0.0000000  -0.0000000  -0.0000000  -0.0000000  -0.0000000  -0.0000000  -0.0000000  -0.0000000  -0.0000000  -0.0000000
 NQMom=    0.0000000   0.0000000   0.0000000   0.0000000   0.0000000   0.0000000   0.0000000   0.0000000   0.0000000   0.0000000
 NMagM=    0.0000000   0.0000000   0.0000000   0.0000000   0.0000000   0.0000000   2.7928460   2.7928460   2.7928460   2.7928460
 AtZNuc=   6.0000000   6.0000000   6.0000000   6.0000000   6.0000000   6.0000000   1.0000000   1.0000000   1.0000000   1.0000000

  Atom        71          72          73          74          75          76          77          78          79          80
 IAtWgt=           1           1           1           1           1           1           1           1           1           1
 AtmWgt=   1.0078250   1.0078250   1.0078250   1.0078250   1.0078250   1.0078250   1.0078250   1.0078250   1.0078250   1.0078250
 NucSpn=           1           1           1           1           1           1           1           1           1           1
 AtZEff=  -0.0000000  -0.0000000  -0.0000000  -0.0000000  -0.0000000  -0.0000000  -0.0000000  -0.0000000  -0.0000000  -0.0000000
 NQMom=    0.0000000   0.0000000   0.0000000   0.0000000   0.0000000   0.0000000   0.0000000   0.0000000   0.0000000   0.0000000
 NMagM=    2.7928460   2.7928460   2.7928460   2.7928460   2.7928460   2.7928460   2.7928460   2.7928460   2.7928460   2.7928460
 AtZNuc=   1.0000000   1.0000000   1.0000000   1.0000000   1.0000000   1.0000000   1.0000000   1.0000000   1.0000000   1.0000000

  Atom        81          82          83          84          85          86          87          88          89          90
 IAtWgt=           1           1           1           1           1           1           1           1           1           1
 AtmWgt=   1.0078250   1.0078250   1.0078250   1.0078250   1.0078250   1.0078250   1.0078250   1.0078250   1.0078250   1.0078250
 NucSpn=           1           1           1           1           1           1           1           1           1           1
 AtZEff=  -0.0000000  -0.0000000  -0.0000000  -0.0000000  -0.0000000  -0.0000000  -0.0000000  -0.0000000  -0.0000000  -0.0000000
 NQMom=    0.0000000   0.0000000   0.0000000   0.0000000   0.0000000   0.0000000   0.0000000   0.0000000   0.0000000   0.0000000
 NMagM=    2.7928460   2.7928460   2.7928460   2.7928460   2.7928460   2.7928460   2.7928460   2.7928460   2.7928460   2.7928460
 AtZNuc=   1.0000000   1.0000000   1.0000000   1.0000000   1.0000000   1.0000000   1.0000000   1.0000000   1.0000000   1.0000000

  Atom        91          92          93          94          95          96          97          98          99         100
 IAtWgt=           1           1           1           1           1           1           1           1           1           1
 AtmWgt=   1.0078250   1.0078250   1.0078250   1.0078250   1.0078250   1.0078250   1.0078250   1.0078250   1.0078250   1.0078250
 NucSpn=           1           1           1           1           1           1           1           1           1           1
 AtZEff=  -0.0000000  -0.0000000  -0.0000000  -0.0000000  -0.0000000  -0.0000000  -0.0000000  -0.0000000  -0.0000000  -0.0000000
 NQMom=    0.0000000   0.0000000   0.0000000   0.0000000   0.0000000   0.0000000   0.0000000   0.0000000   0.0000000   0.0000000
 NMagM=    2.7928460   2.7928460   2.7928460   2.7928460   2.7928460   2.7928460   2.7928460   2.7928460   2.7928460   2.7928460
 AtZNuc=   1.0000000   1.0000000   1.0000000   1.0000000   1.0000000   1.0000000   1.0000000   1.0000000   1.0000000   1.0000000

  Atom       101         102         103         104         105         106         107         108         109         110
 IAtWgt=           1           1           1           1           1           1           1           1           1           1
 AtmWgt=   1.0078250   1.0078250   1.0078250   1.0078250   1.0078250   1.0078250   1.0078250   1.0078250   1.0078250   1.0078250
 NucSpn=           1           1           1           1           1           1           1           1           1           1
 AtZEff=  -0.0000000  -0.0000000  -0.0000000  -0.0000000  -0.0000000  -0.0000000  -0.0000000  -0.0000000  -0.0000000  -0.0000000
 NQMom=    0.0000000   0.0000000   0.0000000   0.0000000   0.0000000   0.0000000   0.0000000   0.0000000   0.0000000   0.0000000
 NMagM=    2.7928460   2.7928460   2.7928460   2.7928460   2.7928460   2.7928460   2.7928460   2.7928460   2.7928460   2.7928460
 AtZNuc=   1.0000000   1.0000000   1.0000000   1.0000000   1.0000000   1.0000000   1.0000000   1.0000000   1.0000000   1.0000000

  Atom       111         112         113         114         115         116         117         118         119         120
 IAtWgt=           1           1           1           1           1           1           1           1           1           1
 AtmWgt=   1.0078250   1.0078250   1.0078250   1.0078250   1.0078250   1.0078250   1.0078250   1.0078250   1.0078250   1.0078250
 NucSpn=           1           1           1           1           1           1           1           1           1           1
 AtZEff=  -0.0000000  -0.0000000  -0.0000000  -0.0000000  -0.0000000  -0.0000000  -0.0000000  -0.0000000  -0.0000000  -0.0000000
 NQMom=    0.0000000   0.0000000   0.0000000   0.0000000   0.0000000   0.0000000   0.0000000   0.0000000   0.0000000   0.0000000
 NMagM=    2.7928460   2.7928460   2.7928460   2.7928460   2.7928460   2.7928460   2.7928460   2.7928460   2.7928460   2.7928460
 AtZNuc=   1.0000000   1.0000000   1.0000000   1.0000000   1.0000000   1.0000000   1.0000000   1.0000000   1.0000000   1.0000000

  Atom       121         122         123         124         125         126         127         128         129         130
 IAtWgt=           1           1           1           1           1           1           1           1           1           1
 AtmWgt=   1.0078250   1.0078250   1.0078250   1.0078250   1.0078250   1.0078250   1.0078250   1.0078250   1.0078250   1.0078250
 NucSpn=           1           1           1           1           1           1           1           1           1           1
 AtZEff=  -0.0000000  -0.0000000  -0.0000000  -0.0000000  -0.0000000  -0.0000000  -0.0000000  -0.0000000  -0.0000000  -0.0000000
 NQMom=    0.0000000   0.0000000   0.0000000   0.0000000   0.0000000   0.0000000   0.0000000   0.0000000   0.0000000   0.0000000
 NMagM=    2.7928460   2.7928460   2.7928460   2.7928460   2.7928460   2.7928460   2.7928460   2.7928460   2.7928460   2.7928460
 AtZNuc=   1.0000000   1.0000000   1.0000000   1.0000000   1.0000000   1.0000000   1.0000000   1.0000000   1.0000000   1.0000000

  Atom       131         132         133         134         135         136         137         138         139         140
 IAtWgt=           1           1           1           1           1           1           1           1           1           1
 AtmWgt=   1.0078250   1.0078250   1.0078250   1.0078250   1.0078250   1.0078250   1.0078250   1.0078250   1.0078250   1.0078250
 NucSpn=           1           1           1           1           1           1           1           1           1           1
 AtZEff=  -0.0000000  -0.0000000  -0.0000000  -0.0000000  -0.0000000  -0.0000000  -0.0000000  -0.0000000  -0.0000000  -0.0000000
 NQMom=    0.0000000   0.0000000   0.0000000   0.0000000   0.0000000   0.0000000   0.0000000   0.0000000   0.0000000   0.0000000
 NMagM=    2.7928460   2.7928460   2.7928460   2.7928460   2.7928460   2.7928460   2.7928460   2.7928460   2.7928460   2.7928460
 AtZNuc=   1.0000000   1.0000000   1.0000000   1.0000000   1.0000000   1.0000000   1.0000000   1.0000000   1.0000000   1.0000000
 Leave Link  101 at Sat Apr 30 21:25:35 2022, MaxMem= 10066329600 cpu:               3.0 elap:               0.1
 (Enter /sw/apps/gaussian-16.0/g16/l202.exe)
 Stoichiometry    C55H74MgN4O6
 Framework group  C1[X(C55H74MgN4O6)]
 Deg. of freedom   414
 Full point group                 C1      NOp   1
 Largest Abelian subgroup         C1      NOp   1
 Largest concise Abelian subgroup C1      NOp   1
                         Standard orientation:                         
 ---------------------------------------------------------------------
 Center     Atomic      Atomic             Coordinates (Angstroms)
 Number     Number       Type             X           Y           Z
 ---------------------------------------------------------------------
      1         12           0        4.514063    1.130119   -0.725048
      2          6           0        4.904592   -2.381489   -0.330035
      3          6           0        2.006386    0.347368   -3.075469
      4          6           0        3.339251    4.199400   -0.421953
      5          6           0        6.520957    1.484185    2.159675
      6          7           0        3.475832   -0.774930   -1.450054
      7          6           0        3.942389   -1.987851   -1.255871
      8          6           0        3.155741   -2.990938   -2.123675
      9          6           0        2.612167   -2.088718   -3.202169
     10          6           0        2.621809   -0.765373   -2.535528
     11          6           0        3.372232   -2.070324   -4.551223
     12          6           0        2.070475   -3.743466   -1.395150
     13          6           0        1.469165   -3.040580   -0.172316
     14          6           0        0.179961   -3.612532    0.408297
     15          8           0       -0.151691   -4.800596    0.374163
     16          8           0       -0.626711   -2.704813    1.147847
     17          7           0        3.013166    2.149106   -1.699041
     18          6           0        2.166689    1.694442   -2.680644
     19          6           0        1.524569    2.822674   -3.290451
     20          6           0        1.900365    3.970503   -2.526474
     21          6           0        2.838369    3.493374   -1.492164
     22          6           0        0.528725    2.663562   -4.406479
     23          6           0        1.447534    5.425897   -2.793785
     24          8           0        0.644853    5.700733   -3.660755
     25          6           0        1.810746    6.526191   -1.944250
     26          7           0        4.804433    2.556282    0.783921
     27          6           0        4.229217    3.814341    0.658686
     28          6           0        4.807366    4.900572    1.654570
     29          6           0        5.963398    4.056750    2.290152
     30          6           0        5.755567    2.589682    1.831105
     31          6           0        5.265400    6.203116    0.954118
     32          6           0        6.069059    4.310198    3.804245
     33          6           0        7.422525    4.673041    4.312587
     34          7           0        5.574054   -0.206487    0.661328
     35          6           0        6.380387    0.130801    1.755482
     36          6           0        6.829305   -1.129556    2.327633
     37          6           0        6.319342   -2.111608    1.443942
     38          6           0        5.532997   -1.533139    0.506789
     39          6           0        7.859787   -1.320608    3.482201
     40          6           0        6.346566   -3.528675    1.202300
     41          8           0        6.860727   -4.453693    1.860847
     42          6           0        5.356848   -3.759489    0.068375
     43          6           0        5.932273   -4.570478   -1.053560
     44          8           0        5.714571   -5.720726   -1.361467
     45          8           0        6.789947   -3.668484   -1.725438
     46          6           0        7.193030   -4.168624   -3.079451
     47          6           0       -1.796701   -3.283070    1.799892
     48          6           0       -2.737263   -2.147314    2.200882
     49          6           0       -3.445403   -2.030485    3.332027
     50          6           0       -3.524402   -3.143614    4.433090
     51          6           0       -4.298361   -0.768117    3.670449
     52          6           0       -5.859601   -0.681913    3.276462
     53          6           0       -6.197833    0.715291    2.734696
     54          6           0       -6.429661    0.779000    1.217937
     55          6           0       -5.529211    1.844502    0.516960
     56          6           0       -7.895451    0.896767    0.739885
     57          6           0       -8.536397   -0.392715    0.212810
     58          6           0       -8.834781   -0.536921   -1.265992
     59          6           0      -10.265600   -0.958646   -1.572277
     60          6           0      -10.401072   -1.461574   -2.979106
     61          6           0      -11.332263    0.131303   -1.291932
     62          6           0      -12.216053   -0.318388   -0.134035
     63          6           0      -13.194154    0.845490    0.455743
     64          6           0      -14.629024    0.449892    0.682078
     65          6           0      -15.183664   -0.149239   -0.613375
     66          6           0      -15.616198    1.522800    1.190843
     67          1           0        1.331471    0.168419   -3.916002
     68          1           0        2.980986    5.213975   -0.235148
     69          1           0        7.198883    1.666841    2.995944
     70          1           0        3.765762   -3.795677   -2.533458
     71          1           0        1.577951   -2.231819   -3.515910
     72          1           0        2.946170   -2.733864   -5.303544
     73          1           0        4.395171   -2.446589   -4.573723
     74          1           0        3.459138   -1.105788   -5.050879
     75          1           0        2.528763   -4.710741   -1.186049
     76          1           0        1.222460   -3.953036   -2.047366
     77          1           0        1.180805   -2.027375   -0.453630
     78          1           0        2.129634   -3.063901    0.694184
     79          1           0       -0.471840    2.385477   -4.074505
     80          1           0        0.850914    1.859257   -5.067899
     81          1           0        0.357713    3.561507   -5.000527
     82          1           0        2.833385    6.890204   -1.846689
     83          1           0        1.308771    6.295976   -1.003604
     84          1           0        1.374704    7.473880   -2.262051
     85          1           0        4.060029    5.103649    2.422214
     86          1           0        6.876922    4.237095    1.722207
     87          1           0        4.447844    6.901466    0.776011
     88          1           0        5.691395    5.952371   -0.017851
     89          1           0        6.011340    6.774506    1.506390
     90          1           0        5.794928    3.378934    4.299790
     91          1           0        5.313538    5.025233    4.128519
     92          1           0        7.130711    5.406803    5.064040
     93          1           0        8.118109    5.077433    3.577025
     94          1           0        7.882988    3.910896    4.940888
     95          1           0        7.425145   -1.719367    4.399177
     96          1           0        8.366993   -0.383304    3.711930
     97          1           0        8.714807   -1.908060    3.147508
     98          1           0        4.656165   -4.420559    0.577027
     99          1           0        7.405812   -3.260969   -3.644228
    100          1           0        6.391651   -4.793900   -3.472686
    101          1           0        8.158001   -4.668104   -2.990884
    102          1           0       -1.472485   -3.854207    2.669849
    103          1           0       -2.290182   -4.049158    1.203689
    104          1           0       -2.875185   -1.260834    1.580612
    105          1           0       -2.885222   -3.998087    4.211927
    106          1           0       -4.526180   -3.519969    4.639882
    107          1           0       -3.181772   -2.660728    5.347919
    108          1           0       -3.708651    0.069834    3.300232
    109          1           0       -4.278692   -0.703092    4.758894
    110          1           0       -6.370477   -0.895115    4.215293
    111          1           0       -6.162567   -1.390430    2.504917
    112          1           0       -5.483490    1.475342    3.050663
    113          1           0       -7.197901    0.862126    3.142293
    114          1           0       -6.075020   -0.150714    0.772199
    115          1           0       -5.386744    2.733695    1.131260
    116          1           0       -5.949879    2.178984   -0.431234
    117          1           0       -4.582938    1.390827    0.222992
    118          1           0       -7.934603    1.683141   -0.013937
    119          1           0       -8.509056    1.397607    1.489816
    120          1           0       -9.457707   -0.474580    0.790037
    121          1           0       -7.858707   -1.204423    0.479215
    122          1           0       -8.166763   -1.303497   -1.658630
    123          1           0       -8.588243    0.450574   -1.656654
    124          1           0      -10.404204   -1.923349   -1.085122
    125          1           0      -11.408478   -1.504361   -3.393064
    126          1           0      -10.080015   -2.497484   -3.086461
    127          1           0       -9.883922   -0.869590   -3.733434
    128          1           0      -11.920673    0.436518   -2.157985
    129          1           0      -10.808067    1.027207   -0.958403
    130          1           0      -11.645876   -0.779570    0.671754
    131          1           0      -12.815005   -1.100603   -0.599974
    132          1           0      -13.127952    1.615502   -0.312466
    133          1           0      -12.702823    1.267910    1.331816
    134          1           0      -14.593344   -0.382028    1.385190
    135          1           0      -15.592571   -1.131103   -0.370924
    136          1           0      -14.459147   -0.159860   -1.427526
    137          1           0      -16.041952    0.346308   -1.065899
    138          1           0      -15.132368    2.467342    1.441071
    139          1           0      -16.097054    1.162378    2.101002
    140          1           0      -16.368603    1.843834    0.469629
 ---------------------------------------------------------------------
 Rotational constants (GHZ):           0.0385879           0.0116892           0.0106958
 Leave Link  202 at Sat Apr 30 21:25:35 2022, MaxMem= 10066329600 cpu:               0.2 elap:               0.0
 (Enter /sw/apps/gaussian-16.0/g16/l301.exe)
 Standard basis: def2SVP (5D, 7F)
 Ernie: Thresh=  0.10000D-02 Tol=  0.10000D-05 Strict=F.
 There are  1364 symmetry adapted cartesian basis functions of A   symmetry.
 There are  1298 symmetry adapted basis functions of A   symmetry.
  1298 basis functions,  2180 primitive gaussians,  1364 cartesian basis functions
   246 alpha electrons      246 beta electrons
       nuclear repulsion energy      9736.9080747822 Hartrees.
 IExCor= 4639 DFT=T Ex+Corr=wB97XD ExCW=0 ScaHFX=  1.000000
 ScaDFX=  1.000000  1.000000  1.000000  1.000000 ScalE2=  1.000000  1.000000
 IRadAn=      5 IRanWt=     -1 IRanGd=            0 ICorTp=0 IEmpDi=121
 HFx  wShort=  0.000000 wLong=  0.200000 cFull=  0.222036 cShort=  0.000000 cLong=  0.777964
 DFx  wShort=  0.000000 wLong=  0.200000 cFull=  0.000000 cShort=  0.000000 cLong=  1.000000
 NAtoms=  140 NActive=  140 NUniq=  140 SFac= 1.00D+00 NAtFMM=   60 NAOKFM=T Big=T
 Integral buffers will be    131072 words long.
 Raffenetti 1 integral format.
 Two-electron integral symmetry is turned on.
 R6Disp:  Grimme-D2 Dispersion energy=       -0.1338483912 Hartrees.
 Nuclear repulsion after empirical dispersion term =     9736.7742263910 Hartrees.
 Leave Link  301 at Sat Apr 30 21:25:35 2022, MaxMem= 10066329600 cpu:               1.2 elap:               0.1
 (Enter /sw/apps/gaussian-16.0/g16/l302.exe)
 NPDir=0 NMtPBC=     1 NCelOv=     1 NCel=       1 NClECP=     1 NCelD=      1
         NCelK=      1 NCelE2=     1 NClLst=     1 CellRange=     0.0.
 One-electron integrals computed using PRISM.
 One-electron integral symmetry used in STVInt
   1 Symmetry operations used in ECPInt.
 ECPInt:  NShTT=  192510 NPrTT=  683786 LenC2=  100097 LenP2D=  215963.
 LDataN:  DoStor=T MaxTD1= 4 Len=   56
 NBasis=  1298 RedAO= T EigKep=  2.04D-04  NBF=  1298
 NBsUse=  1298 1.00D-06 EigRej= -1.00D+00 NBFU=  1298
 Precomputing XC quadrature grid using
 IXCGrd= 4 IRadAn=           5 IRanWt=          -1 IRanGd=           0 AccXCQ= 0.00D+00.
 Generated NRdTot=       0 NPtTot=           0 NUsed=           0 NTot=          32
 NSgBfM=  1100  1100  1100  1100  1100 MxSgAt=   140 MxSgA2=   140.
 Leave Link  302 at Sat Apr 30 21:25:39 2022, MaxMem= 10066329600 cpu:              91.7 elap:               3.8
 (Enter /sw/apps/gaussian-16.0/g16/l303.exe)
 DipDrv:  MaxL=1.
 Leave Link  303 at Sat Apr 30 21:25:39 2022, MaxMem= 10066329600 cpu:               5.9 elap:               0.3
 (Enter /sw/apps/gaussian-16.0/g16/l308.exe)
 Leave Link  308 at Sat Apr 30 21:25:40 2022, MaxMem= 10066329600 cpu:               8.8 elap:               0.4
 (Enter /sw/apps/gaussian-16.0/g16/l401.exe)
 ExpMin= 3.36D-02 ExpMax= 4.95D+03 ExpMxC= 7.45D+02 IAcc=3 IRadAn=         5 AccDes= 0.00D+00
 Harris functional with IExCor= 4639 and IRadAn=       5 diagonalized for initial guess.
 HarFok:  IExCor= 4639 AccDes= 0.00D+00 IRadAn=         5 IDoV= 1 UseB2=F ITyADJ=14
 ICtDFT=  3500011 ScaDFX=  1.000000  1.000000  1.000000  1.000000
 FoFCou: FMM=F IPFlag=           0 FMFlag=      100000 FMFlg1=        2001
         NFxFlg=           0 DoJE=T BraDBF=F KetDBF=T FulRan=T
         wScrn=  0.000000 ICntrl=       500 IOpCl=  0 I1Cent=   200000004 NGrid=           0
         NMat0=    1 NMatS0=      1 NMatT0=    0 NMatD0=    1 NMtDS0=    0 NMtDT0=    0
 Petite list used in FoFCou.
 Harris En= -2877.99070772949    
 JPrj=0 DoOrth=F DoCkMO=F.
 Leave Link  401 at Sat Apr 30 21:25:47 2022, MaxMem= 10066329600 cpu:             173.2 elap:               7.2
 (Enter /sw/apps/gaussian-16.0/g16/l502.exe)
 Integral symmetry usage will be decided dynamically.
 Closed shell SCF:
 Using DIIS extrapolation, IDIIS=  1040.
 NGot= 10066329600 LenX= 10062561258 LenY= 10060699398
 Requested convergence on RMS density matrix=1.00D-08 within 128 cycles.
 Requested convergence on MAX density matrix=1.00D-06.
 Requested convergence on             energy=1.00D-06.
 No special actions if energy rises.
 Fock matrices will be formed incrementally for  20 cycles.

 Cycle   1  Pass 1  IDiag  1:
 FoFJK:  IHMeth= 1 ICntrl=       0 DoSepK=T KAlg= 0 I1Cent=           0 FoldK=F
 IRaf=         1 NMat=       1 IRICut=       1 DoRegI=T DoRafI=F ISym2E= 0 IDoP0=0 IntGTp=1.
 FoFCou: FMM=T IPFlag=           0 FMFlag=      100000 FMFlg1=        2001
         NFxFlg=           0 DoJE=T BraDBF=F KetDBF=F FulRan=T
         wScrn=  0.000000 ICntrl=       500 IOpCl=  0 I1Cent=           0 NGrid=           0
         NMat0=    1 NMatS0=      1 NMatT0=    0 NMatD0=    1 NMtDS0=    0 NMtDT0=    0
 Symmetry not used in FoFCou.
 FMM levels:  10  Number of levels for PrismC:   9
 E= -3007.17555093894    
 DIIS: error= 2.59D-02 at cycle   1 NSaved=   1.
 NSaved= 1 IEnMin= 1 EnMin= -3007.17555093894     IErMin= 1 ErrMin= 2.59D-02
 ErrMax= 2.59D-02  0.00D+00 EMaxC= 1.00D-01 BMatC= 1.49D+00 BMatP= 1.49D+00
 IDIUse=3 WtCom= 7.41D-01 WtEn= 2.59D-01
 Coeff-Com:  0.100D+01
 Coeff-En:   0.100D+01
 Coeff:      0.100D+01
 Gap=     0.161 Goal=   None    Shift=    0.000
 GapD=    0.161 DampG=1.000 DampE=0.500 DampFc=0.5000 IDamp=-1.
 Damping current iteration by 5.00D-01
 RMSDP=1.57D-03 MaxDP=1.96D-01              OVMax= 1.81D-01

 Cycle   2  Pass 1  IDiag  1:
 RMSU=  7.75D-04    CP:  9.86D-01
 E= -3007.49842156695     Delta-E=       -0.322870628013 Rises=F Damp=T
 DIIS: error= 1.36D-02 at cycle   2 NSaved=   2.
 NSaved= 2 IEnMin= 2 EnMin= -3007.49842156695     IErMin= 2 ErrMin= 1.36D-02
 ErrMax= 1.36D-02  0.00D+00 EMaxC= 1.00D-01 BMatC= 2.89D-01 BMatP= 1.49D+00
 IDIUse=3 WtCom= 8.64D-01 WtEn= 1.36D-01
 Coeff-Com: -0.346D+00 0.135D+01
 Coeff-En:   0.000D+00 0.100D+01
 Coeff:     -0.299D+00 0.130D+01
 Gap=     0.180 Goal=   None    Shift=    0.000
 RMSDP=7.38D-04 MaxDP=1.09D-01 DE=-3.23D-01 OVMax= 1.56D-01

 Cycle   3  Pass 1  IDiag  1:
 RMSU=  7.06D-04    CP:  9.78D-01  1.26D+00
 E= -3007.73552178884     Delta-E=       -0.237100221888 Rises=F Damp=F
 DIIS: error= 1.09D-02 at cycle   3 NSaved=   3.
 NSaved= 3 IEnMin= 3 EnMin= -3007.73552178884     IErMin= 3 ErrMin= 1.09D-02
 ErrMax= 1.09D-02  0.00D+00 EMaxC= 1.00D-01 BMatC= 1.39D-01 BMatP= 2.89D-01
 IDIUse=3 WtCom= 8.91D-01 WtEn= 1.09D-01
 Coeff-Com: -0.309D+00 0.684D+00 0.625D+00
 Coeff-En:   0.000D+00 0.000D+00 0.100D+01
 Coeff:     -0.275D+00 0.610D+00 0.665D+00
 Gap=     0.161 Goal=   None    Shift=    0.000
 RMSDP=4.39D-04 MaxDP=5.13D-02 DE=-2.37D-01 OVMax= 8.74D-02

 Cycle   4  Pass 1  IDiag  1:
 RMSU=  2.19D-04    CP:  9.74D-01  1.57D+00  5.92D-01
 E= -3007.84208904315     Delta-E=       -0.106567254310 Rises=F Damp=F
 DIIS: error= 3.34D-03 at cycle   4 NSaved=   4.
 NSaved= 4 IEnMin= 4 EnMin= -3007.84208904315     IErMin= 4 ErrMin= 3.34D-03
 ErrMax= 3.34D-03  0.00D+00 EMaxC= 1.00D-01 BMatC= 1.71D-02 BMatP= 1.39D-01
 IDIUse=3 WtCom= 9.67D-01 WtEn= 3.34D-02
 Coeff-Com: -0.115D+00 0.231D+00 0.356D+00 0.528D+00
 Coeff-En:   0.000D+00 0.000D+00 0.582D-01 0.942D+00
 Coeff:     -0.112D+00 0.224D+00 0.346D+00 0.542D+00
 Gap=     0.159 Goal=   None    Shift=    0.000
 RMSDP=1.18D-04 MaxDP=1.54D-02 DE=-1.07D-01 OVMax= 1.89D-02

 Cycle   5  Pass 1  IDiag  1:
 RMSU=  5.79D-05    CP:  9.74D-01  1.54D+00  6.99D-01  7.02D-01
 E= -3007.85620311337     Delta-E=       -0.014114070220 Rises=F Damp=F
 DIIS: error= 6.42D-04 at cycle   5 NSaved=   5.
 NSaved= 5 IEnMin= 5 EnMin= -3007.85620311337     IErMin= 5 ErrMin= 6.42D-04
 ErrMax= 6.42D-04  0.00D+00 EMaxC= 1.00D-01 BMatC= 3.48D-04 BMatP= 1.71D-02
 IDIUse=3 WtCom= 9.94D-01 WtEn= 6.42D-03
 Coeff-Com: -0.279D-01 0.528D-01 0.107D+00 0.217D+00 0.650D+00
 Coeff-En:   0.000D+00 0.000D+00 0.000D+00 0.000D+00 0.100D+01
 Coeff:     -0.277D-01 0.525D-01 0.106D+00 0.216D+00 0.653D+00
 Gap=     0.159 Goal=   None    Shift=    0.000
 RMSDP=2.39D-05 MaxDP=5.15D-03 DE=-1.41D-02 OVMax= 3.70D-03

 Cycle   6  Pass 1  IDiag  1:
 RMSU=  2.08D-05    CP:  9.73D-01  1.54D+00  7.04D-01  7.47D-01  9.27D-01
 E= -3007.85647567103     Delta-E=       -0.000272557663 Rises=F Damp=F
 DIIS: error= 3.62D-04 at cycle   6 NSaved=   6.
 NSaved= 6 IEnMin= 6 EnMin= -3007.85647567103     IErMin= 6 ErrMin= 3.62D-04
 ErrMax= 3.62D-04  0.00D+00 EMaxC= 1.00D-01 BMatC= 6.64D-05 BMatP= 3.48D-04
 IDIUse=3 WtCom= 9.96D-01 WtEn= 3.62D-03
 Coeff-Com:  0.947D-02-0.204D-01-0.166D-01-0.306D-02 0.311D+00 0.720D+00
 Coeff-En:   0.000D+00 0.000D+00 0.000D+00 0.000D+00 0.000D+00 0.100D+01
 Coeff:      0.944D-02-0.203D-01-0.165D-01-0.305D-02 0.310D+00 0.721D+00
 Gap=     0.159 Goal=   None    Shift=    0.000
 RMSDP=1.12D-05 MaxDP=1.49D-03 DE=-2.73D-04 OVMax= 3.16D-03

 Cycle   7  Pass 1  IDiag  1:
 RMSU=  7.50D-06    CP:  9.73D-01  1.55D+00  7.08D-01  7.66D-01  1.03D+00
                    CP:  9.56D-01
 E= -3007.85654897916     Delta-E=       -0.000073308123 Rises=F Damp=F
 DIIS: error= 7.90D-05 at cycle   7 NSaved=   7.
 NSaved= 7 IEnMin= 7 EnMin= -3007.85654897916     IErMin= 7 ErrMin= 7.90D-05
 ErrMax= 7.90D-05  0.00D+00 EMaxC= 1.00D-01 BMatC= 5.29D-06 BMatP= 6.64D-05
 IDIUse=1 WtCom= 1.00D+00 WtEn= 0.00D+00
 Coeff-Com:  0.611D-02-0.123D-01-0.158D-01-0.232D-01 0.453D-01 0.259D+00
 Coeff-Com:  0.741D+00
 Coeff:      0.611D-02-0.123D-01-0.158D-01-0.232D-01 0.453D-01 0.259D+00
 Coeff:      0.741D+00
 Gap=     0.159 Goal=   None    Shift=    0.000
 RMSDP=4.40D-06 MaxDP=9.04D-04 DE=-7.33D-05 OVMax= 1.52D-03

 Cycle   8  Pass 1  IDiag  1:
 RMSU=  2.95D-06    CP:  9.73D-01  1.55D+00  7.10D-01  7.70D-01  1.06D+00
                    CP:  1.06D+00  1.07D+00
 E= -3007.85655837364     Delta-E=       -0.000009394482 Rises=F Damp=F
 DIIS: error= 2.50D-05 at cycle   8 NSaved=   8.
 NSaved= 8 IEnMin= 8 EnMin= -3007.85655837364     IErMin= 8 ErrMin= 2.50D-05
 ErrMax= 2.50D-05  0.00D+00 EMaxC= 1.00D-01 BMatC= 1.30D-06 BMatP= 5.29D-06
 IDIUse=1 WtCom= 1.00D+00 WtEn= 0.00D+00
 Coeff-Com:  0.137D-02-0.254D-02-0.478D-02-0.110D-01-0.307D-01 0.202D-02
 Coeff-Com:  0.350D+00 0.696D+00
 Coeff:      0.137D-02-0.254D-02-0.478D-02-0.110D-01-0.307D-01 0.202D-02
 Coeff:      0.350D+00 0.696D+00
 Gap=     0.160 Goal=   None    Shift=    0.000
 RMSDP=2.22D-06 MaxDP=2.47D-04 DE=-9.39D-06 OVMax= 1.22D-03

 Cycle   9  Pass 1  IDiag  1:
 RMSU=  1.45D-06    CP:  9.73D-01  1.55D+00  7.10D-01  7.71D-01  1.07D+00
                    CP:  1.10D+00  1.22D+00  1.15D+00
 E= -3007.85656145620     Delta-E=       -0.000003082558 Rises=F Damp=F
 DIIS: error= 1.38D-05 at cycle   9 NSaved=   9.
 NSaved= 9 IEnMin= 9 EnMin= -3007.85656145620     IErMin= 9 ErrMin= 1.38D-05
 ErrMax= 1.38D-05  0.00D+00 EMaxC= 1.00D-01 BMatC= 2.15D-07 BMatP= 1.30D-06
 IDIUse=1 WtCom= 1.00D+00 WtEn= 0.00D+00
 Coeff-Com: -0.712D-03 0.149D-02 0.139D-02 0.601D-03-0.184D-01-0.493D-01
 Coeff-Com: -0.193D-01 0.223D+00 0.861D+00
 Coeff:     -0.712D-03 0.149D-02 0.139D-02 0.601D-03-0.184D-01-0.493D-01
 Coeff:     -0.193D-01 0.223D+00 0.861D+00
 Gap=     0.160 Goal=   None    Shift=    0.000
 RMSDP=1.53D-06 MaxDP=1.64D-04 DE=-3.08D-06 OVMax= 9.08D-04

 Cycle  10  Pass 1  IDiag  1:
 RMSU=  7.80D-07    CP:  9.73D-01  1.55D+00  7.10D-01  7.72D-01  1.07D+00
                    CP:  1.12D+00  1.31D+00  1.42D+00  1.42D+00
 E= -3007.85656271150     Delta-E=       -0.000001255308 Rises=F Damp=F
 DIIS: error= 1.01D-05 at cycle  10 NSaved=  10.
 NSaved=10 IEnMin=10 EnMin= -3007.85656271150     IErMin=10 ErrMin= 1.01D-05
 ErrMax= 1.01D-05  0.00D+00 EMaxC= 1.00D-01 BMatC= 7.03D-08 BMatP= 2.15D-07
 IDIUse=1 WtCom= 1.00D+00 WtEn= 0.00D+00
 Coeff-Com: -0.628D-03 0.122D-02 0.177D-02 0.335D-02 0.320D-02-0.179D-01
 Coeff-Com: -0.107D+00-0.131D+00 0.279D+00 0.968D+00
 Coeff:     -0.628D-03 0.122D-02 0.177D-02 0.335D-02 0.320D-02-0.179D-01
 Coeff:     -0.107D+00-0.131D+00 0.279D+00 0.968D+00
 Gap=     0.160 Goal=   None    Shift=    0.000
 RMSDP=1.30D-06 MaxDP=6.62D-05 DE=-1.26D-06 OVMax= 9.42D-04

 Cycle  11  Pass 1  IDiag  1:
 RMSU=  4.64D-07    CP:  9.73D-01  1.55D+00  7.10D-01  7.72D-01  1.08D+00
                    CP:  1.14D+00  1.37D+00  1.63D+00  1.95D+00  1.62D+00
 E= -3007.85656340733     Delta-E=       -0.000000695822 Rises=F Damp=F
 DIIS: error= 6.26D-06 at cycle  11 NSaved=  11.
 NSaved=11 IEnMin=11 EnMin= -3007.85656340733     IErMin=11 ErrMin= 6.26D-06
 ErrMax= 6.26D-06  0.00D+00 EMaxC= 1.00D-01 BMatC= 3.36D-08 BMatP= 7.03D-08
 IDIUse=1 WtCom= 1.00D+00 WtEn= 0.00D+00
 Coeff-Com: -0.837D-04 0.141D-03 0.362D-03 0.134D-02 0.641D-02 0.552D-02
 Coeff-Com: -0.410D-01-0.111D+00-0.125D+00 0.410D+00 0.853D+00
 Coeff:     -0.837D-04 0.141D-03 0.362D-03 0.134D-02 0.641D-02 0.552D-02
 Coeff:     -0.410D-01-0.111D+00-0.125D+00 0.410D+00 0.853D+00
 Gap=     0.160 Goal=   None    Shift=    0.000
 RMSDP=8.51D-07 MaxDP=4.22D-05 DE=-6.96D-07 OVMax= 5.58D-04

 Cycle  12  Pass 1  IDiag  1:
 RMSU=  2.44D-07    CP:  9.73D-01  1.55D+00  7.10D-01  7.72D-01  1.08D+00
                    CP:  1.14D+00  1.40D+00  1.74D+00  2.27D+00  2.24D+00
                    CP:  1.49D+00
 E= -3007.85656370508     Delta-E=       -0.000000297754 Rises=F Damp=F
 DIIS: error= 4.84D-06 at cycle  12 NSaved=  12.
 NSaved=12 IEnMin=12 EnMin= -3007.85656370508     IErMin=12 ErrMin= 4.84D-06
 ErrMax= 4.84D-06  0.00D+00 EMaxC= 1.00D-01 BMatC= 1.13D-08 BMatP= 3.36D-08
 IDIUse=1 WtCom= 1.00D+00 WtEn= 0.00D+00
 Coeff-Com:  0.316D-03-0.627D-03-0.879D-03-0.125D-02 0.708D-03 0.118D-01
 Coeff-Com:  0.435D-01 0.394D-01-0.208D+00-0.370D+00 0.274D+00 0.121D+01
 Coeff:      0.316D-03-0.627D-03-0.879D-03-0.125D-02 0.708D-03 0.118D-01
 Coeff:      0.435D-01 0.394D-01-0.208D+00-0.370D+00 0.274D+00 0.121D+01
 Gap=     0.160 Goal=   None    Shift=    0.000
 RMSDP=9.31D-07 MaxDP=6.22D-05 DE=-2.98D-07 OVMax= 6.93D-04

 Cycle  13  Pass 1  IDiag  1:
 RMSU=  1.74D-07    CP:  9.73D-01  1.55D+00  7.10D-01  7.72D-01  1.08D+00
                    CP:  1.14D+00  1.42D+00  1.84D+00  2.60D+00  2.92D+00
                    CP:  2.44D+00  1.69D+00
 E= -3007.85656388961     Delta-E=       -0.000000184526 Rises=F Damp=F
 DIIS: error= 2.20D-06 at cycle  13 NSaved=  13.
 NSaved=13 IEnMin=13 EnMin= -3007.85656388961     IErMin=13 ErrMin= 2.20D-06
 ErrMax= 2.20D-06  0.00D+00 EMaxC= 1.00D-01 BMatC= 5.94D-09 BMatP= 1.13D-08
 IDIUse=1 WtCom= 1.00D+00 WtEn= 0.00D+00
 Coeff-Com:  0.210D-03-0.411D-03-0.633D-03-0.113D-02-0.160D-02 0.485D-02
 Coeff-Com:  0.366D-01 0.591D-01-0.826D-01-0.349D+00-0.173D+00 0.724D+00
 Coeff-Com:  0.784D+00
 Coeff:      0.210D-03-0.411D-03-0.633D-03-0.113D-02-0.160D-02 0.485D-02
 Coeff:      0.366D-01 0.591D-01-0.826D-01-0.349D+00-0.173D+00 0.724D+00
 Coeff:      0.784D+00
 Gap=     0.160 Goal=   None    Shift=    0.000
 RMSDP=5.09D-07 MaxDP=2.47D-05 DE=-1.85D-07 OVMax= 3.41D-04

 Cycle  14  Pass 1  IDiag  1:
 RMSU=  2.47D-07    CP:  9.73D-01  1.55D+00  7.10D-01  7.72D-01  1.08D+00
                    CP:  1.14D+00  1.44D+00  1.89D+00  2.76D+00  3.00D+00
                    CP:  2.93D+00  2.28D+00  1.14D+00
 E= -3007.85656393216     Delta-E=       -0.000000042555 Rises=F Damp=F
 DIIS: error= 7.10D-07 at cycle  14 NSaved=  14.
 NSaved=14 IEnMin=14 EnMin= -3007.85656393216     IErMin=14 ErrMin= 7.10D-07
 ErrMax= 7.10D-07  0.00D+00 EMaxC= 1.00D-01 BMatC= 8.52D-10 BMatP= 5.94D-09
 IDIUse=1 WtCom= 1.00D+00 WtEn= 0.00D+00
 Coeff-Com:  0.147D-04-0.253D-04-0.651D-04-0.186D-03-0.923D-03-0.108D-02
 Coeff-Com:  0.529D-02 0.190D-01 0.185D-01-0.584D-01-0.159D+00 0.393D-01
 Coeff-Com:  0.334D+00 0.804D+00
 Coeff:      0.147D-04-0.253D-04-0.651D-04-0.186D-03-0.923D-03-0.108D-02
 Coeff:      0.529D-02 0.190D-01 0.185D-01-0.584D-01-0.159D+00 0.393D-01
 Coeff:      0.334D+00 0.804D+00
 Gap=     0.160 Goal=   None    Shift=    0.000
 RMSDP=1.57D-07 MaxDP=2.69D-05 DE=-4.26D-08 OVMax= 1.07D-04

 Cycle  15  Pass 1  IDiag  1:
 RMSU=  6.82D-08    CP:  9.73D-01  1.55D+00  7.10D-01  7.72D-01  1.08D+00
                    CP:  1.14D+00  1.44D+00  1.90D+00  2.80D+00  3.00D+00
                    CP:  3.00D+00  2.50D+00  1.42D+00  1.33D+00
 E= -3007.85656393651     Delta-E=       -0.000000004351 Rises=F Damp=F
 DIIS: error= 4.03D-07 at cycle  15 NSaved=  15.
 NSaved=15 IEnMin=15 EnMin= -3007.85656393651     IErMin=15 ErrMin= 4.03D-07
 ErrMax= 4.03D-07  0.00D+00 EMaxC= 1.00D-01 BMatC= 2.59D-10 BMatP= 8.52D-10
 IDIUse=1 WtCom= 1.00D+00 WtEn= 0.00D+00
 Coeff-Com: -0.428D-04 0.855D-04 0.118D-03 0.172D-03-0.866D-04-0.173D-02
 Coeff-Com: -0.624D-02-0.454D-02 0.267D-01 0.524D-01-0.372D-01-0.143D+00
 Coeff-Com: -0.254D-01 0.426D+00 0.712D+00
 Coeff:     -0.428D-04 0.855D-04 0.118D-03 0.172D-03-0.866D-04-0.173D-02
 Coeff:     -0.624D-02-0.454D-02 0.267D-01 0.524D-01-0.372D-01-0.143D+00
 Coeff:     -0.254D-01 0.426D+00 0.712D+00
 Gap=     0.160 Goal=   None    Shift=    0.000
 RMSDP=5.13D-08 MaxDP=3.66D-06 DE=-4.35D-09 OVMax= 3.20D-05

 Cycle  16  Pass 1  IDiag  1:
 RMSU=  2.96D-08    CP:  9.73D-01  1.55D+00  7.10D-01  7.72D-01  1.08D+00
                    CP:  1.14D+00  1.44D+00  1.91D+00  2.81D+00  3.00D+00
                    CP:  3.00D+00  2.58D+00  1.49D+00  1.43D+00  1.13D+00
 E= -3007.85656393718     Delta-E=       -0.000000000664 Rises=F Damp=F
 DIIS: error= 1.77D-07 at cycle  16 NSaved=  16.
 NSaved=16 IEnMin=16 EnMin= -3007.85656393718     IErMin=16 ErrMin= 1.77D-07
 ErrMax= 1.77D-07  0.00D+00 EMaxC= 1.00D-01 BMatC= 3.48D-11 BMatP= 2.59D-10
 IDIUse=1 WtCom= 1.00D+00 WtEn= 0.00D+00
 Coeff-Com: -0.199D-04 0.389D-04 0.599D-04 0.983D-04 0.124D-03-0.539D-03
 Coeff-Com: -0.350D-02-0.481D-02 0.878D-02 0.324D-01 0.963D-02-0.686D-01
 Coeff-Com: -0.732D-01 0.436D-01 0.299D+00 0.757D+00
 Coeff:     -0.199D-04 0.389D-04 0.599D-04 0.983D-04 0.124D-03-0.539D-03
 Coeff:     -0.350D-02-0.481D-02 0.878D-02 0.324D-01 0.963D-02-0.686D-01
 Coeff:     -0.732D-01 0.436D-01 0.299D+00 0.757D+00
 Gap=     0.160 Goal=   None    Shift=    0.000
 RMSDP=1.98D-08 MaxDP=4.17D-06 DE=-6.64D-10 OVMax= 1.04D-05

 Cycle  17  Pass 1  IDiag  1:
 RMSU=  9.00D-09    CP:  9.73D-01  1.55D+00  7.10D-01  7.72D-01  1.08D+00
                    CP:  1.14D+00  1.44D+00  1.91D+00  2.81D+00  3.00D+00
                    CP:  3.00D+00  2.60D+00  1.53D+00  1.47D+00  1.27D+00
                    CP:  1.13D+00
 E= -3007.85656393713     Delta-E=        0.000000000049 Rises=F Damp=F
 DIIS: error= 5.23D-08 at cycle  17 NSaved=  17.
 NSaved=17 IEnMin=16 EnMin= -3007.85656393718     IErMin=17 ErrMin= 5.23D-08
 ErrMax= 5.23D-08  0.00D+00 EMaxC= 1.00D-01 BMatC= 4.86D-12 BMatP= 3.48D-11
 IDIUse=1 WtCom= 1.00D+00 WtEn= 0.00D+00
 Coeff-Com:  0.938D-06-0.218D-05-0.926D-06 0.501D-06 0.661D-04 0.131D-03
 Coeff-Com: -0.901D-04-0.806D-03-0.201D-02 0.142D-02 0.104D-01 0.335D-02
 Coeff-Com: -0.218D-01-0.593D-01-0.186D-01 0.252D+00 0.835D+00
 Coeff:      0.938D-06-0.218D-05-0.926D-06 0.501D-06 0.661D-04 0.131D-03
 Coeff:     -0.901D-04-0.806D-03-0.201D-02 0.142D-02 0.104D-01 0.335D-02
 Coeff:     -0.218D-01-0.593D-01-0.186D-01 0.252D+00 0.835D+00
 Gap=     0.160 Goal=   None    Shift=    0.000
 RMSDP=6.12D-09 MaxDP=4.73D-07 DE= 4.91D-11 OVMax= 2.52D-06

 SCF Done:  E(RwB97XD) =  -3007.85656394     A.U. after   17 cycles
            NFock= 17  Conv=0.61D-08     -V/T= 2.0107
 KE= 2.976140771823D+03 PE=-2.646624266712D+04 EE= 1.074547110496D+04
 Leave Link  502 at Sat Apr 30 21:34:47 2022, MaxMem= 10066329600 cpu:           12589.1 elap:             539.6
 (Enter /sw/apps/gaussian-16.0/g16/l801.exe)
 DoSCS=F DFT=T ScalE2(SS,OS)=  1.000000  1.000000
 ExpMin= 3.36D-02 ExpMax= 4.95D+03 ExpMxC= 7.45D+02 IAcc=3 IRadAn=         5 AccDes= 0.00D+00
 HarFok:  IExCor=  205 AccDes= 0.00D+00 IRadAn=         5 IDoV=-2 UseB2=F ITyADJ=14
 ICtDFT= 12500011 ScaDFX=  1.000000  1.000000  1.000000  1.000000
 GSVD:  LWork=       -5460 too small for GESVD, short by       25550 words or       25550 for optimal perf.
 Largest valence mixing into a core orbital is  1.28D-04
 Largest core mixing into a valence orbital is  5.52D-05
 Range of M.O.s used for correlation:    71  1298
 NBasis=  1298 NAE=   246 NBE=   246 NFC=    70 NFV=     0
 NROrb=   1228 NOA=   176 NOB=   176 NVA=  1052 NVB=  1052
 Leave Link  801 at Sat Apr 30 21:34:47 2022, MaxMem= 10066329600 cpu:               6.7 elap:               0.3
 (Enter /sw/apps/gaussian-16.0/g16/l914.exe)
 RHF ground state
 Two-electron integrals replicated using symmetry.
 MDV= 10066329600 DFT=T DoStab=F Mixed=T DoRPA=T DoScal=F NonHer=T
 Making orbital integer symmetry assigments:
 Orbital symmetries:
       Occupied  (A) (A) (A) (A) (A) (A) (A) (A) (A) (A) (A) (A)
                 (A) (A) (A) (A) (A) (A) (A) (A) (A) (A) (A) (A)
                 (A) (A) (A) (A) (A) (A) (A) (A) (A) (A) (A) (A)
                 (A) (A) (A) (A) (A) (A) (A) (A) (A) (A) (A) (A)
                 (A) (A) (A) (A) (A) (A) (A) (A) (A) (A) (A) (A)
                 (A) (A) (A) (A) (A) (A) (A) (A) (A) (A) (A) (A)
                 (A) (A) (A) (A) (A) (A) (A) (A) (A) (A) (A) (A)
                 (A) (A) (A) (A) (A) (A) (A) (A) (A) (A) (A) (A)
                 (A) (A) (A) (A) (A) (A) (A) (A) (A) (A) (A) (A)
                 (A) (A) (A) (A) (A) (A) (A) (A) (A) (A) (A) (A)
                 (A) (A) (A) (A) (A) (A) (A) (A) (A) (A) (A) (A)
                 (A) (A) (A) (A) (A) (A) (A) (A) (A) (A) (A) (A)
                 (A) (A) (A) (A) (A) (A) (A) (A) (A) (A) (A) (A)
                 (A) (A) (A) (A) (A) (A) (A) (A) (A) (A) (A) (A)
                 (A) (A) (A) (A) (A) (A) (A) (A) (A) (A) (A) (A)
                 (A) (A) (A) (A) (A) (A) (A) (A) (A) (A) (A) (A)
                 (A) (A) (A) (A) (A) (A) (A) (A) (A) (A) (A) (A)
                 (A) (A) (A) (A) (A) (A) (A) (A) (A) (A) (A) (A)
                 (A) (A) (A) (A) (A) (A) (A) (A) (A) (A) (A) (A)
                 (A) (A) (A) (A) (A) (A) (A) (A) (A) (A) (A) (A)
                 (A) (A) (A) (A) (A) (A)
       Virtual   (A) (A) (A) (A) (A) (A) (A) (A) (A) (A) (A) (A)
                 (A) (A) (A) (A) (A) (A) (A) (A) (A) (A) (A) (A)
                 (A) (A) (A) (A) (A) (A) (A) (A) (A) (A) (A) (A)
                 (A) (A) (A) (A) (A) (A) (A) (A) (A) (A) (A) (A)
                 (A) (A) (A) (A) (A) (A) (A) (A) (A) (A) (A) (A)
                 (A) (A) (A) (A) (A) (A) (A) (A) (A) (A) (A) (A)
                 (A) (A) (A) (A) (A) (A) (A) (A) (A) (A) (A) (A)
                 (A) (A) (A) (A) (A) (A) (A) (A) (A) (A) (A) (A)
                 (A) (A) (A) (A) (A) (A) (A) (A) (A) (A) (A) (A)
                 (A) (A) (A) (A) (A) (A) (A) (A) (A) (A) (A) (A)
                 (A) (A) (A) (A) (A) (A) (A) (A) (A) (A) (A) (A)
                 (A) (A) (A) (A) (A) (A) (A) (A) (A) (A) (A) (A)
                 (A) (A) (A) (A) (A) (A) (A) (A) (A) (A) (A) (A)
                 (A) (A) (A) (A) (A) (A) (A) (A) (A) (A) (A) (A)
                 (A) (A) (A) (A) (A) (A) (A) (A) (A) (A) (A) (A)
                 (A) (A) (A) (A) (A) (A) (A) (A) (A) (A) (A) (A)
                 (A) (A) (A) (A) (A) (A) (A) (A) (A) (A) (A) (A)
                 (A) (A) (A) (A) (A) (A) (A) (A) (A) (A) (A) (A)
                 (A) (A) (A) (A) (A) (A) (A) (A) (A) (A) (A) (A)
                 (A) (A) (A) (A) (A) (A) (A) (A) (A) (A) (A) (A)
                 (A) (A) (A) (A) (A) (A) (A) (A) (A) (A) (A) (A)
                 (A) (A) (A) (A) (A) (A) (A) (A) (A) (A) (A) (A)
                 (A) (A) (A) (A) (A) (A) (A) (A) (A) (A) (A) (A)
                 (A) (A) (A) (A) (A) (A) (A) (A) (A) (A) (A) (A)
                 (A) (A) (A) (A) (A) (A) (A) (A) (A) (A) (A) (A)
                 (A) (A) (A) (A) (A) (A) (A) (A) (A) (A) (A) (A)
                 (A) (A) (A) (A) (A) (A) (A) (A) (A) (A) (A) (A)
                 (A) (A) (A) (A) (A) (A) (A) (A) (A) (A) (A) (A)
                 (A) (A) (A) (A) (A) (A) (A) (A) (A) (A) (A) (A)
                 (A) (A) (A) (A) (A) (A) (A) (A) (A) (A) (A) (A)
                 (A) (A) (A) (A) (A) (A) (A) (A) (A) (A) (A) (A)
                 (A) (A) (A) (A) (A) (A) (A) (A) (A) (A) (A) (A)
                 (A) (A) (A) (A) (A) (A) (A) (A) (A) (A) (A) (A)
                 (A) (A) (A) (A) (A) (A) (A) (A) (A) (A) (A) (A)
                 (A) (A) (A) (A) (A) (A) (A) (A) (A) (A) (A) (A)
                 (A) (A) (A) (A) (A) (A) (A) (A) (A) (A) (A) (A)
                 (A) (A) (A) (A) (A) (A) (A) (A) (A) (A) (A) (A)
                 (A) (A) (A) (A) (A) (A) (A) (A) (A) (A) (A) (A)
                 (A) (A) (A) (A) (A) (A) (A) (A) (A) (A) (A) (A)
                 (A) (A) (A) (A) (A) (A) (A) (A) (A) (A) (A) (A)
                 (A) (A) (A) (A) (A) (A) (A) (A) (A) (A) (A) (A)
                 (A) (A) (A) (A) (A) (A) (A) (A) (A) (A) (A) (A)
                 (A) (A) (A) (A) (A) (A) (A) (A) (A) (A) (A) (A)
                 (A) (A) (A) (A) (A) (A) (A) (A) (A) (A) (A) (A)
                 (A) (A) (A) (A) (A) (A) (A) (A) (A) (A) (A) (A)
                 (A) (A) (A) (A) (A) (A) (A) (A) (A) (A) (A) (A)
                 (A) (A) (A) (A) (A) (A) (A) (A) (A) (A) (A) (A)
                 (A) (A) (A) (A) (A) (A) (A) (A) (A) (A) (A) (A)
                 (A) (A) (A) (A) (A) (A) (A) (A) (A) (A) (A) (A)
                 (A) (A) (A) (A) (A) (A) (A) (A) (A) (A) (A) (A)
                 (A) (A) (A) (A) (A) (A) (A) (A) (A) (A) (A) (A)
                 (A) (A) (A) (A) (A) (A) (A) (A) (A) (A) (A) (A)
                 (A) (A) (A) (A) (A) (A) (A) (A) (A) (A) (A) (A)
                 (A) (A) (A) (A) (A) (A) (A) (A) (A) (A) (A) (A)
                 (A) (A) (A) (A) (A) (A) (A) (A) (A) (A) (A) (A)
                 (A) (A) (A) (A) (A) (A) (A) (A) (A) (A) (A) (A)
                 (A) (A) (A) (A) (A) (A) (A) (A) (A) (A) (A) (A)
                 (A) (A) (A) (A) (A) (A) (A) (A) (A) (A) (A) (A)
                 (A) (A) (A) (A) (A) (A) (A) (A) (A) (A) (A) (A)
                 (A) (A) (A) (A) (A) (A) (A) (A) (A) (A) (A) (A)
                 (A) (A) (A) (A) (A) (A) (A) (A) (A) (A) (A) (A)
                 (A) (A) (A) (A) (A) (A) (A) (A) (A) (A) (A) (A)
                 (A) (A) (A) (A) (A) (A) (A) (A) (A) (A) (A) (A)
                 (A) (A) (A) (A) (A) (A) (A) (A) (A) (A) (A) (A)
                 (A) (A) (A) (A) (A) (A) (A) (A) (A) (A) (A) (A)
                 (A) (A) (A) (A) (A) (A) (A) (A) (A) (A) (A) (A)
                 (A) (A) (A) (A) (A) (A) (A) (A) (A) (A) (A) (A)
                 (A) (A) (A) (A) (A) (A) (A) (A) (A) (A) (A) (A)
                 (A) (A) (A) (A) (A) (A) (A) (A) (A) (A) (A) (A)
                 (A) (A) (A) (A) (A) (A) (A) (A) (A) (A) (A) (A)
                 (A) (A) (A) (A) (A) (A) (A) (A) (A) (A) (A) (A)
                 (A) (A) (A) (A) (A) (A) (A) (A) (A) (A) (A) (A)
                 (A) (A) (A) (A) (A) (A) (A) (A) (A) (A) (A) (A)
                 (A) (A) (A) (A) (A) (A) (A) (A) (A) (A) (A) (A)
                 (A) (A) (A) (A) (A) (A) (A) (A) (A) (A) (A) (A)
                 (A) (A) (A) (A) (A) (A) (A) (A) (A) (A) (A) (A)
                 (A) (A) (A) (A) (A) (A) (A) (A) (A) (A) (A) (A)
                 (A) (A) (A) (A) (A) (A) (A) (A) (A) (A) (A) (A)
                 (A) (A) (A) (A) (A) (A) (A) (A) (A) (A) (A) (A)
                 (A) (A) (A) (A) (A) (A) (A) (A) (A) (A) (A) (A)
                 (A) (A) (A) (A) (A) (A) (A) (A) (A) (A) (A) (A)
                 (A) (A) (A) (A) (A) (A) (A) (A) (A) (A) (A) (A)
                 (A) (A) (A) (A) (A) (A) (A) (A) (A) (A) (A) (A)
                 (A) (A) (A) (A) (A) (A) (A) (A) (A) (A) (A) (A)
                 (A) (A) (A) (A) (A) (A) (A) (A) (A) (A) (A) (A)
                 (A) (A) (A) (A) (A) (A) (A) (A) (A) (A) (A) (A)
                 (A) (A) (A) (A) (A) (A) (A) (A) (A) (A) (A) (A)
                 (A) (A) (A) (A) (A) (A) (A) (A)
    20 initial guesses have been made.
 Convergence on wavefunction:    0.001000000000000
 Davidson Disk Diagonalization:  ConvIn= 1.00D-03 SkipCon=T Conv= 1.00D-03.
 Max sub-space:  2000 roots to seek:    20 dimension of matrix:       370304
 Iteration     1 Dimension    20 NMult     0 NNew     20
 CISAX will form    20 AO SS matrices at one time.
 NMat=    20 NSing=    20 JSym2X= 0.
 FoFJK:  IHMeth= 1 ICntrl=       0 DoSepK=T KAlg= 0 I1Cent=           0 FoldK=F
 IRaf=         1 NMat=      40 IRICut=       1 DoRegI=T DoRafI=F ISym2E= 0 IDoP0=3 IntGTp=3.
 FoFCou: FMM=T IPFlag=           0 FMFlag=      100000 FMFlg1=        2001
         NFxFlg=           0 DoJE=F BraDBF=F KetDBF=F FulRan=T
         wScrn=  0.000000 ICntrl=       500 IOpCl=  0 I1Cent=           0 NGrid=           0
         NMat0=   20 NMatS0=     20 NMatT0=    0 NMatD0=   20 NMtDS0=    0 NMtDT0=    0
 Symmetry not used in FoFCou.
 FMM levels:  10  Number of levels for PrismC:   9
 New state      3 was old state      4
 New state      4 was old state      6
 New state      5 was old state     12
 Excitation Energies [eV] at current iteration:
 Root      1 :     2.210896825103889
 Root      2 :     2.640761252668883
 Root      3 :     3.607202998755717
 Root      4 :     3.762563504539703
 Root      5 :     3.949900336269187
 Root      6 :     4.009988942767391
 Root      7 :     4.305744991076936
 Root      8 :     4.384828085856546
 Root      9 :     4.494198223291151
 Root     10 :     4.648199150102255
 Root     11 :     4.742967036876340
 Root     12 :     4.890443108521700
 Root     13 :     4.932548171244797
 Root     14 :     5.117279290995929
 Root     15 :     5.215805460393038
 Root     16 :     5.338280809532817
 Root     17 :     5.584866629558893
 Root     18 :     5.851831077800035
 Root     19 :     6.660706878663064
 Root     20 :     6.855361648443854
 Iteration     2 Dimension    30 NMult    20 NNew     10
 CISAX will form    10 AO SS matrices at one time.
 NMat=    10 NSing=    10 JSym2X= 0.
 Root      1 not converged, maximum delta is    0.075645151341072
 Root      2 not converged, maximum delta is    0.056790433568938
 Root      3 not converged, maximum delta is    0.058376575791874
 Root      4 not converged, maximum delta is    0.074486960195559
 Root      5 not converged, maximum delta is    0.109065991075718
 Excitation Energies [eV] at current iteration:
 Root      1 :     1.705347980754550   Change is   -0.505548844349340
 Root      2 :     2.236325414935374   Change is   -0.404435837733509
 Root      3 :     3.252142861215451   Change is   -0.355060137540265
 Root      4 :     3.380821969818935   Change is   -0.381741534720768
 Root      5 :     3.835034285755672   Change is   -0.114866050513515
 Iteration     3 Dimension    40 NMult    30 NNew     10
 CISAX will form    10 AO SS matrices at one time.
 NMat=    10 NSing=    10 JSym2X= 0.
 Root      1 not converged, maximum delta is    0.015167829340885
 Root      2 not converged, maximum delta is    0.017778675674988
 Root      3 not converged, maximum delta is    0.036636062507035
 Root      4 not converged, maximum delta is    0.033384761802326
 Root      5 not converged, maximum delta is    0.486298850883030
 Excitation Energies [eV] at current iteration:
 Root      1 :     1.668720118077454   Change is   -0.036627862677095
 Root      2 :     2.213650309377491   Change is   -0.022675105557882
 Root      3 :     3.235090969467123   Change is   -0.017051891748329
 Root      4 :     3.351963025575070   Change is   -0.028858944243864
 Root      5 :     3.571689789230537   Change is   -0.263344496525136
 Iteration     4 Dimension    50 NMult    40 NNew     10
 CISAX will form    10 AO SS matrices at one time.
 NMat=    10 NSing=    10 JSym2X= 0.
 Root      1 not converged, maximum delta is    0.003500350527555
 Root      2 not converged, maximum delta is    0.002599823463976
 Root      3 not converged, maximum delta is    0.038715743828299
 Root      4 not converged, maximum delta is    0.084277785639827
 Root      5 not converged, maximum delta is    0.111216987246549
 Excitation Energies [eV] at current iteration:
 Root      1 :     1.664458307665201   Change is   -0.004261810412253
 Root      2 :     2.210814408223875   Change is   -0.002835901153616
 Root      3 :     3.229584640908101   Change is   -0.005506328559021
 Root      4 :     3.338022890839563   Change is   -0.013940134735507
 Root      5 :     3.451314051758149   Change is   -0.120375737472387
 Iteration     5 Dimension    60 NMult    50 NNew     10
 CISAX will form    10 AO SS matrices at one time.
 NMat=    10 NSing=    10 JSym2X= 0.
 Root      1 not converged, maximum delta is    0.001234580703581
 Root      2 has converged.
 Root      3 not converged, maximum delta is    0.007657001250418
 Root      4 not converged, maximum delta is    0.018405920493911
 Root      5 not converged, maximum delta is    0.022981204793741
 Excitation Energies [eV] at current iteration:
 Root      1 :     1.664071989626309   Change is   -0.000386318038892
 Root      2 :     2.210557494551104   Change is   -0.000256913672771
 Root      3 :     3.228559900271354   Change is   -0.001024740636748
 Root      4 :     3.335304544936265   Change is   -0.002718345903298
 Root      5 :     3.436885043794425   Change is   -0.014429007963724
 Iteration     6 Dimension    68 NMult    60 NNew      8
 CISAX will form     8 AO SS matrices at one time.
 NMat=     8 NSing=     8 JSym2X= 0.
 Root      1 has converged.
 Root      2 has converged.
 Root      3 not converged, maximum delta is    0.002929390231755
 Root      4 not converged, maximum delta is    0.004191586597429
 Root      5 not converged, maximum delta is    0.025337432811824
 Excitation Energies [eV] at current iteration:
 Root      1 :     1.664036134690682   Change is   -0.000035854935627
 Root      2 :     2.210555661090837   Change is   -0.000001833460267
 Root      3 :     3.228369111902855   Change is   -0.000190788368498
 Root      4 :     3.334915774770618   Change is   -0.000388770165647
 Root      5 :     3.433474903746176   Change is   -0.003410140048249
 Iteration     7 Dimension    74 NMult    68 NNew      6
 CISAX will form     6 AO SS matrices at one time.
 NMat=     6 NSing=     6 JSym2X= 0.
 Root      1 has converged.
 Root      2 has converged.
 Root      3 not converged, maximum delta is    0.001380067068390
 Root      4 not converged, maximum delta is    0.002526157213950
 Root      5 not converged, maximum delta is    0.017617477101563
 Excitation Energies [eV] at current iteration:
 Root      1 :     1.664035926228298   Change is   -0.000000208462383
 Root      2 :     2.210555260877576   Change is   -0.000000400213261
 Root      3 :     3.228330548805994   Change is   -0.000038563096861
 Root      4 :     3.334841490047412   Change is   -0.000074284723206
 Root      5 :     3.432389162197233   Change is   -0.001085741548943
 Iteration     8 Dimension    80 NMult    74 NNew      6
 CISAX will form     6 AO SS matrices at one time.
 NMat=     6 NSing=     6 JSym2X= 0.
 Root      1 has converged.
 Root      2 has converged.
 Root      3 has converged.
 Root      4 has converged.
 Root      5 not converged, maximum delta is    0.006698129732690
 Excitation Energies [eV] at current iteration:
 Root      1 :     1.664035793088191   Change is   -0.000000133140107
 Root      2 :     2.210554897283184   Change is   -0.000000363594392
 Root      3 :     3.228324525779020   Change is   -0.000006023026974
 Root      4 :     3.334825032842472   Change is   -0.000016457204940
 Root      5 :     3.432109832988680   Change is   -0.000279329208553
 Iteration     9 Dimension    82 NMult    80 NNew      2
 CISAX will form     2 AO SS matrices at one time.
 NMat=     2 NSing=     2 JSym2X= 0.
 Root      1 has converged.
 Root      2 has converged.
 Root      3 has converged.
 Root      4 has converged.
 Root      5 not converged, maximum delta is    0.001184490620597
 Excitation Energies [eV] at current iteration:
 Root      1 :     1.664035772447583   Change is   -0.000000020640609
 Root      2 :     2.210554729757606   Change is   -0.000000167525578
 Root      3 :     3.228324151915537   Change is   -0.000000373863483
 Root      4 :     3.334823940845544   Change is   -0.000001091996928
 Root      5 :     3.432066929595479   Change is   -0.000042903393201
 Iteration    10 Dimension    84 NMult    82 NNew      2
 CISAX will form     2 AO SS matrices at one time.
 NMat=     2 NSing=     2 JSym2X= 0.
 Root      1 has converged.
 Root      2 has converged.
 Root      3 has converged.
 Root      4 has converged.
 Root      5 has converged.
 Excitation Energies [eV] at current iteration:
 Root      1 :     1.664035674209635   Change is   -0.000000098237947
 Root      2 :     2.210554235778069   Change is   -0.000000493979537
 Root      3 :     3.228324096562559   Change is   -0.000000055352978
 Root      4 :     3.334823760856005   Change is   -0.000000179989539
 Root      5 :     3.432059934416501   Change is   -0.000006995178978
 Convergence achieved on expansion vectors.
 ***********************************************************************
 Excited states from <AA,BB:AA,BB> singles matrix:
 ***********************************************************************
 
 1PDM for each excited state written to RWF  633
 Ground to excited state transition densities written to RWF  633
 Ground to excited state transition electric dipole moments (Au):
       state          X           Y           Z        Dip. S.      Osc.
         1        -1.6422      2.1219     -1.4675      9.3526      0.3813
         2         0.4201      0.9544      0.6714      1.5381      0.0833
         3         0.1239     -0.1236      0.0401      0.0322      0.0025
         4         0.2613     -0.0066      0.2678      0.1400      0.0114
         5         0.3762      0.3100      0.5003      0.4880      0.0410
 Ground to excited state transition velocity dipole moments (Au):
       state          X           Y           Z        Dip. S.      Osc.
         1         0.0971     -0.1266      0.0875      0.0331      0.3609
         2        -0.0315     -0.0729     -0.0505      0.0089      0.0726
         3        -0.0106      0.0160     -0.0020      0.0004      0.0021
         4        -0.0273      0.0024     -0.0292      0.0016      0.0087
         5        -0.0466     -0.0378     -0.0574      0.0069      0.0364
 Ground to excited state transition magnetic dipole moments (Au):
       state          X           Y           Z
         1        -0.1014     -0.8101     -1.0814
         2        -0.5762      0.3954     -0.2384
         3        -0.7433      0.0936      0.5554
         4         0.0777      0.7102     -0.5812
         5         0.0833      0.1118     -0.1909
 Ground to excited state transition velocity quadrupole moments (Au):
       state          XX          YY          ZZ          XY          XZ          YZ
         1         1.5486     -0.3865     -0.1895     -0.8846      0.5926      0.2662
         2        -0.4606     -0.1916      0.0608     -0.6464     -0.5067      0.0152
         3        -0.0274     -0.4285      0.1716      0.2303      0.1171     -0.0232
         4        -0.3754      0.1343      0.0348     -0.1297     -0.2153     -0.2160
         5        -0.6380     -0.0454      0.1221     -0.5277     -0.4781     -0.2644
 <0|del|b> * <b|rxdel|0> + <0|del|b> * <b|delr+rdel|0>
 Rotatory Strengths (R) in cgs (10**-40 erg-esu-cm/Gauss)
       state          XX          YY          ZZ    R(velocity)    E-M Angle
         1        31.9210     -7.0379    -47.2003     -7.4391       90.45
         2       -91.6673    -12.7320    116.4159      4.0055       88.86
         3        -5.7326     22.3898     32.8995     16.5189       62.56
         4        66.3249     48.9821    -19.7097     31.8658       63.31
         5        53.0962    -30.5341     -6.6170      5.3150       81.66
 1/2[<0|r|b>*<b|rxdel|0> + (<0|rxdel|b>*<b|r|0>)*]
 Rotatory Strengths (R) in cgs (10**-40 erg-esu-cm/Gauss)
       state          XX          YY          ZZ     R(length)
         1      -117.7665   1215.4890  -1122.2470     -8.1748
         2       171.1779   -266.8372    113.1856      5.8421
         3        65.1337      8.1786    -15.7611     19.1838
         4       -14.3522      3.2919    110.0732     33.0043
         5       -22.1724    -24.5087     67.5233      6.9474
  1/2[<0|del|b>*<b|r|0> + (<0|r|b>*<b|del|0>)*] (Au)
       state          X           Y           Z        Dip. S.   Osc.(frdel)
         1        -0.1595     -0.2686     -0.1284      0.5565      0.3710
         2        -0.0132     -0.0695     -0.0339      0.1167      0.0778
         3        -0.0013     -0.0020     -0.0001      0.0034      0.0023
         4        -0.0071     -0.0000     -0.0078      0.0150      0.0100
         5        -0.0175     -0.0117     -0.0287      0.0579      0.0386

 Excitation energies and oscillator strengths:
 
 Excited State   1:      Singlet-A      1.6640 eV  745.08 nm  f=0.3813  <S**2>=0.000
     245 -> 248       -0.17928
     246 -> 247        0.68497
     245 <- 248       -0.11569
 This state for optimization and/or second-order correction.
 Total Energy, E(TD-HF/TD-DFT) =  -3007.79541175    
 Copying the excited state density for this state as the 1-particle RhoCI density.
 
 Excited State   2:      Singlet-A      2.2106 eV  560.87 nm  f=0.0833  <S**2>=0.000
     245 -> 247        0.62650
     246 -> 248        0.30669
 
 Excited State   3:      Singlet-A      3.2283 eV  384.05 nm  f=0.0025  <S**2>=0.000
     241 -> 247       -0.14012
     244 -> 247        0.65337
     246 -> 248       -0.10036
 
 Excited State   4:      Singlet-A      3.3348 eV  371.79 nm  f=0.0114  <S**2>=0.000
     241 -> 247        0.31841
     241 -> 249        0.14193
     242 -> 247        0.54869
     246 -> 248       -0.15056
 
 Excited State   5:      Singlet-A      3.4321 eV  361.25 nm  f=0.0410  <S**2>=0.000
     241 -> 247        0.49296
     242 -> 247       -0.26605
     242 -> 249        0.22805
     242 -> 251       -0.15884
     246 -> 248       -0.23867
 SavETr:  write IOETrn=   770 NScale= 10 NData=  16 NLR=1 NState=    5 LETran=     100.
 Leave Link  914 at Sat Apr 30 22:04:30 2022, MaxMem= 10066329600 cpu:           42525.0 elap:            1783.2
 (Enter /sw/apps/gaussian-16.0/g16/l601.exe)
 Copying SCF densities to generalized density rwf, IOpCl= 0 IROHF=0.
 Hyperfine terms turned off by default for NAtoms > 100.

 **********************************************************************

            Population analysis using the SCF density.

[...]
 Alpha virt. eigenvalues --    1.23059   1.23302   1.23502   1.23907   1.24305
 Alpha virt. eigenvalues --    1.25091   1.25247   1.25990   1.26530   1.27104
 Alpha virt. eigenvalues --    1.27331   1.27416   1.27482   1.28280   1.28690
 Alpha virt. eigenvalues --    1.28834   1.29333   1.30034   1.30492   1.30588
 Alpha virt. eigenvalues --    1.31123   1.31317   1.31737   1.32248   1.32349
 Alpha virt. eigenvalues --    1.33352   1.33505   1.33951   1.34057   1.34547
 Alpha virt. eigenvalues --    1.35213   1.35796   1.36091   1.36528   1.37054
 Alpha virt. eigenvalues --    1.37290   1.38298   1.38430   1.38875   1.39279
 Alpha virt. eigenvalues --    1.39733   1.40745   1.40988   1.41293   1.41652
 Alpha virt. eigenvalues --    1.42323   1.42693   1.42861   1.43278   1.43596
 Alpha virt. eigenvalues --    1.44016   1.44249   1.44869   1.45312   1.45372
 Alpha virt. eigenvalues --    1.45917   1.46450   1.46933   1.47081   1.48101
 Alpha virt. eigenvalues --    1.48262   1.48490   1.48700   1.49685   1.49832
 Alpha virt. eigenvalues --    1.50167   1.50220   1.50358   1.50487   1.51156
 Alpha virt. eigenvalues --    1.51587   1.52011   1.52265   1.53215   1.53575
 Alpha virt. eigenvalues --    1.53949   1.54397   1.55364   1.55687   1.56112
 Alpha virt. eigenvalues --    1.56614   1.57111   1.57706   1.57914   1.58151
 Alpha virt. eigenvalues --    1.58497   1.58712   1.58915   1.59383   1.59562
 Alpha virt. eigenvalues --    1.59851   1.60390   1.60850   1.61037   1.61565
 Alpha virt. eigenvalues --    1.61819   1.61941   1.62450   1.62622   1.62773
 Alpha virt. eigenvalues --    1.62920   1.63349   1.63411   1.63813   1.63932
 Alpha virt. eigenvalues --    1.64197   1.64482   1.64815   1.65073   1.65240
 Alpha virt. eigenvalues --    1.65286   1.65562   1.65702   1.65793   1.66234
 Alpha virt. eigenvalues --    1.66471   1.66961   1.67232   1.67284   1.67751
 Alpha virt. eigenvalues --    1.68057   1.68474   1.68843   1.69956   1.70438
 Alpha virt. eigenvalues --    1.71045   1.71795   1.72131   1.72824   1.72969
 Alpha virt. eigenvalues --    1.73265   1.73581   1.73819   1.74171   1.74505
 Alpha virt. eigenvalues --    1.75722   1.76212   1.76362   1.77108   1.77355
 Alpha virt. eigenvalues --    1.77705   1.78161   1.78279   1.78623   1.78917
 Alpha virt. eigenvalues --    1.79843   1.79943   1.80035   1.80563   1.80847
 Alpha virt. eigenvalues --    1.81042   1.81361   1.81585   1.81608   1.81886
 Alpha virt. eigenvalues --    1.82358   1.82518   1.82867   1.83130   1.83399
 Alpha virt. eigenvalues --    1.83666   1.83854   1.84047   1.84382   1.84611
 Alpha virt. eigenvalues --    1.84730   1.85076   1.85361   1.85534   1.85882
 Alpha virt. eigenvalues --    1.85976   1.86176   1.86462   1.86687   1.86801
 Alpha virt. eigenvalues --    1.86935   1.87211   1.87416   1.87554   1.87815
 Alpha virt. eigenvalues --    1.88085   1.88110   1.88136   1.88528   1.88855
 Alpha virt. eigenvalues --    1.88970   1.89047   1.89509   1.89626   1.89652
 Alpha virt. eigenvalues --    1.89872   1.90132   1.90376   1.90621   1.91158
 Alpha virt. eigenvalues --    1.91202   1.91294   1.91423   1.91531   1.91784
 Alpha virt. eigenvalues --    1.91967   1.92045   1.92277   1.92553   1.92633
 Alpha virt. eigenvalues --    1.92824   1.93137   1.93326   1.93336   1.93664
 Alpha virt. eigenvalues --    1.93826   1.93926   1.94201   1.94345   1.94578
 Alpha virt. eigenvalues --    1.94973   1.95142   1.95191   1.95940   1.95990
 Alpha virt. eigenvalues --    1.96059   1.96112   1.96545   1.96680   1.96777
 Alpha virt. eigenvalues --    1.96891   1.97125   1.97480   1.97753   1.98023
 Alpha virt. eigenvalues --    1.98232   1.98457   1.98891   1.99084   1.99395
 Alpha virt. eigenvalues --    1.99575   1.99969   2.00029   2.00070   2.00220
 Alpha virt. eigenvalues --    2.00628   2.01009   2.01058   2.01242   2.01761
 Alpha virt. eigenvalues --    2.01874   2.02146   2.02360   2.02387   2.02512
 Alpha virt. eigenvalues --    2.02717   2.03416   2.03874   2.03961   2.04065
 Alpha virt. eigenvalues --    2.04296   2.04581   2.04762   2.05086   2.05481
 Alpha virt. eigenvalues --    2.05866   2.06276   2.06557   2.06700   2.07392
 Alpha virt. eigenvalues --    2.07577   2.07839   2.08292   2.08384   2.08842
 Alpha virt. eigenvalues --    2.08970   2.09372   2.09434   2.10087   2.10689
 Alpha virt. eigenvalues --    2.11038   2.11185   2.11547   2.12409   2.12536
 Alpha virt. eigenvalues --    2.12595   2.12869   2.12947   2.13463   2.13517
 Alpha virt. eigenvalues --    2.13763   2.13868   2.14329   2.14459   2.15199
 Alpha virt. eigenvalues --    2.15358   2.15674   2.15929   2.16004   2.16476
 Alpha virt. eigenvalues --    2.16946   2.17284   2.17825   2.18152   2.18234
 Alpha virt. eigenvalues --    2.18411   2.18633   2.18795   2.19032   2.19168
 Alpha virt. eigenvalues --    2.19433   2.19518   2.20095   2.20243   2.20265
 Alpha virt. eigenvalues --    2.20802   2.21005   2.21366   2.21613   2.21847
 Alpha virt. eigenvalues --    2.22239   2.22417   2.23113   2.23156   2.23440
 Alpha virt. eigenvalues --    2.24721   2.24830   2.25208   2.25320   2.26191
 Alpha virt. eigenvalues --    2.26470   2.26885   2.27005   2.27774   2.28376
 Alpha virt. eigenvalues --    2.28694   2.29898   2.30238   2.30544   2.30853
 Alpha virt. eigenvalues --    2.30892   2.31183   2.31717   2.32573   2.32915
 Alpha virt. eigenvalues --    2.33426   2.33780   2.34925   2.34997   2.35415
 Alpha virt. eigenvalues --    2.35614   2.35923   2.36451   2.36800   2.37159
 Alpha virt. eigenvalues --    2.37362   2.37786   2.38260   2.38505   2.38879
 Alpha virt. eigenvalues --    2.39109   2.39598   2.39911   2.40119   2.40288
 Alpha virt. eigenvalues --    2.40706   2.41068   2.41491   2.41812   2.41982
 Alpha virt. eigenvalues --    2.42533   2.43135   2.43199   2.44056   2.44582
 Alpha virt. eigenvalues --    2.44786   2.44937   2.45353   2.46023   2.46276
 Alpha virt. eigenvalues --    2.46946   2.47375   2.47499   2.48199   2.48885
 Alpha virt. eigenvalues --    2.49325   2.49484   2.49696   2.50219   2.50401
 Alpha virt. eigenvalues --    2.50831   2.50888   2.51618   2.51924   2.52344
 Alpha virt. eigenvalues --    2.52703   2.52814   2.53167   2.53387   2.53629
 Alpha virt. eigenvalues --    2.53923   2.54121   2.54591   2.54804   2.55340
 Alpha virt. eigenvalues --    2.55468   2.55474   2.56019   2.56299   2.56413
 Alpha virt. eigenvalues --    2.57316   2.57675   2.58033   2.58502   2.58623
 Alpha virt. eigenvalues --    2.58825   2.59609   2.59660   2.59947   2.60392
 Alpha virt. eigenvalues --    2.61087   2.61255   2.62577   2.62746   2.63602
 Alpha virt. eigenvalues --    2.63836   2.64039   2.64512   2.64959   2.65172
 Alpha virt. eigenvalues --    2.65373   2.65881   2.66355   2.66592   2.67093
 Alpha virt. eigenvalues --    2.67497   2.67668   2.68384   2.68471   2.69250
 Alpha virt. eigenvalues --    2.69628   2.69926   2.70543   2.70651   2.71014
 Alpha virt. eigenvalues --    2.71373   2.71967   2.72107   2.72985   2.72998
 Alpha virt. eigenvalues --    2.73420   2.74001   2.74439   2.74767   2.75197
 Alpha virt. eigenvalues --    2.75867   2.76433   2.76614   2.76766   2.76987
 Alpha virt. eigenvalues --    2.77417   2.78137   2.78589   2.78938   2.79070
 Alpha virt. eigenvalues --    2.79317   2.79406   2.79649   2.80151   2.80905
 Alpha virt. eigenvalues --    2.80982   2.81192   2.81576   2.82303   2.82433
 Alpha virt. eigenvalues --    2.82952   2.83228   2.83503   2.84092   2.84797
 Alpha virt. eigenvalues --    2.85068   2.85626   2.86301   2.86686   2.86973
 Alpha virt. eigenvalues --    2.88532   2.89783   2.90360   2.91228   2.91372
 Alpha virt. eigenvalues --    2.91997   2.92521   2.92560   2.92673   2.93165
 Alpha virt. eigenvalues --    2.93192   2.94690   2.95202   2.95955   2.96015
 Alpha virt. eigenvalues --    2.96607   2.96889   2.97354   2.97457   2.97752
 Alpha virt. eigenvalues --    2.98457   2.98533   2.98823   2.99061   2.99349
 Alpha virt. eigenvalues --    2.99765   3.00073   3.00377   3.00607   3.00781
 Alpha virt. eigenvalues --    3.02008   3.02116   3.02222   3.02456   3.03027
 Alpha virt. eigenvalues --    3.03357   3.03847   3.04406   3.04508   3.04639
 Alpha virt. eigenvalues --    3.04749   3.04976   3.05666   3.05971   3.06379
 Alpha virt. eigenvalues --    3.06832   3.07074   3.07336   3.07635   3.07780
 Alpha virt. eigenvalues --    3.08086   3.08339   3.08705   3.08956   3.09488
 Alpha virt. eigenvalues --    3.09788   3.10174   3.10461   3.10486   3.10879
 Alpha virt. eigenvalues --    3.11370   3.11854   3.12410   3.12794   3.12904
 Alpha virt. eigenvalues --    3.13240   3.13424   3.13470   3.14251   3.14662
 Alpha virt. eigenvalues --    3.15220   3.16024   3.16126   3.16498   3.16887
 Alpha virt. eigenvalues --    3.18157   3.18465   3.18738   3.19190   3.19622
 Alpha virt. eigenvalues --    3.21303   3.21345   3.21613   3.22565   3.23020
 Alpha virt. eigenvalues --    3.23094   3.23459   3.23810   3.25323   3.25544
 Alpha virt. eigenvalues --    3.25597   3.26384   3.27006   3.28450   3.29744
 Alpha virt. eigenvalues --    3.31279   3.40441   3.42429   3.46355   3.47993
 Alpha virt. eigenvalues --    3.48096   3.50465   3.52932   3.56091   3.59994
 Alpha virt. eigenvalues --    3.62993   3.67237   3.68774   3.69672   3.72716
 Alpha virt. eigenvalues --    3.74096   3.75393
          Condensed to atoms (all electrons):
 Mulliken charges:
               1
     1  Mg   0.951548
     2  C    0.014618
     3  C   -0.108946
     4  C   -0.102126
     5  C   -0.078898
     6  N   -0.288008
     7  C   -0.043228
     8  C   -0.061179
     9  C   -0.059178
    10  C    0.050485
    11  C    0.011706
    12  C    0.027828
    13  C   -0.001037
    14  C    0.232578
    15  O   -0.275424
    16  O   -0.394086
    17  N   -0.483834
    18  C    0.158443
    19  C   -0.143132
    20  C   -0.105758
    21  C    0.238708
    22  C    0.065234
    23  C    0.067237
    24  O   -0.221648
    25  C   -0.019989
    26  N   -0.414589
    27  C    0.048086
    28  C   -0.074309
    29  C   -0.089105
    30  C    0.073675
    31  C    0.012539
    32  C   -0.004843
    33  C   -0.041079
    34  N   -0.404456
    35  C    0.116485
    36  C   -0.170390
    37  C   -0.034200
    38  C    0.161201
    39  C    0.070443
    40  C    0.112919
    41  O   -0.230219
    42  C   -0.067209
    43  C    0.258635
    44  O   -0.212159
    45  O   -0.411420
    46  C    0.135158
    47  C    0.271056
    48  C   -0.099012
    49  C   -0.219085
    50  C    0.011493
    51  C   -0.000881
    52  C   -0.013315
    53  C    0.045698
    54  C   -0.202473
    55  C   -0.014518
    56  C    0.012539
    57  C   -0.024958
    58  C    0.041751
    59  C   -0.165124
    60  C   -0.015734
    61  C    0.044491
    62  C   -0.098434
    63  C    0.027903
    64  C   -0.185053
    65  C   -0.028901
    66  C    0.010632
    67  H    0.001838
    68  H   -0.016860
    69  H   -0.005838
    70  H    0.025297
    71  H    0.027711
    72  H    0.034492
    73  H    0.022611
    74  H    0.034276
    75  H    0.053433
    76  H    0.034336
    77  H    0.062382
    78  H    0.078630
    79  H    0.056131
    80  H    0.030498
    81  H    0.059950
    82  H    0.058801
    83  H    0.067382
    84  H    0.041466
    85  H    0.047669
    86  H    0.044675
    87  H    0.041449
    88  H    0.040308
    89  H    0.043289
    90  H    0.035268
    91  H    0.030455
    92  H    0.025360
    93  H    0.044654
    94  H    0.038416
    95  H    0.062288
    96  H    0.014492
    97  H    0.055785
    98  H    0.074872
    99  H    0.050642
   100  H    0.069038
   101  H    0.060737
   102  H    0.034097
   103  H    0.056723
   104  H    0.013814
   105  H    0.027257
   106  H    0.047073
   107  H    0.038224
   108  H    0.032612
   109  H    0.017685
   110  H    0.027560
   111  H    0.032209
   112  H    0.026718
   113  H    0.011245
   114  H    0.016724
   115  H    0.031803
   116  H    0.018975
   117  H    0.030850
   118  H   -0.004942
   119  H    0.006979
   120  H    0.014830
   121  H    0.019588
   122  H    0.014896
   123  H    0.009456
   124  H    0.019574
   125  H    0.015158
   126  H    0.019229
   127  H    0.017112
   128  H    0.024892
   129  H    0.008883
   130  H    0.029958
   131  H    0.020906
   132  H    0.006131
   133  H    0.019880
   134  H    0.025989
   135  H    0.029176
   136  H    0.030694
   137  H    0.017328
   138  H    0.017100
   139  H    0.034331
   140  H    0.028194
 Sum of Mulliken charges =  -0.00000
 Mulliken charges with hydrogens summed into heavy atoms:
               1
     1  Mg   0.951548
     2  C    0.014618
     3  C   -0.107108
     4  C   -0.118986
     5  C   -0.084736
     6  N   -0.288008
     7  C   -0.043228
     8  C   -0.035882
     9  C   -0.031467
    10  C    0.050485
    11  C    0.103085
    12  C    0.115597
    13  C    0.139975
    14  C    0.232578
    15  O   -0.275424
    16  O   -0.394086
    17  N   -0.483834
    18  C    0.158443
    19  C   -0.143132
    20  C   -0.105758
    21  C    0.238708
    22  C    0.211813
    23  C    0.067237
    24  O   -0.221648
    25  C    0.147660
    26  N   -0.414589
    27  C    0.048086
    28  C   -0.026640
    29  C   -0.044430
    30  C    0.073675
    31  C    0.137585
    32  C    0.060880
    33  C    0.067351
    34  N   -0.404456
    35  C    0.116485
    36  C   -0.170390
    37  C   -0.034200
    38  C    0.161201
    39  C    0.203008
    40  C    0.112919
    41  O   -0.230219
    42  C    0.007663
    43  C    0.258635
    44  O   -0.212159
    45  O   -0.411420
    46  C    0.315575
    47  C    0.361877
    48  C   -0.085197
    49  C   -0.219085
    50  C    0.124046
    51  C    0.049416
    52  C    0.046454
    53  C    0.083661
    54  C   -0.185749
    55  C    0.067110
    56  C    0.014577
    57  C    0.009460
    58  C    0.066103
    59  C   -0.145550
    60  C    0.035765
    61  C    0.078265
    62  C   -0.047570
    63  C    0.053914
    64  C   -0.159064
    65  C    0.048297
    66  C    0.090257
 Electronic spatial extent (au):  <R**2>=         104266.2483
 Charge=             -0.0000 electrons
 Dipole moment (field-independent basis, Debye):
    X=              1.0443    Y=              7.6442    Z=             -0.8921  Tot=              7.7666
 Quadrupole moment (field-independent basis, Debye-Ang):
   XX=           -381.1682   YY=           -432.5491   ZZ=           -382.4454
   XY=             55.4627   XZ=            -21.5993   YZ=             34.3582
 Traceless Quadrupole moment (field-independent basis, Debye-Ang):
   XX=             17.5527   YY=            -33.8282   ZZ=             16.2755
   XY=             55.4627   XZ=            -21.5993   YZ=             34.3582
 Octapole moment (field-independent basis, Debye-Ang**2):
  XXX=             50.0473  YYY=            346.4872  ZZZ=             16.0157  XYY=            -38.2530
  XXY=            283.5993  XXZ=            -85.9843  XZZ=            112.4376  YZZ=           -106.6255
  YYZ=             71.5917  XYZ=            155.0015
 Hexadecapole moment (field-independent basis, Debye-Ang**3):
 XXXX=        -105771.9850 YYYY=         -23856.5591 ZZZZ=         -12554.8792 XXXY=           1679.8741
 XXXZ=           -831.9616 YYYX=           1884.9009 YYYZ=            756.5469 ZZZX=           -274.8783
 ZZZY=            492.7125 XXYY=         -22329.8952 XXZZ=         -19195.5513 YYZZ=          -6151.4705
 XXYZ=            753.5087 YYXZ=           -324.2961 ZZXY=            -41.3214
 N-N= 9.736774226391D+03 E-N=-2.646624266927D+04  KE= 2.976140771823D+03
 Leave Link  601 at Sat Apr 30 22:04:32 2022, MaxMem= 10066329600 cpu:              10.5 elap:               0.5
 (Enter /sw/apps/gaussian-16.0/g16/l9999.exe)
 1\1\GINC-BP1-COMPUTE176\SP\RwB97XD TD-FC\def2SVP\C55H74Mg1N4O6\OF15641
 \30-Apr-2022\0\\#p wB97XD/Def2SVP td=(nstates=5)\\step_901_chromophore
 _2 TDDFT with wB97XD functional\\0,1\Mg,0,3.476,1.062,44.352\C,0,6.226
 ,3.258,43.847\C,0,1.532,3.502,42.711\C,0,1.157,-1.222,43.806\C,0,5.849
 ,-1.391,45.261\N,0,3.885,3.03,43.26\C,0,5.001,3.715,43.369\C,0,4.815,5
 .112,42.743\C,0,3.317,5.269,42.806\C,0,2.858,3.861,42.857\C,0,2.748,6.
 113,43.973\C,0,5.355,5.255,41.342\C,0,5.424,3.967,40.513\C,0,5.67,4.10
 4,39.014\O,0,6.313,5.01,38.477\O,0,5.216,3.025,38.207\N,0,1.592,1.16,4
 3.527\C,0,0.944,2.25,42.999\C,0,-0.447,1.931,42.856\C,0,-0.584,0.544,4
 3.172\C,0,0.756,0.074,43.573\C,0,-1.436,2.918,42.299\C,0,-1.903,-0.265
 ,43.151\O,0,-2.949,0.22,42.774\C,0,-1.959,-1.676,43.416\N,0,3.591,-1.0
 31,44.389\C,0,2.446,-1.785,44.166\C,0,2.576,-3.309,44.574\C,0,3.994,-3
 .263,45.237\C,0,4.603,-1.876,44.903\C,0,1.441,-3.801,45.505\C,0,4.824,
 -4.503,44.861\C,0,5.432,-5.251,45.998\N,0,5.661,0.95,44.565\C,0,6.443,
 -0.13,44.993\C,0,7.823,0.329,44.945\C,0,7.721,1.694,44.582\C,0,6.434,2
 .009,44.307\C,0,9.084,-0.438,45.448\C,0,8.526,2.871,44.398\O,0,9.762,3
 .024,44.449\C,0,7.576,3.921,43.838\C,0,7.633,5.219,44.586\O,0,8.122,6.
 276,44.256\O,0,6.94,4.953,45.79\C,0,6.575,6.207,46.525\C,0,5.558,3.105
 ,36.791\C,0,4.685,2.111,36.026\C,0,5.046,1.316,35.01\C,0,6.456,1.357,3
 4.326\C,0,4.083,0.266,34.373\C,0,3.166,0.635,33.099\C,0,1.757,0.046,33
 .266\C,0,0.664,1.074,33.593\C,0,-0.14,0.707,34.88\C,0,-0.29,1.469,32.4
 42\C,0,-0.012,2.82,31.772\C,0,-0.968,3.977,31.982\C,0,-1.439,4.635,30.
 692\C,0,-2.046,5.982,30.952\C,0,-2.407,3.77,29.844\C,0,-1.719,3.379,28
 .541\C,0,-2.506,2.238,27.682\C,0,-2.659,2.509,26.209\C,0,-3.295,3.89,2
 6.027\C,0,-3.44,1.49,25.351\H,0,0.856,4.28,42.348\H,0,0.457,-2.04,43.6
 23\H,0,6.521,-2.169,45.629\H,0,5.332,5.909,43.277\H,0,2.81,5.693,41.93
 9\H,0,2.549,7.151,43.707\H,0,3.385,6.294,44.839\H,0,1.821,5.761,44.425
 \H,0,6.313,5.755,41.489\H,0,4.751,5.942,40.749\H,0,4.456,3.467,40.556\
 H,0,6.246,3.317,40.812\H,0,-1.431,2.988,41.211\H,0,-1.191,3.918,42.657
 \H,0,-2.479,2.705,42.534\H,0,-1.741,-2.107,44.393\H,0,-1.406,-2.112,42
 .583\H,0,-2.964,-2.089,43.323\H,0,2.634,-3.91,43.666\H,0,3.871,-3.091,
 46.307\H,0,0.542,-4.094,44.963\H,0,1.16,-2.992,46.18\H,0,1.7,-4.667,46
 .114\H,0,5.653,-4.153,44.246\H,0,4.256,-5.162,44.205\H,0,5.303,-6.266,
 45.622\H,0,4.968,-5.101,46.973\H,0,6.519,-5.188,46.044\H,0,9.761,-0.74
 4,44.65\H,0,8.801,-1.318,46.026\H,0,9.599,0.127,46.225\H,0,8.066,4.112
 ,42.884\H,0,5.694,5.928,47.103\H,0,6.431,7.007,45.799\H,0,7.342,6.405,
 47.274\H,0,6.617,2.878,36.668\H,0,5.5,4.115,36.388\H,0,3.646,1.921,36.
 298\H,0,7.137,2.056,34.811\H,0,6.447,1.584,33.26\H,0,6.846,0.344,34.42
 2\H,0,3.519,-0.136,35.214\H,0,4.736,-0.536,34.027\H,0,3.703,0.189,32.2
 62\H,0,3.033,1.706,32.943\H,0,1.728,-0.788,33.967\H,0,1.526,-0.24,32.2
 4\H,0,1.142,2.011,33.88\H,0,-0.29,-0.368,34.981\H,0,-1.128,1.167,34.89
 3\H,0,0.347,1.139,35.754\H,0,-1.308,1.433,32.83\H,0,-0.39,0.654,31.724
 \H,0,0.048,2.572,30.712\H,0,0.964,3.147,32.132\H,0,-0.443,4.729,32.571
 \H,0,-1.779,3.517,32.547\H,0,-0.54,5.001,30.197\H,0,-2.673,6.401,30.16
 5\H,0,-1.296,6.764,31.069\H,0,-2.717,6.029,31.809\H,0,-3.389,4.211,29.
 669\H,0,-2.59,2.846,30.393\H,0,-0.678,3.093,28.688\H,0,-1.725,4.321,27
 .993\H,0,-3.481,2.213,28.168\H,0,-2.042,1.28,27.915\H,0,-1.644,2.613,2
 5.826\H,0,-2.645,4.465,25.366\H,0,-3.52,4.388,26.97\H,0,-4.248,3.936,2
 5.501\H,0,-3.724,0.593,25.902\H,0,-2.811,1.166,24.521\H,0,-4.405,1.836
 ,24.979\\Version=ES64L-G16RevA.03\State=1-A\HF=-3007.8565639\RMSD=6.12
 5e-09\PG=C01 [X(C55H74Mg1N4O6)]\\@


 ... SUBJECTS WHICH DISCLOSE THEIR FULL POWER, MEANING AND BEAUTY AS SOON
 AS THEY ARE PRESENTED TO THE MIND HAVE VERY LITTLE OF THOSE QUALITIES
 TO DISCLOSE.
                           -- CHARLES DUTTON (1882)
 Job cpu time:       0 days 15 hours 23 minutes 45.5 seconds.
 Elapsed time:       0 days  0 hours 38 minutes 56.1 seconds.
 File lengths (MBytes):  RWF=   8929 Int=      0 D2E=      0 Chk=    390 Scr=      1
 Normal termination of Gaussian 16 at Sat Apr 30 22:04:33 2022.
