 Entering Gaussian System, Link 0=g16
 Initial command:
 /sw/apps/gaussian-16.0/g16/l1.exe "/tmp/Gau-10609.inp" -scrdir="/tmp/"
 Entering Link 1 = /sw/apps/gaussian-16.0/g16/l1.exe PID=     10610.
  
 Copyright (c) 1988,1990,1992,1993,1995,1998,2003,2009,2016,
            Gaussian, Inc.  All Rights Reserved.
  
 This is part of the Gaussian(R) 16 program.  It is based on
 the Gaussian(R) 09 system (copyright 2009, Gaussian, Inc.),
 the Gaussian(R) 03 system (copyright 2003, Gaussian, Inc.),
 the Gaussian(R) 98 system (copyright 1998, Gaussian, Inc.),
 the Gaussian(R) 94 system (copyright 1995, Gaussian, Inc.),
 the Gaussian 92(TM) system (copyright 1992, Gaussian, Inc.),
 the Gaussian 90(TM) system (copyright 1990, Gaussian, Inc.),
 the Gaussian 88(TM) system (copyright 1988, Gaussian, Inc.),
 the Gaussian 86(TM) system (copyright 1986, Carnegie Mellon
 University), and the Gaussian 82(TM) system (copyright 1983,
 Carnegie Mellon University). Gaussian is a federally registered
 trademark of Gaussian, Inc.
  
 This software contains proprietary and confidential information,
 including trade secrets, belonging to Gaussian, Inc.
  
 This software is provided under written license and may be
 used, copied, transmitted, or stored only in accord with that
 written license.
  
 The following legend is applicable only to US Government
 contracts under FAR:
  
                    RESTRICTED RIGHTS LEGEND
  
 Use, reproduction and disclosure by the US Government is
 subject to restrictions as set forth in subparagraphs (a)
 and (c) of the Commercial Computer Software - Restricted
 Rights clause in FAR 52.227-19.
  
 Gaussian, Inc.
 340 Quinnipiac St., Bldg. 40, Wallingford CT 06492
  
  
 ---------------------------------------------------------------
 Warning -- This program may not be used in any manner that
 competes with the business of Gaussian, Inc. or will provide
 assistance to any competitor of Gaussian, Inc.  The licensee
 of this program is prohibited from giving any competitor of
 Gaussian, Inc. access to this program.  By using this program,
 the user acknowledges that Gaussian, Inc. is engaged in the
 business of creating and licensing software in the field of
 computational chemistry and represents and warrants to the
 licensee that it is not a competitor of Gaussian, Inc. and that
 it will not use this program in any manner prohibited above.
 ---------------------------------------------------------------
  

 Cite this work as:
 Gaussian 16, Revision A.03,
 M. J. Frisch, G. W. Trucks, H. B. Schlegel, G. E. Scuseria, 
 M. A. Robb, J. R. Cheeseman, G. Scalmani, V. Barone, 
 G. A. Petersson, H. Nakatsuji, X. Li, M. Caricato, A. V. Marenich, 
 J. Bloino, B. G. Janesko, R. Gomperts, B. Mennucci, H. P. Hratchian, 
 J. V. Ortiz, A. F. Izmaylov, J. L. Sonnenberg, D. Williams-Young, 
 F. Ding, F. Lipparini, F. Egidi, J. Goings, B. Peng, A. Petrone, 
 T. Henderson, D. Ranasinghe, V. G. Zakrzewski, J. Gao, N. Rega, 
 G. Zheng, W. Liang, M. Hada, M. Ehara, K. Toyota, R. Fukuda, 
 J. Hasegawa, M. Ishida, T. Nakajima, Y. Honda, O. Kitao, H. Nakai, 
 T. Vreven, K. Throssell, J. A. Montgomery, Jr., J. E. Peralta, 
 F. Ogliaro, M. J. Bearpark, J. J. Heyd, E. N. Brothers, K. N. Kudin, 
 V. N. Staroverov, T. A. Keith, R. Kobayashi, J. Normand, 
 K. Raghavachari, A. P. Rendell, J. C. Burant, S. S. Iyengar, 
 J. Tomasi, M. Cossi, J. M. Millam, M. Klene, C. Adamo, R. Cammi, 
 J. W. Ochterski, R. L. Martin, K. Morokuma, O. Farkas, 
 J. B. Foresman, and D. J. Fox, Gaussian, Inc., Wallingford CT, 2016.
 
 ******************************************
 Gaussian 16:  ES64L-G16RevA.03 25-Dec-2016
                27-Apr-2022 
 ******************************************
 %nproc=24
 Will use up to   24 processors via shared memory.
 %mem=75GB
 ------------------------------
 #p blyp/Def2SVP td=(nstates=5)
 ------------------------------
 1/38=1,172=1/1;
 2/12=2,17=6,18=5,40=1/2;
 3/5=43,7=101,11=9,25=1,30=1,74=402/1,2,3,8;
 4//1;
 5/5=2,38=5/2;
 8/6=1,10=1,108=5/1;
 9/41=5,42=1,70=2/14;
 6/7=2,8=2,9=2,10=2/1;
 99/5=1,9=1/99;
 Leave Link    1 at Wed Apr 27 11:52:21 2022, MaxMem= 10066329600 cpu:               0.8 elap:               0.0
 (Enter /sw/apps/gaussian-16.0/g16/l101.exe)
 ---------------------------------------------------
 step_1151_chromophore_20 TDDFT with blyp functional
 ---------------------------------------------------
 Symbolic Z-matrix:
 Charge =  0 Multiplicity = 1
 Mg                    5.967     57.21     42.074 
 C                     5.187     53.822    41.477 
 C                     9.216     56.479    40.853 
 C                     6.559     60.4      41.944 
 C                     2.531     57.71     42.67 
 N                     6.996     55.436    41.187 
 C                     6.493     54.12     41.109 
 C                     7.621     53.125    40.661 
 C                     8.897     53.889    40.995 
 C                     8.335     55.376    41.065 
 C                     9.601     53.501    42.343 
 C                     7.567     52.854    39.142 
 C                     7.906     51.373    38.672 
 C                     7.458     50.837    37.33 
 O                     8.138     50.022    36.751 
 O                     6.296     51.334    36.857 
 N                     7.632     58.293    41.396 
 C                     8.886     57.845    41.063 
 C                     9.751     59.023    40.703 
 C                     8.991     60.153    41.033 
 C                     7.672     59.624    41.509 
 C                     11.158    58.868    40.275 
 C                     9.479     61.569    41.006 
 O                     10.59     61.918    40.572 
 C                     8.559     62.713    41.524 
 N                     4.759     58.79     42.225 
 C                     5.31      60.056    42.359 
 C                     4.248     61.116    42.773 
 C                     2.924     60.301    42.849 
 C                     3.405     58.807    42.497 
 C                     4.711     61.854    44.068 
 C                     1.862     60.778    41.79 
 C                     0.395     60.945    42.185 
 N                     4.194     56.015    42.059 
 C                     2.956     56.339    42.464 
 C                     2.134     55.182    42.612 
 C                     2.979     54.163    42.165 
 C                     4.192     54.768    41.778 
 C                     0.706     55.15     43.115 
 C                     2.989     52.76     41.884 
 O                     2.125     51.931    42.072 
 C                     4.483     52.528    41.437 
 C                     4.362     51.967    40.09 
 O                     3.766     52.496    39.116 
 O                     4.918     50.742    39.992 
 C                     4.322     49.815    39.048 
 C                     5.817     50.755    35.554 
 C                     6.528     51.365    34.374 
 C                     6.242     51.199    33.027 
 C                     5.058     50.347    32.485 
 C                     7.014     51.954    31.973 
 C                     6.707     53.445    31.965 
 C                     6.209     53.873    30.593 
 C                     6.397     55.37     30.285 
 C                     5.16      55.82     29.438 
 C                     7.797     55.71     29.735 
 C                     8.582     56.859    30.309 
 C                     9.701     56.312    31.233 
 C                     11.049    56.03     30.426 
 C                     12.009    54.994    31.086 
 C                     11.663    57.406    30.079 
 C                     11.911    57.554    28.634 
 C                     13.271    58.234    28.405 
 C                     14.35     57.201    27.839 
 C                     15.519    56.87     28.881 
 C                     14.851    57.784    26.519 
 H                     10.255    56.277    40.584 
 H                     6.738     61.434    42.245 
 H                     1.515     57.771    43.066 
 H                     7.584     52.167    41.179 
 H                     9.613     54.035    40.186 
 H                     9.345     54.369    42.951 
 H                     10.672    53.299    42.366 
 H                     9.119     52.666    42.851 
 H                     8.28      53.533    38.673 
 H                     6.701     53.405    38.773 
 H                     7.787     50.636    39.467 
 H                     8.975     51.511    38.51 
 H                     11.813    59.588    40.767 
 H                     11.358    58.739    39.211 
 H                     11.498    57.96     40.772 
 H                     8.406     62.478    42.578 
 H                     7.586     62.714    41.032 
 H                     9.009     63.693    41.371 
 H                     4.165     61.851    41.973 
 H                     2.383     60.24     43.793 
 H                     5.621     61.5      44.552 
 H                     3.947     61.744    44.838 
 H                     4.876     62.921    43.919 
 H                     1.843     60.099    40.938 
 H                     2.264     61.72     41.416 
 H                     0.022     61.948    41.98 
 H                     0.131     60.704    43.215 
 H                    -0.222     60.276    41.585 
 H                     0.782     54.247    43.721 
 H                     0.246     55.176    42.127 
 H                     0.363     55.975    43.738 
 H                     4.886     51.766    42.104 
 H                     3.242     49.727    39.165 
 H                     4.73      48.807    39.121 
 H                     4.289     50.32     38.082 
 H                     4.738     50.901    35.492 
 H                     5.943     49.672    35.538 
 H                     7.512     51.789    34.575 
 H                     4.434     49.95     33.286 
 H                     5.543     49.556    31.913 
 H                     4.365     50.888    31.841 
 H                     6.798     51.52     30.996 
 H                     8.06      51.746    32.199 
 H                     7.597     54.009    32.245 
 H                     6.012     53.577    32.794 
 H                     5.146     53.633    30.586 
 H                     6.685     53.316    29.786 
 H                     6.418     55.844    31.267 
 H                     5.471     56.647    28.8 
 H                     4.354     56.223    30.052 
 H                     4.694     55.033    28.846 
 H                     7.713     55.918    28.668 
 H                     8.394     54.802    29.813 
 H                     7.852     57.491    30.816 
 H                     8.965     57.393    29.44 
 H                     9.43      55.384    31.736 
 H                     9.84      57.166    31.895 
 H                     10.862    55.509    29.487 
 H                     11.799    54.043    30.596 
 H                     11.692    54.95     32.128 
 H                     13.015    55.361    30.886 
 H                     12.585    57.538    30.647 
 H                     11.164    58.289    30.48 
 H                     11.092    58.165    28.256 
 H                     11.791    56.629    28.071 
 H                     13.613    58.755    29.3 
 H                     13.11     59.077    27.733 
 H                     14.014    56.174    27.699 
 H                     16.346    57.577    28.819 
 H                     15.904    55.863    28.724 
 H                     15.092    56.955    29.88 
 H                     14.951    56.976    25.794 
 H                     15.82     58.26     26.668 
 H                     14.057    58.412    26.114 
 
 ITRead=  0  0  0  0  0  0  0  0  0  0  0  0  0  0  0  0  0  0  0  0
 ITRead=  0  0  0  0  0  0  0  0  0  0  0  0  0  0  0  0  0  0  0  0
 ITRead=  0  0  0  0  0  0  0  0  0  0  0  0  0  0  0  0  0  0  0  0
 ITRead=  0  0  0  0  0  0  0  0  0  0  0  0  0  0  0  0  0  0  0  0
 ITRead=  0  0  0  0  0  0  0  0  0  0  0  0  0  0  0  0  0  0  0  0
 ITRead=  0  0  0  0  0  0  0  0  0  0  0  0  0  0  0  0  0  0  0  0
 ITRead=  0  0  0  0  0  0  0  0  0  0  0  0  0  0  0  0  0  0  0  0
 MicOpt= -1 -1 -1 -1 -1 -1 -1 -1 -1 -1 -1 -1 -1 -1 -1 -1 -1 -1 -1 -1
 MicOpt= -1 -1 -1 -1 -1 -1 -1 -1 -1 -1 -1 -1 -1 -1 -1 -1 -1 -1 -1 -1
 MicOpt= -1 -1 -1 -1 -1 -1 -1 -1 -1 -1 -1 -1 -1 -1 -1 -1 -1 -1 -1 -1
 MicOpt= -1 -1 -1 -1 -1 -1 -1 -1 -1 -1 -1 -1 -1 -1 -1 -1 -1 -1 -1 -1
 MicOpt= -1 -1 -1 -1 -1 -1 -1 -1 -1 -1 -1 -1 -1 -1 -1 -1 -1 -1 -1 -1
 MicOpt= -1 -1 -1 -1 -1 -1 -1 -1 -1 -1 -1 -1 -1 -1 -1 -1 -1 -1 -1 -1
 MicOpt= -1 -1 -1 -1 -1 -1 -1 -1 -1 -1 -1 -1 -1 -1 -1 -1 -1 -1 -1 -1
 NAtoms=    140 NQM=      140 NQMF=       0 NMMI=      0 NMMIF=      0
                NMic=       0 NMicF=      0.
                    Isotopes and Nuclear Properties:
 (Nuclear quadrupole moments (NQMom) in fm**2, nuclear magnetic moments (NMagM)
  in nuclear magnetons)

  Atom         1           2           3           4           5           6           7           8           9          10
 IAtWgt=          24          12          12          12          12          14          12          12          12          12
 AtmWgt=  23.9850450  12.0000000  12.0000000  12.0000000  12.0000000  14.0030740  12.0000000  12.0000000  12.0000000  12.0000000
 NucSpn=           0           0           0           0           0           2           0           0           0           0
 AtZEff=  -0.0000000  -0.0000000  -0.0000000  -0.0000000  -0.0000000  -0.0000000  -0.0000000  -0.0000000  -0.0000000  -0.0000000
 NQMom=    0.0000000   0.0000000   0.0000000   0.0000000   0.0000000   2.0440000   0.0000000   0.0000000   0.0000000   0.0000000
 NMagM=    0.0000000   0.0000000   0.0000000   0.0000000   0.0000000   0.4037610   0.0000000   0.0000000   0.0000000   0.0000000
 AtZNuc=  12.0000000   6.0000000   6.0000000   6.0000000   6.0000000   7.0000000   6.0000000   6.0000000   6.0000000   6.0000000

  Atom        11          12          13          14          15          16          17          18          19          20
 IAtWgt=          12          12          12          12          16          16          14          12          12          12
 AtmWgt=  12.0000000  12.0000000  12.0000000  12.0000000  15.9949146  15.9949146  14.0030740  12.0000000  12.0000000  12.0000000
 NucSpn=           0           0           0           0           0           0           2           0           0           0
 AtZEff=  -0.0000000  -0.0000000  -0.0000000  -0.0000000  -0.0000000  -0.0000000  -0.0000000  -0.0000000  -0.0000000  -0.0000000
 NQMom=    0.0000000   0.0000000   0.0000000   0.0000000   0.0000000   0.0000000   2.0440000   0.0000000   0.0000000   0.0000000
 NMagM=    0.0000000   0.0000000   0.0000000   0.0000000   0.0000000   0.0000000   0.4037610   0.0000000   0.0000000   0.0000000
 AtZNuc=   6.0000000   6.0000000   6.0000000   6.0000000   8.0000000   8.0000000   7.0000000   6.0000000   6.0000000   6.0000000

  Atom        21          22          23          24          25          26          27          28          29          30
 IAtWgt=          12          12          12          16          12          14          12          12          12          12
 AtmWgt=  12.0000000  12.0000000  12.0000000  15.9949146  12.0000000  14.0030740  12.0000000  12.0000000  12.0000000  12.0000000
 NucSpn=           0           0           0           0           0           2           0           0           0           0
 AtZEff=  -0.0000000  -0.0000000  -0.0000000  -0.0000000  -0.0000000  -0.0000000  -0.0000000  -0.0000000  -0.0000000  -0.0000000
 NQMom=    0.0000000   0.0000000   0.0000000   0.0000000   0.0000000   2.0440000   0.0000000   0.0000000   0.0000000   0.0000000
 NMagM=    0.0000000   0.0000000   0.0000000   0.0000000   0.0000000   0.4037610   0.0000000   0.0000000   0.0000000   0.0000000
 AtZNuc=   6.0000000   6.0000000   6.0000000   8.0000000   6.0000000   7.0000000   6.0000000   6.0000000   6.0000000   6.0000000

  Atom        31          32          33          34          35          36          37          38          39          40
 IAtWgt=          12          12          12          14          12          12          12          12          12          12
 AtmWgt=  12.0000000  12.0000000  12.0000000  14.0030740  12.0000000  12.0000000  12.0000000  12.0000000  12.0000000  12.0000000
 NucSpn=           0           0           0           2           0           0           0           0           0           0
 AtZEff=  -0.0000000  -0.0000000  -0.0000000  -0.0000000  -0.0000000  -0.0000000  -0.0000000  -0.0000000  -0.0000000  -0.0000000
 NQMom=    0.0000000   0.0000000   0.0000000   2.0440000   0.0000000   0.0000000   0.0000000   0.0000000   0.0000000   0.0000000
 NMagM=    0.0000000   0.0000000   0.0000000   0.4037610   0.0000000   0.0000000   0.0000000   0.0000000   0.0000000   0.0000000
 AtZNuc=   6.0000000   6.0000000   6.0000000   7.0000000   6.0000000   6.0000000   6.0000000   6.0000000   6.0000000   6.0000000

  Atom        41          42          43          44          45          46          47          48          49          50
 IAtWgt=          16          12          12          16          16          12          12          12          12          12
 AtmWgt=  15.9949146  12.0000000  12.0000000  15.9949146  15.9949146  12.0000000  12.0000000  12.0000000  12.0000000  12.0000000
 NucSpn=           0           0           0           0           0           0           0           0           0           0
 AtZEff=  -0.0000000  -0.0000000  -0.0000000  -0.0000000  -0.0000000  -0.0000000  -0.0000000  -0.0000000  -0.0000000  -0.0000000
 NQMom=    0.0000000   0.0000000   0.0000000   0.0000000   0.0000000   0.0000000   0.0000000   0.0000000   0.0000000   0.0000000
 NMagM=    0.0000000   0.0000000   0.0000000   0.0000000   0.0000000   0.0000000   0.0000000   0.0000000   0.0000000   0.0000000
 AtZNuc=   8.0000000   6.0000000   6.0000000   8.0000000   8.0000000   6.0000000   6.0000000   6.0000000   6.0000000   6.0000000

  Atom        51          52          53          54          55          56          57          58          59          60
 IAtWgt=          12          12          12          12          12          12          12          12          12          12
 AtmWgt=  12.0000000  12.0000000  12.0000000  12.0000000  12.0000000  12.0000000  12.0000000  12.0000000  12.0000000  12.0000000
 NucSpn=           0           0           0           0           0           0           0           0           0           0
 AtZEff=  -0.0000000  -0.0000000  -0.0000000  -0.0000000  -0.0000000  -0.0000000  -0.0000000  -0.0000000  -0.0000000  -0.0000000
 NQMom=    0.0000000   0.0000000   0.0000000   0.0000000   0.0000000   0.0000000   0.0000000   0.0000000   0.0000000   0.0000000
 NMagM=    0.0000000   0.0000000   0.0000000   0.0000000   0.0000000   0.0000000   0.0000000   0.0000000   0.0000000   0.0000000
 AtZNuc=   6.0000000   6.0000000   6.0000000   6.0000000   6.0000000   6.0000000   6.0000000   6.0000000   6.0000000   6.0000000

  Atom        61          62          63          64          65          66          67          68          69          70
 IAtWgt=          12          12          12          12          12          12           1           1           1           1
 AtmWgt=  12.0000000  12.0000000  12.0000000  12.0000000  12.0000000  12.0000000   1.0078250   1.0078250   1.0078250   1.0078250
 NucSpn=           0           0           0           0           0           0           1           1           1           1
 AtZEff=  -0.0000000  -0.0000000  -0.0000000  -0.0000000  -0.0000000  -0.0000000  -0.0000000  -0.0000000  -0.0000000  -0.0000000
 NQMom=    0.0000000   0.0000000   0.0000000   0.0000000   0.0000000   0.0000000   0.0000000   0.0000000   0.0000000   0.0000000
 NMagM=    0.0000000   0.0000000   0.0000000   0.0000000   0.0000000   0.0000000   2.7928460   2.7928460   2.7928460   2.7928460
 AtZNuc=   6.0000000   6.0000000   6.0000000   6.0000000   6.0000000   6.0000000   1.0000000   1.0000000   1.0000000   1.0000000

  Atom        71          72          73          74          75          76          77          78          79          80
 IAtWgt=           1           1           1           1           1           1           1           1           1           1
 AtmWgt=   1.0078250   1.0078250   1.0078250   1.0078250   1.0078250   1.0078250   1.0078250   1.0078250   1.0078250   1.0078250
 NucSpn=           1           1           1           1           1           1           1           1           1           1
 AtZEff=  -0.0000000  -0.0000000  -0.0000000  -0.0000000  -0.0000000  -0.0000000  -0.0000000  -0.0000000  -0.0000000  -0.0000000
 NQMom=    0.0000000   0.0000000   0.0000000   0.0000000   0.0000000   0.0000000   0.0000000   0.0000000   0.0000000   0.0000000
 NMagM=    2.7928460   2.7928460   2.7928460   2.7928460   2.7928460   2.7928460   2.7928460   2.7928460   2.7928460   2.7928460
 AtZNuc=   1.0000000   1.0000000   1.0000000   1.0000000   1.0000000   1.0000000   1.0000000   1.0000000   1.0000000   1.0000000

  Atom        81          82          83          84          85          86          87          88          89          90
 IAtWgt=           1           1           1           1           1           1           1           1           1           1
 AtmWgt=   1.0078250   1.0078250   1.0078250   1.0078250   1.0078250   1.0078250   1.0078250   1.0078250   1.0078250   1.0078250
 NucSpn=           1           1           1           1           1           1           1           1           1           1
 AtZEff=  -0.0000000  -0.0000000  -0.0000000  -0.0000000  -0.0000000  -0.0000000  -0.0000000  -0.0000000  -0.0000000  -0.0000000
 NQMom=    0.0000000   0.0000000   0.0000000   0.0000000   0.0000000   0.0000000   0.0000000   0.0000000   0.0000000   0.0000000
 NMagM=    2.7928460   2.7928460   2.7928460   2.7928460   2.7928460   2.7928460   2.7928460   2.7928460   2.7928460   2.7928460
 AtZNuc=   1.0000000   1.0000000   1.0000000   1.0000000   1.0000000   1.0000000   1.0000000   1.0000000   1.0000000   1.0000000

  Atom        91          92          93          94          95          96          97          98          99         100
 IAtWgt=           1           1           1           1           1           1           1           1           1           1
 AtmWgt=   1.0078250   1.0078250   1.0078250   1.0078250   1.0078250   1.0078250   1.0078250   1.0078250   1.0078250   1.0078250
 NucSpn=           1           1           1           1           1           1           1           1           1           1
 AtZEff=  -0.0000000  -0.0000000  -0.0000000  -0.0000000  -0.0000000  -0.0000000  -0.0000000  -0.0000000  -0.0000000  -0.0000000
 NQMom=    0.0000000   0.0000000   0.0000000   0.0000000   0.0000000   0.0000000   0.0000000   0.0000000   0.0000000   0.0000000
 NMagM=    2.7928460   2.7928460   2.7928460   2.7928460   2.7928460   2.7928460   2.7928460   2.7928460   2.7928460   2.7928460
 AtZNuc=   1.0000000   1.0000000   1.0000000   1.0000000   1.0000000   1.0000000   1.0000000   1.0000000   1.0000000   1.0000000

  Atom       101         102         103         104         105         106         107         108         109         110
 IAtWgt=           1           1           1           1           1           1           1           1           1           1
 AtmWgt=   1.0078250   1.0078250   1.0078250   1.0078250   1.0078250   1.0078250   1.0078250   1.0078250   1.0078250   1.0078250
 NucSpn=           1           1           1           1           1           1           1           1           1           1
 AtZEff=  -0.0000000  -0.0000000  -0.0000000  -0.0000000  -0.0000000  -0.0000000  -0.0000000  -0.0000000  -0.0000000  -0.0000000
 NQMom=    0.0000000   0.0000000   0.0000000   0.0000000   0.0000000   0.0000000   0.0000000   0.0000000   0.0000000   0.0000000
 NMagM=    2.7928460   2.7928460   2.7928460   2.7928460   2.7928460   2.7928460   2.7928460   2.7928460   2.7928460   2.7928460
 AtZNuc=   1.0000000   1.0000000   1.0000000   1.0000000   1.0000000   1.0000000   1.0000000   1.0000000   1.0000000   1.0000000

  Atom       111         112         113         114         115         116         117         118         119         120
 IAtWgt=           1           1           1           1           1           1           1           1           1           1
 AtmWgt=   1.0078250   1.0078250   1.0078250   1.0078250   1.0078250   1.0078250   1.0078250   1.0078250   1.0078250   1.0078250
 NucSpn=           1           1           1           1           1           1           1           1           1           1
 AtZEff=  -0.0000000  -0.0000000  -0.0000000  -0.0000000  -0.0000000  -0.0000000  -0.0000000  -0.0000000  -0.0000000  -0.0000000
 NQMom=    0.0000000   0.0000000   0.0000000   0.0000000   0.0000000   0.0000000   0.0000000   0.0000000   0.0000000   0.0000000
 NMagM=    2.7928460   2.7928460   2.7928460   2.7928460   2.7928460   2.7928460   2.7928460   2.7928460   2.7928460   2.7928460
 AtZNuc=   1.0000000   1.0000000   1.0000000   1.0000000   1.0000000   1.0000000   1.0000000   1.0000000   1.0000000   1.0000000

  Atom       121         122         123         124         125         126         127         128         129         130
 IAtWgt=           1           1           1           1           1           1           1           1           1           1
 AtmWgt=   1.0078250   1.0078250   1.0078250   1.0078250   1.0078250   1.0078250   1.0078250   1.0078250   1.0078250   1.0078250
 NucSpn=           1           1           1           1           1           1           1           1           1           1
 AtZEff=  -0.0000000  -0.0000000  -0.0000000  -0.0000000  -0.0000000  -0.0000000  -0.0000000  -0.0000000  -0.0000000  -0.0000000
 NQMom=    0.0000000   0.0000000   0.0000000   0.0000000   0.0000000   0.0000000   0.0000000   0.0000000   0.0000000   0.0000000
 NMagM=    2.7928460   2.7928460   2.7928460   2.7928460   2.7928460   2.7928460   2.7928460   2.7928460   2.7928460   2.7928460
 AtZNuc=   1.0000000   1.0000000   1.0000000   1.0000000   1.0000000   1.0000000   1.0000000   1.0000000   1.0000000   1.0000000

  Atom       131         132         133         134         135         136         137         138         139         140
 IAtWgt=           1           1           1           1           1           1           1           1           1           1
 AtmWgt=   1.0078250   1.0078250   1.0078250   1.0078250   1.0078250   1.0078250   1.0078250   1.0078250   1.0078250   1.0078250
 NucSpn=           1           1           1           1           1           1           1           1           1           1
 AtZEff=  -0.0000000  -0.0000000  -0.0000000  -0.0000000  -0.0000000  -0.0000000  -0.0000000  -0.0000000  -0.0000000  -0.0000000
 NQMom=    0.0000000   0.0000000   0.0000000   0.0000000   0.0000000   0.0000000   0.0000000   0.0000000   0.0000000   0.0000000
 NMagM=    2.7928460   2.7928460   2.7928460   2.7928460   2.7928460   2.7928460   2.7928460   2.7928460   2.7928460   2.7928460
 AtZNuc=   1.0000000   1.0000000   1.0000000   1.0000000   1.0000000   1.0000000   1.0000000   1.0000000   1.0000000   1.0000000
 Leave Link  101 at Wed Apr 27 11:52:21 2022, MaxMem= 10066329600 cpu:               4.7 elap:               0.2
 (Enter /sw/apps/gaussian-16.0/g16/l202.exe)
 Stoichiometry    C55H74MgN4O6
 Framework group  C1[X(C55H74MgN4O6)]
 Deg. of freedom   414
 Full point group                 C1      NOp   1
 Largest Abelian subgroup         C1      NOp   1
 Largest concise Abelian subgroup C1      NOp   1
                         Standard orientation:                         
 ---------------------------------------------------------------------
 Center     Atomic      Atomic             Coordinates (Angstroms)
 Number     Number       Type             X           Y           Z
 ---------------------------------------------------------------------
      1         12           0        4.478976    1.242949   -0.570786
      2          6           0        3.899948   -2.199921   -1.075492
      3          6           0        1.869058    1.828393   -2.900332
      4          6           0        4.472043    4.363051    0.328313
      5          6           0        6.589322    0.314468    2.092985
      6          7           0        3.028309   -0.011386   -1.717473
      7          6           0        3.028820   -1.418373   -1.823946
      8          6           0        2.015099   -1.887545   -2.926381
      9          6           0        1.835464   -0.634114   -3.774949
     10          6           0        2.319603    0.482279   -2.749674
     11          6           0        2.676673   -0.570154   -5.098408
     12          6           0        0.657260   -2.291482   -2.312521
     13          6           0       -0.082939   -3.531426   -2.978724
     14          6           0       -1.139683   -4.323560   -2.240632
     15          8           0       -2.050422   -4.828705   -2.854839
     16          8           0       -0.987491   -4.401578   -0.902075
     17          7           0        3.264500    2.856379   -1.142353
     18          6           0        2.360780    2.944764   -2.171716
     19          6           0        1.794486    4.338739   -2.212390
     20          6           0        2.555960    5.072995   -1.293463
     21          6           0        3.501990    4.086824   -0.678099
     22          6           0        0.772598    4.747414   -3.200109
     23          6           0        2.480387    6.554726   -1.086845
     24          8           0        1.642921    7.295079   -1.629990
     25          6           0        3.481496    7.251735   -0.119674
     26          7           0        5.332159    2.181083    0.968840
     27          6           0        5.354346    3.567916    0.991535
     28          6           0        6.316158    4.120362    2.083579
     29          6           0        6.875584    2.837576    2.765108
     30          6           0        6.175847    1.655736    1.927897
     31          6           0        7.347965    5.097205    1.437677
     32          6           0        6.460241    2.730615    4.279342
     33          6           0        7.480775    2.304787    5.334418
     34          7           0        5.112268   -0.579037    0.351757
     35          6           0        6.058481   -0.766414    1.285146
     36          6           0        6.419716   -2.142479    1.395561
     37          6           0        5.529485   -2.751383    0.507349
     38          6           0        4.718371   -1.732741   -0.032675
     39          6           0        7.495832   -2.722289    2.289435
     40          6           0        5.112132   -4.041147    0.049315
     41          8           0        5.565672   -5.134545    0.309820
     42          6           0        4.025854   -3.667496   -1.030525
     43          6           0        2.816873   -4.346203   -0.559897
     44          8           0        2.276660   -4.204013    0.567793
     45          8           0        2.340967   -5.230689   -1.460210
     46          6           0        1.658121   -6.402451   -0.944094
     47          6           0       -2.000831   -5.242036   -0.174571
     48          6           0       -3.293844   -4.499572    0.041961
     49          6           0       -4.383788   -4.889953    0.805758
     50          6           0       -4.440042   -6.203231    1.638620
     51          6           0       -5.574966   -3.979598    0.976857
     52          6           0       -5.272681   -2.760157    1.836498
     53          6           0       -6.221846   -2.704119    3.023729
     54          6           0       -6.404861   -1.299575    3.627865
     55          6           0       -6.557355   -1.484966    5.174621
     56          6           0       -7.474536   -0.457150    2.903839
     57          6           0       -7.178514    0.961040    2.495169
     58          6           0       -6.916570    1.016375    0.967600
     59          6           0       -8.263980    1.251563    0.144769
     60          6           0       -8.223118    0.774643   -1.338933
     61          6           0       -8.684483    2.720991    0.378734
     62          6           0      -10.061632    2.828642    0.891865
     63          6           0      -10.788710    3.990642    0.195046
     64          6           0      -11.890029    3.456065   -0.831115
     65          6           0      -11.520231    3.738186   -2.362632
     66          6           0      -13.217582    4.073897   -0.396173
     67          1           0        1.146095    2.055241   -3.686811
     68          1           0        4.780526    5.399812    0.475833
     69          1           0        7.398590   -0.018886    2.746248
     70          1           0        2.380554   -2.722804   -3.523241
     71          1           0        0.816069   -0.275854   -3.919641
     72          1           0        3.431487    0.162489   -4.811856
     73          1           0        2.199093   -0.303742   -6.041443
     74          1           0        3.244710   -1.480817   -5.287189
     75          1           0        0.003399   -1.421972   -2.388615
     76          1           0        0.777027   -2.187789   -1.233344
     77          1           0        0.590773   -4.176201   -3.544172
     78          1           0       -0.684547   -2.974995   -3.697404
     79          1           0        1.003446    5.716044   -3.645028
     80          1           0       -0.276817    4.618738   -2.933827
     81          1           0        0.958160    4.112836   -4.066106
     82          1           0        4.458873    7.069968   -0.568278
     83          1           0        3.475384    6.802369    0.873717
     84          1           0        3.260060    8.312026   -0.005408
     85          1           0        5.727270    4.678568    2.810718
     86          1           0        7.947327    2.641340    2.745230
     87          1           0        7.333834    5.200344    0.352857
     88          1           0        8.358147    4.747965    1.652759
     89          1           0        7.266478    6.117575    1.812002
     90          1           0        5.632355    2.032203    4.398216
     91          1           0        6.059205    3.716674    4.515355
     92          1           0        7.580443    3.037706    6.134455
     93          1           0        8.485302    2.069112    4.982197
     94          1           0        7.143018    1.388442    5.818651
     95          1           0        7.895839   -3.452750    1.585985
     96          1           0        6.824428   -2.979450    3.108889
     97          1           0        8.297528   -2.063496    2.620611
     98          1           0        4.351593   -4.128494   -1.962897
     99          1           0        2.230415   -6.922298   -0.175932
    100          1           0        1.425027   -7.137131   -1.714658
    101          1           0        0.872776   -6.046261   -0.276537
    102          1           0       -1.560886   -5.565928    0.769327
    103          1           0       -2.196811   -6.170227   -0.712228
    104          1           0       -3.501860   -3.687411   -0.654858
    105          1           0       -3.497707   -6.750787    1.610807
    106          1           0       -5.255368   -6.767433    1.185839
    107          1           0       -4.642541   -6.061057    2.699962
    108          1           0       -6.398191   -4.549902    1.408822
    109          1           0       -5.861717   -3.710826   -0.039997
    110          1           0       -5.352545   -1.853539    1.236280
    111          1           0       -4.212487   -2.856464    2.069742
    112          1           0       -5.784984   -3.365452    3.771665
    113          1           0       -7.214869   -3.081566    2.779774
    114          1           0       -5.486140   -0.774040    3.364797
    115          1           0       -7.166115   -0.664577    5.554182
    116          1           0       -5.607584   -1.401838    5.703832
    117          1           0       -6.968627   -2.444275    5.486986
    118          1           0       -8.361599   -0.399885    3.535226
    119          1           0       -7.775299   -1.022067    2.022155
    120          1           0       -6.330902    1.273368    3.106216
    121          1           0       -8.058584    1.525791    2.801014
    122          1           0       -6.457280    0.109232    0.575456
    123          1           0       -6.290398    1.906071    0.910753
    124          1           0       -9.076392    0.618100    0.500918
    125          1           0       -8.676218   -0.216965   -1.342864
    126          1           0       -7.161534    0.696068   -1.573570
    127          1           0       -8.803962    1.508450   -1.896491
    128          1           0       -8.572751    3.276162   -0.553701
    129          1           0       -8.004260    3.347197    0.957227
    130          1           0       -9.963713    3.005401    1.962441
    131          1           0      -10.616477    1.891558    0.860000
    132          1           0      -10.084087    4.684850   -0.264314
    133          1           0      -11.216699    4.625445    0.970936
    134          1           0      -11.985020    2.374555   -0.923519
    135          1           0      -11.859560    4.717127   -2.700496
    136          1           0      -11.947467    2.974167   -3.011221
    137          1           0      -10.433132    3.726493   -2.437689
    138          1           0      -14.000303    3.319899   -0.481752
    139          1           0      -13.459129    4.922154   -1.036372
    140          1           0      -13.152765    4.274040    0.673680
 ---------------------------------------------------------------------
 Rotational constants (GHZ):           0.0309468           0.0149424           0.0121183
 Leave Link  202 at Wed Apr 27 11:52:21 2022, MaxMem= 10066329600 cpu:               0.2 elap:               0.0
 (Enter /sw/apps/gaussian-16.0/g16/l301.exe)
 Standard basis: def2SVP (5D, 7F)
 Ernie: Thresh=  0.10000D-02 Tol=  0.10000D-05 Strict=F.
 There are  1364 symmetry adapted cartesian basis functions of A   symmetry.
 There are  1298 symmetry adapted basis functions of A   symmetry.
  1298 basis functions,  2180 primitive gaussians,  1364 cartesian basis functions
   246 alpha electrons      246 beta electrons
       nuclear repulsion energy      9842.7770594662 Hartrees.
 IExCor=  402 DFT=T Ex=B Corr=LYP ExCW=0 ScaHFX=  0.000000
 ScaDFX=  1.000000  1.000000  1.000000  1.000000 ScalE2=  1.000000  1.000000
 IRadAn=      5 IRanWt=     -1 IRanGd=            0 ICorTp=0 IEmpDi=  4
 NAtoms=  140 NActive=  140 NUniq=  140 SFac= 1.00D+00 NAtFMM=   60 NAOKFM=T Big=T
 Integral buffers will be    131072 words long.
 Regular integral format.
 Two-electron integral symmetry is turned on.
 Leave Link  301 at Wed Apr 27 11:52:21 2022, MaxMem= 10066329600 cpu:               2.0 elap:               0.1
 (Enter /sw/apps/gaussian-16.0/g16/l302.exe)
 NPDir=0 NMtPBC=     1 NCelOv=     1 NCel=       1 NClECP=     1 NCelD=      1
         NCelK=      1 NCelE2=     1 NClLst=     1 CellRange=     0.0.
 One-electron integrals computed using PRISM.
 One-electron integral symmetry used in STVInt
   1 Symmetry operations used in ECPInt.
 ECPInt:  NShTT=  192510 NPrTT=  683786 LenC2=  100779 LenP2D=  216030.
 LDataN:  DoStor=T MaxTD1= 4 Len=   56
 NBasis=  1298 RedAO= T EigKep=  2.93D-04  NBF=  1298
 NBsUse=  1298 1.00D-06 EigRej= -1.00D+00 NBFU=  1298
 Precomputing XC quadrature grid using
 IXCGrd= 4 IRadAn=           5 IRanWt=          -1 IRanGd=           0 AccXCQ= 0.00D+00.
 Generated NRdTot=       0 NPtTot=           0 NUsed=           0 NTot=          32
 NSgBfM=  1019   999  1009  1011  1019 MxSgAt=   140 MxSgA2=   140.
 Leave Link  302 at Wed Apr 27 11:52:25 2022, MaxMem= 10066329600 cpu:              93.5 elap:               3.9
 (Enter /sw/apps/gaussian-16.0/g16/l303.exe)
 DipDrv:  MaxL=1.
 Leave Link  303 at Wed Apr 27 11:52:26 2022, MaxMem= 10066329600 cpu:               6.4 elap:               0.3
 (Enter /sw/apps/gaussian-16.0/g16/l308.exe)
 Leave Link  308 at Wed Apr 27 11:52:26 2022, MaxMem= 10066329600 cpu:              10.6 elap:               0.5
 (Enter /sw/apps/gaussian-16.0/g16/l401.exe)
 ExpMin= 3.36D-02 ExpMax= 4.95D+03 ExpMxC= 7.45D+02 IAcc=3 IRadAn=         5 AccDes= 0.00D+00
 Harris functional with IExCor=  402 and IRadAn=       5 diagonalized for initial guess.
 HarFok:  IExCor=  402 AccDes= 0.00D+00 IRadAn=         5 IDoV= 1 UseB2=F ITyADJ=14
 ICtDFT=  3500011 ScaDFX=  1.000000  1.000000  1.000000  1.000000
 FoFCou: FMM=F IPFlag=           0 FMFlag=      100000 FMFlg1=        2001
         NFxFlg=           0 DoJE=T BraDBF=F KetDBF=T FulRan=T
         wScrn=  0.000000 ICntrl=       500 IOpCl=  0 I1Cent=   200000004 NGrid=           0
         NMat0=    1 NMatS0=      1 NMatT0=    0 NMatD0=    1 NMtDS0=    0 NMtDT0=    0
 Petite list used in FoFCou.
 Harris En= -3008.73313039115    
 JPrj=0 DoOrth=F DoCkMO=F.
 Leave Link  401 at Wed Apr 27 11:52:32 2022, MaxMem= 10066329600 cpu:             138.6 elap:               5.8
 (Enter /sw/apps/gaussian-16.0/g16/l502.exe)
 Integral symmetry usage will be decided dynamically.
 Closed shell SCF:
 Using DIIS extrapolation, IDIIS=  1040.
 NGot= 10066329600 LenX= 10062561258 LenY= 10060699398
 Requested convergence on RMS density matrix=1.00D-08 within 128 cycles.
 Requested convergence on MAX density matrix=1.00D-06.
 Requested convergence on             energy=1.00D-06.
 No special actions if energy rises.
 Fock matrices will be formed incrementally for  20 cycles.

 Cycle   1  Pass 1  IDiag  1:
 FoFJK:  IHMeth= 1 ICntrl=     500 DoSepK=F KAlg= 0 I1Cent=           0 FoldK=F
 IRaf= 530000000 NMat=       1 IRICut=       1 DoRegI=T DoRafI=F ISym2E= 0 IDoP0=0 IntGTp=1.
 FoFCou: FMM=T IPFlag=           0 FMFlag=      100000 FMFlg1=        2001
         NFxFlg=           0 DoJE=T BraDBF=F KetDBF=F FulRan=T
         wScrn=  0.000000 ICntrl=       500 IOpCl=  0 I1Cent=           0 NGrid=           0
         NMat0=    1 NMatS0=      1 NMatT0=    0 NMatD0=    1 NMtDS0=    0 NMtDT0=    0
 Symmetry not used in FoFCou.
 FMM levels:  10  Number of levels for PrismC:   9
 E= -3005.59770995953    
 DIIS: error= 2.05D-02 at cycle   1 NSaved=   1.
 NSaved= 1 IEnMin= 1 EnMin= -3005.59770995953     IErMin= 1 ErrMin= 2.05D-02
 ErrMax= 2.05D-02  0.00D+00 EMaxC= 1.00D-01 BMatC= 1.57D+00 BMatP= 1.57D+00
 IDIUse=3 WtCom= 7.95D-01 WtEn= 2.05D-01
 Coeff-Com:  0.100D+01
 Coeff-En:   0.100D+01
 Coeff:      0.100D+01
 Gap=     0.033 Goal=   None    Shift=    0.000
 GapD=    0.033 DampG=0.250 DampE=0.500 DampFc=0.2500 IDamp=-1.
 Damping current iteration by 2.50D-01
 RMSDP=3.98D-03 MaxDP=6.83D-01              OVMax= 8.58D-01

 Cycle   2  Pass 1  IDiag  1:
 RMSU=  9.90D-04    CP:  9.88D-01
 E= -3005.97548486858     Delta-E=       -0.377774909050 Rises=F Damp=T
 DIIS: error= 8.77D-03 at cycle   2 NSaved=   2.
 NSaved= 2 IEnMin= 2 EnMin= -3005.97548486858     IErMin= 2 ErrMin= 8.77D-03
 ErrMax= 8.77D-03  0.00D+00 EMaxC= 1.00D-01 BMatC= 2.84D-01 BMatP= 1.57D+00
 IDIUse=3 WtCom= 9.12D-01 WtEn= 8.77D-02
 Coeff-Com: -0.193D+00 0.119D+01
 Coeff-En:   0.252D+00 0.748D+00
 Coeff:     -0.154D+00 0.115D+01
 Gap=    -0.370 Goal=   None    Shift=    0.000
 RMSDP=2.02D-03 MaxDP=2.06D-01 DE=-3.78D-01 OVMax= 5.58D-01

 Cycle   3  Pass 1  IDiag  1:
 RMSU=  1.99D-03    CP:  9.63D-01  1.17D+00
 E= -3003.48844160502     Delta-E=        2.487043263562 Rises=F Damp=F
 DIIS: error= 5.95D-02 at cycle   3 NSaved=   3.
 NSaved= 3 IEnMin= 2 EnMin= -3005.97548486858     IErMin= 2 ErrMin= 8.77D-03
 ErrMax= 5.95D-02  0.00D+00 EMaxC= 1.00D-01 BMatC= 2.78D+00 BMatP= 2.84D-01
 IDIUse=2 WtCom= 0.00D+00 WtEn= 1.00D+00
 EnCoef did     2 forward-backward iterations
 Coeff-En:   0.530D-01 0.720D+00 0.227D+00
 Coeff:      0.530D-01 0.720D+00 0.227D+00
 Gap=     0.085 Goal=   None    Shift=    0.000
 RMSDP=2.29D-03 MaxDP=2.86D-01 DE= 2.49D+00 OVMax= 8.78D-01

 Cycle   4  Pass 1  IDiag  1:
 RMSU=  1.32D-03    CP:  9.74D-01  1.44D+00  7.50D-02
 E= -3006.85827858586     Delta-E=       -3.369836980846 Rises=F Damp=F
 DIIS: error= 1.15D-02 at cycle   4 NSaved=   4.
 NSaved= 4 IEnMin= 4 EnMin= -3006.85827858586     IErMin= 2 ErrMin= 8.77D-03
 ErrMax= 1.15D-02  0.00D+00 EMaxC= 1.00D-01 BMatC= 4.10D-01 BMatP= 2.84D-01
 IDIUse=2 WtCom= 0.00D+00 WtEn= 1.00D+00
 EnCoef did     3 forward-backward iterations
 Coeff-En:   0.127D+00 0.000D+00 0.988D-01 0.774D+00
 Coeff:      0.127D+00 0.000D+00 0.988D-01 0.774D+00
 Gap=     0.080 Goal=   None    Shift=    0.000
 RMSDP=1.68D-03 MaxDP=1.10D-01 DE=-3.37D+00 OVMax= 5.81D-01

 Cycle   5  Pass 1  IDiag  1:
 RMSU=  1.15D-03    CP:  9.82D-01  7.34D-01  3.43D-01  3.58D-01
 E= -3006.23108393420     Delta-E=        0.627194651668 Rises=F Damp=F
 DIIS: error= 1.61D-02 at cycle   5 NSaved=   5.
 NSaved= 5 IEnMin= 4 EnMin= -3006.85827858586     IErMin= 2 ErrMin= 8.77D-03
 ErrMax= 1.61D-02  0.00D+00 EMaxC= 1.00D-01 BMatC= 8.64D-01 BMatP= 2.84D-01
 IDIUse=2 WtCom= 0.00D+00 WtEn= 1.00D+00
 Coeff-En:   0.000D+00 0.000D+00 0.000D+00 0.649D+00 0.351D+00
 Coeff:      0.000D+00 0.000D+00 0.000D+00 0.649D+00 0.351D+00
 Gap=     0.040 Goal=   None    Shift=    0.000
 RMSDP=1.37D-03 MaxDP=1.40D-01 DE= 6.27D-01 OVMax= 7.47D-01

 Cycle   6  Pass 1  IDiag  1:
 RMSU=  6.87D-04    CP:  9.77D-01  8.74D-01  2.49D-01  4.23D-01 -7.75D-03
 E= -3006.81925734220     Delta-E=       -0.588173408007 Rises=F Damp=F
 DIIS: error= 2.55D-02 at cycle   6 NSaved=   6.
 NSaved= 6 IEnMin= 4 EnMin= -3006.85827858586     IErMin= 2 ErrMin= 8.77D-03
 ErrMax= 2.55D-02  0.00D+00 EMaxC= 1.00D-01 BMatC= 3.98D-01 BMatP= 2.84D-01
 IDIUse=2 WtCom= 0.00D+00 WtEn= 1.00D+00
 EnCoef did     3 forward-backward iterations
 Coeff-En:   0.000D+00 0.000D+00 0.000D+00 0.475D+00 0.255D+00 0.270D+00
 Coeff:      0.000D+00 0.000D+00 0.000D+00 0.475D+00 0.255D+00 0.270D+00
 Gap=     0.028 Goal=   None    Shift=    0.000
 RMSDP=1.03D-03 MaxDP=1.36D-01 DE=-5.88D-01 OVMax= 6.68D-01

 Cycle   7  Pass 1  IDiag  1:
 RMSU=  3.77D-04    CP:  9.80D-01  9.65D-01  1.45D-01  6.09D-01  4.14D-01
                    CP: -1.02D-01
 E= -3007.20102125942     Delta-E=       -0.381763917218 Rises=F Damp=F
 DIIS: error= 4.94D-03 at cycle   7 NSaved=   7.
 NSaved= 7 IEnMin= 7 EnMin= -3007.20102125942     IErMin= 7 ErrMin= 4.94D-03
 ErrMax= 4.94D-03  0.00D+00 EMaxC= 1.00D-01 BMatC= 7.57D-02 BMatP= 2.84D-01
 IDIUse=3 WtCom= 9.51D-01 WtEn= 4.94D-02
 EnCoef did     2 forward-backward iterations
 Coeff-Com: -0.445D-01 0.125D+00 0.127D-01 0.249D+00 0.118D+00 0.228D+00
 Coeff-Com:  0.311D+00
 Coeff-En:   0.000D+00 0.000D+00 0.000D+00 0.916D-01 0.000D+00 0.236D+00
 Coeff-En:   0.673D+00
 Coeff:     -0.423D-01 0.119D+00 0.121D-01 0.241D+00 0.112D+00 0.229D+00
 Coeff:      0.329D+00
 Gap=     0.060 Goal=   None    Shift=    0.000
 RMSDP=5.22D-04 MaxDP=3.19D-02 DE=-3.82D-01 OVMax= 4.32D-01

 Cycle   8  Pass 1  IDiag  1:
 RMSU=  2.69D-04    CP:  9.78D-01  1.02D+00  1.71D-01  6.36D-01  2.28D-01
                    CP:  2.90D-01  2.74D-01
 E= -3007.30811396879     Delta-E=       -0.107092709375 Rises=F Damp=F
 DIIS: error= 2.44D-03 at cycle   8 NSaved=   8.
 NSaved= 8 IEnMin= 8 EnMin= -3007.30811396879     IErMin= 8 ErrMin= 2.44D-03
 ErrMax= 2.44D-03  0.00D+00 EMaxC= 1.00D-01 BMatC= 1.48D-02 BMatP= 7.57D-02
 IDIUse=3 WtCom= 9.76D-01 WtEn= 2.44D-02
 Coeff-Com: -0.448D-01 0.684D-01 0.210D-02 0.462D-01 0.494D-02 0.106D+00
 Coeff-Com:  0.328D+00 0.489D+00
 Coeff-En:   0.000D+00 0.000D+00 0.000D+00 0.000D+00 0.000D+00 0.000D+00
 Coeff-En:   0.210D+00 0.790D+00
 Coeff:     -0.437D-01 0.667D-01 0.204D-02 0.451D-01 0.482D-02 0.104D+00
 Coeff:      0.325D+00 0.496D+00
 Gap=     0.039 Goal=   None    Shift=    0.000
 RMSDP=2.06D-04 MaxDP=2.19D-02 DE=-1.07D-01 OVMax= 1.47D-01

 Cycle   9  Pass 1  IDiag  1:
 RMSU=  1.39D-04    CP:  9.79D-01  1.02D+00  1.62D-01  6.20D-01  2.55D-01
                    CP:  2.17D-01  5.44D-01  6.52D-01
 E= -3007.32125233182     Delta-E=       -0.013138363029 Rises=F Damp=F
 DIIS: error= 1.78D-03 at cycle   9 NSaved=   9.
 NSaved= 9 IEnMin= 9 EnMin= -3007.32125233182     IErMin= 9 ErrMin= 1.78D-03
 ErrMax= 1.78D-03  0.00D+00 EMaxC= 1.00D-01 BMatC= 4.86D-03 BMatP= 1.48D-02
 IDIUse=3 WtCom= 9.82D-01 WtEn= 1.78D-02
 Coeff-Com: -0.236D-01 0.405D-01 0.931D-03 0.667D-02-0.975D-02 0.278D-01
 Coeff-Com:  0.176D+00 0.395D+00 0.387D+00
 Coeff-En:   0.000D+00 0.000D+00 0.000D+00 0.000D+00 0.000D+00 0.000D+00
 Coeff-En:   0.000D+00 0.284D+00 0.716D+00
 Coeff:     -0.231D-01 0.397D-01 0.915D-03 0.656D-02-0.958D-02 0.273D-01
 Coeff:      0.173D+00 0.393D+00 0.393D+00
 Gap=     0.040 Goal=   None    Shift=    0.000
 RMSDP=1.38D-04 MaxDP=9.26D-03 DE=-1.31D-02 OVMax= 7.96D-02

 Cycle  10  Pass 1  IDiag  1:
 RMSU=  7.32D-05    CP:  9.78D-01  1.02D+00  1.60D-01  6.38D-01  2.43D-01
                    CP:  2.23D-01  4.60D-01  7.79D-01  2.56D-01
 E= -3007.32467338717     Delta-E=       -0.003421055348 Rises=F Damp=F
 DIIS: error= 9.59D-04 at cycle  10 NSaved=  10.
 NSaved=10 IEnMin=10 EnMin= -3007.32467338717     IErMin=10 ErrMin= 9.59D-04
 ErrMax= 9.59D-04  0.00D+00 EMaxC= 1.00D-01 BMatC= 1.95D-03 BMatP= 4.86D-03
 IDIUse=3 WtCom= 9.90D-01 WtEn= 9.59D-03
 Coeff-Com: -0.101D-01 0.211D-01-0.152D-03 0.272D-02-0.414D-02-0.147D-02
 Coeff-Com:  0.757D-01 0.220D+00 0.362D+00 0.334D+00
 Coeff-En:   0.000D+00 0.000D+00 0.000D+00 0.000D+00 0.000D+00 0.000D+00
 Coeff-En:   0.000D+00 0.000D+00 0.361D+00 0.639D+00
 Coeff:     -0.997D-02 0.209D-01-0.150D-03 0.269D-02-0.410D-02-0.146D-02
 Coeff:      0.750D-01 0.218D+00 0.362D+00 0.337D+00
 Gap=     0.041 Goal=   None    Shift=    0.000
 RMSDP=7.29D-05 MaxDP=4.82D-03 DE=-3.42D-03 OVMax= 4.83D-02

 Cycle  11  Pass 1  IDiag  1:
 RMSU=  2.43D-05    CP:  9.79D-01  1.02D+00  1.58D-01  6.38D-01  2.52D-01
                    CP:  2.12D-01  4.90D-01  7.51D-01  5.24D-01  2.56D-01
 E= -3007.32728817600     Delta-E=       -0.002614788833 Rises=F Damp=F
 DIIS: error= 2.96D-04 at cycle  11 NSaved=  11.
 NSaved=11 IEnMin=11 EnMin= -3007.32728817600     IErMin=11 ErrMin= 2.96D-04
 ErrMax= 2.96D-04  0.00D+00 EMaxC= 1.00D-01 BMatC= 2.52D-04 BMatP= 1.95D-03
 IDIUse=3 WtCom= 9.97D-01 WtEn= 2.96D-03
 Coeff-Com: -0.360D-02 0.103D-01-0.267D-03 0.349D-02-0.594D-03-0.809D-02
 Coeff-Com:  0.323D-01 0.109D+00 0.230D+00 0.269D+00 0.358D+00
 Coeff-En:   0.000D+00 0.000D+00 0.000D+00 0.000D+00 0.000D+00 0.000D+00
 Coeff-En:   0.000D+00 0.000D+00 0.000D+00 0.101D+00 0.899D+00
 Coeff:     -0.359D-02 0.103D-01-0.266D-03 0.348D-02-0.592D-03-0.807D-02
 Coeff:      0.322D-01 0.109D+00 0.230D+00 0.268D+00 0.360D+00
 Gap=     0.041 Goal=   None    Shift=    0.000
 RMSDP=2.03D-05 MaxDP=2.26D-03 DE=-2.61D-03 OVMax= 1.39D-02

 Cycle  12  Pass 1  IDiag  1:
 RMSU=  8.96D-06    CP:  9.79D-01  1.02D+00  1.57D-01  6.40D-01  2.53D-01
                    CP:  2.08D-01  4.87D-01  7.52D-01  4.90D-01  4.04D-01
                    CP:  4.68D-01
 E= -3007.32758314333     Delta-E=       -0.000294967329 Rises=F Damp=F
 DIIS: error= 1.62D-04 at cycle  12 NSaved=  12.
 NSaved=12 IEnMin=12 EnMin= -3007.32758314333     IErMin=12 ErrMin= 1.62D-04
 ErrMax= 1.62D-04  0.00D+00 EMaxC= 1.00D-01 BMatC= 2.37D-05 BMatP= 2.52D-04
 IDIUse=3 WtCom= 9.98D-01 WtEn= 1.62D-03
 Coeff-Com: -0.995D-03 0.369D-02-0.338D-03 0.222D-02 0.720D-03-0.516D-02
 Coeff-Com:  0.977D-02 0.276D-01 0.787D-01 0.106D+00 0.234D+00 0.544D+00
 Coeff-En:   0.000D+00 0.000D+00 0.000D+00 0.000D+00 0.000D+00 0.000D+00
 Coeff-En:   0.000D+00 0.000D+00 0.000D+00 0.000D+00 0.211D-01 0.979D+00
 Coeff:     -0.993D-03 0.368D-02-0.337D-03 0.221D-02 0.719D-03-0.515D-02
 Coeff:      0.976D-02 0.275D-01 0.785D-01 0.105D+00 0.233D+00 0.545D+00
 Gap=     0.041 Goal=   None    Shift=    0.000
 RMSDP=6.17D-06 MaxDP=7.64D-04 DE=-2.95D-04 OVMax= 2.91D-03

 Cycle  13  Pass 1  IDiag  1:
 RMSU=  4.16D-06    CP:  9.79D-01  1.02D+00  1.57D-01  6.41D-01  2.55D-01
                    CP:  2.06D-01  4.90D-01  7.50D-01  4.96D-01  3.78D-01
                    CP:  5.57D-01  7.77D-01
 E= -3007.32760314055     Delta-E=       -0.000019997222 Rises=F Damp=F
 DIIS: error= 4.65D-05 at cycle  13 NSaved=  13.
 NSaved=13 IEnMin=13 EnMin= -3007.32760314055     IErMin=13 ErrMin= 4.65D-05
 ErrMax= 4.65D-05  0.00D+00 EMaxC= 1.00D-01 BMatC= 5.83D-06 BMatP= 2.37D-05
 IDIUse=1 WtCom= 1.00D+00 WtEn= 0.00D+00
 Coeff-Com: -0.448D-03 0.110D-02-0.954D-04 0.520D-03 0.994D-04-0.127D-02
 Coeff-Com:  0.247D-02-0.466D-02-0.214D-02 0.533D-02 0.678D-01 0.384D+00
 Coeff-Com:  0.547D+00
 Coeff:     -0.448D-03 0.110D-02-0.954D-04 0.520D-03 0.994D-04-0.127D-02
 Coeff:      0.247D-02-0.466D-02-0.214D-02 0.533D-02 0.678D-01 0.384D+00
 Coeff:      0.547D+00
 Gap=     0.041 Goal=   None    Shift=    0.000
 RMSDP=2.93D-06 MaxDP=5.32D-04 DE=-2.00D-05 OVMax= 1.27D-03

 Cycle  14  Pass 1  IDiag  1:
 RMSU=  1.79D-06    CP:  9.79D-01  1.02D+00  1.57D-01  6.41D-01  2.55D-01
                    CP:  2.04D-01  4.91D-01  7.49D-01  4.95D-01  3.85D-01
                    CP:  5.47D-01  8.49D-01  5.95D-01
 E= -3007.32760848573     Delta-E=       -0.000005345171 Rises=F Damp=F
 DIIS: error= 2.94D-05 at cycle  14 NSaved=  14.
 NSaved=14 IEnMin=14 EnMin= -3007.32760848573     IErMin=14 ErrMin= 2.94D-05
 ErrMax= 2.94D-05  0.00D+00 EMaxC= 1.00D-01 BMatC= 1.01D-06 BMatP= 5.83D-06
 IDIUse=1 WtCom= 1.00D+00 WtEn= 0.00D+00
 Coeff-Com: -0.312D-03 0.645D-03-0.407D-04 0.195D-03-0.147D-04-0.358D-03
 Coeff-Com:  0.806D-03-0.620D-02-0.101D-01-0.766D-02 0.227D-01 0.213D+00
 Coeff-Com:  0.392D+00 0.396D+00
 Coeff:     -0.312D-03 0.645D-03-0.407D-04 0.195D-03-0.147D-04-0.358D-03
 Coeff:      0.806D-03-0.620D-02-0.101D-01-0.766D-02 0.227D-01 0.213D+00
 Coeff:      0.392D+00 0.396D+00
 Gap=     0.041 Goal=   None    Shift=    0.000
 RMSDP=1.28D-06 MaxDP=2.33D-04 DE=-5.35D-06 OVMax= 3.32D-04

 Cycle  15  Pass 1  IDiag  1:
 RMSU=  6.73D-07    CP:  9.79D-01  1.02D+00  1.57D-01  6.41D-01  2.55D-01
                    CP:  2.04D-01  4.91D-01  7.48D-01  4.94D-01  3.83D-01
                    CP:  5.55D-01  8.50D-01  6.62D-01  4.52D-01
 E= -3007.32760933589     Delta-E=       -0.000000850163 Rises=F Damp=F
 DIIS: error= 1.42D-05 at cycle  15 NSaved=  15.
 NSaved=15 IEnMin=15 EnMin= -3007.32760933589     IErMin=15 ErrMin= 1.42D-05
 ErrMax= 1.42D-05  0.00D+00 EMaxC= 1.00D-01 BMatC= 1.93D-07 BMatP= 1.01D-06
 IDIUse=1 WtCom= 1.00D+00 WtEn= 0.00D+00
 Coeff-Com: -0.218D-03 0.442D-03-0.215D-04 0.776D-04-0.196D-04-0.532D-04
 Coeff-Com:  0.776D-04-0.396D-02-0.765D-02-0.706D-02 0.336D-02 0.878D-01
 Coeff-Com:  0.200D+00 0.297D+00 0.430D+00
 Coeff:     -0.218D-03 0.442D-03-0.215D-04 0.776D-04-0.196D-04-0.532D-04
 Coeff:      0.776D-04-0.396D-02-0.765D-02-0.706D-02 0.336D-02 0.878D-01
 Coeff:      0.200D+00 0.297D+00 0.430D+00
 Gap=     0.041 Goal=   None    Shift=    0.000
 RMSDP=5.28D-07 MaxDP=8.00D-05 DE=-8.50D-07 OVMax= 2.09D-04

 Cycle  16  Pass 1  IDiag  1:
 RMSU=  2.81D-07    CP:  9.79D-01  1.02D+00  1.57D-01  6.41D-01  2.55D-01
                    CP:  2.04D-01  4.91D-01  7.49D-01  4.94D-01  3.84D-01
                    CP:  5.58D-01  8.58D-01  6.46D-01  5.03D-01  4.70D-01
 E= -3007.32760949156     Delta-E=       -0.000000155671 Rises=F Damp=F
 DIIS: error= 8.45D-06 at cycle  16 NSaved=  16.
 NSaved=16 IEnMin=16 EnMin= -3007.32760949156     IErMin=16 ErrMin= 8.45D-06
 ErrMax= 8.45D-06  0.00D+00 EMaxC= 1.00D-01 BMatC= 4.52D-08 BMatP= 1.93D-07
 IDIUse=1 WtCom= 1.00D+00 WtEn= 0.00D+00
 Coeff-Com: -0.130D-03 0.252D-03-0.195D-04 0.444D-04 0.538D-05 0.241D-04
 Coeff-Com: -0.146D-03-0.250D-02-0.518D-02-0.521D-02-0.224D-02 0.331D-01
 Coeff-Com:  0.958D-01 0.165D+00 0.325D+00 0.396D+00
 Coeff:     -0.130D-03 0.252D-03-0.195D-04 0.444D-04 0.538D-05 0.241D-04
 Coeff:     -0.146D-03-0.250D-02-0.518D-02-0.521D-02-0.224D-02 0.331D-01
 Coeff:      0.958D-01 0.165D+00 0.325D+00 0.396D+00
 Gap=     0.041 Goal=   None    Shift=    0.000
 RMSDP=2.27D-07 MaxDP=2.46D-05 DE=-1.56D-07 OVMax= 5.96D-05

 Cycle  17  Pass 1  IDiag  1:
 RMSU=  1.10D-07    CP:  9.79D-01  1.02D+00  1.57D-01  6.42D-01  2.55D-01
                    CP:  2.04D-01  4.91D-01  7.49D-01  4.94D-01  3.84D-01
                    CP:  5.58D-01  8.65D-01  6.61D-01  5.09D-01  5.34D-01
                    CP:  5.49D-01
 E= -3007.32760953426     Delta-E=       -0.000000042697 Rises=F Damp=F
 DIIS: error= 3.92D-06 at cycle  17 NSaved=  17.
 NSaved=17 IEnMin=17 EnMin= -3007.32760953426     IErMin=17 ErrMin= 3.92D-06
 ErrMax= 3.92D-06  0.00D+00 EMaxC= 1.00D-01 BMatC= 1.04D-08 BMatP= 4.52D-08
 IDIUse=1 WtCom= 1.00D+00 WtEn= 0.00D+00
 Coeff-Com: -0.501D-04 0.936D-04-0.102D-04 0.119D-04 0.998D-05 0.300D-04
 Coeff-Com: -0.142D-03-0.880D-03-0.215D-02-0.251D-02-0.363D-02-0.225D-02
 Coeff-Com:  0.163D-01 0.382D-01 0.119D+00 0.239D+00 0.599D+00
 Coeff:     -0.501D-04 0.936D-04-0.102D-04 0.119D-04 0.998D-05 0.300D-04
 Coeff:     -0.142D-03-0.880D-03-0.215D-02-0.251D-02-0.363D-02-0.225D-02
 Coeff:      0.163D-01 0.382D-01 0.119D+00 0.239D+00 0.599D+00
 Gap=     0.041 Goal=   None    Shift=    0.000
 RMSDP=1.19D-07 MaxDP=2.36D-05 DE=-4.27D-08 OVMax= 3.64D-05

 Cycle  18  Pass 1  IDiag  1:
 RMSU=  6.49D-08    CP:  9.79D-01  1.02D+00  1.57D-01  6.42D-01  2.55D-01
                    CP:  2.04D-01  4.91D-01  7.49D-01  4.94D-01  3.84D-01
                    CP:  5.59D-01  8.68D-01  6.68D-01  5.14D-01  5.35D-01
                    CP:  6.05D-01  7.12D-01
 E= -3007.32760954341     Delta-E=       -0.000000009151 Rises=F Damp=F
 DIIS: error= 1.40D-06 at cycle  18 NSaved=  18.
 NSaved=18 IEnMin=18 EnMin= -3007.32760954341     IErMin=18 ErrMin= 1.40D-06
 ErrMax= 1.40D-06  0.00D+00 EMaxC= 1.00D-01 BMatC= 2.04D-09 BMatP= 1.04D-08
 IDIUse=1 WtCom= 1.00D+00 WtEn= 0.00D+00
 Coeff-Com: -0.955D-05 0.173D-04-0.253D-05-0.703D-06 0.362D-05 0.130D-04
 Coeff-Com: -0.627D-04-0.884D-04-0.508D-03-0.829D-03-0.232D-02-0.951D-02
 Coeff-Com: -0.947D-02-0.111D-01 0.758D-02 0.555D-01 0.447D+00 0.524D+00
 Coeff:     -0.955D-05 0.173D-04-0.253D-05-0.703D-06 0.362D-05 0.130D-04
 Coeff:     -0.627D-04-0.884D-04-0.508D-03-0.829D-03-0.232D-02-0.951D-02
 Coeff:     -0.947D-02-0.111D-01 0.758D-02 0.555D-01 0.447D+00 0.524D+00
 Gap=     0.041 Goal=   None    Shift=    0.000
 RMSDP=6.60D-08 MaxDP=1.46D-05 DE=-9.15D-09 OVMax= 1.68D-05

 Cycle  19  Pass 1  IDiag  1:
 RMSU=  3.01D-08    CP:  9.79D-01  1.02D+00  1.57D-01  6.42D-01  2.55D-01
                    CP:  2.04D-01  4.91D-01  7.48D-01  4.94D-01  3.84D-01
                    CP:  5.59D-01  8.69D-01  6.70D-01  5.17D-01  5.50D-01
                    CP:  6.13D-01  8.44D-01  5.70D-01
 E= -3007.32760954535     Delta-E=       -0.000000001941 Rises=F Damp=F
 DIIS: error= 5.52D-07 at cycle  19 NSaved=  19.
 NSaved=19 IEnMin=19 EnMin= -3007.32760954535     IErMin=19 ErrMin= 5.52D-07
 ErrMax= 5.52D-07  0.00D+00 EMaxC= 1.00D-01 BMatC= 3.45D-10 BMatP= 2.04D-09
 IDIUse=1 WtCom= 1.00D+00 WtEn= 0.00D+00
 Coeff-Com: -0.291D-05 0.574D-05-0.410D-06-0.207D-06 0.320D-06 0.528D-05
 Coeff-Com: -0.239D-04 0.125D-04-0.192D-03-0.382D-03-0.121D-02-0.582D-02
 Coeff-Com: -0.704D-02-0.108D-01-0.767D-02 0.810D-02 0.253D+00 0.404D+00
 Coeff-Com:  0.367D+00
 Coeff:     -0.291D-05 0.574D-05-0.410D-06-0.207D-06 0.320D-06 0.528D-05
 Coeff:     -0.239D-04 0.125D-04-0.192D-03-0.382D-03-0.121D-02-0.582D-02
 Coeff:     -0.704D-02-0.108D-01-0.767D-02 0.810D-02 0.253D+00 0.404D+00
 Coeff:      0.367D+00
 Gap=     0.041 Goal=   None    Shift=    0.000
 RMSDP=2.40D-08 MaxDP=3.51D-06 DE=-1.94D-09 OVMax= 9.74D-06

 Cycle  20  Pass 1  IDiag  1:
 RMSU=  1.05D-08    CP:  9.79D-01  1.02D+00  1.57D-01  6.42D-01  2.55D-01
                    CP:  2.04D-01  4.91D-01  7.48D-01  4.94D-01  3.84D-01
                    CP:  5.59D-01  8.69D-01  6.70D-01  5.17D-01  5.51D-01
                    CP:  6.10D-01  8.37D-01  6.29D-01  3.97D-01
 E= -3007.32760954563     Delta-E=       -0.000000000278 Rises=F Damp=F
 DIIS: error= 1.63D-07 at cycle  20 NSaved=  20.
 NSaved=20 IEnMin=20 EnMin= -3007.32760954563     IErMin=20 ErrMin= 1.63D-07
 ErrMax= 1.63D-07  0.00D+00 EMaxC= 1.00D-01 BMatC= 3.04D-11 BMatP= 3.45D-10
 IDIUse=1 WtCom= 1.00D+00 WtEn= 0.00D+00
 Coeff-Com: -0.249D-06 0.118D-05-0.108D-06 0.964D-06-0.959D-07 0.196D-05
 Coeff-Com: -0.940D-05 0.282D-04-0.492D-04-0.122D-03-0.463D-03-0.253D-02
 Coeff-Com: -0.342D-02-0.574D-02-0.673D-02-0.304D-02 0.102D+00 0.193D+00
 Coeff-Com:  0.245D+00 0.482D+00
 Coeff:     -0.249D-06 0.118D-05-0.108D-06 0.964D-06-0.959D-07 0.196D-05
 Coeff:     -0.940D-05 0.282D-04-0.492D-04-0.122D-03-0.463D-03-0.253D-02
 Coeff:     -0.342D-02-0.574D-02-0.673D-02-0.304D-02 0.102D+00 0.193D+00
 Coeff:      0.245D+00 0.482D+00
 Gap=     0.041 Goal=   None    Shift=    0.000
 RMSDP=8.64D-09 MaxDP=9.52D-07 DE=-2.78D-10 OVMax= 5.31D-06

 SCF Done:  E(RB-LYP) =  -3007.32760955     A.U. after   20 cycles
            NFock= 20  Conv=0.86D-08     -V/T= 2.0098
 KE= 2.978113377891D+03 PE=-2.668148509204D+04 EE= 1.085326704514D+04
 Leave Link  502 at Wed Apr 27 11:56:08 2022, MaxMem= 10066329600 cpu:            5152.8 elap:             215.6
 (Enter /sw/apps/gaussian-16.0/g16/l801.exe)
 DoSCS=F DFT=T ScalE2(SS,OS)=  1.000000  1.000000
 ExpMin= 3.36D-02 ExpMax= 4.95D+03 ExpMxC= 7.45D+02 IAcc=3 IRadAn=         5 AccDes= 0.00D+00
 HarFok:  IExCor=  205 AccDes= 0.00D+00 IRadAn=         5 IDoV=-2 UseB2=F ITyADJ=14
 ICtDFT= 12500011 ScaDFX=  1.000000  1.000000  1.000000  1.000000
 GSVD:  LWork=       -5460 too small for GESVD, short by       25550 words or       25550 for optimal perf.
 Largest valence mixing into a core orbital is  1.48D-04
 Largest core mixing into a valence orbital is  4.58D-05
 Range of M.O.s used for correlation:    71  1298
 NBasis=  1298 NAE=   246 NBE=   246 NFC=    70 NFV=     0
 NROrb=   1228 NOA=   176 NOB=   176 NVA=  1052 NVB=  1052

 **** Warning!!: The smallest alpha delta epsilon is  0.40847365D-01

 Leave Link  801 at Wed Apr 27 11:56:08 2022, MaxMem= 10066329600 cpu:               6.8 elap:               0.3
 (Enter /sw/apps/gaussian-16.0/g16/l914.exe)
 RHF ground state
 Two-electron integrals replicated using symmetry.
 MDV= 10066329600 DFT=T DoStab=F Mixed=F DoRPA=T DoScal=T NonHer=F
 Making orbital integer symmetry assigments:
 Orbital symmetries:
       Occupied  (A) (A) (A) (A) (A) (A) (A) (A) (A) (A) (A) (A)
                 (A) (A) (A) (A) (A) (A) (A) (A) (A) (A) (A) (A)
                 (A) (A) (A) (A) (A) (A) (A) (A) (A) (A) (A) (A)
                 (A) (A) (A) (A) (A) (A) (A) (A) (A) (A) (A) (A)
                 (A) (A) (A) (A) (A) (A) (A) (A) (A) (A) (A) (A)
                 (A) (A) (A) (A) (A) (A) (A) (A) (A) (A) (A) (A)
                 (A) (A) (A) (A) (A) (A) (A) (A) (A) (A) (A) (A)
                 (A) (A) (A) (A) (A) (A) (A) (A) (A) (A) (A) (A)
                 (A) (A) (A) (A) (A) (A) (A) (A) (A) (A) (A) (A)
                 (A) (A) (A) (A) (A) (A) (A) (A) (A) (A) (A) (A)
                 (A) (A) (A) (A) (A) (A) (A) (A) (A) (A) (A) (A)
                 (A) (A) (A) (A) (A) (A) (A) (A) (A) (A) (A) (A)
                 (A) (A) (A) (A) (A) (A) (A) (A) (A) (A) (A) (A)
                 (A) (A) (A) (A) (A) (A) (A) (A) (A) (A) (A) (A)
                 (A) (A) (A) (A) (A) (A) (A) (A) (A) (A) (A) (A)
                 (A) (A) (A) (A) (A) (A) (A) (A) (A) (A) (A) (A)
                 (A) (A) (A) (A) (A) (A) (A) (A) (A) (A) (A) (A)
                 (A) (A) (A) (A) (A) (A) (A) (A) (A) (A) (A) (A)
                 (A) (A) (A) (A) (A) (A) (A) (A) (A) (A) (A) (A)
                 (A) (A) (A) (A) (A) (A) (A) (A) (A) (A) (A) (A)
                 (A) (A) (A) (A) (A) (A)
       Virtual   (A) (A) (A) (A) (A) (A) (A) (A) (A) (A) (A) (A)
                 (A) (A) (A) (A) (A) (A) (A) (A) (A) (A) (A) (A)
                 (A) (A) (A) (A) (A) (A) (A) (A) (A) (A) (A) (A)
                 (A) (A) (A) (A) (A) (A) (A) (A) (A) (A) (A) (A)
                 (A) (A) (A) (A) (A) (A) (A) (A) (A) (A) (A) (A)
                 (A) (A) (A) (A) (A) (A) (A) (A) (A) (A) (A) (A)
                 (A) (A) (A) (A) (A) (A) (A) (A) (A) (A) (A) (A)
                 (A) (A) (A) (A) (A) (A) (A) (A) (A) (A) (A) (A)
                 (A) (A) (A) (A) (A) (A) (A) (A) (A) (A) (A) (A)
                 (A) (A) (A) (A) (A) (A) (A) (A) (A) (A) (A) (A)
                 (A) (A) (A) (A) (A) (A) (A) (A) (A) (A) (A) (A)
                 (A) (A) (A) (A) (A) (A) (A) (A) (A) (A) (A) (A)
                 (A) (A) (A) (A) (A) (A) (A) (A) (A) (A) (A) (A)
                 (A) (A) (A) (A) (A) (A) (A) (A) (A) (A) (A) (A)
                 (A) (A) (A) (A) (A) (A) (A) (A) (A) (A) (A) (A)
                 (A) (A) (A) (A) (A) (A) (A) (A) (A) (A) (A) (A)
                 (A) (A) (A) (A) (A) (A) (A) (A) (A) (A) (A) (A)
                 (A) (A) (A) (A) (A) (A) (A) (A) (A) (A) (A) (A)
                 (A) (A) (A) (A) (A) (A) (A) (A) (A) (A) (A) (A)
                 (A) (A) (A) (A) (A) (A) (A) (A) (A) (A) (A) (A)
                 (A) (A) (A) (A) (A) (A) (A) (A) (A) (A) (A) (A)
                 (A) (A) (A) (A) (A) (A) (A) (A) (A) (A) (A) (A)
                 (A) (A) (A) (A) (A) (A) (A) (A) (A) (A) (A) (A)
                 (A) (A) (A) (A) (A) (A) (A) (A) (A) (A) (A) (A)
                 (A) (A) (A) (A) (A) (A) (A) (A) (A) (A) (A) (A)
                 (A) (A) (A) (A) (A) (A) (A) (A) (A) (A) (A) (A)
                 (A) (A) (A) (A) (A) (A) (A) (A) (A) (A) (A) (A)
                 (A) (A) (A) (A) (A) (A) (A) (A) (A) (A) (A) (A)
                 (A) (A) (A) (A) (A) (A) (A) (A) (A) (A) (A) (A)
                 (A) (A) (A) (A) (A) (A) (A) (A) (A) (A) (A) (A)
                 (A) (A) (A) (A) (A) (A) (A) (A) (A) (A) (A) (A)
                 (A) (A) (A) (A) (A) (A) (A) (A) (A) (A) (A) (A)
                 (A) (A) (A) (A) (A) (A) (A) (A) (A) (A) (A) (A)
                 (A) (A) (A) (A) (A) (A) (A) (A) (A) (A) (A) (A)
                 (A) (A) (A) (A) (A) (A) (A) (A) (A) (A) (A) (A)
                 (A) (A) (A) (A) (A) (A) (A) (A) (A) (A) (A) (A)
                 (A) (A) (A) (A) (A) (A) (A) (A) (A) (A) (A) (A)
                 (A) (A) (A) (A) (A) (A) (A) (A) (A) (A) (A) (A)
                 (A) (A) (A) (A) (A) (A) (A) (A) (A) (A) (A) (A)
                 (A) (A) (A) (A) (A) (A) (A) (A) (A) (A) (A) (A)
                 (A) (A) (A) (A) (A) (A) (A) (A) (A) (A) (A) (A)
                 (A) (A) (A) (A) (A) (A) (A) (A) (A) (A) (A) (A)
                 (A) (A) (A) (A) (A) (A) (A) (A) (A) (A) (A) (A)
                 (A) (A) (A) (A) (A) (A) (A) (A) (A) (A) (A) (A)
                 (A) (A) (A) (A) (A) (A) (A) (A) (A) (A) (A) (A)
                 (A) (A) (A) (A) (A) (A) (A) (A) (A) (A) (A) (A)
                 (A) (A) (A) (A) (A) (A) (A) (A) (A) (A) (A) (A)
                 (A) (A) (A) (A) (A) (A) (A) (A) (A) (A) (A) (A)
                 (A) (A) (A) (A) (A) (A) (A) (A) (A) (A) (A) (A)
                 (A) (A) (A) (A) (A) (A) (A) (A) (A) (A) (A) (A)
                 (A) (A) (A) (A) (A) (A) (A) (A) (A) (A) (A) (A)
                 (A) (A) (A) (A) (A) (A) (A) (A) (A) (A) (A) (A)
                 (A) (A) (A) (A) (A) (A) (A) (A) (A) (A) (A) (A)
                 (A) (A) (A) (A) (A) (A) (A) (A) (A) (A) (A) (A)
                 (A) (A) (A) (A) (A) (A) (A) (A) (A) (A) (A) (A)
                 (A) (A) (A) (A) (A) (A) (A) (A) (A) (A) (A) (A)
                 (A) (A) (A) (A) (A) (A) (A) (A) (A) (A) (A) (A)
                 (A) (A) (A) (A) (A) (A) (A) (A) (A) (A) (A) (A)
                 (A) (A) (A) (A) (A) (A) (A) (A) (A) (A) (A) (A)
                 (A) (A) (A) (A) (A) (A) (A) (A) (A) (A) (A) (A)
                 (A) (A) (A) (A) (A) (A) (A) (A) (A) (A) (A) (A)
                 (A) (A) (A) (A) (A) (A) (A) (A) (A) (A) (A) (A)
                 (A) (A) (A) (A) (A) (A) (A) (A) (A) (A) (A) (A)
                 (A) (A) (A) (A) (A) (A) (A) (A) (A) (A) (A) (A)
                 (A) (A) (A) (A) (A) (A) (A) (A) (A) (A) (A) (A)
                 (A) (A) (A) (A) (A) (A) (A) (A) (A) (A) (A) (A)
                 (A) (A) (A) (A) (A) (A) (A) (A) (A) (A) (A) (A)
                 (A) (A) (A) (A) (A) (A) (A) (A) (A) (A) (A) (A)
                 (A) (A) (A) (A) (A) (A) (A) (A) (A) (A) (A) (A)
                 (A) (A) (A) (A) (A) (A) (A) (A) (A) (A) (A) (A)
                 (A) (A) (A) (A) (A) (A) (A) (A) (A) (A) (A) (A)
                 (A) (A) (A) (A) (A) (A) (A) (A) (A) (A) (A) (A)
                 (A) (A) (A) (A) (A) (A) (A) (A) (A) (A) (A) (A)
                 (A) (A) (A) (A) (A) (A) (A) (A) (A) (A) (A) (A)
                 (A) (A) (A) (A) (A) (A) (A) (A) (A) (A) (A) (A)
                 (A) (A) (A) (A) (A) (A) (A) (A) (A) (A) (A) (A)
                 (A) (A) (A) (A) (A) (A) (A) (A) (A) (A) (A) (A)
                 (A) (A) (A) (A) (A) (A) (A) (A) (A) (A) (A) (A)
                 (A) (A) (A) (A) (A) (A) (A) (A) (A) (A) (A) (A)
                 (A) (A) (A) (A) (A) (A) (A) (A) (A) (A) (A) (A)
                 (A) (A) (A) (A) (A) (A) (A) (A) (A) (A) (A) (A)
                 (A) (A) (A) (A) (A) (A) (A) (A) (A) (A) (A) (A)
                 (A) (A) (A) (A) (A) (A) (A) (A) (A) (A) (A) (A)
                 (A) (A) (A) (A) (A) (A) (A) (A) (A) (A) (A) (A)
                 (A) (A) (A) (A) (A) (A) (A) (A) (A) (A) (A) (A)
                 (A) (A) (A) (A) (A) (A) (A) (A) (A) (A) (A) (A)
                 (A) (A) (A) (A) (A) (A) (A) (A) (A) (A) (A) (A)
                 (A) (A) (A) (A) (A) (A) (A) (A)
    20 initial guesses have been made.
 Convergence on wavefunction:    0.001000000000000
 Davidson Disk Diagonalization:  ConvIn= 1.00D-03 SkipCon=T Conv= 1.00D-03.
 Max sub-space:  2000 roots to seek:    20 dimension of matrix:       370304
 Iteration     1 Dimension    20 NMult     0 NNew     20
 CISAX will form    20 AO SS matrices at one time.
 NMat=    20 NSing=    20 JSym2X= 0.
 FoFJK:  IHMeth= 1 ICntrl=     500 DoSepK=F KAlg= 0 I1Cent=           0 FoldK=F
 IRaf= 530000000 NMat=      20 IRICut=       1 DoRegI=T DoRafI=F ISym2E= 0 IDoP0=0 IntGTp=1.
 FoFCou: FMM=T IPFlag=           0 FMFlag=      100000 FMFlg1=        2001
         NFxFlg=           0 DoJE=F BraDBF=F KetDBF=F FulRan=T
         wScrn=  0.000000 ICntrl=       500 IOpCl=  0 I1Cent=           0 NGrid=           0
         NMat0=   20 NMatS0=     20 NMatT0=    0 NMatD0=   20 NMtDS0=    0 NMtDT0=    0
 Symmetry not used in FoFCou.
 FMM levels:  10  Number of levels for PrismC:   9
 New state      1 was old state      3
 New state      2 was old state      5
 New state      3 was old state      4
 New state      4 was old state      1
 New state      5 was old state      2
 Excitation Energies [eV] at current iteration:
 Root      1 :     1.806059804154733
 Root      2 :     1.944113079452457
 Root      3 :     1.959222572549228
 Root      4 :     2.103017585650458
 Root      5 :     2.328183116021881
 Root      6 :     2.485791531672632
 Root      7 :     2.541726054076042
 Root      8 :     2.846401505493434
 Root      9 :     2.939329616694526
 Root     10 :     3.029771357709991
 Root     11 :     3.121760309962797
 Root     12 :     3.160400198234703
 Root     13 :     3.211638252212824
 Root     14 :     3.234925487752679
 Root     15 :     3.280643016482988
 Root     16 :     3.425556701541558
 Root     17 :     3.696661933465031
 Root     18 :     3.962212668945762
 Root     19 :     4.037851233822217
 Root     20 :     4.466677729113491
 Iteration     2 Dimension    40 NMult    20 NNew     20
 CISAX will form    20 AO SS matrices at one time.
 NMat=    20 NSing=    20 JSym2X= 0.
 Root      1 not converged, maximum delta is    0.088721449151577
 New state      2 was old state      4
 Root      2 not converged, maximum delta is    0.094703048603103
 New state      3 was old state      2
 Root      3 not converged, maximum delta is    0.034521855171289
 New state      4 was old state      3
 Root      4 not converged, maximum delta is    0.038654179718719
 Root      5 not converged, maximum delta is    0.154202152704228
 Excitation Energies [eV] at current iteration:
 Root      1 :     1.800198356384386   Change is   -0.005861447770347
 Root      2 :     1.854855960662526   Change is   -0.248161624987932
 Root      3 :     1.944237992682772   Change is    0.000124913230315
 Root      4 :     1.953360369922141   Change is   -0.005862202627087
 Root      5 :     2.139091551278520   Change is   -0.189091564743361
 Root      6 :     2.459952018930830   Change is   -0.025839512741802
 Root      7 :     2.496799668112903   Change is   -0.044926385963140
 Root      8 :     2.603262954995643   Change is   -0.243138550497791
 Root      9 :     2.809426861945008   Change is   -0.220344495764983
 Root     10 :     2.845006344800537   Change is   -0.389919142952142
 Root     11 :     2.939329617920928   Change is    0.000000001226402
 Root     12 :     3.123480242785982   Change is   -0.036919955448721
 Root     13 :     3.127694224527902   Change is    0.005933914565105
 Root     14 :     3.155144114907323   Change is   -0.270412586634235
 Root     15 :     3.174516391394306   Change is   -0.037121860818518
 Root     16 :     3.207611346236902   Change is   -0.073031670246085
 Root     17 :     3.273163632590519   Change is   -0.423498300874512
 Root     18 :     3.626555768423512   Change is   -0.335656900522250
 Root     19 :     3.712067602993107   Change is   -0.325783630829110
 Root     20 :     3.804258942996735   Change is   -0.662418786116756
 Iteration     3 Dimension    45 NMult    40 NNew      5
 CISAX will form     5 AO SS matrices at one time.
 NMat=     5 NSing=     5 JSym2X= 0.
 Root      1 not converged, maximum delta is    0.281887353632160
 Root      2 not converged, maximum delta is    0.292988432481581
 Root      3 not converged, maximum delta is    0.007432312470073
 Root      4 not converged, maximum delta is    0.009318857125907
 Root      5 not converged, maximum delta is    0.016519275765386
 Excitation Energies [eV] at current iteration:
 Root      1 :     1.793915728749306   Change is   -0.006282627635080
 Root      2 :     1.812410075129584   Change is   -0.042445885532942
 Root      3 :     1.944192247622029   Change is   -0.000045745060743
 Root      4 :     1.951749339424695   Change is   -0.001611030497446
 Root      5 :     2.104143715278437   Change is   -0.034947836000082
 Iteration     4 Dimension    50 NMult    45 NNew      5
 CISAX will form     5 AO SS matrices at one time.
 NMat=     5 NSing=     5 JSym2X= 0.
 Root      1 not converged, maximum delta is    0.232485046303452
 Root      2 not converged, maximum delta is    0.221720416431615
 Root      3 not converged, maximum delta is    0.006801663861702
 Root      4 not converged, maximum delta is    0.006865873155648
 Root      5 not converged, maximum delta is    0.014166704928454
 Excitation Energies [eV] at current iteration:
 Root      1 :     1.783945445973291   Change is   -0.009970282776015
 Root      2 :     1.804675970649609   Change is   -0.007734104479974
 Root      3 :     1.944178910763856   Change is   -0.000013336858173
 Root      4 :     1.950906141565844   Change is   -0.000843197858852
 Root      5 :     2.088824931840010   Change is   -0.015318783438428
 Iteration     5 Dimension    55 NMult    50 NNew      5
 CISAX will form     5 AO SS matrices at one time.
 NMat=     5 NSing=     5 JSym2X= 0.
 Root      1 not converged, maximum delta is    0.057787818984941
 Root      2 not converged, maximum delta is    0.055545881848289
 Root      3 not converged, maximum delta is    0.004096091022785
 Root      4 not converged, maximum delta is    0.004114542815520
 Root      5 not converged, maximum delta is    0.005144463491658
 Excitation Energies [eV] at current iteration:
 Root      1 :     1.779645255467040   Change is   -0.004300190506251
 Root      2 :     1.803581655833433   Change is   -0.001094314816176
 Root      3 :     1.944172749315511   Change is   -0.000006161448345
 Root      4 :     1.950512792070369   Change is   -0.000393349495474
 Root      5 :     2.084024809298185   Change is   -0.004800122541825
 Iteration     6 Dimension    60 NMult    55 NNew      5
 CISAX will form     5 AO SS matrices at one time.
 NMat=     5 NSing=     5 JSym2X= 0.
 Root      1 not converged, maximum delta is    0.022429381009623
 Root      2 not converged, maximum delta is    0.021699486612267
 Root      3 not converged, maximum delta is    0.002729488751002
 Root      4 not converged, maximum delta is    0.002743934281671
 Root      5 not converged, maximum delta is    0.002536634921413
 Excitation Energies [eV] at current iteration:
 Root      1 :     1.777496458676428   Change is   -0.002148796790612
 Root      2 :     1.803186924780995   Change is   -0.000394731052439
 Root      3 :     1.944169130945314   Change is   -0.000003618370197
 Root      4 :     1.950272728248800   Change is   -0.000240063821569
 Root      5 :     2.082046856662176   Change is   -0.001977952636010
 Iteration     7 Dimension    65 NMult    60 NNew      5
 CISAX will form     5 AO SS matrices at one time.
 NMat=     5 NSing=     5 JSym2X= 0.
 Root      1 not converged, maximum delta is    0.008867274274267
 Root      2 not converged, maximum delta is    0.008622509504204
 Root      3 not converged, maximum delta is    0.001051857510385
 Root      4 not converged, maximum delta is    0.001158519668423
 Root      5 not converged, maximum delta is    0.001535217096887
 Excitation Energies [eV] at current iteration:
 Root      1 :     1.776543828491770   Change is   -0.000952630184658
 Root      2 :     1.803026803238127   Change is   -0.000160121542868
 Root      3 :     1.944167804430351   Change is   -0.000001326514962
 Root      4 :     1.950175646328110   Change is   -0.000097081920690
 Root      5 :     2.081227872231249   Change is   -0.000818984430927
 Iteration     8 Dimension    70 NMult    65 NNew      5
 CISAX will form     5 AO SS matrices at one time.
 NMat=     5 NSing=     5 JSym2X= 0.
 Root      1 not converged, maximum delta is    0.003771744925056
 Root      2 not converged, maximum delta is    0.003672269130166
 Root      3 has converged.
 Root      4 has converged.
 Root      5 has converged.
 Excitation Energies [eV] at current iteration:
 Root      1 :     1.776117304947906   Change is   -0.000426523543864
 Root      2 :     1.802956887486750   Change is   -0.000069915751378
 Root      3 :     1.944167339761890   Change is   -0.000000464668461
 Root      4 :     1.950142139973299   Change is   -0.000033506354811
 Root      5 :     2.080870913811706   Change is   -0.000356958419543
 Iteration     9 Dimension    72 NMult    70 NNew      2
 CISAX will form     2 AO SS matrices at one time.
 NMat=     2 NSing=     2 JSym2X= 0.
 Root      1 not converged, maximum delta is    0.001574983478182
 Root      2 not converged, maximum delta is    0.001537345582387
 Root      3 has converged.
 Root      4 has converged.
 Root      5 has converged.
 Excitation Energies [eV] at current iteration:
 Root      1 :     1.775932727448997   Change is   -0.000184577498909
 Root      2 :     1.802925860270722   Change is   -0.000031027216028
 Root      3 :     1.944167331446453   Change is   -0.000000008315437
 Root      4 :     1.950141429498779   Change is   -0.000000710474519
 Root      5 :     2.080861723831645   Change is   -0.000009189980061
 Iteration    10 Dimension    74 NMult    72 NNew      2
 CISAX will form     2 AO SS matrices at one time.
 NMat=     2 NSing=     2 JSym2X= 0.
 Root      1 has converged.
 Root      2 has converged.
 Root      3 has converged.
 Root      4 has converged.
 Root      5 has converged.
 Excitation Energies [eV] at current iteration:
 Root      1 :     1.775853877777916   Change is   -0.000078849671081
 Root      2 :     1.802911675704811   Change is   -0.000014184565911
 Root      3 :     1.944167325590306   Change is   -0.000000005856147
 Root      4 :     1.950141295766795   Change is   -0.000000133731984
 Root      5 :     2.080859170378637   Change is   -0.000002553453008
 Convergence achieved on expansion vectors.
[...]
 Alpha virt. eigenvalues --    1.08868   1.09045   1.09128   1.09294   1.10324
 Alpha virt. eigenvalues --    1.10595   1.11250   1.11585   1.11979   1.12715
 Alpha virt. eigenvalues --    1.13146   1.13231   1.13710   1.14098   1.14744
 Alpha virt. eigenvalues --    1.15826   1.15971   1.16923   1.17330   1.17449
 Alpha virt. eigenvalues --    1.18386   1.18722   1.18989   1.19164   1.19732
 Alpha virt. eigenvalues --    1.20018   1.20355   1.20680   1.21402   1.21979
 Alpha virt. eigenvalues --    1.22174   1.22458   1.22968   1.23415   1.24240
 Alpha virt. eigenvalues --    1.24680   1.25178   1.25843   1.26060   1.26230
 Alpha virt. eigenvalues --    1.27090   1.27434   1.27713   1.28326   1.28557
 Alpha virt. eigenvalues --    1.28897   1.28929   1.29485   1.29839   1.30886
 Alpha virt. eigenvalues --    1.31321   1.31421   1.31621   1.32135   1.32361
 Alpha virt. eigenvalues --    1.33152   1.33537   1.33746   1.34073   1.34453
 Alpha virt. eigenvalues --    1.34959   1.35395   1.36257   1.36337   1.36442
 Alpha virt. eigenvalues --    1.36814   1.37384   1.37551   1.38044   1.38309
 Alpha virt. eigenvalues --    1.38516   1.38831   1.39361   1.39975   1.40252
 Alpha virt. eigenvalues --    1.40728   1.40973   1.41720   1.41960   1.42838
 Alpha virt. eigenvalues --    1.42978   1.43259   1.43750   1.44024   1.44459
 Alpha virt. eigenvalues --    1.44610   1.45321   1.45747   1.45772   1.45817
 Alpha virt. eigenvalues --    1.46325   1.46779   1.46974   1.47086   1.47197
 Alpha virt. eigenvalues --    1.47451   1.47634   1.48189   1.48437   1.48862
 Alpha virt. eigenvalues --    1.49000   1.49405   1.49535   1.49586   1.49835
 Alpha virt. eigenvalues --    1.50024   1.50526   1.50566   1.51029   1.51280
 Alpha virt. eigenvalues --    1.51700   1.52099   1.52104   1.52310   1.52814
 Alpha virt. eigenvalues --    1.53053   1.53545   1.53955   1.53992   1.54569
 Alpha virt. eigenvalues --    1.54732   1.54932   1.55213   1.55605   1.56271
 Alpha virt. eigenvalues --    1.56992   1.57353   1.57505   1.57916   1.58203
 Alpha virt. eigenvalues --    1.58885   1.59870   1.60313   1.60470   1.60993
 Alpha virt. eigenvalues --    1.61007   1.61349   1.61678   1.62370   1.62802
 Alpha virt. eigenvalues --    1.63029   1.63048   1.63578   1.64010   1.64034
 Alpha virt. eigenvalues --    1.64439   1.64612   1.65150   1.65419   1.65874
 Alpha virt. eigenvalues --    1.66057   1.66454   1.66716   1.66904   1.67061
 Alpha virt. eigenvalues --    1.67073   1.67490   1.67660   1.67776   1.68029
 Alpha virt. eigenvalues --    1.68396   1.68657   1.68782   1.69242   1.69397
 Alpha virt. eigenvalues --    1.69430   1.69644   1.70187   1.70346   1.70584
 Alpha virt. eigenvalues --    1.70735   1.70897   1.71198   1.71258   1.71593
 Alpha virt. eigenvalues --    1.71834   1.72052   1.72662   1.72825   1.72923
 Alpha virt. eigenvalues --    1.73111   1.73308   1.73599   1.73920   1.74040
 Alpha virt. eigenvalues --    1.74054   1.74314   1.74398   1.74625   1.74780
 Alpha virt. eigenvalues --    1.74886   1.75106   1.75205   1.75231   1.75683
 Alpha virt. eigenvalues --    1.75971   1.76053   1.76209   1.76564   1.76633
 Alpha virt. eigenvalues --    1.76771   1.76989   1.77183   1.77386   1.77597
 Alpha virt. eigenvalues --    1.77967   1.78234   1.78322   1.78736   1.78799
 Alpha virt. eigenvalues --    1.78948   1.79024   1.79266   1.79709   1.79729
 Alpha virt. eigenvalues --    1.79925   1.80361   1.80617   1.80884   1.80970
 Alpha virt. eigenvalues --    1.81089   1.81291   1.81691   1.81842   1.82183
 Alpha virt. eigenvalues --    1.82311   1.82813   1.83152   1.83662   1.83840
 Alpha virt. eigenvalues --    1.84036   1.84316   1.84555   1.84682   1.85220
 Alpha virt. eigenvalues --    1.85443   1.85717   1.86184   1.86311   1.86476
 Alpha virt. eigenvalues --    1.86664   1.86873   1.87120   1.87163   1.87579
 Alpha virt. eigenvalues --    1.88037   1.88443   1.88637   1.88875   1.89364
 Alpha virt. eigenvalues --    1.89512   1.90219   1.90283   1.90443   1.90530
 Alpha virt. eigenvalues --    1.90765   1.90929   1.91111   1.91547   1.92023
 Alpha virt. eigenvalues --    1.92265   1.92392   1.92712   1.92970   1.93057
 Alpha virt. eigenvalues --    1.93299   1.93369   1.93547   1.94019   1.94335
 Alpha virt. eigenvalues --    1.94455   1.94897   1.95380   1.95500   1.96063
 Alpha virt. eigenvalues --    1.96196   1.97000   1.97064   1.97109   1.97596
 Alpha virt. eigenvalues --    1.97986   1.98086   1.98263   1.98730   1.98974
 Alpha virt. eigenvalues --    1.99067   1.99280   1.99610   1.99655   2.00023
 Alpha virt. eigenvalues --    2.00318   2.00351   2.00532   2.01217   2.01372
 Alpha virt. eigenvalues --    2.01832   2.02040   2.02128   2.02338   2.02680
 Alpha virt. eigenvalues --    2.03204   2.03601   2.03686   2.03934   2.04208
 Alpha virt. eigenvalues --    2.04829   2.04977   2.05418   2.05845   2.06702
 Alpha virt. eigenvalues --    2.06906   2.07120   2.07396   2.07807   2.08041
 Alpha virt. eigenvalues --    2.08263   2.08530   2.08556   2.08950   2.09058
 Alpha virt. eigenvalues --    2.09403   2.09921   2.10260   2.10481   2.10770
 Alpha virt. eigenvalues --    2.10975   2.11800   2.12291   2.12571   2.12851
 Alpha virt. eigenvalues --    2.13309   2.13877   2.14421   2.14943   2.15393
 Alpha virt. eigenvalues --    2.15810   2.16470   2.16549   2.16874   2.17522
 Alpha virt. eigenvalues --    2.17731   2.17925   2.18651   2.19577   2.20050
 Alpha virt. eigenvalues --    2.20311   2.20447   2.20669   2.21180   2.21419
 Alpha virt. eigenvalues --    2.21725   2.22098   2.22431   2.22691   2.23479
 Alpha virt. eigenvalues --    2.23800   2.24024   2.24049   2.24556   2.24788
 Alpha virt. eigenvalues --    2.25132   2.25548   2.25670   2.26312   2.27103
 Alpha virt. eigenvalues --    2.27643   2.27763   2.28036   2.28607   2.28812
 Alpha virt. eigenvalues --    2.29059   2.29208   2.29809   2.29826   2.30265
 Alpha virt. eigenvalues --    2.30394   2.30920   2.31143   2.31398   2.31899
 Alpha virt. eigenvalues --    2.32244   2.32569   2.33010   2.34115   2.34715
 Alpha virt. eigenvalues --    2.34864   2.35086   2.35257   2.35517   2.35607
 Alpha virt. eigenvalues --    2.36254   2.36572   2.36749   2.36873   2.37319
 Alpha virt. eigenvalues --    2.37388   2.38026   2.38038   2.38718   2.39194
 Alpha virt. eigenvalues --    2.39485   2.39612   2.40324   2.41122   2.41443
 Alpha virt. eigenvalues --    2.41850   2.42271   2.42809   2.43113   2.43561
 Alpha virt. eigenvalues --    2.44147   2.44738   2.44789   2.45387   2.45495
 Alpha virt. eigenvalues --    2.46075   2.46369   2.46391   2.46707   2.47227
 Alpha virt. eigenvalues --    2.47585   2.48004   2.48484   2.49123   2.49538
 Alpha virt. eigenvalues --    2.49893   2.50204   2.50229   2.51016   2.51118
 Alpha virt. eigenvalues --    2.51533   2.52284   2.52514   2.52942   2.53143
 Alpha virt. eigenvalues --    2.53339   2.53722   2.54164   2.55375   2.55609
 Alpha virt. eigenvalues --    2.55843   2.56667   2.56827   2.56936   2.57071
 Alpha virt. eigenvalues --    2.57780   2.58357   2.58640   2.59032   2.59538
 Alpha virt. eigenvalues --    2.60525   2.60702   2.61386   2.61523   2.61850
 Alpha virt. eigenvalues --    2.62415   2.62557   2.62700   2.63305   2.63687
 Alpha virt. eigenvalues --    2.63778   2.64071   2.64392   2.64527   2.64958
 Alpha virt. eigenvalues --    2.65158   2.65463   2.65564   2.65812   2.66208
 Alpha virt. eigenvalues --    2.66620   2.66688   2.67602   2.67774   2.68292
 Alpha virt. eigenvalues --    2.68541   2.70252   2.70917   2.71582   2.71656
 Alpha virt. eigenvalues --    2.71965   2.72633   2.73298   2.74310   2.74801
 Alpha virt. eigenvalues --    2.75074   2.75723   2.76723   2.77063   2.77448
 Alpha virt. eigenvalues --    2.78254   2.78310   2.78704   2.79031   2.79520
 Alpha virt. eigenvalues --    2.80169   2.80195   2.80800   2.81343   2.81784
 Alpha virt. eigenvalues --    2.82434   2.82555   2.82861   2.82937   2.83679
 Alpha virt. eigenvalues --    2.83734   2.84006   2.84447   2.84476   2.84680
 Alpha virt. eigenvalues --    2.85022   2.85202   2.85450   2.85798   2.86315
 Alpha virt. eigenvalues --    2.86405   2.86751   2.87283   2.87422   2.87424
 Alpha virt. eigenvalues --    2.87689   2.88248   2.88488   2.88816   2.89134
 Alpha virt. eigenvalues --    2.89368   2.89945   2.89995   2.90182   2.90810
 Alpha virt. eigenvalues --    2.90960   2.91139   2.91345   2.91933   2.92134
 Alpha virt. eigenvalues --    2.92236   2.92381   2.92729   2.93257   2.93322
 Alpha virt. eigenvalues --    2.93716   2.94007   2.95107   2.95664   2.95703
 Alpha virt. eigenvalues --    2.95909   2.96492   2.96662   2.97404   2.97535
 Alpha virt. eigenvalues --    2.98646   2.98955   2.99206   2.99283   2.99529
 Alpha virt. eigenvalues --    3.00383   3.00736   3.00967   3.01237   3.01792
 Alpha virt. eigenvalues --    3.02460   3.03457   3.04011   3.04897   3.05013
 Alpha virt. eigenvalues --    3.06093   3.06879   3.07085   3.07766   3.08799
 Alpha virt. eigenvalues --    3.09945   3.11451   3.12206   3.14070   3.14393
 Alpha virt. eigenvalues --    3.14852   3.18376   3.28842   3.31040   3.32156
 Alpha virt. eigenvalues --    3.32682   3.32804   3.37748   3.39600   3.40397
 Alpha virt. eigenvalues --    3.46785   3.50721   3.51216   3.52323   3.54020
 Alpha virt. eigenvalues --    3.57012   3.59508
          Condensed to atoms (all electrons):
 Mulliken charges:
               1
     1  Mg   0.709321
     2  C    0.009134
     3  C   -0.040991
     4  C   -0.023351
     5  C   -0.066083
     6  N   -0.200318
     7  C   -0.044673
     8  C   -0.007976
     9  C    0.006772
    10  C   -0.014588
    11  C    0.145474
    12  C    0.125166
    13  C    0.145002
    14  C    0.068107
    15  O   -0.192270
    16  O   -0.252881
    17  N   -0.259866
    18  C    0.091256
    19  C   -0.135272
    20  C    0.057486
    21  C    0.134648
    22  C    0.188290
    23  C   -0.097488
    24  O   -0.172680
    25  C    0.131580
    26  N   -0.301109
    27  C   -0.011593
    28  C    0.050775
    29  C    0.001583
    30  C    0.089609
    31  C    0.114563
    32  C    0.078692
    33  C    0.064386
    34  N   -0.151066
    35  C    0.040382
    36  C   -0.193911
    37  C    0.049374
    38  C    0.044850
    39  C    0.171839
    40  C   -0.061995
    41  O   -0.115386
    42  C    0.095716
    43  C    0.099711
    44  O   -0.219268
    45  O   -0.257125
    46  C    0.229701
    47  C    0.305245
    48  C   -0.073457
    49  C   -0.203184
    50  C    0.126644
    51  C    0.146748
    52  C    0.095895
    53  C    0.077519
    54  C   -0.045916
    55  C    0.116030
    56  C    0.079214
    57  C    0.099618
    58  C    0.108456
    59  C   -0.123021
    60  C    0.132339
    61  C    0.102563
    62  C    0.079170
    63  C    0.102357
    64  C   -0.093210
    65  C    0.066478
    66  C    0.121635
    67  H   -0.056459
    68  H   -0.079741
    69  H   -0.063814
    70  H   -0.034092
    71  H   -0.027686
    72  H   -0.016822
    73  H    0.005581
    74  H   -0.015686
    75  H   -0.043947
    76  H   -0.007642
    77  H    0.019590
    78  H   -0.002764
    79  H    0.001678
    80  H    0.016018
    81  H   -0.027347
    82  H    0.013932
    83  H    0.012189
    84  H   -0.011769
    85  H   -0.012561
    86  H   -0.024107
    87  H   -0.002684
    88  H   -0.016372
    89  H   -0.006139
    90  H   -0.009516
    91  H   -0.027515
    92  H   -0.008034
    93  H   -0.013715
    94  H   -0.010267
    95  H    0.028172
    96  H    0.029230
    97  H   -0.009038
    98  H   -0.020320
    99  H   -0.003878
   100  H    0.022433
   101  H    0.011633
   102  H    0.014024
   103  H    0.006879
   104  H   -0.024903
   105  H   -0.022576
   106  H    0.009292
   107  H    0.000268
   108  H   -0.043291
   109  H   -0.021734
   110  H   -0.036127
   111  H   -0.022368
   112  H   -0.038201
   113  H   -0.026655
   114  H   -0.047046
   115  H   -0.028320
   116  H   -0.017879
   117  H   -0.010975
   118  H   -0.053918
   119  H   -0.043964
   120  H   -0.035098
   121  H   -0.033247
   122  H   -0.025533
   123  H   -0.029250
   124  H   -0.036079
   125  H   -0.014105
   126  H   -0.014113
   127  H   -0.009190
   128  H   -0.049817
   129  H   -0.039840
   130  H   -0.038043
   131  H   -0.027498
   132  H   -0.036839
   133  H   -0.045548
   134  H   -0.023348
   135  H   -0.018970
   136  H   -0.010275
   137  H   -0.008284
   138  H   -0.028820
   139  H   -0.008008
   140  H   -0.013791
 Sum of Mulliken charges =  -0.00000
 Mulliken charges with hydrogens summed into heavy atoms:
               1
     1  Mg   0.709321
     2  C    0.009134
     3  C   -0.097450
     4  C   -0.103092
     5  C   -0.129896
     6  N   -0.200318
     7  C   -0.044673
     8  C   -0.042068
     9  C   -0.020914
    10  C   -0.014588
    11  C    0.118548
    12  C    0.073577
    13  C    0.161828
    14  C    0.068107
    15  O   -0.192270
    16  O   -0.252881
    17  N   -0.259866
    18  C    0.091256
    19  C   -0.135272
    20  C    0.057486
    21  C    0.134648
    22  C    0.178639
    23  C   -0.097488
    24  O   -0.172680
    25  C    0.145932
    26  N   -0.301109
    27  C   -0.011593
    28  C    0.038214
    29  C   -0.022524
    30  C    0.089609
    31  C    0.089368
    32  C    0.041661
    33  C    0.032370
    34  N   -0.151066
    35  C    0.040382
    36  C   -0.193911
    37  C    0.049374
    38  C    0.044850
    39  C    0.220203
    40  C   -0.061995
    41  O   -0.115386
    42  C    0.075396
    43  C    0.099711
    44  O   -0.219268
    45  O   -0.257125
    46  C    0.259889
    47  C    0.326148
    48  C   -0.098361
    49  C   -0.203184
    50  C    0.113628
    51  C    0.081724
    52  C    0.037400
    53  C    0.012662
    54  C   -0.092961
    55  C    0.058856
    56  C   -0.018669
    57  C    0.031273
    58  C    0.053673
    59  C   -0.159100
    60  C    0.094931
    61  C    0.012906
    62  C    0.013629
    63  C    0.019970
    64  C   -0.116559
    65  C    0.028949
    66  C    0.071016
 Electronic spatial extent (au):  <R**2>=          92403.7560
 Charge=             -0.0000 electrons
 Dipole moment (field-independent basis, Debye):
    X=              2.9688    Y=              1.4437    Z=              0.4822  Tot=              3.3363
 Quadrupole moment (field-independent basis, Debye-Ang):
   XX=           -369.2079   YY=           -434.5266   ZZ=           -393.3204
   XY=             33.8923   XZ=             -4.6937   YZ=              9.8986
 Traceless Quadrupole moment (field-independent basis, Debye-Ang):
   XX=             29.8104   YY=            -35.5083   ZZ=              5.6979
   XY=             33.8923   XZ=             -4.6937   YZ=              9.8986
 Octapole moment (field-independent basis, Debye-Ang**2):
  XXX=            280.6461  YYY=           -306.4053  ZZZ=            -24.1306  XYY=            -34.0078
  XXY=            173.8499  XXZ=             84.0571  XZZ=            120.8923  YZZ=              5.3987
  YYZ=            119.7994  XYZ=            106.1161
 Hexadecapole moment (field-independent basis, Debye-Ang**3):
 XXXX=         -82200.1034 YYYY=         -33625.3631 ZZZZ=         -12230.8062 XXXY=           1877.7173
 XXXZ=            600.0584 YYYX=            944.6847 YYYZ=            712.0962 ZZZX=             74.0501
 ZZZY=             15.8959 XXYY=         -19604.3315 XXZZ=         -15752.1835 YYZZ=          -7604.6225
 XXYZ=            178.1738 YYXZ=           -166.2215 ZZXY=            -75.8937
 N-N= 9.842777059466D+03 E-N=-2.668148510806D+04  KE= 2.978113377891D+03
 Leave Link  601 at Wed Apr 27 12:05:27 2022, MaxMem= 10066329600 cpu:              13.9 elap:               0.7
 (Enter /sw/apps/gaussian-16.0/g16/l9999.exe)
 1\1\GINC-BP1-COMPUTE216\SP\RBLYP TD-FC\def2SVP\C55H74Mg1N4O6\OF15641\2
 7-Apr-2022\0\\#p blyp/Def2SVP td=(nstates=5)\\step_1151_chromophore_20
  TDDFT with blyp functional\\0,1\Mg,0,5.967,57.21,42.074\C,0,5.187,53.
 822,41.477\C,0,9.216,56.479,40.853\C,0,6.559,60.4,41.944\C,0,2.531,57.
 71,42.67\N,0,6.996,55.436,41.187\C,0,6.493,54.12,41.109\C,0,7.621,53.1
 25,40.661\C,0,8.897,53.889,40.995\C,0,8.335,55.376,41.065\C,0,9.601,53
 .501,42.343\C,0,7.567,52.854,39.142\C,0,7.906,51.373,38.672\C,0,7.458,
 50.837,37.33\O,0,8.138,50.022,36.751\O,0,6.296,51.334,36.857\N,0,7.632
 ,58.293,41.396\C,0,8.886,57.845,41.063\C,0,9.751,59.023,40.703\C,0,8.9
 91,60.153,41.033\C,0,7.672,59.624,41.509\C,0,11.158,58.868,40.275\C,0,
 9.479,61.569,41.006\O,0,10.59,61.918,40.572\C,0,8.559,62.713,41.524\N,
 0,4.759,58.79,42.225\C,0,5.31,60.056,42.359\C,0,4.248,61.116,42.773\C,
 0,2.924,60.301,42.849\C,0,3.405,58.807,42.497\C,0,4.711,61.854,44.068\
 C,0,1.862,60.778,41.79\C,0,0.395,60.945,42.185\N,0,4.194,56.015,42.059
 \C,0,2.956,56.339,42.464\C,0,2.134,55.182,42.612\C,0,2.979,54.163,42.1
 65\C,0,4.192,54.768,41.778\C,0,0.706,55.15,43.115\C,0,2.989,52.76,41.8
 84\O,0,2.125,51.931,42.072\C,0,4.483,52.528,41.437\C,0,4.362,51.967,40
 .09\O,0,3.766,52.496,39.116\O,0,4.918,50.742,39.992\C,0,4.322,49.815,3
 9.048\C,0,5.817,50.755,35.554\C,0,6.528,51.365,34.374\C,0,6.242,51.199
 ,33.027\C,0,5.058,50.347,32.485\C,0,7.014,51.954,31.973\C,0,6.707,53.4
 45,31.965\C,0,6.209,53.873,30.593\C,0,6.397,55.37,30.285\C,0,5.16,55.8
 2,29.438\C,0,7.797,55.71,29.735\C,0,8.582,56.859,30.309\C,0,9.701,56.3
 12,31.233\C,0,11.049,56.03,30.426\C,0,12.009,54.994,31.086\C,0,11.663,
 57.406,30.079\C,0,11.911,57.554,28.634\C,0,13.271,58.234,28.405\C,0,14
 .35,57.201,27.839\C,0,15.519,56.87,28.881\C,0,14.851,57.784,26.519\H,0
 ,10.255,56.277,40.584\H,0,6.738,61.434,42.245\H,0,1.515,57.771,43.066\
 H,0,7.584,52.167,41.179\H,0,9.613,54.035,40.186\H,0,9.345,54.369,42.95
 1\H,0,10.672,53.299,42.366\H,0,9.119,52.666,42.851\H,0,8.28,53.533,38.
 673\H,0,6.701,53.405,38.773\H,0,7.787,50.636,39.467\H,0,8.975,51.511,3
 8.51\H,0,11.813,59.588,40.767\H,0,11.358,58.739,39.211\H,0,11.498,57.9
 6,40.772\H,0,8.406,62.478,42.578\H,0,7.586,62.714,41.032\H,0,9.009,63.
 693,41.371\H,0,4.165,61.851,41.973\H,0,2.383,60.24,43.793\H,0,5.621,61
 .5,44.552\H,0,3.947,61.744,44.838\H,0,4.876,62.921,43.919\H,0,1.843,60
 .099,40.938\H,0,2.264,61.72,41.416\H,0,0.022,61.948,41.98\H,0,0.131,60
 .704,43.215\H,0,-0.222,60.276,41.585\H,0,0.782,54.247,43.721\H,0,0.246
 ,55.176,42.127\H,0,0.363,55.975,43.738\H,0,4.886,51.766,42.104\H,0,3.2
 42,49.727,39.165\H,0,4.73,48.807,39.121\H,0,4.289,50.32,38.082\H,0,4.7
 38,50.901,35.492\H,0,5.943,49.672,35.538\H,0,7.512,51.789,34.575\H,0,4
 .434,49.95,33.286\H,0,5.543,49.556,31.913\H,0,4.365,50.888,31.841\H,0,
 6.798,51.52,30.996\H,0,8.06,51.746,32.199\H,0,7.597,54.009,32.245\H,0,
 6.012,53.577,32.794\H,0,5.146,53.633,30.586\H,0,6.685,53.316,29.786\H,
 0,6.418,55.844,31.267\H,0,5.471,56.647,28.8\H,0,4.354,56.223,30.052\H,
 0,4.694,55.033,28.846\H,0,7.713,55.918,28.668\H,0,8.394,54.802,29.813\
 H,0,7.852,57.491,30.816\H,0,8.965,57.393,29.44\H,0,9.43,55.384,31.736\
 H,0,9.84,57.166,31.895\H,0,10.862,55.509,29.487\H,0,11.799,54.043,30.5
 96\H,0,11.692,54.95,32.128\H,0,13.015,55.361,30.886\H,0,12.585,57.538,
 30.647\H,0,11.164,58.289,30.48\H,0,11.092,58.165,28.256\H,0,11.791,56.
 629,28.071\H,0,13.613,58.755,29.3\H,0,13.11,59.077,27.733\H,0,14.014,5
 6.174,27.699\H,0,16.346,57.577,28.819\H,0,15.904,55.863,28.724\H,0,15.
 092,56.955,29.88\H,0,14.951,56.976,25.794\H,0,15.82,58.26,26.668\H,0,1
 4.057,58.412,26.114\\Version=ES64L-G16RevA.03\State=1-A\HF=-3007.32760
 95\RMSD=8.641e-09\PG=C01 [X(C55H74Mg1N4O6)]\\@


 IT IS A QUALITY OF REVOLUTIONS NOT TO GO BY OLD LINES OR OLD LAWS,
 BUT TO BREAK UP BOTH, AND MAKE NEW ONES.
                                              -- A. LINCOLN (1848)
 Job cpu time:       0 days  5 hours 13 minutes  5.3 seconds.
 Elapsed time:       0 days  0 hours 13 minutes  5.9 seconds.
 File lengths (MBytes):  RWF=   8028 Int=      0 D2E=      0 Chk=    390 Scr=      1
 Normal termination of Gaussian 16 at Wed Apr 27 12:05:27 2022.
