 Entering Gaussian System, Link 0=g16
 Initial command:
 /sw/apps/gaussian-16.0/g16/l1.exe "/tmp/Gau-259180.inp" -scrdir="/tmp/"
 Entering Link 1 = /sw/apps/gaussian-16.0/g16/l1.exe PID=    259181.
  
 Copyright (c) 1988,1990,1992,1993,1995,1998,2003,2009,2016,
            Gaussian, Inc.  All Rights Reserved.
  
 This is part of the Gaussian(R) 16 program.  It is based on
 the Gaussian(R) 09 system (copyright 2009, Gaussian, Inc.),
 the Gaussian(R) 03 system (copyright 2003, Gaussian, Inc.),
 the Gaussian(R) 98 system (copyright 1998, Gaussian, Inc.),
 the Gaussian(R) 94 system (copyright 1995, Gaussian, Inc.),
 the Gaussian 92(TM) system (copyright 1992, Gaussian, Inc.),
 the Gaussian 90(TM) system (copyright 1990, Gaussian, Inc.),
 the Gaussian 88(TM) system (copyright 1988, Gaussian, Inc.),
 the Gaussian 86(TM) system (copyright 1986, Carnegie Mellon
 University), and the Gaussian 82(TM) system (copyright 1983,
 Carnegie Mellon University). Gaussian is a federally registered
 trademark of Gaussian, Inc.
  
 This software contains proprietary and confidential information,
 including trade secrets, belonging to Gaussian, Inc.
  
 This software is provided under written license and may be
 used, copied, transmitted, or stored only in accord with that
 written license.
  
 The following legend is applicable only to US Government
 contracts under FAR:
  
                    RESTRICTED RIGHTS LEGEND
  
 Use, reproduction and disclosure by the US Government is
 subject to restrictions as set forth in subparagraphs (a)
 and (c) of the Commercial Computer Software - Restricted
 Rights clause in FAR 52.227-19.
  
 Gaussian, Inc.
 340 Quinnipiac St., Bldg. 40, Wallingford CT 06492
  
  
 ---------------------------------------------------------------
 Warning -- This program may not be used in any manner that
 competes with the business of Gaussian, Inc. or will provide
 assistance to any competitor of Gaussian, Inc.  The licensee
 of this program is prohibited from giving any competitor of
 Gaussian, Inc. access to this program.  By using this program,
 the user acknowledges that Gaussian, Inc. is engaged in the
 business of creating and licensing software in the field of
 computational chemistry and represents and warrants to the
 licensee that it is not a competitor of Gaussian, Inc. and that
 it will not use this program in any manner prohibited above.
 ---------------------------------------------------------------
  

 Cite this work as:
 Gaussian 16, Revision A.03,
 M. J. Frisch, G. W. Trucks, H. B. Schlegel, G. E. Scuseria, 
 M. A. Robb, J. R. Cheeseman, G. Scalmani, V. Barone, 
 G. A. Petersson, H. Nakatsuji, X. Li, M. Caricato, A. V. Marenich, 
 J. Bloino, B. G. Janesko, R. Gomperts, B. Mennucci, H. P. Hratchian, 
 J. V. Ortiz, A. F. Izmaylov, J. L. Sonnenberg, D. Williams-Young, 
 F. Ding, F. Lipparini, F. Egidi, J. Goings, B. Peng, A. Petrone, 
 T. Henderson, D. Ranasinghe, V. G. Zakrzewski, J. Gao, N. Rega, 
 G. Zheng, W. Liang, M. Hada, M. Ehara, K. Toyota, R. Fukuda, 
 J. Hasegawa, M. Ishida, T. Nakajima, Y. Honda, O. Kitao, H. Nakai, 
 T. Vreven, K. Throssell, J. A. Montgomery, Jr., J. E. Peralta, 
 F. Ogliaro, M. J. Bearpark, J. J. Heyd, E. N. Brothers, K. N. Kudin, 
 V. N. Staroverov, T. A. Keith, R. Kobayashi, J. Normand, 
 K. Raghavachari, A. P. Rendell, J. C. Burant, S. S. Iyengar, 
 J. Tomasi, M. Cossi, J. M. Millam, M. Klene, C. Adamo, R. Cammi, 
 J. W. Ochterski, R. L. Martin, K. Morokuma, O. Farkas, 
 J. B. Foresman, and D. J. Fox, Gaussian, Inc., Wallingford CT, 2016.
 
 ******************************************
 Gaussian 16:  ES64L-G16RevA.03 25-Dec-2016
                27-Apr-2022 
 ******************************************
 %nproc=24
 Will use up to   24 processors via shared memory.
 %mem=75GB
 -----------------------------------
 #p cam-b3lyp/Def2SVP td=(nstates=5)
 -----------------------------------
 1/38=1,172=1/1;
 2/12=2,17=6,18=5,40=1/2;
 3/5=43,7=101,11=9,25=1,30=1,74=-40/1,2,3,8;
 4//1;
 5/5=2,38=5/2;
 8/6=1,10=1,108=5/1;
 9/41=5,42=1,70=2/14;
 6/7=2,8=2,9=2,10=2/1;
 99/5=1,9=1/99;
 Leave Link    1 at Wed Apr 27 13:16:27 2022, MaxMem= 10066329600 cpu:               0.9 elap:               0.0
 (Enter /sw/apps/gaussian-16.0/g16/l101.exe)
 -------------------------------------------------------
 step_1201_chromophore_2 TDDFT with cam-b3lyp functional
 -------------------------------------------------------
 Symbolic Z-matrix:
 Charge =  0 Multiplicity = 1
 Mg                    2.993     0.749     44.097 
 C                     5.878     2.556     43.627 
 C                     1.295     3.23      42.35 
 C                     0.482    -1.407     43.619 
 C                     5.057    -1.954     45.13 
 N                     3.587     2.572     43.003 
 C                     4.794     3.207     43.014 
 C                     4.792     4.543     42.263 
 C                     3.281     4.809     42.069 
 C                     2.638     3.467     42.568 
 C                     2.703     6.117     42.756 
 C                     5.703     4.554     40.941 
 C                     6.178     3.26      40.238 
 C                     6.256     3.15      38.65 
 O                     5.848     4.019     37.923 
 O                     6.829     1.944     38.195 
 N                     1.115     0.975     43.358 
 C                     0.599     2.047     42.689 
 C                    -0.78      1.856     42.471 
 C                    -1.101     0.567     42.914 
 C                     0.165    -0.042     43.283 
 C                    -1.565     2.93      41.895 
 C                    -2.475    -0.096     42.978 
 O                    -3.458     0.533     42.621 
 C                    -2.679    -1.538     43.341 
 N                     2.849    -1.383     44.227 
 C                     1.613    -1.98      44.144 
 C                     1.679    -3.467     44.531 
 C                     3.193    -3.636     44.905 
 C                     3.745    -2.244     44.787 
 C                     0.634    -3.839     45.701 
 C                     3.979    -4.738     44.12 
 C                     4.575    -5.775     45.092 
 N                     4.989     0.353     44.445 
 C                     5.708    -0.774     44.872 
 C                     7.117    -0.384     45.033 
 C                     7.198     0.866     44.578 
 C                     5.894     1.299     44.216 
 C                     8.214    -1.248     45.65 
 C                     8.111     1.954     44.323 
 O                     9.38      1.939     44.471 
 C                     7.319     3.141     43.805 
 C                     7.409     4.252     44.866 
 O                     8.398     4.907     45.229 
 O                     6.136     4.604     45.289 
 C                     5.897     5.843     46.122 
 C                     6.997     1.757     36.723 
 C                     5.59      1.473     36.159 
 C                     5.27      0.91      35.006 
 C                     6.258     0.348     33.958 
 C                     3.842     1.038     34.531 
 C                     3.432     2.549     34.185 
 C                     2.783     2.887     32.846 
 C                     1.552     1.975     32.55 
 C                     1.809     1.159     31.272 
 C                     0.235     2.731     32.487 
 C                     0.026     3.695     31.357 
 C                    -1.236     3.474     30.479 
 C                    -1.183     4.185     29.152 
 C                    -2.059     5.469     29.172 
 C                    -1.662     3.299     27.946 
 C                    -0.931     3.685     26.669 
 C                    -1.654     3.078     25.428 
 C                    -2.041     4.161     24.45 
 C                    -3.463     3.968     23.789 
 C                    -1.043     4.28      23.274 
 H                     0.79      4.016     41.785 
 H                    -0.231    -2.232     43.673 
 H                     5.604    -2.844     45.45 
 H                     5.242     5.279     42.929 
 H                     3.121     4.914     40.996 
 H                     3.327     6.936     42.397 
 H                     2.695     6.068     43.845 
 H                     1.692     6.299     42.39 
 H                     6.567     5.184     41.151 
 H                     5.163     5.003     40.108 
 H                     5.688     2.377     40.648 
 H                     7.164     3.001     40.623 
 H                    -2.629     2.902     42.13 
 H                    -1.235     2.903     40.856 
 H                    -1.236     3.881     42.313 
 H                    -2.234    -1.793     44.303 
 H                    -2.187    -2.147     42.582 
 H                    -3.751    -1.732     43.349 
 H                     1.316    -4.054     43.688 
 H                     3.236    -3.794     45.983 
 H                    -0.353    -4.029     45.278 
 H                     0.565    -3.076     46.476 
 H                     0.97     -4.727     46.236 
 H                     4.817    -4.288     43.588 
 H                     3.325    -5.132     43.343 
 H                     4.198    -5.697     46.112 
 H                     5.65     -5.614     45.173 
 H                     4.406    -6.784     44.717 
 H                     8.197    -1.282     46.739 
 H                     9.19     -0.839     45.39 
 H                     8.172    -2.275     45.288 
 H                     7.85      3.464     42.91 
 H                     6.281     6.687     45.55 
 H                     6.383     5.849     47.099 
 H                     4.842     6.081     46.254 
 H                     7.641     0.891     36.565 
 H                     7.522     2.654     36.393 
 H                     4.778     1.723     36.842 
 H                     6.182     0.776     32.959 
 H                     6.061    -0.706     33.765 
 H                     7.262     0.549     34.333 
 H                     3.241     0.702     35.376 
 H                     3.606     0.293     33.771 
 H                     4.307     3.192     34.279 
 H                     2.669     2.829     34.912 
 H                     3.511     2.684     32.06 
 H                     2.605     3.961     32.789 
 H                     1.49      1.219     33.333 
 H                     1.96      1.775     30.386 
 H                     0.915     0.589     31.02 
 H                     2.592     0.426     31.47 
 H                     0.215     3.304     33.414 
 H                    -0.616     2.052     32.44 
 H                     0.857     3.778     30.657 
 H                     0.154     4.718     31.71 
 H                    -2.097     3.725     31.099 
 H                    -1.192     2.409     30.252 
 H                    -0.141     4.391     28.907 
 H                    -1.34      6.248     28.919 
 H                    -2.409     5.756     30.164 
 H                    -2.903     5.433     28.484 
 H                    -2.739     3.428     27.838 
 H                    -1.524     2.232     28.122 
 H                     0.032     3.202     26.505 
 H                    -0.713     4.743     26.523 
 H                    -2.545     2.563     25.787 
 H                    -0.999     2.323     24.992 
 H                    -1.98      5.126     24.955 
 H                    -4.22      4.677     24.124 
 H                    -3.899     3.042     24.164 
 H                    -3.359     3.976     22.704 
 H                    -0.749     5.275     22.942 
 H                    -1.281     3.599     22.457 
 H                    -0.113     3.847     23.641 
 
 ITRead=  0  0  0  0  0  0  0  0  0  0  0  0  0  0  0  0  0  0  0  0
 ITRead=  0  0  0  0  0  0  0  0  0  0  0  0  0  0  0  0  0  0  0  0
 ITRead=  0  0  0  0  0  0  0  0  0  0  0  0  0  0  0  0  0  0  0  0
 ITRead=  0  0  0  0  0  0  0  0  0  0  0  0  0  0  0  0  0  0  0  0
 ITRead=  0  0  0  0  0  0  0  0  0  0  0  0  0  0  0  0  0  0  0  0
 ITRead=  0  0  0  0  0  0  0  0  0  0  0  0  0  0  0  0  0  0  0  0
 ITRead=  0  0  0  0  0  0  0  0  0  0  0  0  0  0  0  0  0  0  0  0
 MicOpt= -1 -1 -1 -1 -1 -1 -1 -1 -1 -1 -1 -1 -1 -1 -1 -1 -1 -1 -1 -1
 MicOpt= -1 -1 -1 -1 -1 -1 -1 -1 -1 -1 -1 -1 -1 -1 -1 -1 -1 -1 -1 -1
 MicOpt= -1 -1 -1 -1 -1 -1 -1 -1 -1 -1 -1 -1 -1 -1 -1 -1 -1 -1 -1 -1
 MicOpt= -1 -1 -1 -1 -1 -1 -1 -1 -1 -1 -1 -1 -1 -1 -1 -1 -1 -1 -1 -1
 MicOpt= -1 -1 -1 -1 -1 -1 -1 -1 -1 -1 -1 -1 -1 -1 -1 -1 -1 -1 -1 -1
 MicOpt= -1 -1 -1 -1 -1 -1 -1 -1 -1 -1 -1 -1 -1 -1 -1 -1 -1 -1 -1 -1
 MicOpt= -1 -1 -1 -1 -1 -1 -1 -1 -1 -1 -1 -1 -1 -1 -1 -1 -1 -1 -1 -1
 NAtoms=    140 NQM=      140 NQMF=       0 NMMI=      0 NMMIF=      0
                NMic=       0 NMicF=      0.
                    Isotopes and Nuclear Properties:
 (Nuclear quadrupole moments (NQMom) in fm**2, nuclear magnetic moments (NMagM)
  in nuclear magnetons)

  Atom         1           2           3           4           5           6           7           8           9          10
 IAtWgt=          24          12          12          12          12          14          12          12          12          12
 AtmWgt=  23.9850450  12.0000000  12.0000000  12.0000000  12.0000000  14.0030740  12.0000000  12.0000000  12.0000000  12.0000000
 NucSpn=           0           0           0           0           0           2           0           0           0           0
 AtZEff=  -0.0000000  -0.0000000  -0.0000000  -0.0000000  -0.0000000  -0.0000000  -0.0000000  -0.0000000  -0.0000000  -0.0000000
 NQMom=    0.0000000   0.0000000   0.0000000   0.0000000   0.0000000   2.0440000   0.0000000   0.0000000   0.0000000   0.0000000
 NMagM=    0.0000000   0.0000000   0.0000000   0.0000000   0.0000000   0.4037610   0.0000000   0.0000000   0.0000000   0.0000000
 AtZNuc=  12.0000000   6.0000000   6.0000000   6.0000000   6.0000000   7.0000000   6.0000000   6.0000000   6.0000000   6.0000000

  Atom        11          12          13          14          15          16          17          18          19          20
 IAtWgt=          12          12          12          12          16          16          14          12          12          12
 AtmWgt=  12.0000000  12.0000000  12.0000000  12.0000000  15.9949146  15.9949146  14.0030740  12.0000000  12.0000000  12.0000000
 NucSpn=           0           0           0           0           0           0           2           0           0           0
 AtZEff=  -0.0000000  -0.0000000  -0.0000000  -0.0000000  -0.0000000  -0.0000000  -0.0000000  -0.0000000  -0.0000000  -0.0000000
 NQMom=    0.0000000   0.0000000   0.0000000   0.0000000   0.0000000   0.0000000   2.0440000   0.0000000   0.0000000   0.0000000
 NMagM=    0.0000000   0.0000000   0.0000000   0.0000000   0.0000000   0.0000000   0.4037610   0.0000000   0.0000000   0.0000000
 AtZNuc=   6.0000000   6.0000000   6.0000000   6.0000000   8.0000000   8.0000000   7.0000000   6.0000000   6.0000000   6.0000000

  Atom        21          22          23          24          25          26          27          28          29          30
 IAtWgt=          12          12          12          16          12          14          12          12          12          12
 AtmWgt=  12.0000000  12.0000000  12.0000000  15.9949146  12.0000000  14.0030740  12.0000000  12.0000000  12.0000000  12.0000000
 NucSpn=           0           0           0           0           0           2           0           0           0           0
 AtZEff=  -0.0000000  -0.0000000  -0.0000000  -0.0000000  -0.0000000  -0.0000000  -0.0000000  -0.0000000  -0.0000000  -0.0000000
 NQMom=    0.0000000   0.0000000   0.0000000   0.0000000   0.0000000   2.0440000   0.0000000   0.0000000   0.0000000   0.0000000
 NMagM=    0.0000000   0.0000000   0.0000000   0.0000000   0.0000000   0.4037610   0.0000000   0.0000000   0.0000000   0.0000000
 AtZNuc=   6.0000000   6.0000000   6.0000000   8.0000000   6.0000000   7.0000000   6.0000000   6.0000000   6.0000000   6.0000000

  Atom        31          32          33          34          35          36          37          38          39          40
 IAtWgt=          12          12          12          14          12          12          12          12          12          12
 AtmWgt=  12.0000000  12.0000000  12.0000000  14.0030740  12.0000000  12.0000000  12.0000000  12.0000000  12.0000000  12.0000000
 NucSpn=           0           0           0           2           0           0           0           0           0           0
 AtZEff=  -0.0000000  -0.0000000  -0.0000000  -0.0000000  -0.0000000  -0.0000000  -0.0000000  -0.0000000  -0.0000000  -0.0000000
 NQMom=    0.0000000   0.0000000   0.0000000   2.0440000   0.0000000   0.0000000   0.0000000   0.0000000   0.0000000   0.0000000
 NMagM=    0.0000000   0.0000000   0.0000000   0.4037610   0.0000000   0.0000000   0.0000000   0.0000000   0.0000000   0.0000000
 AtZNuc=   6.0000000   6.0000000   6.0000000   7.0000000   6.0000000   6.0000000   6.0000000   6.0000000   6.0000000   6.0000000

  Atom        41          42          43          44          45          46          47          48          49          50
 IAtWgt=          16          12          12          16          16          12          12          12          12          12
 AtmWgt=  15.9949146  12.0000000  12.0000000  15.9949146  15.9949146  12.0000000  12.0000000  12.0000000  12.0000000  12.0000000
 NucSpn=           0           0           0           0           0           0           0           0           0           0
 AtZEff=  -0.0000000  -0.0000000  -0.0000000  -0.0000000  -0.0000000  -0.0000000  -0.0000000  -0.0000000  -0.0000000  -0.0000000
 NQMom=    0.0000000   0.0000000   0.0000000   0.0000000   0.0000000   0.0000000   0.0000000   0.0000000   0.0000000   0.0000000
 NMagM=    0.0000000   0.0000000   0.0000000   0.0000000   0.0000000   0.0000000   0.0000000   0.0000000   0.0000000   0.0000000
 AtZNuc=   8.0000000   6.0000000   6.0000000   8.0000000   8.0000000   6.0000000   6.0000000   6.0000000   6.0000000   6.0000000

  Atom        51          52          53          54          55          56          57          58          59          60
 IAtWgt=          12          12          12          12          12          12          12          12          12          12
 AtmWgt=  12.0000000  12.0000000  12.0000000  12.0000000  12.0000000  12.0000000  12.0000000  12.0000000  12.0000000  12.0000000
 NucSpn=           0           0           0           0           0           0           0           0           0           0
 AtZEff=  -0.0000000  -0.0000000  -0.0000000  -0.0000000  -0.0000000  -0.0000000  -0.0000000  -0.0000000  -0.0000000  -0.0000000
 NQMom=    0.0000000   0.0000000   0.0000000   0.0000000   0.0000000   0.0000000   0.0000000   0.0000000   0.0000000   0.0000000
 NMagM=    0.0000000   0.0000000   0.0000000   0.0000000   0.0000000   0.0000000   0.0000000   0.0000000   0.0000000   0.0000000
 AtZNuc=   6.0000000   6.0000000   6.0000000   6.0000000   6.0000000   6.0000000   6.0000000   6.0000000   6.0000000   6.0000000

  Atom        61          62          63          64          65          66          67          68          69          70
 IAtWgt=          12          12          12          12          12          12           1           1           1           1
 AtmWgt=  12.0000000  12.0000000  12.0000000  12.0000000  12.0000000  12.0000000   1.0078250   1.0078250   1.0078250   1.0078250
 NucSpn=           0           0           0           0           0           0           1           1           1           1
 AtZEff=  -0.0000000  -0.0000000  -0.0000000  -0.0000000  -0.0000000  -0.0000000  -0.0000000  -0.0000000  -0.0000000  -0.0000000
 NQMom=    0.0000000   0.0000000   0.0000000   0.0000000   0.0000000   0.0000000   0.0000000   0.0000000   0.0000000   0.0000000
 NMagM=    0.0000000   0.0000000   0.0000000   0.0000000   0.0000000   0.0000000   2.7928460   2.7928460   2.7928460   2.7928460
 AtZNuc=   6.0000000   6.0000000   6.0000000   6.0000000   6.0000000   6.0000000   1.0000000   1.0000000   1.0000000   1.0000000

  Atom        71          72          73          74          75          76          77          78          79          80
 IAtWgt=           1           1           1           1           1           1           1           1           1           1
 AtmWgt=   1.0078250   1.0078250   1.0078250   1.0078250   1.0078250   1.0078250   1.0078250   1.0078250   1.0078250   1.0078250
 NucSpn=           1           1           1           1           1           1           1           1           1           1
 AtZEff=  -0.0000000  -0.0000000  -0.0000000  -0.0000000  -0.0000000  -0.0000000  -0.0000000  -0.0000000  -0.0000000  -0.0000000
 NQMom=    0.0000000   0.0000000   0.0000000   0.0000000   0.0000000   0.0000000   0.0000000   0.0000000   0.0000000   0.0000000
 NMagM=    2.7928460   2.7928460   2.7928460   2.7928460   2.7928460   2.7928460   2.7928460   2.7928460   2.7928460   2.7928460
 AtZNuc=   1.0000000   1.0000000   1.0000000   1.0000000   1.0000000   1.0000000   1.0000000   1.0000000   1.0000000   1.0000000

  Atom        81          82          83          84          85          86          87          88          89          90
 IAtWgt=           1           1           1           1           1           1           1           1           1           1
 AtmWgt=   1.0078250   1.0078250   1.0078250   1.0078250   1.0078250   1.0078250   1.0078250   1.0078250   1.0078250   1.0078250
 NucSpn=           1           1           1           1           1           1           1           1           1           1
 AtZEff=  -0.0000000  -0.0000000  -0.0000000  -0.0000000  -0.0000000  -0.0000000  -0.0000000  -0.0000000  -0.0000000  -0.0000000
 NQMom=    0.0000000   0.0000000   0.0000000   0.0000000   0.0000000   0.0000000   0.0000000   0.0000000   0.0000000   0.0000000
 NMagM=    2.7928460   2.7928460   2.7928460   2.7928460   2.7928460   2.7928460   2.7928460   2.7928460   2.7928460   2.7928460
 AtZNuc=   1.0000000   1.0000000   1.0000000   1.0000000   1.0000000   1.0000000   1.0000000   1.0000000   1.0000000   1.0000000

  Atom        91          92          93          94          95          96          97          98          99         100
 IAtWgt=           1           1           1           1           1           1           1           1           1           1
 AtmWgt=   1.0078250   1.0078250   1.0078250   1.0078250   1.0078250   1.0078250   1.0078250   1.0078250   1.0078250   1.0078250
 NucSpn=           1           1           1           1           1           1           1           1           1           1
 AtZEff=  -0.0000000  -0.0000000  -0.0000000  -0.0000000  -0.0000000  -0.0000000  -0.0000000  -0.0000000  -0.0000000  -0.0000000
 NQMom=    0.0000000   0.0000000   0.0000000   0.0000000   0.0000000   0.0000000   0.0000000   0.0000000   0.0000000   0.0000000
 NMagM=    2.7928460   2.7928460   2.7928460   2.7928460   2.7928460   2.7928460   2.7928460   2.7928460   2.7928460   2.7928460
 AtZNuc=   1.0000000   1.0000000   1.0000000   1.0000000   1.0000000   1.0000000   1.0000000   1.0000000   1.0000000   1.0000000

  Atom       101         102         103         104         105         106         107         108         109         110
 IAtWgt=           1           1           1           1           1           1           1           1           1           1
 AtmWgt=   1.0078250   1.0078250   1.0078250   1.0078250   1.0078250   1.0078250   1.0078250   1.0078250   1.0078250   1.0078250
 NucSpn=           1           1           1           1           1           1           1           1           1           1
 AtZEff=  -0.0000000  -0.0000000  -0.0000000  -0.0000000  -0.0000000  -0.0000000  -0.0000000  -0.0000000  -0.0000000  -0.0000000
 NQMom=    0.0000000   0.0000000   0.0000000   0.0000000   0.0000000   0.0000000   0.0000000   0.0000000   0.0000000   0.0000000
 NMagM=    2.7928460   2.7928460   2.7928460   2.7928460   2.7928460   2.7928460   2.7928460   2.7928460   2.7928460   2.7928460
 AtZNuc=   1.0000000   1.0000000   1.0000000   1.0000000   1.0000000   1.0000000   1.0000000   1.0000000   1.0000000   1.0000000

  Atom       111         112         113         114         115         116         117         118         119         120
 IAtWgt=           1           1           1           1           1           1           1           1           1           1
 AtmWgt=   1.0078250   1.0078250   1.0078250   1.0078250   1.0078250   1.0078250   1.0078250   1.0078250   1.0078250   1.0078250
 NucSpn=           1           1           1           1           1           1           1           1           1           1
 AtZEff=  -0.0000000  -0.0000000  -0.0000000  -0.0000000  -0.0000000  -0.0000000  -0.0000000  -0.0000000  -0.0000000  -0.0000000
 NQMom=    0.0000000   0.0000000   0.0000000   0.0000000   0.0000000   0.0000000   0.0000000   0.0000000   0.0000000   0.0000000
 NMagM=    2.7928460   2.7928460   2.7928460   2.7928460   2.7928460   2.7928460   2.7928460   2.7928460   2.7928460   2.7928460
 AtZNuc=   1.0000000   1.0000000   1.0000000   1.0000000   1.0000000   1.0000000   1.0000000   1.0000000   1.0000000   1.0000000

  Atom       121         122         123         124         125         126         127         128         129         130
 IAtWgt=           1           1           1           1           1           1           1           1           1           1
 AtmWgt=   1.0078250   1.0078250   1.0078250   1.0078250   1.0078250   1.0078250   1.0078250   1.0078250   1.0078250   1.0078250
 NucSpn=           1           1           1           1           1           1           1           1           1           1
 AtZEff=  -0.0000000  -0.0000000  -0.0000000  -0.0000000  -0.0000000  -0.0000000  -0.0000000  -0.0000000  -0.0000000  -0.0000000
 NQMom=    0.0000000   0.0000000   0.0000000   0.0000000   0.0000000   0.0000000   0.0000000   0.0000000   0.0000000   0.0000000
 NMagM=    2.7928460   2.7928460   2.7928460   2.7928460   2.7928460   2.7928460   2.7928460   2.7928460   2.7928460   2.7928460
 AtZNuc=   1.0000000   1.0000000   1.0000000   1.0000000   1.0000000   1.0000000   1.0000000   1.0000000   1.0000000   1.0000000

  Atom       131         132         133         134         135         136         137         138         139         140
 IAtWgt=           1           1           1           1           1           1           1           1           1           1
 AtmWgt=   1.0078250   1.0078250   1.0078250   1.0078250   1.0078250   1.0078250   1.0078250   1.0078250   1.0078250   1.0078250
 NucSpn=           1           1           1           1           1           1           1           1           1           1
 AtZEff=  -0.0000000  -0.0000000  -0.0000000  -0.0000000  -0.0000000  -0.0000000  -0.0000000  -0.0000000  -0.0000000  -0.0000000
 NQMom=    0.0000000   0.0000000   0.0000000   0.0000000   0.0000000   0.0000000   0.0000000   0.0000000   0.0000000   0.0000000
 NMagM=    2.7928460   2.7928460   2.7928460   2.7928460   2.7928460   2.7928460   2.7928460   2.7928460   2.7928460   2.7928460
 AtZNuc=   1.0000000   1.0000000   1.0000000   1.0000000   1.0000000   1.0000000   1.0000000   1.0000000   1.0000000   1.0000000
 Leave Link  101 at Wed Apr 27 13:16:27 2022, MaxMem= 10066329600 cpu:               4.7 elap:               0.2
 (Enter /sw/apps/gaussian-16.0/g16/l202.exe)
 Stoichiometry    C55H74MgN4O6
 Framework group  C1[X(C55H74MgN4O6)]
 Deg. of freedom   414
 Full point group                 C1      NOp   1
 Largest Abelian subgroup         C1      NOp   1
 Largest concise Abelian subgroup C1      NOp   1
                         Standard orientation:                         
 ---------------------------------------------------------------------
 Center     Atomic      Atomic             Coordinates (Angstroms)
 Number     Number       Type             X           Y           Z
 ---------------------------------------------------------------------
      1         12           0        4.786143    1.175198   -0.598187
      2          6           0        4.867169   -2.259059   -0.691379
      3          6           0        2.218988    1.060111   -2.940631
      4          6           0        3.981943    4.311997    0.235896
      5          6           0        6.825999    0.974242    2.305603
      6          7           0        3.612560   -0.434613   -1.549088
      7          6           0        3.862866   -1.775336   -1.546955
      8          6           0        2.923702   -2.576918   -2.454887
      9          6           0        2.256671   -1.466892   -3.300124
     10          6           0        2.772609   -0.159081   -2.602376
     11          6           0        2.508655   -1.527125   -4.865306
     12          6           0        1.941853   -3.573471   -1.667119
     13          6           0        1.642505   -3.435938   -0.155251
     14          6           0        0.189672   -3.711321    0.439196
     15          8           0       -0.763654   -3.928729   -0.263696
     16          8           0        0.136889   -3.659859    1.847868
     17          7           0        3.506669    2.524743   -1.414126
     18          6           0        2.541383    2.305332   -2.353851
     19          6           0        1.969339    3.531620   -2.747082
     20          6           0        2.516781    4.530971   -1.933192
     21          6           0        3.336952    3.831321   -0.959740
     22          6           0        1.013204    3.554139   -3.836474
     23          6           0        2.293477    6.039608   -2.008631
     24          8           0        1.563222    6.491869   -2.875559
     25          6           0        2.826110    7.004310   -0.989611
     26          7           0        5.236599    2.400335    1.098630
     27          6           0        4.903527    3.734268    1.072572
     28          6           0        5.544874    4.497555    2.243623
     29          6           0        6.365353    3.365845    2.955438
     30          6           0        6.172921    2.173237    2.062718
     31          6           0        6.407428    5.765157    1.745133
     32          6           0        6.045734    3.129352    4.468825
     33          6           0        7.313321    3.313985    5.325856
     34          7           0        5.761349   -0.253163    0.529063
     35          6           0        6.567304   -0.217885    1.677371
     36          6           0        7.059881   -1.580019    1.932832
     37          6           0        6.438293   -2.358693    1.047743
     38          6           0        5.644222   -1.536454    0.203751
     39          6           0        8.108673   -1.965997    2.972855
     40          6           0        6.274381   -3.725135    0.613798
     41          8           0        6.784376   -4.765606    1.152143
     42          6           0        5.351198   -3.744341   -0.591159
     43          6           0        6.183116   -4.206876   -1.800338
     44          8           0        6.698000   -5.314654   -2.016295
     45          8           0        6.150891   -3.238626   -2.792716
     46          6           0        6.650587   -3.526052   -4.190508
     47          6           0       -1.167307   -3.952884    2.513592
     48          6           0       -2.056976   -2.713536    2.287971
     49          6           0       -3.137268   -2.349960    2.958462
     50          6           0       -3.739499   -3.075125    4.183919
     51          6           0       -4.020744   -1.287023    2.349505
     52          6           0       -4.727453   -1.764823    0.991857
     53          6           0       -6.234546   -1.611310    0.808912
     54          6           0       -6.711984   -0.157365    1.113572
     55          6           0       -7.698656   -0.174098    2.293143
     56          6           0       -7.284460    0.561932   -0.096750
     57          6           0       -8.575826    0.060777   -0.672159
     58          6           0       -9.729885    1.093131   -0.793658
     59          6           0      -11.086764    0.465939   -0.980114
     60          6           0      -11.544805    0.558397   -2.462707
     61          6           0      -12.207023    1.118956   -0.092723
     62          6           0      -13.263792    0.091831    0.284555
     63          6           0      -14.536171    0.803725    0.837290
     64          6           0      -15.756761    0.418063    0.036934
     65          6           0      -16.757860    1.607721   -0.243725
     66          6           0      -16.594703   -0.682447    0.729662
     67          1           0        1.404390    0.993877   -3.664572
     68          1           0        3.969071    5.342352    0.596610
     69          1           0        7.440241    1.016812    3.208157
     70          1           0        3.553352   -3.219514   -3.070000
     71          1           0        1.182192   -1.564130   -3.145230
     72          1           0        2.209701   -2.530141   -5.171253
     73          1           0        3.539745   -1.313600   -5.147521
     74          1           0        1.839356   -0.825907   -5.364839
     75          1           0        2.280819   -4.588448   -1.873082
     76          1           0        0.923341   -3.483903   -2.043551
     77          1           0        2.039430   -2.505215    0.249834
     78          1           0        2.335792   -4.073781    0.392482
     79          1           0        0.930594    4.507096   -4.359115
     80          1           0        0.135759    3.115309   -3.360376
     81          1           0        1.337050    2.863329   -4.614465
     82          1           0        3.904816    6.918175   -0.857448
     83          1           0        2.360149    6.770578   -0.031866
     84          1           0        2.556338    8.010334   -1.309021
     85          1           0        4.748027    4.961440    2.823996
     86          1           0        7.419795    3.589719    2.791335
     87          1           0        5.755984    6.625301    1.587115
     88          1           0        6.984431    5.565828    0.842420
     89          1           0        7.162465    6.021002    2.488187
     90          1           0        5.710054    2.103740    4.621164
     91          1           0        5.193109    3.752351    4.736376
     92          1           0        8.150402    3.763500    4.791212
     93          1           0        7.673451    2.337034    5.648315
     94          1           0        7.086418    3.906142    6.211933
     95          1           0        9.134551   -1.752474    2.673941
     96          1           0        8.076129   -3.042038    3.141774
     97          1           0        7.933967   -1.469902    3.927268
     98          1           0        4.606862   -4.506617   -0.362653
     99          1           0        6.077214   -4.374436   -4.562615
    100          1           0        7.710023   -3.776764   -4.264670
    101          1           0        6.427502   -2.732866   -4.903376
    102          1           0       -0.978960   -4.084337    3.579848
    103          1           0       -1.481216   -4.906936    2.088880
    104          1           0       -1.693083   -2.039832    1.512060
    105          1           0       -4.776004   -3.394892    4.082103
    106          1           0       -3.795427   -2.406066    5.041943
    107          1           0       -3.130206   -3.963240    4.354381
    108          1           0       -3.341516   -0.467326    2.115267
    109          1           0       -4.675225   -0.836476    3.095818
    110          1           0       -4.496724   -2.815070    0.813940
    111          1           0       -4.313141   -1.140414    0.199672
    112          1           0       -6.727897   -2.255051    1.537740
    113          1           0       -6.526152   -2.015253   -0.160730
    114          1           0       -5.861893    0.409400    1.493823
    115          1           0       -8.595581   -0.762277    2.101248
    116          1           0       -8.096262    0.828784    2.447346
    117          1           0       -7.158014   -0.431074    3.204873
    118          1           0       -6.517227    0.442965   -0.861771
    119          1           0       -7.457747    1.618005    0.108509
    120          1           0       -9.007978   -0.800779   -0.163813
    121          1           0       -8.383950   -0.507496   -1.581978
    122          1           0       -9.439671    1.797229   -1.573879
    123          1           0       -9.745996    1.558352    0.191735
    124          1           0      -11.050828   -0.560399   -0.614650
    125          1           0      -11.709501   -0.486931   -2.723428
    126          1           0      -10.762503    0.874371   -3.153429
    127          1           0      -12.430891    1.175253   -2.608711
    128          1           0      -12.643455    1.945955   -0.652932
    129          1           0      -11.816238    1.573040    0.818103
    130          1           0      -13.055005   -0.504622    1.172364
    131          1           0      -13.521515   -0.653636   -0.467817
    132          1           0      -14.367408    1.878224    0.766879
    133          1           0      -14.625530    0.560220    1.896472
    134          1           0      -15.431203   -0.038752   -0.898642
    135          1           0      -16.785164    1.943923   -1.280150
    136          1           0      -16.370751    2.508763    0.232161
    137          1           0      -17.750226    1.334508    0.114981
    138          1           0      -16.994504   -1.491268    0.119209
    139          1           0      -17.314512   -0.272201    1.437805
    140          1           0      -15.904413   -1.187674    1.404438
 ---------------------------------------------------------------------
 Rotational constants (GHZ):           0.0390278           0.0105416           0.0096998
 Leave Link  202 at Wed Apr 27 13:16:28 2022, MaxMem= 10066329600 cpu:               0.2 elap:               0.0
 (Enter /sw/apps/gaussian-16.0/g16/l301.exe)
 Standard basis: def2SVP (5D, 7F)
 Ernie: Thresh=  0.10000D-02 Tol=  0.10000D-05 Strict=F.
 There are  1364 symmetry adapted cartesian basis functions of A   symmetry.
 There are  1298 symmetry adapted basis functions of A   symmetry.
  1298 basis functions,  2180 primitive gaussians,  1364 cartesian basis functions
   246 alpha electrons      246 beta electrons
       nuclear repulsion energy      9645.7159051548 Hartrees.
 IExCor=20419 DFT=T Ex+Corr=CAM-B3LYP ExCW=0 ScaHFX=  1.000000
 ScaDFX=  1.000000  1.000000  1.000000  0.810000 ScalE2=  1.000000  1.000000
 IRadAn=      5 IRanWt=     -1 IRanGd=            0 ICorTp=0 IEmpDi=  4
 HFx  wShort=  0.000000 wLong=  0.330000 cFull=  0.190000 cShort=  0.000000 cLong=  0.460000
 DFx  wShort=  0.000000 wLong=  0.330000 cFull=  0.190000 cShort=  0.000000 cLong=  0.460000
 NAtoms=  140 NActive=  140 NUniq=  140 SFac= 1.00D+00 NAtFMM=   60 NAOKFM=T Big=T
 Integral buffers will be    131072 words long.
 Raffenetti 1 integral format.
 Two-electron integral symmetry is turned on.
 Leave Link  301 at Wed Apr 27 13:16:28 2022, MaxMem= 10066329600 cpu:               2.0 elap:               0.1
 (Enter /sw/apps/gaussian-16.0/g16/l302.exe)
 NPDir=0 NMtPBC=     1 NCelOv=     1 NCel=       1 NClECP=     1 NCelD=      1
         NCelK=      1 NCelE2=     1 NClLst=     1 CellRange=     0.0.
 One-electron integrals computed using PRISM.
 One-electron integral symmetry used in STVInt
   1 Symmetry operations used in ECPInt.
 ECPInt:  NShTT=  192510 NPrTT=  683786 LenC2=   97535 LenP2D=  211852.
 LDataN:  DoStor=T MaxTD1= 4 Len=   56
 NBasis=  1298 RedAO= T EigKep=  2.32D-04  NBF=  1298
 NBsUse=  1298 1.00D-06 EigRej= -1.00D+00 NBFU=  1298
 Precomputing XC quadrature grid using
 IXCGrd= 4 IRadAn=           5 IRanWt=          -1 IRanGd=           0 AccXCQ= 0.00D+00.
 Generated NRdTot=       0 NPtTot=           0 NUsed=           0 NTot=          32
 NSgBfM=  1017  1017  1017  1017  1017 MxSgAt=   140 MxSgA2=   140.
 Leave Link  302 at Wed Apr 27 13:16:31 2022, MaxMem= 10066329600 cpu:              86.9 elap:               3.7
 (Enter /sw/apps/gaussian-16.0/g16/l303.exe)
 DipDrv:  MaxL=1.
 Leave Link  303 at Wed Apr 27 13:16:32 2022, MaxMem= 10066329600 cpu:               5.8 elap:               0.3
 (Enter /sw/apps/gaussian-16.0/g16/l308.exe)
 Leave Link  308 at Wed Apr 27 13:16:32 2022, MaxMem= 10066329600 cpu:               8.2 elap:               0.4
 (Enter /sw/apps/gaussian-16.0/g16/l401.exe)
 ExpMin= 3.36D-02 ExpMax= 4.95D+03 ExpMxC= 7.45D+02 IAcc=3 IRadAn=         5 AccDes= 0.00D+00
 Harris functional with IExCor=20419 and IRadAn=       5 diagonalized for initial guess.
 HarFok:  IExCor=20419 AccDes= 0.00D+00 IRadAn=         5 IDoV= 1 UseB2=F ITyADJ=14
 ICtDFT=  3500011 ScaDFX=  1.000000  1.000000  1.000000  1.000000
 FoFCou: FMM=F IPFlag=           0 FMFlag=      100000 FMFlg1=        2001
         NFxFlg=           0 DoJE=T BraDBF=F KetDBF=T FulRan=T
         wScrn=  0.000000 ICntrl=       500 IOpCl=  0 I1Cent=   200000004 NGrid=           0
         NMat0=    1 NMatS0=      1 NMatT0=    0 NMatD0=    1 NMtDS0=    0 NMtDT0=    0
 Petite list used in FoFCou.
 Harris En= -2890.88667621834    
 JPrj=0 DoOrth=F DoCkMO=F.
 Leave Link  401 at Wed Apr 27 13:16:38 2022, MaxMem= 10066329600 cpu:             145.1 elap:               6.1
 (Enter /sw/apps/gaussian-16.0/g16/l502.exe)
 Integral symmetry usage will be decided dynamically.
 Closed shell SCF:
 Using DIIS extrapolation, IDIIS=  1040.
 NGot= 10066329600 LenX= 10062561258 LenY= 10060699398
 Requested convergence on RMS density matrix=1.00D-08 within 128 cycles.
 Requested convergence on MAX density matrix=1.00D-06.
 Requested convergence on             energy=1.00D-06.
 No special actions if energy rises.
 Fock matrices will be formed incrementally for  20 cycles.

 Cycle   1  Pass 1  IDiag  1:
 FoFJK:  IHMeth= 1 ICntrl=       0 DoSepK=T KAlg= 0 I1Cent=           0 FoldK=F
 IRaf=         1 NMat=       1 IRICut=       1 DoRegI=T DoRafI=F ISym2E= 0 IDoP0=0 IntGTp=1.
 FoFCou: FMM=T IPFlag=           0 FMFlag=      100000 FMFlg1=        2001
         NFxFlg=           0 DoJE=T BraDBF=F KetDBF=F FulRan=T
         wScrn=  0.000000 ICntrl=       500 IOpCl=  0 I1Cent=           0 NGrid=           0
         NMat0=    1 NMatS0=      1 NMatT0=    0 NMatD0=    1 NMtDS0=    0 NMtDT0=    0
 Symmetry not used in FoFCou.
 FMM levels:  10  Number of levels for PrismC:   9
 E= -3006.50318921829    
 DIIS: error= 1.46D-02 at cycle   1 NSaved=   1.
 NSaved= 1 IEnMin= 1 EnMin= -3006.50318921829     IErMin= 1 ErrMin= 1.46D-02
 ErrMax= 1.46D-02  0.00D+00 EMaxC= 1.00D-01 BMatC= 1.27D+00 BMatP= 1.27D+00
 IDIUse=3 WtCom= 8.54D-01 WtEn= 1.46D-01
 Coeff-Com:  0.100D+01
 Coeff-En:   0.100D+01
 Coeff:      0.100D+01
 Gap=     0.120 Goal=   None    Shift=    0.000
 GapD=    0.120 DampG=1.000 DampE=0.500 DampFc=0.5000 IDamp=-1.
 Damping current iteration by 5.00D-01
 RMSDP=1.58D-03 MaxDP=1.26D-01              OVMax= 1.98D-01

 Cycle   2  Pass 1  IDiag  1:
 RMSU=  7.77D-04    CP:  9.85D-01
 E= -3006.81053123062     Delta-E=       -0.307342012331 Rises=F Damp=T
 DIIS: error= 8.69D-03 at cycle   2 NSaved=   2.
 NSaved= 2 IEnMin= 2 EnMin= -3006.81053123062     IErMin= 2 ErrMin= 8.69D-03
 ErrMax= 8.69D-03  0.00D+00 EMaxC= 1.00D-01 BMatC= 2.35D-01 BMatP= 1.27D+00
 IDIUse=3 WtCom= 9.13D-01 WtEn= 8.69D-02
 Coeff-Com: -0.211D+00 0.121D+01
 Coeff-En:   0.000D+00 0.100D+01
 Coeff:     -0.192D+00 0.119D+01
 Gap=     0.142 Goal=   None    Shift=    0.000
 RMSDP=7.60D-04 MaxDP=5.92D-02 DE=-3.07D-01 OVMax= 1.89D-01

 Cycle   3  Pass 1  IDiag  1:
 RMSU=  7.47D-04    CP:  9.74D-01  1.12D+00
 E= -3007.02749971208     Delta-E=       -0.216968481462 Rises=F Damp=F
 DIIS: error= 1.51D-02 at cycle   3 NSaved=   3.
 NSaved= 3 IEnMin= 3 EnMin= -3007.02749971208     IErMin= 2 ErrMin= 8.69D-03
 ErrMax= 1.51D-02  0.00D+00 EMaxC= 1.00D-01 BMatC= 1.72D-01 BMatP= 2.35D-01
 IDIUse=3 WtCom= 8.49D-01 WtEn= 1.51D-01
 Coeff-Com: -0.271D+00 0.674D+00 0.597D+00
 Coeff-En:   0.000D+00 0.000D+00 0.100D+01
 Coeff:     -0.230D+00 0.572D+00 0.658D+00
 Gap=     0.124 Goal=   None    Shift=    0.000
 RMSDP=5.39D-04 MaxDP=5.91D-02 DE=-2.17D-01 OVMax= 1.36D-01

 Cycle   4  Pass 1  IDiag  1:
 RMSU=  2.88D-04    CP:  9.71D-01  1.48D+00  5.22D-01
 E= -3007.13716828158     Delta-E=       -0.109668569494 Rises=F Damp=F
 DIIS: error= 8.03D-03 at cycle   4 NSaved=   4.
 NSaved= 4 IEnMin= 4 EnMin= -3007.13716828158     IErMin= 4 ErrMin= 8.03D-03
 ErrMax= 8.03D-03  0.00D+00 EMaxC= 1.00D-01 BMatC= 4.73D-02 BMatP= 1.72D-01
 IDIUse=3 WtCom= 9.20D-01 WtEn= 8.03D-02
 Coeff-Com: -0.114D+00 0.235D+00 0.409D+00 0.470D+00
 Coeff-En:   0.000D+00 0.000D+00 0.239D+00 0.761D+00
 Coeff:     -0.105D+00 0.216D+00 0.395D+00 0.493D+00
 Gap=     0.124 Goal=   None    Shift=    0.000
 RMSDP=2.18D-04 MaxDP=3.12D-02 DE=-1.10D-01 OVMax= 6.91D-02

 Cycle   5  Pass 1  IDiag  1:
 RMSU=  9.65D-05    CP:  9.70D-01  1.41D+00  6.96D-01  5.28D-01
 E= -3007.17724902967     Delta-E=       -0.040080748096 Rises=F Damp=F
 DIIS: error= 1.17D-03 at cycle   5 NSaved=   5.
 NSaved= 5 IEnMin= 5 EnMin= -3007.17724902967     IErMin= 5 ErrMin= 1.17D-03
 ErrMax= 1.17D-03  0.00D+00 EMaxC= 1.00D-01 BMatC= 1.58D-03 BMatP= 4.73D-02
 IDIUse=3 WtCom= 9.88D-01 WtEn= 1.17D-02
 Coeff-Com: -0.469D-01 0.928D-01 0.197D+00 0.280D+00 0.477D+00
 Coeff-En:   0.000D+00 0.000D+00 0.000D+00 0.000D+00 0.100D+01
 Coeff:     -0.464D-01 0.917D-01 0.195D+00 0.277D+00 0.483D+00
 Gap=     0.123 Goal=   None    Shift=    0.000
 RMSDP=5.35D-05 MaxDP=1.10D-02 DE=-4.01D-02 OVMax= 1.91D-02

 Cycle   6  Pass 1  IDiag  1:
 RMSU=  3.30D-05    CP:  9.70D-01  1.42D+00  6.93D-01  5.91D-01  6.09D-01
 E= -3007.17865026171     Delta-E=       -0.001401232037 Rises=F Damp=F
 DIIS: error= 4.07D-04 at cycle   6 NSaved=   6.
 NSaved= 6 IEnMin= 6 EnMin= -3007.17865026171     IErMin= 6 ErrMin= 4.07D-04
 ErrMax= 4.07D-04  0.00D+00 EMaxC= 1.00D-01 BMatC= 1.63D-04 BMatP= 1.58D-03
 IDIUse=3 WtCom= 9.96D-01 WtEn= 4.07D-03
 Coeff-Com:  0.186D-02-0.586D-02 0.106D-01 0.350D-01 0.260D+00 0.698D+00
 Coeff-En:   0.000D+00 0.000D+00 0.000D+00 0.000D+00 0.690D-01 0.931D+00
 Coeff:      0.185D-02-0.584D-02 0.106D-01 0.348D-01 0.260D+00 0.699D+00
 Gap=     0.124 Goal=   None    Shift=    0.000
 RMSDP=2.08D-05 MaxDP=5.12D-03 DE=-1.40D-03 OVMax= 8.97D-03

 Cycle   7  Pass 1  IDiag  1:
 RMSU=  1.25D-05    CP:  9.70D-01  1.42D+00  6.99D-01  5.94D-01  7.53D-01
                    CP:  7.72D-01
 E= -3007.17882042000     Delta-E=       -0.000170158288 Rises=F Damp=F
 DIIS: error= 1.21D-04 at cycle   7 NSaved=   7.
 NSaved= 7 IEnMin= 7 EnMin= -3007.17882042000     IErMin= 7 ErrMin= 1.21D-04
 ErrMax= 1.21D-04  0.00D+00 EMaxC= 1.00D-01 BMatC= 2.16D-05 BMatP= 1.63D-04
 IDIUse=3 WtCom= 9.99D-01 WtEn= 1.21D-03
 Coeff-Com:  0.479D-02-0.104D-01-0.103D-01-0.649D-02 0.904D-01 0.368D+00
 Coeff-Com:  0.565D+00
 Coeff-En:   0.000D+00 0.000D+00 0.000D+00 0.000D+00 0.000D+00 0.000D+00
 Coeff-En:   0.100D+01
 Coeff:      0.479D-02-0.104D-01-0.103D-01-0.648D-02 0.903D-01 0.367D+00
 Coeff:      0.565D+00
 Gap=     0.124 Goal=   None    Shift=    0.000
 RMSDP=5.99D-06 MaxDP=7.82D-04 DE=-1.70D-04 OVMax= 1.76D-03

 Cycle   8  Pass 1  IDiag  1:
 RMSU=  4.80D-06    CP:  9.70D-01  1.42D+00  7.01D-01  5.96D-01  7.53D-01
                    CP:  8.61D-01  8.58D-01
 E= -3007.17884343286     Delta-E=       -0.000023012863 Rises=F Damp=F
 DIIS: error= 4.61D-05 at cycle   8 NSaved=   8.
 NSaved= 8 IEnMin= 8 EnMin= -3007.17884343286     IErMin= 8 ErrMin= 4.61D-05
 ErrMax= 4.61D-05  0.00D+00 EMaxC= 1.00D-01 BMatC= 2.67D-06 BMatP= 2.16D-05
 IDIUse=1 WtCom= 1.00D+00 WtEn= 0.00D+00
 Coeff-Com:  0.222D-02-0.437D-02-0.767D-02-0.115D-01-0.962D-02 0.440D-01
 Coeff-Com:  0.265D+00 0.722D+00
 Coeff:      0.222D-02-0.437D-02-0.767D-02-0.115D-01-0.962D-02 0.440D-01
 Coeff:      0.265D+00 0.722D+00
 Gap=     0.124 Goal=   None    Shift=    0.000
 RMSDP=3.66D-06 MaxDP=6.39D-04 DE=-2.30D-05 OVMax= 1.89D-03

 Cycle   9  Pass 1  IDiag  1:
 RMSU=  2.28D-06    CP:  9.70D-01  1.42D+00  7.01D-01  5.97D-01  7.69D-01
                    CP:  8.86D-01  1.03D+00  1.03D+00
 E= -3007.17884897147     Delta-E=       -0.000005538615 Rises=F Damp=F
 DIIS: error= 1.56D-05 at cycle   9 NSaved=   9.
 NSaved= 9 IEnMin= 9 EnMin= -3007.17884897147     IErMin= 9 ErrMin= 1.56D-05
 ErrMax= 1.56D-05  0.00D+00 EMaxC= 1.00D-01 BMatC= 6.36D-07 BMatP= 2.67D-06
 IDIUse=1 WtCom= 1.00D+00 WtEn= 0.00D+00
 Coeff-Com:  0.417D-03-0.674D-03-0.238D-02-0.521D-02-0.206D-01-0.353D-01
 Coeff-Com:  0.437D-01 0.375D+00 0.645D+00
 Coeff:      0.417D-03-0.674D-03-0.238D-02-0.521D-02-0.206D-01-0.353D-01
 Coeff:      0.437D-01 0.375D+00 0.645D+00
 Gap=     0.124 Goal=   None    Shift=    0.000
 RMSDP=1.79D-06 MaxDP=9.87D-05 DE=-5.54D-06 OVMax= 9.22D-04

 Cycle  10  Pass 1  IDiag  1:
 RMSU=  1.06D-06    CP:  9.70D-01  1.42D+00  7.01D-01  5.97D-01  7.73D-01
                    CP:  8.97D-01  1.09D+00  1.25D+00  1.13D+00
 E= -3007.17885080062     Delta-E=       -0.000001829143 Rises=F Damp=F
 DIIS: error= 8.67D-06 at cycle  10 NSaved=  10.
 NSaved=10 IEnMin=10 EnMin= -3007.17885080062     IErMin=10 ErrMin= 8.67D-06
 ErrMax= 8.67D-06  0.00D+00 EMaxC= 1.00D-01 BMatC= 1.21D-07 BMatP= 6.36D-07
 IDIUse=1 WtCom= 1.00D+00 WtEn= 0.00D+00
 Coeff-Com: -0.574D-03 0.119D-02 0.159D-02 0.161D-02-0.714D-02-0.299D-01
 Coeff-Com: -0.733D-01-0.525D-01 0.207D+00 0.952D+00
 Coeff:     -0.574D-03 0.119D-02 0.159D-02 0.161D-02-0.714D-02-0.299D-01
 Coeff:     -0.733D-01-0.525D-01 0.207D+00 0.952D+00
 Gap=     0.124 Goal=   None    Shift=    0.000
 RMSDP=1.78D-06 MaxDP=1.53D-04 DE=-1.83D-06 OVMax= 1.22D-03

 Cycle  11  Pass 1  IDiag  1:
 RMSU=  7.06D-07    CP:  9.70D-01  1.42D+00  7.02D-01  5.97D-01  7.77D-01
                    CP:  9.05D-01  1.16D+00  1.41D+00  1.57D+00  1.40D+00
 E= -3007.17885180036     Delta-E=       -0.000000999746 Rises=F Damp=F
 DIIS: error= 5.96D-06 at cycle  11 NSaved=  11.
 NSaved=11 IEnMin=11 EnMin= -3007.17885180036     IErMin=11 ErrMin= 5.96D-06
 ErrMax= 5.96D-06  0.00D+00 EMaxC= 1.00D-01 BMatC= 9.14D-08 BMatP= 1.21D-07
 IDIUse=1 WtCom= 1.00D+00 WtEn= 0.00D+00
 Coeff-Com: -0.430D-03 0.838D-03 0.153D-02 0.245D-02 0.150D-02-0.479D-02
 Coeff-Com: -0.567D-01-0.134D+00-0.134D+00 0.601D+00 0.722D+00
 Coeff:     -0.430D-03 0.838D-03 0.153D-02 0.245D-02 0.150D-02-0.479D-02
 Coeff:     -0.567D-01-0.134D+00-0.134D+00 0.601D+00 0.722D+00
 Gap=     0.124 Goal=   None    Shift=    0.000
 RMSDP=1.07D-06 MaxDP=5.16D-05 DE=-1.00D-06 OVMax= 6.05D-04

 Cycle  12  Pass 1  IDiag  1:
 RMSU=  3.22D-07    CP:  9.70D-01  1.42D+00  7.02D-01  5.97D-01  7.79D-01
                    CP:  9.09D-01  1.18D+00  1.52D+00  1.78D+00  1.91D+00
                    CP:  1.21D+00
 E= -3007.17885218508     Delta-E=       -0.000000384713 Rises=F Damp=F
 DIIS: error= 4.14D-06 at cycle  12 NSaved=  12.
 NSaved=12 IEnMin=12 EnMin= -3007.17885218508     IErMin=12 ErrMin= 4.14D-06
 ErrMax= 4.14D-06  0.00D+00 EMaxC= 1.00D-01 BMatC= 1.59D-08 BMatP= 9.14D-08
 IDIUse=1 WtCom= 1.00D+00 WtEn= 0.00D+00
 Coeff-Com: -0.631D-05-0.797D-05 0.167D-03 0.650D-03 0.262D-02 0.948D-02
 Coeff-Com: -0.101D-02-0.325D-01-0.147D+00 0.203D-01 0.234D+00 0.914D+00
 Coeff:     -0.631D-05-0.797D-05 0.167D-03 0.650D-03 0.262D-02 0.948D-02
 Coeff:     -0.101D-02-0.325D-01-0.147D+00 0.203D-01 0.234D+00 0.914D+00
 Gap=     0.124 Goal=   None    Shift=    0.000
 RMSDP=6.35D-07 MaxDP=2.91D-05 DE=-3.85D-07 OVMax= 4.73D-04

 Cycle  13  Pass 1  IDiag  1:
 RMSU=  2.15D-07    CP:  9.70D-01  1.42D+00  7.02D-01  5.97D-01  7.79D-01
                    CP:  9.09D-01  1.20D+00  1.57D+00  1.93D+00  2.19D+00
                    CP:  1.62D+00  1.20D+00
 E= -3007.17885229197     Delta-E=       -0.000000106893 Rises=F Damp=F
 DIIS: error= 2.17D-06 at cycle  13 NSaved=  13.
 NSaved=13 IEnMin=13 EnMin= -3007.17885229197     IErMin=13 ErrMin= 2.17D-06
 ErrMax= 2.17D-06  0.00D+00 EMaxC= 1.00D-01 BMatC= 1.03D-08 BMatP= 1.59D-08
 IDIUse=1 WtCom= 1.00D+00 WtEn= 0.00D+00
 Coeff-Com:  0.124D-03-0.256D-03-0.376D-03-0.337D-03 0.745D-03 0.740D-02
 Coeff-Com:  0.162D-01 0.236D-01-0.543D-01-0.178D+00-0.165D+00 0.595D+00
 Coeff-Com:  0.756D+00
 Coeff:      0.124D-03-0.256D-03-0.376D-03-0.337D-03 0.745D-03 0.740D-02
 Coeff:      0.162D-01 0.236D-01-0.543D-01-0.178D+00-0.165D+00 0.595D+00
 Coeff:      0.756D+00
 Gap=     0.124 Goal=   None    Shift=    0.000
 RMSDP=4.20D-07 MaxDP=2.05D-05 DE=-1.07D-07 OVMax= 2.35D-04

 Cycle  14  Pass 1  IDiag  1:
 RMSU=  8.52D-08    CP:  9.70D-01  1.42D+00  7.02D-01  5.97D-01  7.79D-01
                    CP:  9.10D-01  1.20D+00  1.61D+00  2.01D+00  2.40D+00
                    CP:  1.81D+00  1.67D+00  1.08D+00
 E= -3007.17885232938     Delta-E=       -0.000000037413 Rises=F Damp=F
 DIIS: error= 9.94D-07 at cycle  14 NSaved=  14.
 NSaved=14 IEnMin=14 EnMin= -3007.17885232938     IErMin=14 ErrMin= 9.94D-07
 ErrMax= 9.94D-07  0.00D+00 EMaxC= 1.00D-01 BMatC= 1.04D-09 BMatP= 1.03D-08
 IDIUse=1 WtCom= 1.00D+00 WtEn= 0.00D+00
 Coeff-Com:  0.647D-04-0.128D-03-0.236D-03-0.315D-03-0.397D-03 0.166D-02
 Coeff-Com:  0.765D-02 0.200D-01 0.655D-02-0.735D-01-0.137D+00 0.114D+00
 Coeff-Com:  0.323D+00 0.739D+00
 Coeff:      0.647D-04-0.128D-03-0.236D-03-0.315D-03-0.397D-03 0.166D-02
 Coeff:      0.765D-02 0.200D-01 0.655D-02-0.735D-01-0.137D+00 0.114D+00
 Coeff:      0.323D+00 0.739D+00
 Gap=     0.124 Goal=   None    Shift=    0.000
 RMSDP=1.02D-07 MaxDP=9.28D-06 DE=-3.74D-08 OVMax= 7.09D-05

 Cycle  15  Pass 1  IDiag  1:
 RMSU=  4.44D-08    CP:  9.70D-01  1.42D+00  7.02D-01  5.97D-01  7.79D-01
                    CP:  9.10D-01  1.20D+00  1.61D+00  2.02D+00  2.44D+00
                    CP:  1.89D+00  1.78D+00  1.27D+00  1.07D+00
 E= -3007.17885233268     Delta-E=       -0.000000003301 Rises=F Damp=F
 DIIS: error= 3.84D-07 at cycle  15 NSaved=  15.
 NSaved=15 IEnMin=15 EnMin= -3007.17885233268     IErMin=15 ErrMin= 3.84D-07
 ErrMax= 3.84D-07  0.00D+00 EMaxC= 1.00D-01 BMatC= 2.68D-10 BMatP= 1.04D-09
 IDIUse=1 WtCom= 1.00D+00 WtEn= 0.00D+00
 Coeff-Com:  0.158D-05-0.140D-05-0.211D-04-0.514D-04-0.337D-03-0.574D-03
 Coeff-Com: -0.270D-03 0.286D-02 0.101D-01 0.228D-02-0.302D-01-0.480D-01
 Coeff-Com: -0.323D-01 0.311D+00 0.785D+00
 Coeff:      0.158D-05-0.140D-05-0.211D-04-0.514D-04-0.337D-03-0.574D-03
 Coeff:     -0.270D-03 0.286D-02 0.101D-01 0.228D-02-0.302D-01-0.480D-01
 Coeff:     -0.323D-01 0.311D+00 0.785D+00
 Gap=     0.124 Goal=   None    Shift=    0.000
 RMSDP=5.87D-08 MaxDP=2.81D-06 DE=-3.30D-09 OVMax= 3.38D-05

 Cycle  16  Pass 1  IDiag  1:
 RMSU=  2.19D-08    CP:  9.70D-01  1.42D+00  7.02D-01  5.97D-01  7.79D-01
                    CP:  9.11D-01  1.21D+00  1.61D+00  2.03D+00  2.46D+00
                    CP:  1.92D+00  1.84D+00  1.33D+00  1.32D+00  1.20D+00
 E= -3007.17885233369     Delta-E=       -0.000000001010 Rises=F Damp=F
 DIIS: error= 1.83D-07 at cycle  16 NSaved=  16.
 NSaved=16 IEnMin=16 EnMin= -3007.17885233369     IErMin=16 ErrMin= 1.83D-07
 ErrMax= 1.83D-07  0.00D+00 EMaxC= 1.00D-01 BMatC= 6.09D-11 BMatP= 2.68D-10
 IDIUse=1 WtCom= 1.00D+00 WtEn= 0.00D+00
 Coeff-Com: -0.149D-04 0.303D-04 0.462D-04 0.506D-04-0.104D-03-0.637D-03
 Coeff-Com: -0.208D-02-0.340D-02 0.382D-02 0.211D-01 0.176D-01-0.461D-01
 Coeff-Com: -0.106D+00-0.162D-01 0.356D+00 0.776D+00
 Coeff:     -0.149D-04 0.303D-04 0.462D-04 0.506D-04-0.104D-03-0.637D-03
 Coeff:     -0.208D-02-0.340D-02 0.382D-02 0.211D-01 0.176D-01-0.461D-01
 Coeff:     -0.106D+00-0.162D-01 0.356D+00 0.776D+00
 Gap=     0.124 Goal=   None    Shift=    0.000
 RMSDP=2.62D-08 MaxDP=1.58D-06 DE=-1.01D-09 OVMax= 1.67D-05

 Cycle  17  Pass 1  IDiag  1:
 RMSU=  1.14D-08    CP:  9.70D-01  1.42D+00  7.02D-01  5.97D-01  7.79D-01
                    CP:  9.11D-01  1.21D+00  1.61D+00  2.03D+00  2.46D+00
                    CP:  1.92D+00  1.87D+00  1.37D+00  1.45D+00  1.51D+00
                    CP:  1.29D+00
 E= -3007.17885233382     Delta-E=       -0.000000000131 Rises=F Damp=F
 DIIS: error= 9.69D-08 at cycle  17 NSaved=  17.
 NSaved=17 IEnMin=17 EnMin= -3007.17885233382     IErMin=17 ErrMin= 9.69D-08
 ErrMax= 9.69D-08  0.00D+00 EMaxC= 1.00D-01 BMatC= 2.18D-11 BMatP= 6.09D-11
 IDIUse=1 WtCom= 1.00D+00 WtEn= 0.00D+00
 Coeff-Com: -0.790D-05 0.154D-04 0.294D-04 0.416D-04 0.452D-04-0.763D-04
 Coeff-Com: -0.939D-03-0.253D-02-0.138D-02 0.922D-02 0.164D-01-0.226D-02
 Coeff-Com: -0.440D-01-0.968D-01-0.101D+00 0.388D+00 0.834D+00
 Coeff:     -0.790D-05 0.154D-04 0.294D-04 0.416D-04 0.452D-04-0.763D-04
 Coeff:     -0.939D-03-0.253D-02-0.138D-02 0.922D-02 0.164D-01-0.226D-02
 Coeff:     -0.440D-01-0.968D-01-0.101D+00 0.388D+00 0.834D+00
 Gap=     0.124 Goal=   None    Shift=    0.000
 RMSDP=1.80D-08 MaxDP=9.44D-07 DE=-1.31D-10 OVMax= 1.11D-05

 Cycle  18  Pass 1  IDiag  1:
 RMSU=  5.60D-09    CP:  9.70D-01  1.42D+00  7.02D-01  5.97D-01  7.79D-01
                    CP:  9.11D-01  1.21D+00  1.62D+00  2.03D+00  2.46D+00
                    CP:  1.93D+00  1.88D+00  1.39D+00  1.55D+00  1.71D+00
                    CP:  1.75D+00  1.33D+00
 E= -3007.17885233406     Delta-E=       -0.000000000235 Rises=F Damp=F
 DIIS: error= 4.99D-08 at cycle  18 NSaved=  18.
 NSaved=18 IEnMin=18 EnMin= -3007.17885233406     IErMin=18 ErrMin= 4.99D-08
 ErrMax= 4.99D-08  0.00D+00 EMaxC= 1.00D-01 BMatC= 4.45D-12 BMatP= 2.18D-11
 IDIUse=1 WtCom= 1.00D+00 WtEn= 0.00D+00
 Coeff-Com:  0.167D-05-0.369D-05-0.308D-05 0.923D-06 0.592D-04 0.222D-03
 Coeff-Com:  0.318D-03 0.125D-03-0.190D-02-0.349D-02 0.386D-03 0.169D-01
 Coeff-Com:  0.158D-01-0.338D-01-0.183D+00-0.862D-01 0.339D+00 0.935D+00
 Coeff:      0.167D-05-0.369D-05-0.308D-05 0.923D-06 0.592D-04 0.222D-03
 Coeff:      0.318D-03 0.125D-03-0.190D-02-0.349D-02 0.386D-03 0.169D-01
 Coeff:      0.158D-01-0.338D-01-0.183D+00-0.862D-01 0.339D+00 0.935D+00
 Gap=     0.124 Goal=   None    Shift=    0.000
 RMSDP=1.26D-08 MaxDP=6.95D-07 DE=-2.35D-10 OVMax= 7.65D-06

 Cycle  19  Pass 1  IDiag  1:
 RMSU=  3.06D-09    CP:  9.70D-01  1.42D+00  7.02D-01  5.97D-01  7.79D-01
                    CP:  9.11D-01  1.21D+00  1.62D+00  2.03D+00  2.46D+00
                    CP:  1.93D+00  1.88D+00  1.40D+00  1.60D+00  1.85D+00
                    CP:  2.06D+00  1.76D+00  1.19D+00
 E= -3007.17885233419     Delta-E=       -0.000000000129 Rises=F Damp=F
 DIIS: error= 2.37D-08 at cycle  19 NSaved=  19.
 NSaved=19 IEnMin=19 EnMin= -3007.17885233419     IErMin=19 ErrMin= 2.37D-08
 ErrMax= 2.37D-08  0.00D+00 EMaxC= 1.00D-01 BMatC= 1.22D-12 BMatP= 4.45D-12
 IDIUse=1 WtCom= 1.00D+00 WtEn= 0.00D+00
 Coeff-Com:  0.234D-05-0.475D-05-0.753D-05-0.801D-05 0.193D-04 0.123D-03
 Coeff-Com:  0.339D-03 0.612D-03-0.643D-03-0.379D-02-0.343D-02 0.938D-02
 Coeff-Com:  0.170D-01 0.625D-02-0.665D-01-0.122D+00-0.372D-01 0.464D+00
 Coeff-Com:  0.736D+00
 Coeff:      0.234D-05-0.475D-05-0.753D-05-0.801D-05 0.193D-04 0.123D-03
 Coeff:      0.339D-03 0.612D-03-0.643D-03-0.379D-02-0.343D-02 0.938D-02
 Coeff:      0.170D-01 0.625D-02-0.665D-01-0.122D+00-0.372D-01 0.464D+00
 Coeff:      0.736D+00
 Gap=     0.124 Goal=   None    Shift=    0.000
 RMSDP=4.32D-09 MaxDP=2.36D-07 DE=-1.29D-10 OVMax= 2.72D-06

 SCF Done:  E(RCAM-B3LYP) =  -3007.17885233     A.U. after   19 cycles
            NFock= 19  Conv=0.43D-08     -V/T= 2.0106
 KE= 2.975547302775D+03 PE=-2.628324968399D+04 EE= 1.065480762373D+04
 Leave Link  502 at Wed Apr 27 13:23:58 2022, MaxMem= 10066329600 cpu:           10141.9 elap:             440.0
 (Enter /sw/apps/gaussian-16.0/g16/l801.exe)
 DoSCS=F DFT=T ScalE2(SS,OS)=  1.000000  1.000000
 ExpMin= 3.36D-02 ExpMax= 4.95D+03 ExpMxC= 7.45D+02 IAcc=3 IRadAn=         5 AccDes= 0.00D+00
 HarFok:  IExCor=  205 AccDes= 0.00D+00 IRadAn=         5 IDoV=-2 UseB2=F ITyADJ=14
 ICtDFT= 12500011 ScaDFX=  1.000000  1.000000  1.000000  1.000000
 GSVD:  LWork=       -5460 too small for GESVD, short by       25550 words or       25550 for optimal perf.
 Largest valence mixing into a core orbital is  1.86D-04
 Largest core mixing into a valence orbital is  5.14D-05
 Range of M.O.s used for correlation:    71  1298
 NBasis=  1298 NAE=   246 NBE=   246 NFC=    70 NFV=     0
 NROrb=   1228 NOA=   176 NOB=   176 NVA=  1052 NVB=  1052
 Leave Link  801 at Wed Apr 27 13:23:58 2022, MaxMem= 10066329600 cpu:               7.6 elap:               0.3
 (Enter /sw/apps/gaussian-16.0/g16/l914.exe)
 RHF ground state
 Two-electron integrals replicated using symmetry.
 MDV= 10066329600 DFT=T DoStab=F Mixed=T DoRPA=T DoScal=F NonHer=T
 Making orbital integer symmetry assigments:
 Orbital symmetries:
       Occupied  (A) (A) (A) (A) (A) (A) (A) (A) (A) (A) (A) (A)
                 (A) (A) (A) (A) (A) (A) (A) (A) (A) (A) (A) (A)
                 (A) (A) (A) (A) (A) (A) (A) (A) (A) (A) (A) (A)
                 (A) (A) (A) (A) (A) (A) (A) (A) (A) (A) (A) (A)
                 (A) (A) (A) (A) (A) (A) (A) (A) (A) (A) (A) (A)
                 (A) (A) (A) (A) (A) (A) (A) (A) (A) (A) (A) (A)
                 (A) (A) (A) (A) (A) (A) (A) (A) (A) (A) (A) (A)
                 (A) (A) (A) (A) (A) (A) (A) (A) (A) (A) (A) (A)
                 (A) (A) (A) (A) (A) (A) (A) (A) (A) (A) (A) (A)
                 (A) (A) (A) (A) (A) (A) (A) (A) (A) (A) (A) (A)
                 (A) (A) (A) (A) (A) (A) (A) (A) (A) (A) (A) (A)
                 (A) (A) (A) (A) (A) (A) (A) (A) (A) (A) (A) (A)
                 (A) (A) (A) (A) (A) (A) (A) (A) (A) (A) (A) (A)
                 (A) (A) (A) (A) (A) (A) (A) (A) (A) (A) (A) (A)
                 (A) (A) (A) (A) (A) (A) (A) (A) (A) (A) (A) (A)
                 (A) (A) (A) (A) (A) (A) (A) (A) (A) (A) (A) (A)
                 (A) (A) (A) (A) (A) (A) (A) (A) (A) (A) (A) (A)
                 (A) (A) (A) (A) (A) (A) (A) (A) (A) (A) (A) (A)
                 (A) (A) (A) (A) (A) (A) (A) (A) (A) (A) (A) (A)
                 (A) (A) (A) (A) (A) (A) (A) (A) (A) (A) (A) (A)
                 (A) (A) (A) (A) (A) (A)
       Virtual   (A) (A) (A) (A) (A) (A) (A) (A) (A) (A) (A) (A)
                 (A) (A) (A) (A) (A) (A) (A) (A) (A) (A) (A) (A)
                 (A) (A) (A) (A) (A) (A) (A) (A) (A) (A) (A) (A)
                 (A) (A) (A) (A) (A) (A) (A) (A) (A) (A) (A) (A)
                 (A) (A) (A) (A) (A) (A) (A) (A) (A) (A) (A) (A)
                 (A) (A) (A) (A) (A) (A) (A) (A) (A) (A) (A) (A)
                 (A) (A) (A) (A) (A) (A) (A) (A) (A) (A) (A) (A)
                 (A) (A) (A) (A) (A) (A) (A) (A) (A) (A) (A) (A)
                 (A) (A) (A) (A) (A) (A) (A) (A) (A) (A) (A) (A)
                 (A) (A) (A) (A) (A) (A) (A) (A) (A) (A) (A) (A)
                 (A) (A) (A) (A) (A) (A) (A) (A) (A) (A) (A) (A)
                 (A) (A) (A) (A) (A) (A) (A) (A) (A) (A) (A) (A)
                 (A) (A) (A) (A) (A) (A) (A) (A) (A) (A) (A) (A)
                 (A) (A) (A) (A) (A) (A) (A) (A) (A) (A) (A) (A)
                 (A) (A) (A) (A) (A) (A) (A) (A) (A) (A) (A) (A)
                 (A) (A) (A) (A) (A) (A) (A) (A) (A) (A) (A) (A)
                 (A) (A) (A) (A) (A) (A) (A) (A) (A) (A) (A) (A)
                 (A) (A) (A) (A) (A) (A) (A) (A) (A) (A) (A) (A)
                 (A) (A) (A) (A) (A) (A) (A) (A) (A) (A) (A) (A)
                 (A) (A) (A) (A) (A) (A) (A) (A) (A) (A) (A) (A)
                 (A) (A) (A) (A) (A) (A) (A) (A) (A) (A) (A) (A)
                 (A) (A) (A) (A) (A) (A) (A) (A) (A) (A) (A) (A)
                 (A) (A) (A) (A) (A) (A) (A) (A) (A) (A) (A) (A)
                 (A) (A) (A) (A) (A) (A) (A) (A) (A) (A) (A) (A)
                 (A) (A) (A) (A) (A) (A) (A) (A) (A) (A) (A) (A)
                 (A) (A) (A) (A) (A) (A) (A) (A) (A) (A) (A) (A)
                 (A) (A) (A) (A) (A) (A) (A) (A) (A) (A) (A) (A)
                 (A) (A) (A) (A) (A) (A) (A) (A) (A) (A) (A) (A)
                 (A) (A) (A) (A) (A) (A) (A) (A) (A) (A) (A) (A)
                 (A) (A) (A) (A) (A) (A) (A) (A) (A) (A) (A) (A)
                 (A) (A) (A) (A) (A) (A) (A) (A) (A) (A) (A) (A)
                 (A) (A) (A) (A) (A) (A) (A) (A) (A) (A) (A) (A)
                 (A) (A) (A) (A) (A) (A) (A) (A) (A) (A) (A) (A)
                 (A) (A) (A) (A) (A) (A) (A) (A) (A) (A) (A) (A)
                 (A) (A) (A) (A) (A) (A) (A) (A) (A) (A) (A) (A)
                 (A) (A) (A) (A) (A) (A) (A) (A) (A) (A) (A) (A)
                 (A) (A) (A) (A) (A) (A) (A) (A) (A) (A) (A) (A)
                 (A) (A) (A) (A) (A) (A) (A) (A) (A) (A) (A) (A)
                 (A) (A) (A) (A) (A) (A) (A) (A) (A) (A) (A) (A)
                 (A) (A) (A) (A) (A) (A) (A) (A) (A) (A) (A) (A)
                 (A) (A) (A) (A) (A) (A) (A) (A) (A) (A) (A) (A)
                 (A) (A) (A) (A) (A) (A) (A) (A) (A) (A) (A) (A)
                 (A) (A) (A) (A) (A) (A) (A) (A) (A) (A) (A) (A)
                 (A) (A) (A) (A) (A) (A) (A) (A) (A) (A) (A) (A)
                 (A) (A) (A) (A) (A) (A) (A) (A) (A) (A) (A) (A)
                 (A) (A) (A) (A) (A) (A) (A) (A) (A) (A) (A) (A)
                 (A) (A) (A) (A) (A) (A) (A) (A) (A) (A) (A) (A)
                 (A) (A) (A) (A) (A) (A) (A) (A) (A) (A) (A) (A)
                 (A) (A) (A) (A) (A) (A) (A) (A) (A) (A) (A) (A)
                 (A) (A) (A) (A) (A) (A) (A) (A) (A) (A) (A) (A)
                 (A) (A) (A) (A) (A) (A) (A) (A) (A) (A) (A) (A)
                 (A) (A) (A) (A) (A) (A) (A) (A) (A) (A) (A) (A)
                 (A) (A) (A) (A) (A) (A) (A) (A) (A) (A) (A) (A)
                 (A) (A) (A) (A) (A) (A) (A) (A) (A) (A) (A) (A)
                 (A) (A) (A) (A) (A) (A) (A) (A) (A) (A) (A) (A)
                 (A) (A) (A) (A) (A) (A) (A) (A) (A) (A) (A) (A)
                 (A) (A) (A) (A) (A) (A) (A) (A) (A) (A) (A) (A)
                 (A) (A) (A) (A) (A) (A) (A) (A) (A) (A) (A) (A)
                 (A) (A) (A) (A) (A) (A) (A) (A) (A) (A) (A) (A)
                 (A) (A) (A) (A) (A) (A) (A) (A) (A) (A) (A) (A)
                 (A) (A) (A) (A) (A) (A) (A) (A) (A) (A) (A) (A)
                 (A) (A) (A) (A) (A) (A) (A) (A) (A) (A) (A) (A)
                 (A) (A) (A) (A) (A) (A) (A) (A) (A) (A) (A) (A)
                 (A) (A) (A) (A) (A) (A) (A) (A) (A) (A) (A) (A)
                 (A) (A) (A) (A) (A) (A) (A) (A) (A) (A) (A) (A)
                 (A) (A) (A) (A) (A) (A) (A) (A) (A) (A) (A) (A)
                 (A) (A) (A) (A) (A) (A) (A) (A) (A) (A) (A) (A)
                 (A) (A) (A) (A) (A) (A) (A) (A) (A) (A) (A) (A)
                 (A) (A) (A) (A) (A) (A) (A) (A) (A) (A) (A) (A)
                 (A) (A) (A) (A) (A) (A) (A) (A) (A) (A) (A) (A)
                 (A) (A) (A) (A) (A) (A) (A) (A) (A) (A) (A) (A)
                 (A) (A) (A) (A) (A) (A) (A) (A) (A) (A) (A) (A)
                 (A) (A) (A) (A) (A) (A) (A) (A) (A) (A) (A) (A)
                 (A) (A) (A) (A) (A) (A) (A) (A) (A) (A) (A) (A)
                 (A) (A) (A) (A) (A) (A) (A) (A) (A) (A) (A) (A)
                 (A) (A) (A) (A) (A) (A) (A) (A) (A) (A) (A) (A)
                 (A) (A) (A) (A) (A) (A) (A) (A) (A) (A) (A) (A)
                 (A) (A) (A) (A) (A) (A) (A) (A) (A) (A) (A) (A)
                 (A) (A) (A) (A) (A) (A) (A) (A) (A) (A) (A) (A)
                 (A) (A) (A) (A) (A) (A) (A) (A) (A) (A) (A) (A)
                 (A) (A) (A) (A) (A) (A) (A) (A) (A) (A) (A) (A)
                 (A) (A) (A) (A) (A) (A) (A) (A) (A) (A) (A) (A)
                 (A) (A) (A) (A) (A) (A) (A) (A) (A) (A) (A) (A)
                 (A) (A) (A) (A) (A) (A) (A) (A) (A) (A) (A) (A)
                 (A) (A) (A) (A) (A) (A) (A) (A) (A) (A) (A) (A)
                 (A) (A) (A) (A) (A) (A) (A) (A) (A) (A) (A) (A)
                 (A) (A) (A) (A) (A) (A) (A) (A) (A) (A) (A) (A)
                 (A) (A) (A) (A) (A) (A) (A) (A)
    20 initial guesses have been made.
 Convergence on wavefunction:    0.001000000000000
 Davidson Disk Diagonalization:  ConvIn= 1.00D-03 SkipCon=T Conv= 1.00D-03.
 Max sub-space:  2000 roots to seek:    20 dimension of matrix:       370304
 Iteration     1 Dimension    20 NMult     0 NNew     20
 CISAX will form    20 AO SS matrices at one time.
 NMat=    20 NSing=    20 JSym2X= 0.
 FoFJK:  IHMeth= 1 ICntrl=       0 DoSepK=T KAlg= 0 I1Cent=           0 FoldK=F
 IRaf=         1 NMat=      40 IRICut=       1 DoRegI=T DoRafI=F ISym2E= 0 IDoP0=3 IntGTp=3.
 FoFCou: FMM=T IPFlag=           0 FMFlag=      100000 FMFlg1=        2001
         NFxFlg=           0 DoJE=F BraDBF=F KetDBF=F FulRan=T
         wScrn=  0.000000 ICntrl=       500 IOpCl=  0 I1Cent=           0 NGrid=           0
         NMat0=   20 NMatS0=     20 NMatT0=    0 NMatD0=   20 NMtDS0=    0 NMtDT0=    0
 Symmetry not used in FoFCou.
 FMM levels:  10  Number of levels for PrismC:   9
 New state      3 was old state      4
 New state      4 was old state      8
 New state      5 was old state      9
 Excitation Energies [eV] at current iteration:
 Root      1 :     2.219495089666070
 Root      2 :     2.670756829072320
 Root      3 :     3.629035782357625
 Root      4 :     3.747726746687333
 Root      5 :     3.998307474636776
 Root      6 :     4.136389202690758
 Root      7 :     4.206479335633527
 Root      8 :     4.301955248824014
 Root      9 :     4.370942802276960
 Root     10 :     4.542527106514495
 Root     11 :     4.662070286900424
 Root     12 :     4.781083543128913
 Root     13 :     4.804358833558206
 Root     14 :     4.855105418024493
 Root     15 :     4.969733348451178
 Root     16 :     5.169481584244102
 Root     17 :     5.299657391384949
 Root     18 :     5.394533106237193
 Root     19 :     5.725349930059934
 Root     20 :     6.366184325483933
 Iteration     2 Dimension    30 NMult    20 NNew     10
 CISAX will form    10 AO SS matrices at one time.
 NMat=    10 NSing=    10 JSym2X= 0.
 Root      1 not converged, maximum delta is    0.073424377874840
 Root      2 not converged, maximum delta is    0.050814085025573
 Root      3 not converged, maximum delta is    0.079035349720049
 New state      4 was old state      5
 Root      4 not converged, maximum delta is    0.311606245904505
 New state      5 was old state      4
 Root      5 not converged, maximum delta is    0.328538108831509
 Excitation Energies [eV] at current iteration:
 Root      1 :     1.740183964339923   Change is   -0.479311125326148
 Root      2 :     2.332224171097519   Change is   -0.338532657974802
 Root      3 :     3.339808811710312   Change is   -0.289226970647313
 Root      4 :     3.477573524278969   Change is   -0.520733950357807
 Root      5 :     3.680199635080632   Change is   -0.067527111606701
 Iteration     3 Dimension    40 NMult    30 NNew     10
 CISAX will form    10 AO SS matrices at one time.
 NMat=    10 NSing=    10 JSym2X= 0.
 Root      1 not converged, maximum delta is    0.016059166453553
 Root      2 not converged, maximum delta is    0.010377840891596
 Root      3 not converged, maximum delta is    0.189110523913293
 Root      4 not converged, maximum delta is    0.279407073213785
 Root      5 not converged, maximum delta is    0.373874509914621
 Excitation Energies [eV] at current iteration:
 Root      1 :     1.703484896491016   Change is   -0.036699067848907
 Root      2 :     2.314890858842520   Change is   -0.017333312254999
 Root      3 :     3.315523253468851   Change is   -0.024285558241462
 Root      4 :     3.340833253925704   Change is   -0.136740270353266
 Root      5 :     3.499522018159264   Change is   -0.180677616921368
 Iteration     4 Dimension    50 NMult    40 NNew     10
 CISAX will form    10 AO SS matrices at one time.
 NMat=    10 NSing=    10 JSym2X= 0.
 Root      1 not converged, maximum delta is    0.002874468974382
 Root      2 not converged, maximum delta is    0.003943393780538
 Root      3 not converged, maximum delta is    0.361461465053120
 Root      4 not converged, maximum delta is    0.245457831852975
 Root      5 not converged, maximum delta is    0.078657685130221
 Excitation Energies [eV] at current iteration:
 Root      1 :     1.699466105498768   Change is   -0.004018790992249
 Root      2 :     2.311972586749293   Change is   -0.002918272093227
 Root      3 :     3.290601676504104   Change is   -0.024921576964747
 Root      4 :     3.320987505240655   Change is   -0.019845748685049
 Root      5 :     3.467791776627823   Change is   -0.031730241531440
 Iteration     5 Dimension    60 NMult    50 NNew     10
 CISAX will form    10 AO SS matrices at one time.
 NMat=    10 NSing=    10 JSym2X= 0.
 Root      1 not converged, maximum delta is    0.001278086730406
 Root      2 has converged.
 Root      3 not converged, maximum delta is    0.027943893159580
 Root      4 not converged, maximum delta is    0.019087061384744
 Root      5 not converged, maximum delta is    0.014522866937115
 Excitation Energies [eV] at current iteration:
 Root      1 :     1.699092076503881   Change is   -0.000374028994887
 Root      2 :     2.311720835471607   Change is   -0.000251751277687
 Root      3 :     3.286451896038766   Change is   -0.004149780465338
 Root      4 :     3.319322283316404   Change is   -0.001665221924250
 Root      5 :     3.463832013705678   Change is   -0.003959762922146
 Iteration     6 Dimension    68 NMult    60 NNew      8
 CISAX will form     8 AO SS matrices at one time.
 NMat=     8 NSing=     8 JSym2X= 0.
 Root      1 has converged.
 Root      2 has converged.
 Root      3 not converged, maximum delta is    0.004827645810494
 Root      4 not converged, maximum delta is    0.006182049311214
 Root      5 not converged, maximum delta is    0.003811521934494
 Excitation Energies [eV] at current iteration:
 Root      1 :     1.699057539524632   Change is   -0.000034536979249
 Root      2 :     2.311716875332488   Change is   -0.000003960139118
 Root      3 :     3.285802117797051   Change is   -0.000649778241715
 Root      4 :     3.318917034868358   Change is   -0.000405248448046
 Root      5 :     3.463179340387533   Change is   -0.000652673318145
 Iteration     7 Dimension    74 NMult    68 NNew      6
 CISAX will form     6 AO SS matrices at one time.
 NMat=     6 NSing=     6 JSym2X= 0.
 Root      1 has converged.
 Root      2 has converged.
 Root      3 not converged, maximum delta is    0.001278418644301
 Root      4 not converged, maximum delta is    0.002133454982905
 Root      5 not converged, maximum delta is    0.001333546978116
 Excitation Energies [eV] at current iteration:
 Root      1 :     1.699057366956956   Change is   -0.000000172567675
 Root      2 :     2.311715202313575   Change is   -0.000001673018913
 Root      3 :     3.285726412223089   Change is   -0.000075705573962
 Root      4 :     3.318842487880810   Change is   -0.000074546987548
 Root      5 :     3.463077757755088   Change is   -0.000101582632445
 Iteration     8 Dimension    80 NMult    74 NNew      6
 CISAX will form     6 AO SS matrices at one time.
 NMat=     6 NSing=     6 JSym2X= 0.
 Root      1 has converged.
 Root      2 has converged.
 Root      3 has converged.
 Root      4 has converged.
 Root      5 has converged.
 Excitation Energies [eV] at current iteration:
 Root      1 :     1.699057062944108   Change is   -0.000000304012849
 Root      2 :     2.311714673351013   Change is   -0.000000528962562
 Root      3 :     3.285717792216459   Change is   -0.000008620006630
 Root      4 :     3.318833316592873   Change is   -0.000009171287938
 Root      5 :     3.463062225209941   Change is   -0.000015532545147
 Convergence achieved on expansion vectors.
 ***********************************************************************
 Excited states from <AA,BB:AA,BB> singles matrix:
 ***********************************************************************
 
 1PDM for each excited state written to RWF  633
 Ground to excited state transition densities written to RWF  633
 Ground to excited state transition electric dipole moments (Au):
       state          X           Y           Z        Dip. S.      Osc.
         1         1.5853     -2.0921      1.3957      8.8382      0.3679
         2        -0.3263     -0.7295     -0.5302      0.9197      0.0521
         3         0.3545      0.6175      0.4368      0.6978      0.0562
         4         0.2073      0.2732      0.3644      0.2504      0.0204
         5         0.9082      1.9157      1.4321      6.5458      0.5554
 Ground to excited state transition velocity dipole moments (Au):
       state          X           Y           Z        Dip. S.      Osc.
         1        -0.0952      0.1268     -0.0846      0.0323      0.3448
         2         0.0253      0.0582      0.0419      0.0058      0.0454
         3        -0.0386     -0.0732     -0.0511      0.0095      0.0522
         4        -0.0238     -0.0325     -0.0399      0.0032      0.0176
         5        -0.1098     -0.2395     -0.1733      0.0994      0.5210
 Ground to excited state transition magnetic dipole moments (Au):
       state          X           Y           Z
         1        -0.1488      0.7768      1.3104
         2        -0.0233     -0.4895      0.6676
         3        -0.6500      1.1520     -0.8448
         4         0.4043      0.3710     -0.7693
         5        -0.7516      1.3539     -1.7100
 Ground to excited state transition velocity quadrupole moments (Au):
       state          XX          YY          ZZ          XY          XZ          YZ
         1        -1.6436      0.4697      0.1142      0.9163     -0.6236     -0.3288
         2         0.3964      0.2004     -0.0491      0.5057      0.4419     -0.0180
         3        -0.5229     -0.1734     -0.0541     -0.6726     -0.5034     -0.1528
         4        -0.4274      0.2611     -0.0515     -0.4426     -0.4484     -0.1593
         5        -1.3782     -0.8964      0.1668     -2.2935     -1.6104     -0.3801
 <0|del|b> * <b|rxdel|0> + <0|del|b> * <b|delr+rdel|0>
 Rotatory Strengths (R) in cgs (10**-40 erg-esu-cm/Gauss)
       state          XX          YY          ZZ    R(velocity)    E-M Angle
         1       -60.7843     68.7805     12.8798      6.9587       89.62
         2       -20.9342     23.9077    -12.1037     -3.0434       91.00
         3      -127.6054    116.4617    -82.8018    -31.3152       96.03
         4        62.9274     20.8996    -31.5899     17.4124       80.32
         5       -44.2658     64.3510    284.0704    101.3852       85.68
 1/2[<0|r|b>*<b|rxdel|0> + (<0|rxdel|b>*<b|r|0>)*]
 Rotatory Strengths (R) in cgs (10**-40 erg-esu-cm/Gauss)
       state          XX          YY          ZZ     R(length)
         1       166.7862   1149.1915  -1293.3442      7.5445
         2        -5.3803   -252.5279    250.3065     -2.5339
         3       162.9285   -503.0346    260.9708    -26.3784
         4       -59.2669    -71.6890    198.2418     22.4287
         5       482.7257  -1834.1290   1731.7905    126.7957
  1/2[<0|del|b>*<b|r|0> + (<0|r|b>*<b|del|0>)*] (Au)
       state          X           Y           Z        Dip. S.   Osc.(frdel)
         1        -0.1509     -0.2653     -0.1180      0.5343      0.3562
         2        -0.0082     -0.0425     -0.0222      0.0729      0.0486
         3        -0.0137     -0.0452     -0.0223      0.0812      0.0541
         4        -0.0049     -0.0089     -0.0145      0.0284      0.0189
         5        -0.0997     -0.4587     -0.2482      0.8067      0.5378

 Excitation energies and oscillator strengths:
 
 Excited State   1:      Singlet-A      1.6991 eV  729.72 nm  f=0.3679  <S**2>=0.000
     245 -> 248       -0.17665
     246 -> 247        0.68668
     245 <- 248       -0.10749
 This state for optimization and/or second-order correction.
 Total Energy, E(TD-HF/TD-DFT) =  -3007.11641314    
 Copying the excited state density for this state as the 1-particle RhoCI density.
 
 Excited State   2:      Singlet-A      2.3117 eV  536.33 nm  f=0.0521  <S**2>=0.000
     245 -> 247        0.60607
     246 -> 248        0.35261
 
 Excited State   3:      Singlet-A      3.2857 eV  377.34 nm  f=0.0562  <S**2>=0.000
     239 -> 247        0.13143
     239 -> 249       -0.10484
     240 -> 247        0.30838
[...]
 Alpha virt. eigenvalues --    1.15736   1.16075   1.16403   1.16795   1.17418
 Alpha virt. eigenvalues --    1.18065   1.18280   1.18429   1.18681   1.19142
 Alpha virt. eigenvalues --    1.19953   1.20822   1.21176   1.21289   1.21764
 Alpha virt. eigenvalues --    1.22799   1.23178   1.23332   1.23911   1.24039
 Alpha virt. eigenvalues --    1.24969   1.25241   1.25969   1.26260   1.26523
 Alpha virt. eigenvalues --    1.26841   1.27368   1.27618   1.27827   1.28693
 Alpha virt. eigenvalues --    1.29383   1.29896   1.30245   1.30655   1.31335
 Alpha virt. eigenvalues --    1.31525   1.31976   1.32473   1.32892   1.33379
 Alpha virt. eigenvalues --    1.33812   1.33860   1.33928   1.34767   1.35066
 Alpha virt. eigenvalues --    1.35428   1.36191   1.36649   1.37038   1.37678
 Alpha virt. eigenvalues --    1.38144   1.38388   1.38732   1.39651   1.40399
 Alpha virt. eigenvalues --    1.40936   1.41204   1.41595   1.42358   1.42691
 Alpha virt. eigenvalues --    1.43263   1.43343   1.43858   1.44044   1.44103
 Alpha virt. eigenvalues --    1.44655   1.44816   1.45040   1.45384   1.45657
 Alpha virt. eigenvalues --    1.45764   1.46318   1.46486   1.46532   1.46883
 Alpha virt. eigenvalues --    1.47543   1.47604   1.48125   1.48366   1.48867
 Alpha virt. eigenvalues --    1.49487   1.49921   1.50320   1.51009   1.51202
 Alpha virt. eigenvalues --    1.52058   1.52931   1.53118   1.53363   1.54182
 Alpha virt. eigenvalues --    1.54645   1.55217   1.55772   1.56056   1.56540
 Alpha virt. eigenvalues --    1.56884   1.57214   1.57890   1.58261   1.58959
 Alpha virt. eigenvalues --    1.59185   1.59356   1.59545   1.59712   1.59885
 Alpha virt. eigenvalues --    1.60118   1.60277   1.60696   1.60925   1.61017
 Alpha virt. eigenvalues --    1.61467   1.61559   1.61644   1.61934   1.62028
 Alpha virt. eigenvalues --    1.62479   1.62703   1.62987   1.63097   1.63345
 Alpha virt. eigenvalues --    1.63955   1.64072   1.64149   1.64390   1.65055
 Alpha virt. eigenvalues --    1.65119   1.65443   1.66331   1.66394   1.67164
 Alpha virt. eigenvalues --    1.67333   1.67849   1.67938   1.69043   1.69476
 Alpha virt. eigenvalues --    1.69966   1.70126   1.70765   1.70884   1.71515
 Alpha virt. eigenvalues --    1.71767   1.72028   1.72975   1.73212   1.73491
 Alpha virt. eigenvalues --    1.74122   1.74473   1.74558   1.75080   1.75295
 Alpha virt. eigenvalues --    1.75467   1.75876   1.76281   1.76632   1.76739
 Alpha virt. eigenvalues --    1.77250   1.77578   1.78326   1.79224   1.79536
 Alpha virt. eigenvalues --    1.79691   1.79814   1.79923   1.80135   1.80351
 Alpha virt. eigenvalues --    1.80423   1.80693   1.80817   1.81357   1.81671
 Alpha virt. eigenvalues --    1.81711   1.81935   1.82528   1.82644   1.82843
 Alpha virt. eigenvalues --    1.83009   1.83282   1.83366   1.83393   1.83825
 Alpha virt. eigenvalues --    1.83915   1.84050   1.84440   1.84475   1.84808
 Alpha virt. eigenvalues --    1.85024   1.85194   1.85257   1.85324   1.85451
 Alpha virt. eigenvalues --    1.85618   1.85960   1.86277   1.86415   1.86542
 Alpha virt. eigenvalues --    1.86896   1.86928   1.87124   1.87226   1.87291
 Alpha virt. eigenvalues --    1.87634   1.87694   1.87800   1.88174   1.88354
 Alpha virt. eigenvalues --    1.88374   1.88688   1.88823   1.88931   1.89206
 Alpha virt. eigenvalues --    1.89621   1.89821   1.89977   1.90065   1.90447
 Alpha virt. eigenvalues --    1.90655   1.90779   1.90851   1.91153   1.91339
 Alpha virt. eigenvalues --    1.91515   1.91751   1.91873   1.92132   1.92463
 Alpha virt. eigenvalues --    1.92625   1.92808   1.92931   1.93084   1.93166
 Alpha virt. eigenvalues --    1.93488   1.94204   1.94410   1.94465   1.94649
 Alpha virt. eigenvalues --    1.94844   1.95233   1.95454   1.95496   1.95623
 Alpha virt. eigenvalues --    1.96718   1.97053   1.97207   1.97408   1.97642
 Alpha virt. eigenvalues --    1.97756   1.98032   1.98064   1.98453   1.98634
 Alpha virt. eigenvalues --    1.99030   1.99384   1.99720   1.99915   2.00091
 Alpha virt. eigenvalues --    2.00235   2.00825   2.01058   2.01132   2.01574
 Alpha virt. eigenvalues --    2.01873   2.01988   2.02361   2.02402   2.02764
 Alpha virt. eigenvalues --    2.03134   2.03381   2.03583   2.03916   2.04048
 Alpha virt. eigenvalues --    2.04824   2.05028   2.05224   2.05325   2.05871
 Alpha virt. eigenvalues --    2.05939   2.06382   2.06468   2.06870   2.07034
 Alpha virt. eigenvalues --    2.08100   2.08141   2.08574   2.08593   2.08745
 Alpha virt. eigenvalues --    2.09171   2.09322   2.09364   2.09573   2.10228
 Alpha virt. eigenvalues --    2.10499   2.10759   2.10998   2.11359   2.11822
 Alpha virt. eigenvalues --    2.11847   2.12090   2.12134   2.12402   2.12696
 Alpha virt. eigenvalues --    2.12996   2.13293   2.13491   2.13880   2.14135
 Alpha virt. eigenvalues --    2.14381   2.14730   2.15077   2.15147   2.15493
 Alpha virt. eigenvalues --    2.15871   2.15961   2.16484   2.16578   2.17435
 Alpha virt. eigenvalues --    2.17543   2.17826   2.18005   2.18344   2.18647
 Alpha virt. eigenvalues --    2.18913   2.19907   2.20274   2.20468   2.20510
 Alpha virt. eigenvalues --    2.20695   2.21456   2.21660   2.22078   2.22768
 Alpha virt. eigenvalues --    2.22988   2.23182   2.24205   2.24348   2.24631
 Alpha virt. eigenvalues --    2.24843   2.25588   2.25991   2.26857   2.26931
 Alpha virt. eigenvalues --    2.26992   2.27449   2.28244   2.28457   2.28897
 Alpha virt. eigenvalues --    2.29263   2.29787   2.30155   2.30671   2.31339
 Alpha virt. eigenvalues --    2.31517   2.32094   2.32580   2.33567   2.34541
 Alpha virt. eigenvalues --    2.34609   2.34940   2.35463   2.35523   2.35673
 Alpha virt. eigenvalues --    2.35932   2.36471   2.36892   2.37106   2.37756
 Alpha virt. eigenvalues --    2.38138   2.38359   2.38482   2.39346   2.39586
 Alpha virt. eigenvalues --    2.39886   2.39991   2.40552   2.40680   2.41160
 Alpha virt. eigenvalues --    2.41393   2.41677   2.42153   2.42432   2.42614
 Alpha virt. eigenvalues --    2.42858   2.43144   2.43412   2.43547   2.44136
 Alpha virt. eigenvalues --    2.44230   2.44425   2.45289   2.45344   2.45933
 Alpha virt. eigenvalues --    2.46702   2.47481   2.47631   2.47971   2.48322
 Alpha virt. eigenvalues --    2.48784   2.49124   2.49150   2.49631   2.49708
 Alpha virt. eigenvalues --    2.50286   2.50916   2.51074   2.51287   2.51934
 Alpha virt. eigenvalues --    2.52190   2.52636   2.52920   2.53131   2.53534
 Alpha virt. eigenvalues --    2.53876   2.54366   2.54534   2.54955   2.55464
 Alpha virt. eigenvalues --    2.55668   2.55917   2.56588   2.56795   2.57029
 Alpha virt. eigenvalues --    2.57881   2.58184   2.58581   2.59329   2.60028
 Alpha virt. eigenvalues --    2.60390   2.60424   2.60804   2.62340   2.62444
 Alpha virt. eigenvalues --    2.62731   2.63008   2.63272   2.63857   2.64002
 Alpha virt. eigenvalues --    2.64134   2.64414   2.64567   2.65733   2.66091
 Alpha virt. eigenvalues --    2.66120   2.66279   2.66702   2.67451   2.67643
 Alpha virt. eigenvalues --    2.68096   2.68371   2.69006   2.69566   2.70334
 Alpha virt. eigenvalues --    2.70471   2.71146   2.71606   2.71950   2.72041
 Alpha virt. eigenvalues --    2.72323   2.72382   2.72904   2.73098   2.73430
 Alpha virt. eigenvalues --    2.73614   2.74369   2.74766   2.75265   2.76054
 Alpha virt. eigenvalues --    2.76119   2.76143   2.76835   2.77006   2.77671
 Alpha virt. eigenvalues --    2.77814   2.78639   2.78868   2.79558   2.79825
 Alpha virt. eigenvalues --    2.79972   2.80687   2.81048   2.81480   2.81625
 Alpha virt. eigenvalues --    2.82313   2.82693   2.83020   2.83344   2.84111
 Alpha virt. eigenvalues --    2.84542   2.84815   2.85608   2.86423   2.86770
 Alpha virt. eigenvalues --    2.87533   2.87633   2.87850   2.88029   2.88375
 Alpha virt. eigenvalues --    2.88900   2.89907   2.90197   2.90685   2.91518
 Alpha virt. eigenvalues --    2.91676   2.92557   2.92669   2.92841   2.93107
 Alpha virt. eigenvalues --    2.93481   2.93746   2.94681   2.94865   2.96123
 Alpha virt. eigenvalues --    2.96680   2.97076   2.97138   2.97453   2.97551
 Alpha virt. eigenvalues --    2.97975   2.98072   2.98407   2.99077   2.99128
 Alpha virt. eigenvalues --    3.00139   3.00258   3.01095   3.01342   3.01385
 Alpha virt. eigenvalues --    3.01898   3.02034   3.02671   3.02824   3.03060
 Alpha virt. eigenvalues --    3.03115   3.03251   3.03599   3.03842   3.03935
 Alpha virt. eigenvalues --    3.04646   3.04882   3.04963   3.05018   3.05468
 Alpha virt. eigenvalues --    3.05763   3.06129   3.06221   3.06515   3.06709
 Alpha virt. eigenvalues --    3.07146   3.07211   3.07558   3.07860   3.07982
 Alpha virt. eigenvalues --    3.08408   3.08934   3.09324   3.09646   3.10305
 Alpha virt. eigenvalues --    3.10470   3.11173   3.11670   3.11866   3.12560
 Alpha virt. eigenvalues --    3.12859   3.13017   3.13629   3.14017   3.14204
 Alpha virt. eigenvalues --    3.14384   3.15237   3.15793   3.16451   3.17342
 Alpha virt. eigenvalues --    3.17935   3.17966   3.18233   3.19660   3.19707
 Alpha virt. eigenvalues --    3.21646   3.21929   3.23100   3.23809   3.24452
 Alpha virt. eigenvalues --    3.24612   3.26434   3.27052   3.27746   3.30969
 Alpha virt. eigenvalues --    3.31446   3.32876   3.41317   3.44656   3.46309
 Alpha virt. eigenvalues --    3.49385   3.50545   3.51878   3.55476   3.58383
 Alpha virt. eigenvalues --    3.61008   3.62210   3.63926   3.68316   3.69496
 Alpha virt. eigenvalues --    3.70461   3.71385
          Condensed to atoms (all electrons):
 Mulliken charges:
               1
     1  Mg   0.842520
     2  C   -0.045231
     3  C   -0.124959
     4  C   -0.026946
     5  C   -0.106169
     6  N   -0.290822
     7  C   -0.074679
     8  C    0.072593
     9  C   -0.064085
    10  C    0.073032
    11  C    0.059880
    12  C    0.050893
    13  C   -0.008061
    14  C    0.197708
    15  O   -0.207831
    16  O   -0.378583
    17  N   -0.408629
    18  C    0.167008
    19  C   -0.161540
    20  C   -0.021675
    21  C    0.164960
    22  C    0.147355
    23  C   -0.025936
    24  O   -0.200173
    25  C    0.062461
    26  N   -0.296131
    27  C   -0.015872
    28  C   -0.061543
    29  C    0.019136
    30  C    0.001951
    31  C    0.037958
    32  C    0.054645
    33  C   -0.008393
    34  N   -0.346529
    35  C    0.147409
    36  C   -0.189736
    37  C    0.076284
    38  C    0.154839
    39  C    0.115223
    40  C    0.029101
    41  O   -0.209878
    42  C   -0.030613
    43  C    0.242132
    44  O   -0.212463
    45  O   -0.358973
    46  C    0.182773
    47  C    0.280563
    48  C   -0.106543
    49  C   -0.173942
    50  C    0.079202
    51  C    0.061944
    52  C    0.015549
    53  C    0.068690
    54  C   -0.128387
    55  C    0.039419
    56  C    0.110088
    57  C   -0.037453
    58  C    0.089747
    59  C   -0.134978
    60  C    0.062451
    61  C    0.040613
    62  C   -0.004580
    63  C    0.056971
    64  C   -0.159359
    65  C    0.053641
    66  C    0.038248
    67  H   -0.017997
    68  H   -0.059244
    69  H   -0.035303
    70  H   -0.007315
    71  H    0.016204
    72  H    0.020003
    73  H    0.019394
    74  H    0.019323
    75  H    0.017157
    76  H    0.021819
    77  H    0.044490
    78  H    0.019266
    79  H    0.037516
    80  H    0.027867
    81  H    0.007651
    82  H    0.030998
    83  H    0.042592
    84  H    0.026816
    85  H    0.019047
    86  H    0.006578
    87  H    0.026220
    88  H    0.016818
    89  H    0.014891
    90  H    0.018557
    91  H    0.010875
    92  H    0.016447
    93  H    0.018917
    94  H    0.020048
    95  H    0.031253
    96  H    0.034359
    97  H    0.014504
    98  H    0.058836
    99  H    0.033827
   100  H    0.053630
   101  H    0.040247
   102  H    0.038488
   103  H    0.041366
   104  H    0.009628
   105  H    0.018305
   106  H    0.023467
   107  H    0.002724
   108  H    0.005426
   109  H   -0.010197
   110  H    0.017526
   111  H    0.000944
   112  H   -0.020803
   113  H   -0.000979
   114  H   -0.005938
   115  H    0.010568
   116  H   -0.008544
   117  H    0.005693
   118  H   -0.012590
   119  H   -0.008371
   120  H   -0.026507
   121  H   -0.022706
   122  H    0.004396
   123  H   -0.017685
   124  H   -0.000785
   125  H    0.004211
   126  H    0.004567
   127  H    0.016886
   128  H   -0.003025
   129  H   -0.006356
   130  H   -0.006218
   131  H    0.001860
   132  H   -0.008782
   133  H   -0.005581
   134  H    0.000829
   135  H    0.003502
   136  H   -0.004750
   137  H    0.012974
   138  H    0.016513
   139  H    0.007235
   140  H   -0.019872
 Sum of Mulliken charges =  -0.00000
 Mulliken charges with hydrogens summed into heavy atoms:
               1
     1  Mg   0.842520
     2  C   -0.045231
     3  C   -0.142956
     4  C   -0.086190
     5  C   -0.141472
     6  N   -0.290822
     7  C   -0.074679
     8  C    0.065278
     9  C   -0.047881
    10  C    0.073032
    11  C    0.118600
    12  C    0.089869
    13  C    0.055696
    14  C    0.197708
    15  O   -0.207831
    16  O   -0.378583
    17  N   -0.408629
    18  C    0.167008
    19  C   -0.161540
    20  C   -0.021675
    21  C    0.164960
    22  C    0.220389
    23  C   -0.025936
    24  O   -0.200173
    25  C    0.162867
    26  N   -0.296131
    27  C   -0.015872
    28  C   -0.042496
    29  C    0.025714
    30  C    0.001951
    31  C    0.095888
    32  C    0.084077
    33  C    0.047018
    34  N   -0.346529
    35  C    0.147409
    36  C   -0.189736
    37  C    0.076284
    38  C    0.154839
    39  C    0.195338
    40  C    0.029101
    41  O   -0.209878
    42  C    0.028222
    43  C    0.242132
    44  O   -0.212463
    45  O   -0.358973
    46  C    0.310477
    47  C    0.360417
    48  C   -0.096915
    49  C   -0.173942
    50  C    0.123698
    51  C    0.057173
    52  C    0.034019
    53  C    0.046908
    54  C   -0.134325
    55  C    0.047135
    56  C    0.089128
    57  C   -0.086666
    58  C    0.076457
    59  C   -0.135763
    60  C    0.088115
    61  C    0.031233
    62  C   -0.008938
    63  C    0.042608
    64  C   -0.158530
    65  C    0.065366
    66  C    0.042125
 Electronic spatial extent (au):  <R**2>=         113775.2656
 Charge=             -0.0000 electrons
 Dipole moment (field-independent basis, Debye):
    X=              1.0467    Y=              3.3219    Z=              1.4516  Tot=              3.7733
 Quadrupole moment (field-independent basis, Debye-Ang):
   XX=           -399.6935   YY=           -446.4434   ZZ=           -377.8052
   XY=             54.5438   XZ=             -8.2969   YZ=             28.3903
 Traceless Quadrupole moment (field-independent basis, Debye-Ang):
   XX=              8.2872   YY=            -38.4627   ZZ=             30.1755
   XY=             54.5438   XZ=             -8.2969   YZ=             28.3903
 Octapole moment (field-independent basis, Debye-Ang**2):
  XXX=            322.2435  YYY=             86.8634  ZZZ=            -41.5474  XYY=           -152.5147
  XXY=            336.6360  XXZ=             14.3256  XZZ=            164.9526  YZZ=           -109.9755
  YYZ=            149.8498  XYZ=            134.8780
 Hexadecapole moment (field-independent basis, Debye-Ang**3):
 XXXX=        -126136.9945 YYYY=         -24530.3644 ZZZZ=         -12003.8572 XXXY=           3159.5976
 XXXZ=           -228.2245 YYYX=           1916.2296 YYYZ=            844.5866 ZZZX=           -467.7460
 ZZZY=            444.8476 XXYY=         -25695.7651 XXZZ=         -21443.7198 YYZZ=          -6043.4776
 XXYZ=            538.3627 YYXZ=             78.8619 ZZXY=           -212.3247
 N-N= 9.645715905155D+03 E-N=-2.628324967507D+04  KE= 2.975547302775D+03
 Leave Link  601 at Wed Apr 27 13:41:36 2022, MaxMem= 10066329600 cpu:              15.8 elap:               0.8
 (Enter /sw/apps/gaussian-16.0/g16/l9999.exe)
 1\1\GINC-BP1-COMPUTE198\SP\RCAM-B3LYP TD-FC\def2SVP\C55H74Mg1N4O6\OF15
 641\27-Apr-2022\0\\#p cam-b3lyp/Def2SVP td=(nstates=5)\\step_1201_chro
 mophore_2 TDDFT with cam-b3lyp functional\\0,1\Mg,0,2.993,0.749,44.097
 \C,0,5.878,2.556,43.627\C,0,1.295,3.23,42.35\C,0,0.482,-1.407,43.619\C
 ,0,5.057,-1.954,45.13\N,0,3.587,2.572,43.003\C,0,4.794,3.207,43.014\C,
 0,4.792,4.543,42.263\C,0,3.281,4.809,42.069\C,0,2.638,3.467,42.568\C,0
 ,2.703,6.117,42.756\C,0,5.703,4.554,40.941\C,0,6.178,3.26,40.238\C,0,6
 .256,3.15,38.65\O,0,5.848,4.019,37.923\O,0,6.829,1.944,38.195\N,0,1.11
 5,0.975,43.358\C,0,0.599,2.047,42.689\C,0,-0.78,1.856,42.471\C,0,-1.10
 1,0.567,42.914\C,0,0.165,-0.042,43.283\C,0,-1.565,2.93,41.895\C,0,-2.4
 75,-0.096,42.978\O,0,-3.458,0.533,42.621\C,0,-2.679,-1.538,43.341\N,0,
 2.849,-1.383,44.227\C,0,1.613,-1.98,44.144\C,0,1.679,-3.467,44.531\C,0
 ,3.193,-3.636,44.905\C,0,3.745,-2.244,44.787\C,0,0.634,-3.839,45.701\C
 ,0,3.979,-4.738,44.12\C,0,4.575,-5.775,45.092\N,0,4.989,0.353,44.445\C
 ,0,5.708,-0.774,44.872\C,0,7.117,-0.384,45.033\C,0,7.198,0.866,44.578\
 C,0,5.894,1.299,44.216\C,0,8.214,-1.248,45.65\C,0,8.111,1.954,44.323\O
 ,0,9.38,1.939,44.471\C,0,7.319,3.141,43.805\C,0,7.409,4.252,44.866\O,0
 ,8.398,4.907,45.229\O,0,6.136,4.604,45.289\C,0,5.897,5.843,46.122\C,0,
 6.997,1.757,36.723\C,0,5.59,1.473,36.159\C,0,5.27,0.91,35.006\C,0,6.25
 8,0.348,33.958\C,0,3.842,1.038,34.531\C,0,3.432,2.549,34.185\C,0,2.783
 ,2.887,32.846\C,0,1.552,1.975,32.55\C,0,1.809,1.159,31.272\C,0,0.235,2
 .731,32.487\C,0,0.026,3.695,31.357\C,0,-1.236,3.474,30.479\C,0,-1.183,
 4.185,29.152\C,0,-2.059,5.469,29.172\C,0,-1.662,3.299,27.946\C,0,-0.93
 1,3.685,26.669\C,0,-1.654,3.078,25.428\C,0,-2.041,4.161,24.45\C,0,-3.4
 63,3.968,23.789\C,0,-1.043,4.28,23.274\H,0,0.79,4.016,41.785\H,0,-0.23
 1,-2.232,43.673\H,0,5.604,-2.844,45.45\H,0,5.242,5.279,42.929\H,0,3.12
 1,4.914,40.996\H,0,3.327,6.936,42.397\H,0,2.695,6.068,43.845\H,0,1.692
 ,6.299,42.39\H,0,6.567,5.184,41.151\H,0,5.163,5.003,40.108\H,0,5.688,2
 .377,40.648\H,0,7.164,3.001,40.623\H,0,-2.629,2.902,42.13\H,0,-1.235,2
 .903,40.856\H,0,-1.236,3.881,42.313\H,0,-2.234,-1.793,44.303\H,0,-2.18
 7,-2.147,42.582\H,0,-3.751,-1.732,43.349\H,0,1.316,-4.054,43.688\H,0,3
 .236,-3.794,45.983\H,0,-0.353,-4.029,45.278\H,0,0.565,-3.076,46.476\H,
 0,0.97,-4.727,46.236\H,0,4.817,-4.288,43.588\H,0,3.325,-5.132,43.343\H
 ,0,4.198,-5.697,46.112\H,0,5.65,-5.614,45.173\H,0,4.406,-6.784,44.717\
 H,0,8.197,-1.282,46.739\H,0,9.19,-0.839,45.39\H,0,8.172,-2.275,45.288\
 H,0,7.85,3.464,42.91\H,0,6.281,6.687,45.55\H,0,6.383,5.849,47.099\H,0,
 4.842,6.081,46.254\H,0,7.641,0.891,36.565\H,0,7.522,2.654,36.393\H,0,4
 .778,1.723,36.842\H,0,6.182,0.776,32.959\H,0,6.061,-0.706,33.765\H,0,7
 .262,0.549,34.333\H,0,3.241,0.702,35.376\H,0,3.606,0.293,33.771\H,0,4.
 307,3.192,34.279\H,0,2.669,2.829,34.912\H,0,3.511,2.684,32.06\H,0,2.60
 5,3.961,32.789\H,0,1.49,1.219,33.333\H,0,1.96,1.775,30.386\H,0,0.915,0
 .589,31.02\H,0,2.592,0.426,31.47\H,0,0.215,3.304,33.414\H,0,-0.616,2.0
 52,32.44\H,0,0.857,3.778,30.657\H,0,0.154,4.718,31.71\H,0,-2.097,3.725
 ,31.099\H,0,-1.192,2.409,30.252\H,0,-0.141,4.391,28.907\H,0,-1.34,6.24
 8,28.919\H,0,-2.409,5.756,30.164\H,0,-2.903,5.433,28.484\H,0,-2.739,3.
 428,27.838\H,0,-1.524,2.232,28.122\H,0,0.032,3.202,26.505\H,0,-0.713,4
 .743,26.523\H,0,-2.545,2.563,25.787\H,0,-0.999,2.323,24.992\H,0,-1.98,
 5.126,24.955\H,0,-4.22,4.677,24.124\H,0,-3.899,3.042,24.164\H,0,-3.359
 ,3.976,22.704\H,0,-0.749,5.275,22.942\H,0,-1.281,3.599,22.457\H,0,-0.1
 13,3.847,23.641\\Version=ES64L-G16RevA.03\State=1-A\HF=-3007.1788523\R
 MSD=4.325e-09\PG=C01 [X(C55H74Mg1N4O6)]\\@


 The hours that make us happy make us wise.
                         -- John Masefield
 Job cpu time:       0 days  9 hours 52 minutes 43.4 seconds.
 Elapsed time:       0 days  0 hours 25 minutes  9.1 seconds.
 File lengths (MBytes):  RWF=   8929 Int=      0 D2E=      0 Chk=    390 Scr=      1
 Normal termination of Gaussian 16 at Wed Apr 27 13:41:37 2022.
