 Entering Gaussian System, Link 0=g16
 Initial command:
 /sw/apps/gaussian-16.0/g16/l1.exe "/tmp/Gau-16740.inp" -scrdir="/tmp/"
 Entering Link 1 = /sw/apps/gaussian-16.0/g16/l1.exe PID=     16741.
  
 Copyright (c) 1988,1990,1992,1993,1995,1998,2003,2009,2016,
            Gaussian, Inc.  All Rights Reserved.
  
 This is part of the Gaussian(R) 16 program.  It is based on
 the Gaussian(R) 09 system (copyright 2009, Gaussian, Inc.),
 the Gaussian(R) 03 system (copyright 2003, Gaussian, Inc.),
 the Gaussian(R) 98 system (copyright 1998, Gaussian, Inc.),
 the Gaussian(R) 94 system (copyright 1995, Gaussian, Inc.),
 the Gaussian 92(TM) system (copyright 1992, Gaussian, Inc.),
 the Gaussian 90(TM) system (copyright 1990, Gaussian, Inc.),
 the Gaussian 88(TM) system (copyright 1988, Gaussian, Inc.),
 the Gaussian 86(TM) system (copyright 1986, Carnegie Mellon
 University), and the Gaussian 82(TM) system (copyright 1983,
 Carnegie Mellon University). Gaussian is a federally registered
 trademark of Gaussian, Inc.
  
 This software contains proprietary and confidential information,
 including trade secrets, belonging to Gaussian, Inc.
  
 This software is provided under written license and may be
 used, copied, transmitted, or stored only in accord with that
 written license.
  
 The following legend is applicable only to US Government
 contracts under FAR:
  
                    RESTRICTED RIGHTS LEGEND
  
 Use, reproduction and disclosure by the US Government is
 subject to restrictions as set forth in subparagraphs (a)
 and (c) of the Commercial Computer Software - Restricted
 Rights clause in FAR 52.227-19.
  
 Gaussian, Inc.
 340 Quinnipiac St., Bldg. 40, Wallingford CT 06492
  
  
 ---------------------------------------------------------------
 Warning -- This program may not be used in any manner that
 competes with the business of Gaussian, Inc. or will provide
 assistance to any competitor of Gaussian, Inc.  The licensee
 of this program is prohibited from giving any competitor of
 Gaussian, Inc. access to this program.  By using this program,
 the user acknowledges that Gaussian, Inc. is engaged in the
 business of creating and licensing software in the field of
 computational chemistry and represents and warrants to the
 licensee that it is not a competitor of Gaussian, Inc. and that
 it will not use this program in any manner prohibited above.
 ---------------------------------------------------------------
  

 Cite this work as:
 Gaussian 16, Revision A.03,
 M. J. Frisch, G. W. Trucks, H. B. Schlegel, G. E. Scuseria, 
 M. A. Robb, J. R. Cheeseman, G. Scalmani, V. Barone, 
 G. A. Petersson, H. Nakatsuji, X. Li, M. Caricato, A. V. Marenich, 
 J. Bloino, B. G. Janesko, R. Gomperts, B. Mennucci, H. P. Hratchian, 
 J. V. Ortiz, A. F. Izmaylov, J. L. Sonnenberg, D. Williams-Young, 
 F. Ding, F. Lipparini, F. Egidi, J. Goings, B. Peng, A. Petrone, 
 T. Henderson, D. Ranasinghe, V. G. Zakrzewski, J. Gao, N. Rega, 
 G. Zheng, W. Liang, M. Hada, M. Ehara, K. Toyota, R. Fukuda, 
 J. Hasegawa, M. Ishida, T. Nakajima, Y. Honda, O. Kitao, H. Nakai, 
 T. Vreven, K. Throssell, J. A. Montgomery, Jr., J. E. Peralta, 
 F. Ogliaro, M. J. Bearpark, J. J. Heyd, E. N. Brothers, K. N. Kudin, 
 V. N. Staroverov, T. A. Keith, R. Kobayashi, J. Normand, 
 K. Raghavachari, A. P. Rendell, J. C. Burant, S. S. Iyengar, 
 J. Tomasi, M. Cossi, J. M. Millam, M. Klene, C. Adamo, R. Cammi, 
 J. W. Ochterski, R. L. Martin, K. Morokuma, O. Farkas, 
 J. B. Foresman, and D. J. Fox, Gaussian, Inc., Wallingford CT, 2016.
 
 ******************************************
 Gaussian 16:  ES64L-G16RevA.03 25-Dec-2016
                 5-May-2022 
 ******************************************
 %nproc=24
 Will use up to   24 processors via shared memory.
 %mem=75GB
 ---------------------------------
 #p PBE1PBE/Def2SVP td=(nstates=5)
 ---------------------------------
 1/38=1,172=1/1;
 2/12=2,17=6,18=5,40=1/2;
 3/5=43,7=101,11=9,25=1,30=1,74=-13/1,2,3,8;
 4//1;
 5/5=2,38=5/2;
 8/6=1,10=1,108=5/1;
 9/41=5,42=1,70=2/14;
 6/7=2,8=2,9=2,10=2/1;
 99/5=1,9=1/99;
 Leave Link    1 at Thu May  5 11:17:49 2022, MaxMem= 10066329600 cpu:               0.6 elap:               0.0
 (Enter /sw/apps/gaussian-16.0/g16/l101.exe)
 -----------------------------------------------------
 step_851_chromophore_17 TDDFT with PBE1PBE functional
 -----------------------------------------------------
 Symbolic Z-matrix:
 Charge =  0 Multiplicity = 1
 Mg                    29.022    58.687    41.776 
 C                     26.024    57.072    40.536 
 C                     30.818    56.104    40.485 
 C                     31.895    60.528    41.982 
 C                     27.115    61.415    42.564 
 N                     28.443    56.86     40.46 
 C                     27.206    56.224    40.229 
 C                     27.331    54.898    39.591 
 C                     28.835    54.51     39.877 
 C                     29.45     55.901    40.372 
 C                     29.014    53.371    40.887 
 C                     26.991    54.878    38.1 
 C                     25.98     53.953    37.416 
 C                     25.247    54.388    36.097 
 O                     24.092    54.455    35.835 
 O                     26.223    54.723    35.213 
 N                     31.124    58.354    41.379 
 C                     31.588    57.216    40.838 
 C                     33.081    57.232    40.756 
 C                     33.457    58.525    41.147 
 C                     32.157    59.233    41.538 
 C                     33.921    56.118    40.297 
 C                     34.889    59.046    41.139 
 O                     35.849    58.369    40.739 
 C                     35.197    60.333    41.731 
 N                     29.489    60.766    42.253 
 C                     30.732    61.251    42.353 
 C                     30.727    62.665    42.718 
 C                     29.151    62.931    42.956 
 C                     28.524    61.638    42.586 
 C                     31.627    62.972    43.947 
 C                     28.619    64.189    42.164 
 C                     28.461    65.529    42.933 
 N                     26.982    59.138    41.782 
 C                     26.316    60.343    42.145 
 C                     24.84     60.14     42. 
 C                     24.79     58.883    41.331 
 C                     26.058    58.326    41.24 
 C                     23.724    61.063    42.35 
 C                     23.82     57.981    40.693 
 O                     22.633    58.054    40.438 
 C                     24.607    56.759    40.23 
 C                     24.043    55.513    40.929 
 O                     24.34     55.191    42.097 
 O                     23.427    54.662    40.039 
 C                     23.14     53.301    40.5 
 C                     25.84     55.039    33.832 
 C                     26.698    56.134    33.317 
 C                     26.768    56.543    31.989 
 C                     25.928    55.796    30.991 
 C                     27.789    57.668    31.512 
 C                     27.182    58.984    31.142 
 C                     27.738    60.11     32.035 
 C                     28.821    60.905    31.286 
 C                     28.49     62.407    31.291 
 C                     30.269    60.614    31.76 
 C                     31.073    59.602    30.898 
 C                     32.073    58.748    31.706 
 C                     32.795    57.679    30.847 
 C                     32.012    56.326    30.83 
 C                     34.312    57.442    31.158 
 C                     35.218    57.295    29.904 
 C                     35.084    55.923    29.258 
 C                     36.399    55.227    28.957 
 C                     36.566    54.774    27.505 
 C                     36.645    54.066    29.908 
 H                     31.461    55.264    40.216 
 H                     32.751    61.203    41.916 
 H                     26.48     62.267    42.816 
 H                     26.594    54.273    40.095 
 H                     29.322    54.174    38.962 
 H                     27.997    53.132    41.198 
 H                     29.561    53.679    41.778 
 H                     29.442    52.485    40.418 
 H                     27.938    54.557    37.664 
 H                     26.88     55.883    37.691 
 H                     25.252    53.653    38.17 
 H                     26.459    53.031    37.089 
 H                     33.748    56.014    39.226 
 H                     33.585    55.246    40.857 
 H                     34.967    56.298    40.546 
 H                     34.612    61.091    41.21 
 H                     36.187    60.632    41.384 
 H                     35.197    60.429    42.817 
 H                     30.981    63.345    41.906 
 H                     29.068    63.173    44.016 
 H                     32.465    62.293    44.108 
 H                     30.984    62.99     44.826 
 H                     32.112    63.925    43.735 
 H                     27.66     63.909    41.726 
 H                     29.225    64.406    41.284 
 H                     27.522    65.986    42.618 
 H                     29.331    66.148    42.715 
 H                     28.482    65.2      43.972 
 H                     22.743    60.605    42.474 
 H                     23.758    61.732    41.49 
 H                     23.929    61.655    43.242 
 H                     24.363    56.505    39.199 
 H                     24.155    52.91     40.443 
 H                     22.401    52.843    39.842 
 H                     22.74     53.236    41.512 
 H                     24.827    55.395    33.648 
 H                     25.957    54.102    33.287 
 H                     27.299    56.596    34.1 
 H                     25.954    56.438    30.11 
 H                     24.874    55.749    31.268 
 H                     26.461    54.874    30.76 
 H                     28.065    57.311    30.52 
 H                     28.676    57.771    32.137 
 H                     26.13     58.856    31.398 
 H                     27.346    59.235    30.094 
 H                     28.17     59.741    32.965 
 H                     26.967    60.828    32.314 
 H                     28.735    60.776    30.207 
 H                     28.902    62.83     32.207 
 H                     27.403    62.49     31.272 
 H                     28.819    63.067    30.489 
 H                     30.231    60.505    32.844 
 H                     30.828    61.545    31.667 
 H                     31.67     60.27     30.277 
 H                     30.435    58.934    30.32 
 H                     31.526    58.259    32.512 
 H                     32.708    59.467    32.224 
 H                     32.721    57.928    29.788 
 H                     32.574    55.48     31.227 
 H                     31.602    56.198    29.828 
 H                     31.149    56.464    31.481 
 H                     34.426    56.537    31.755 
 H                     34.654    58.278    31.768 
 H                     36.262    57.446    30.179 
 H                     35.059    58.134    29.227 
 H                     34.549    56.073    28.32 
 H                     34.433    55.238    29.802 
 H                     37.264    55.843    29.207 
 H                     35.796    55.127    26.82 
 H                     36.746    53.702    27.422 
 H                     37.51     55.143    27.105 
 H                     37.218    53.238    29.49 
 H                     35.731    53.535    30.174 
 H                     37.123    54.458    30.805 
 
 ITRead=  0  0  0  0  0  0  0  0  0  0  0  0  0  0  0  0  0  0  0  0
 ITRead=  0  0  0  0  0  0  0  0  0  0  0  0  0  0  0  0  0  0  0  0
 ITRead=  0  0  0  0  0  0  0  0  0  0  0  0  0  0  0  0  0  0  0  0
 ITRead=  0  0  0  0  0  0  0  0  0  0  0  0  0  0  0  0  0  0  0  0
 ITRead=  0  0  0  0  0  0  0  0  0  0  0  0  0  0  0  0  0  0  0  0
 ITRead=  0  0  0  0  0  0  0  0  0  0  0  0  0  0  0  0  0  0  0  0
 ITRead=  0  0  0  0  0  0  0  0  0  0  0  0  0  0  0  0  0  0  0  0
 MicOpt= -1 -1 -1 -1 -1 -1 -1 -1 -1 -1 -1 -1 -1 -1 -1 -1 -1 -1 -1 -1
 MicOpt= -1 -1 -1 -1 -1 -1 -1 -1 -1 -1 -1 -1 -1 -1 -1 -1 -1 -1 -1 -1
 MicOpt= -1 -1 -1 -1 -1 -1 -1 -1 -1 -1 -1 -1 -1 -1 -1 -1 -1 -1 -1 -1
 MicOpt= -1 -1 -1 -1 -1 -1 -1 -1 -1 -1 -1 -1 -1 -1 -1 -1 -1 -1 -1 -1
 MicOpt= -1 -1 -1 -1 -1 -1 -1 -1 -1 -1 -1 -1 -1 -1 -1 -1 -1 -1 -1 -1
 MicOpt= -1 -1 -1 -1 -1 -1 -1 -1 -1 -1 -1 -1 -1 -1 -1 -1 -1 -1 -1 -1
 MicOpt= -1 -1 -1 -1 -1 -1 -1 -1 -1 -1 -1 -1 -1 -1 -1 -1 -1 -1 -1 -1
 NAtoms=    140 NQM=      140 NQMF=       0 NMMI=      0 NMMIF=      0
                NMic=       0 NMicF=      0.
                    Isotopes and Nuclear Properties:
 (Nuclear quadrupole moments (NQMom) in fm**2, nuclear magnetic moments (NMagM)
  in nuclear magnetons)

  Atom         1           2           3           4           5           6           7           8           9          10
 IAtWgt=          24          12          12          12          12          14          12          12          12          12
 AtmWgt=  23.9850450  12.0000000  12.0000000  12.0000000  12.0000000  14.0030740  12.0000000  12.0000000  12.0000000  12.0000000
 NucSpn=           0           0           0           0           0           2           0           0           0           0
 AtZEff=  -0.0000000  -0.0000000  -0.0000000  -0.0000000  -0.0000000  -0.0000000  -0.0000000  -0.0000000  -0.0000000  -0.0000000
 NQMom=    0.0000000   0.0000000   0.0000000   0.0000000   0.0000000   2.0440000   0.0000000   0.0000000   0.0000000   0.0000000
 NMagM=    0.0000000   0.0000000   0.0000000   0.0000000   0.0000000   0.4037610   0.0000000   0.0000000   0.0000000   0.0000000
 AtZNuc=  12.0000000   6.0000000   6.0000000   6.0000000   6.0000000   7.0000000   6.0000000   6.0000000   6.0000000   6.0000000

  Atom        11          12          13          14          15          16          17          18          19          20
 IAtWgt=          12          12          12          12          16          16          14          12          12          12
 AtmWgt=  12.0000000  12.0000000  12.0000000  12.0000000  15.9949146  15.9949146  14.0030740  12.0000000  12.0000000  12.0000000
 NucSpn=           0           0           0           0           0           0           2           0           0           0
 AtZEff=  -0.0000000  -0.0000000  -0.0000000  -0.0000000  -0.0000000  -0.0000000  -0.0000000  -0.0000000  -0.0000000  -0.0000000
 NQMom=    0.0000000   0.0000000   0.0000000   0.0000000   0.0000000   0.0000000   2.0440000   0.0000000   0.0000000   0.0000000
 NMagM=    0.0000000   0.0000000   0.0000000   0.0000000   0.0000000   0.0000000   0.4037610   0.0000000   0.0000000   0.0000000
 AtZNuc=   6.0000000   6.0000000   6.0000000   6.0000000   8.0000000   8.0000000   7.0000000   6.0000000   6.0000000   6.0000000

  Atom        21          22          23          24          25          26          27          28          29          30
 IAtWgt=          12          12          12          16          12          14          12          12          12          12
 AtmWgt=  12.0000000  12.0000000  12.0000000  15.9949146  12.0000000  14.0030740  12.0000000  12.0000000  12.0000000  12.0000000
 NucSpn=           0           0           0           0           0           2           0           0           0           0
 AtZEff=  -0.0000000  -0.0000000  -0.0000000  -0.0000000  -0.0000000  -0.0000000  -0.0000000  -0.0000000  -0.0000000  -0.0000000
 NQMom=    0.0000000   0.0000000   0.0000000   0.0000000   0.0000000   2.0440000   0.0000000   0.0000000   0.0000000   0.0000000
 NMagM=    0.0000000   0.0000000   0.0000000   0.0000000   0.0000000   0.4037610   0.0000000   0.0000000   0.0000000   0.0000000
 AtZNuc=   6.0000000   6.0000000   6.0000000   8.0000000   6.0000000   7.0000000   6.0000000   6.0000000   6.0000000   6.0000000

  Atom        31          32          33          34          35          36          37          38          39          40
 IAtWgt=          12          12          12          14          12          12          12          12          12          12
 AtmWgt=  12.0000000  12.0000000  12.0000000  14.0030740  12.0000000  12.0000000  12.0000000  12.0000000  12.0000000  12.0000000
 NucSpn=           0           0           0           2           0           0           0           0           0           0
 AtZEff=  -0.0000000  -0.0000000  -0.0000000  -0.0000000  -0.0000000  -0.0000000  -0.0000000  -0.0000000  -0.0000000  -0.0000000
 NQMom=    0.0000000   0.0000000   0.0000000   2.0440000   0.0000000   0.0000000   0.0000000   0.0000000   0.0000000   0.0000000
 NMagM=    0.0000000   0.0000000   0.0000000   0.4037610   0.0000000   0.0000000   0.0000000   0.0000000   0.0000000   0.0000000
 AtZNuc=   6.0000000   6.0000000   6.0000000   7.0000000   6.0000000   6.0000000   6.0000000   6.0000000   6.0000000   6.0000000

  Atom        41          42          43          44          45          46          47          48          49          50
 IAtWgt=          16          12          12          16          16          12          12          12          12          12
 AtmWgt=  15.9949146  12.0000000  12.0000000  15.9949146  15.9949146  12.0000000  12.0000000  12.0000000  12.0000000  12.0000000
 NucSpn=           0           0           0           0           0           0           0           0           0           0
 AtZEff=  -0.0000000  -0.0000000  -0.0000000  -0.0000000  -0.0000000  -0.0000000  -0.0000000  -0.0000000  -0.0000000  -0.0000000
 NQMom=    0.0000000   0.0000000   0.0000000   0.0000000   0.0000000   0.0000000   0.0000000   0.0000000   0.0000000   0.0000000
 NMagM=    0.0000000   0.0000000   0.0000000   0.0000000   0.0000000   0.0000000   0.0000000   0.0000000   0.0000000   0.0000000
 AtZNuc=   8.0000000   6.0000000   6.0000000   8.0000000   8.0000000   6.0000000   6.0000000   6.0000000   6.0000000   6.0000000

  Atom        51          52          53          54          55          56          57          58          59          60
 IAtWgt=          12          12          12          12          12          12          12          12          12          12
 AtmWgt=  12.0000000  12.0000000  12.0000000  12.0000000  12.0000000  12.0000000  12.0000000  12.0000000  12.0000000  12.0000000
 NucSpn=           0           0           0           0           0           0           0           0           0           0
 AtZEff=  -0.0000000  -0.0000000  -0.0000000  -0.0000000  -0.0000000  -0.0000000  -0.0000000  -0.0000000  -0.0000000  -0.0000000
 NQMom=    0.0000000   0.0000000   0.0000000   0.0000000   0.0000000   0.0000000   0.0000000   0.0000000   0.0000000   0.0000000
 NMagM=    0.0000000   0.0000000   0.0000000   0.0000000   0.0000000   0.0000000   0.0000000   0.0000000   0.0000000   0.0000000
 AtZNuc=   6.0000000   6.0000000   6.0000000   6.0000000   6.0000000   6.0000000   6.0000000   6.0000000   6.0000000   6.0000000

  Atom        61          62          63          64          65          66          67          68          69          70
 IAtWgt=          12          12          12          12          12          12           1           1           1           1
 AtmWgt=  12.0000000  12.0000000  12.0000000  12.0000000  12.0000000  12.0000000   1.0078250   1.0078250   1.0078250   1.0078250
 NucSpn=           0           0           0           0           0           0           1           1           1           1
 AtZEff=  -0.0000000  -0.0000000  -0.0000000  -0.0000000  -0.0000000  -0.0000000  -0.0000000  -0.0000000  -0.0000000  -0.0000000
 NQMom=    0.0000000   0.0000000   0.0000000   0.0000000   0.0000000   0.0000000   0.0000000   0.0000000   0.0000000   0.0000000
 NMagM=    0.0000000   0.0000000   0.0000000   0.0000000   0.0000000   0.0000000   2.7928460   2.7928460   2.7928460   2.7928460
 AtZNuc=   6.0000000   6.0000000   6.0000000   6.0000000   6.0000000   6.0000000   1.0000000   1.0000000   1.0000000   1.0000000

  Atom        71          72          73          74          75          76          77          78          79          80
 IAtWgt=           1           1           1           1           1           1           1           1           1           1
 AtmWgt=   1.0078250   1.0078250   1.0078250   1.0078250   1.0078250   1.0078250   1.0078250   1.0078250   1.0078250   1.0078250
 NucSpn=           1           1           1           1           1           1           1           1           1           1
 AtZEff=  -0.0000000  -0.0000000  -0.0000000  -0.0000000  -0.0000000  -0.0000000  -0.0000000  -0.0000000  -0.0000000  -0.0000000
 NQMom=    0.0000000   0.0000000   0.0000000   0.0000000   0.0000000   0.0000000   0.0000000   0.0000000   0.0000000   0.0000000
 NMagM=    2.7928460   2.7928460   2.7928460   2.7928460   2.7928460   2.7928460   2.7928460   2.7928460   2.7928460   2.7928460
 AtZNuc=   1.0000000   1.0000000   1.0000000   1.0000000   1.0000000   1.0000000   1.0000000   1.0000000   1.0000000   1.0000000

  Atom        81          82          83          84          85          86          87          88          89          90
 IAtWgt=           1           1           1           1           1           1           1           1           1           1
 AtmWgt=   1.0078250   1.0078250   1.0078250   1.0078250   1.0078250   1.0078250   1.0078250   1.0078250   1.0078250   1.0078250
 NucSpn=           1           1           1           1           1           1           1           1           1           1
 AtZEff=  -0.0000000  -0.0000000  -0.0000000  -0.0000000  -0.0000000  -0.0000000  -0.0000000  -0.0000000  -0.0000000  -0.0000000
 NQMom=    0.0000000   0.0000000   0.0000000   0.0000000   0.0000000   0.0000000   0.0000000   0.0000000   0.0000000   0.0000000
 NMagM=    2.7928460   2.7928460   2.7928460   2.7928460   2.7928460   2.7928460   2.7928460   2.7928460   2.7928460   2.7928460
 AtZNuc=   1.0000000   1.0000000   1.0000000   1.0000000   1.0000000   1.0000000   1.0000000   1.0000000   1.0000000   1.0000000

  Atom        91          92          93          94          95          96          97          98          99         100
 IAtWgt=           1           1           1           1           1           1           1           1           1           1
 AtmWgt=   1.0078250   1.0078250   1.0078250   1.0078250   1.0078250   1.0078250   1.0078250   1.0078250   1.0078250   1.0078250
 NucSpn=           1           1           1           1           1           1           1           1           1           1
 AtZEff=  -0.0000000  -0.0000000  -0.0000000  -0.0000000  -0.0000000  -0.0000000  -0.0000000  -0.0000000  -0.0000000  -0.0000000
 NQMom=    0.0000000   0.0000000   0.0000000   0.0000000   0.0000000   0.0000000   0.0000000   0.0000000   0.0000000   0.0000000
 NMagM=    2.7928460   2.7928460   2.7928460   2.7928460   2.7928460   2.7928460   2.7928460   2.7928460   2.7928460   2.7928460
 AtZNuc=   1.0000000   1.0000000   1.0000000   1.0000000   1.0000000   1.0000000   1.0000000   1.0000000   1.0000000   1.0000000

  Atom       101         102         103         104         105         106         107         108         109         110
 IAtWgt=           1           1           1           1           1           1           1           1           1           1
 AtmWgt=   1.0078250   1.0078250   1.0078250   1.0078250   1.0078250   1.0078250   1.0078250   1.0078250   1.0078250   1.0078250
 NucSpn=           1           1           1           1           1           1           1           1           1           1
 AtZEff=  -0.0000000  -0.0000000  -0.0000000  -0.0000000  -0.0000000  -0.0000000  -0.0000000  -0.0000000  -0.0000000  -0.0000000
 NQMom=    0.0000000   0.0000000   0.0000000   0.0000000   0.0000000   0.0000000   0.0000000   0.0000000   0.0000000   0.0000000
 NMagM=    2.7928460   2.7928460   2.7928460   2.7928460   2.7928460   2.7928460   2.7928460   2.7928460   2.7928460   2.7928460
 AtZNuc=   1.0000000   1.0000000   1.0000000   1.0000000   1.0000000   1.0000000   1.0000000   1.0000000   1.0000000   1.0000000

  Atom       111         112         113         114         115         116         117         118         119         120
 IAtWgt=           1           1           1           1           1           1           1           1           1           1
 AtmWgt=   1.0078250   1.0078250   1.0078250   1.0078250   1.0078250   1.0078250   1.0078250   1.0078250   1.0078250   1.0078250
 NucSpn=           1           1           1           1           1           1           1           1           1           1
 AtZEff=  -0.0000000  -0.0000000  -0.0000000  -0.0000000  -0.0000000  -0.0000000  -0.0000000  -0.0000000  -0.0000000  -0.0000000
 NQMom=    0.0000000   0.0000000   0.0000000   0.0000000   0.0000000   0.0000000   0.0000000   0.0000000   0.0000000   0.0000000
 NMagM=    2.7928460   2.7928460   2.7928460   2.7928460   2.7928460   2.7928460   2.7928460   2.7928460   2.7928460   2.7928460
 AtZNuc=   1.0000000   1.0000000   1.0000000   1.0000000   1.0000000   1.0000000   1.0000000   1.0000000   1.0000000   1.0000000

  Atom       121         122         123         124         125         126         127         128         129         130
 IAtWgt=           1           1           1           1           1           1           1           1           1           1
 AtmWgt=   1.0078250   1.0078250   1.0078250   1.0078250   1.0078250   1.0078250   1.0078250   1.0078250   1.0078250   1.0078250
 NucSpn=           1           1           1           1           1           1           1           1           1           1
 AtZEff=  -0.0000000  -0.0000000  -0.0000000  -0.0000000  -0.0000000  -0.0000000  -0.0000000  -0.0000000  -0.0000000  -0.0000000
 NQMom=    0.0000000   0.0000000   0.0000000   0.0000000   0.0000000   0.0000000   0.0000000   0.0000000   0.0000000   0.0000000
 NMagM=    2.7928460   2.7928460   2.7928460   2.7928460   2.7928460   2.7928460   2.7928460   2.7928460   2.7928460   2.7928460
 AtZNuc=   1.0000000   1.0000000   1.0000000   1.0000000   1.0000000   1.0000000   1.0000000   1.0000000   1.0000000   1.0000000

  Atom       131         132         133         134         135         136         137         138         139         140
 IAtWgt=           1           1           1           1           1           1           1           1           1           1
 AtmWgt=   1.0078250   1.0078250   1.0078250   1.0078250   1.0078250   1.0078250   1.0078250   1.0078250   1.0078250   1.0078250
 NucSpn=           1           1           1           1           1           1           1           1           1           1
 AtZEff=  -0.0000000  -0.0000000  -0.0000000  -0.0000000  -0.0000000  -0.0000000  -0.0000000  -0.0000000  -0.0000000  -0.0000000
 NQMom=    0.0000000   0.0000000   0.0000000   0.0000000   0.0000000   0.0000000   0.0000000   0.0000000   0.0000000   0.0000000
 NMagM=    2.7928460   2.7928460   2.7928460   2.7928460   2.7928460   2.7928460   2.7928460   2.7928460   2.7928460   2.7928460
 AtZNuc=   1.0000000   1.0000000   1.0000000   1.0000000   1.0000000   1.0000000   1.0000000   1.0000000   1.0000000   1.0000000
 Leave Link  101 at Thu May  5 11:17:49 2022, MaxMem= 10066329600 cpu:               2.8 elap:               0.1
 (Enter /sw/apps/gaussian-16.0/g16/l202.exe)
 Stoichiometry    C55H74MgN4O6
 Framework group  C1[X(C55H74MgN4O6)]
 Deg. of freedom   414
 Full point group                 C1      NOp   1
 Largest Abelian subgroup         C1      NOp   1
 Largest concise Abelian subgroup C1      NOp   1
                         Standard orientation:                         
 ---------------------------------------------------------------------
 Center     Atomic      Atomic             Coordinates (Angstroms)
 Number     Number       Type             X           Y           Z
 ---------------------------------------------------------------------
      1         12           0        3.916683    1.356505   -0.668270
      2          6           0        3.653243   -2.257963   -0.661510
      3          6           0        1.563480    1.416089   -3.122464
      4          6           0        3.339225    4.675926   -0.090484
      5          6           0        5.886973    1.125610    2.118166
      6          7           0        2.606145   -0.297854   -1.643263
      7          6           0        2.756312   -1.698363   -1.706900
      8          6           0        1.879684   -2.344008   -2.704702
      9          6           0        1.480342   -1.144436   -3.651227
     10          6           0        1.953416    0.124122   -2.799703
     11          6           0        2.104591   -1.206506   -5.049769
     12          6           0        0.663144   -3.056691   -2.112084
     13          6           0        0.262050   -4.514443   -2.356386
     14          6           0       -0.560220   -5.318634   -1.287076
     15          8           0       -0.335783   -6.351941   -0.749431
     16          8           0       -1.672060   -4.581166   -1.029765
     17          7           0        2.679978    2.903513   -1.542473
     18          6           0        1.795194    2.656956   -2.521957
     19          6           0        1.145278    3.920834   -2.986985
     20          6           0        1.598571    4.913185   -2.106149
     21          6           0        2.590325    4.214854   -1.171856
     22          6           0        0.193196    4.029658   -4.100077
     23          6           0        1.135322    6.364713   -2.130537
     24          8           0        0.273222    6.782619   -2.919250
     25          6           0        1.795106    7.351796   -1.298641
     26          7           0        4.562089    2.792217    0.845019
     27          6           0        4.262671    4.095999    0.817190
     28          6           0        4.863346    4.807192    1.942375
     29          6           0        5.739896    3.637893    2.631994
     30          6           0        5.402885    2.436226    1.829312
     31          6           0        5.681149    6.052058    1.499434
     32          6           0        5.471828    3.509452    4.182638
     33          6           0        6.482060    4.169148    5.160471
     34          7           0        4.799235   -0.194281    0.418561
     35          6           0        5.614612   -0.140994    1.584610
     36          6           0        6.017575   -1.534379    1.954620
     37          6           0        5.194014   -2.308606    1.087192
     38          6           0        4.513999   -1.489068    0.197085
     39          6           0        6.941985   -1.992921    3.029371
     40          6           0        4.822887   -3.708495    0.833962
     41          8           0        5.067191   -4.764684    1.385417
     42          6           0        3.867163   -3.693135   -0.354894
     43          6           0        4.478705   -4.524570   -1.492410
     44          8           0        5.355437   -4.086743   -2.264269
     45          8           0        3.752758   -5.668623   -1.737155
     46          6           0        4.020319   -6.378482   -2.990839
     47          6           0       -2.708667   -5.154249   -0.163320
     48          6           0       -3.297086   -4.085537    0.680500
     49          6           0       -4.443850   -4.215285    1.457586
     50          6           0       -5.160492   -5.536013    1.416200
     51          6           0       -5.055496   -2.983317    2.259920
     52          6           0       -4.902859   -3.034059    3.746975
     53          6           0       -4.098509   -1.821095    4.253135
     54          6           0       -5.042404   -0.754662    4.834253
     55          6           0       -4.623170   -0.384253    6.266954
     56          6           0       -5.231996    0.491090    3.929699
     57          6           0       -6.514096    0.501868    3.052369
     58          6           0       -6.336078    1.211413    1.693312
     59          6           0       -7.594538    1.127971    0.792623
     60          6           0       -7.564152   -0.135792   -0.127142
     61          6           0       -7.947588    2.411223   -0.033694
     62          6           0       -9.457840    2.776850   -0.054098
     63          6           0      -10.250007    1.887018   -1.001899
     64          6           0      -11.164128    2.628323   -1.960591
     65          6           0      -12.624675    2.172803   -1.934000
     66          6           0      -10.623264    2.597791   -3.381636
     67          1           0        0.911380    1.527717   -3.990631
     68          1           0        3.076418    5.684652    0.235279
     69          1           0        6.522927    1.021349    2.999826
     70          1           0        2.500861   -3.107812   -3.172198
     71          1           0        0.402265   -1.126250   -3.808422
     72          1           0        2.733902   -2.095955   -5.018475
     73          1           0        2.754678   -0.357284   -5.259921
     74          1           0        1.346743   -1.354483   -5.819126
     75          1           0       -0.158508   -2.505184   -2.571077
     76          1           0        0.528958   -2.828265   -1.054047
     77          1           0        1.167148   -5.060120   -2.623844
     78          1           0       -0.394385   -4.595060   -3.221862
     79          1           0       -0.725368    3.539825   -3.777447
     80          1           0        0.662267    3.517700   -4.939572
     81          1           0        0.046399    5.073284   -4.379024
     82          1           0        1.696656    7.035637   -0.260093
     83          1           0        1.155240    8.234216   -1.256016
     84          1           0        2.792765    7.694029   -1.574621
     85          1           0        4.162218    5.095700    2.724323
     86          1           0        6.774133    3.965240    2.521306
     87          1           0        5.371893    6.519769    0.564119
     88          1           0        6.726635    5.752014    1.441571
     89          1           0        5.483562    6.823217    2.244182
     90          1           0        5.395379    2.444635    4.406793
     91          1           0        4.484593    3.879630    4.460234
     92          1           0        6.649285    3.475784    5.985745
     93          1           0        6.066073    5.123476    5.482647
     94          1           0        7.348164    4.331683    4.518872
     95          1           0        7.346945   -2.998432    2.917758
     96          1           0        6.280794   -1.911033    3.892179
     97          1           0        7.779753   -1.313126    3.184857
     98          1           0        2.983609   -4.297937   -0.153497
     99          1           0        3.500733   -5.694238   -3.660312
    100          1           0        3.626217   -7.392973   -2.924949
    101          1           0        5.075679   -6.469522   -3.248318
    102          1           0       -2.413863   -5.918678    0.554664
    103          1           0       -3.424163   -5.611971   -0.846869
    104          1           0       -2.735976   -3.152995    0.623440
    105          1           0       -5.842666   -5.478526    2.264926
    106          1           0       -4.510889   -6.383146    1.640333
    107          1           0       -5.751297   -5.543783    0.500545
    108          1           0       -6.125184   -3.176407    2.181356
    109          1           0       -4.816232   -2.005382    1.842310
    110          1           0       -4.288412   -3.920488    3.906101
    111          1           0       -5.863698   -3.074422    4.260163
    112          1           0       -3.497722   -1.353846    3.473123
    113          1           0       -3.411008   -2.092678    5.054005
    114          1           0       -6.006689   -1.183007    5.108028
    115          1           0       -3.876258    0.406157    6.195514
    116          1           0       -4.202917   -1.285083    6.714961
    117          1           0       -5.348180   -0.037388    7.002542
    118          1           0       -4.260487    0.711115    3.486823
    119          1           0       -5.355162    1.349042    4.590486
    120          1           0       -7.178291    1.131992    3.644031
    121          1           0       -6.915260   -0.495179    2.872604
    122          1           0       -5.490314    0.753123    1.180847
    123          1           0       -5.978135    2.211449    1.938904
    124          1           0       -8.473375    0.879711    1.388416
    125          1           0       -7.585382    0.088099   -1.194190
    126          1           0       -8.333153   -0.820088    0.231834
    127          1           0       -6.616078   -0.635336    0.070914
    128          1           0       -7.625962    2.280847   -1.067129
    129          1           0       -7.370742    3.236438    0.383713
    130          1           0       -9.585944    3.813354   -0.366524
    131          1           0       -9.846741    2.817838    0.963059
    132          1           0      -10.859815    1.234106   -0.377071
    133          1           0       -9.637549    1.181917   -1.564652
    134          1           0      -11.156705    3.706566   -1.794706
    135          1           0      -12.876487    1.476705   -1.134768
    136          1           0      -12.973709    1.838255   -2.911101
    137          1           0      -13.281151    3.031552   -1.796566
    138          1           0      -11.380297    2.613407   -4.166043
    139          1           0      -10.130149    1.657275   -3.627363
    140          1           0       -9.924992    3.426039   -3.496440
 ---------------------------------------------------------------------
 Rotational constants (GHZ):           0.0284771           0.0167388           0.0138105
 Leave Link  202 at Thu May  5 11:17:49 2022, MaxMem= 10066329600 cpu:               0.2 elap:               0.0
 (Enter /sw/apps/gaussian-16.0/g16/l301.exe)
 Standard basis: def2SVP (5D, 7F)
 Ernie: Thresh=  0.10000D-02 Tol=  0.10000D-05 Strict=F.
 There are  1364 symmetry adapted cartesian basis functions of A   symmetry.
 There are  1298 symmetry adapted basis functions of A   symmetry.
  1298 basis functions,  2180 primitive gaussians,  1364 cartesian basis functions
   246 alpha electrons      246 beta electrons
       nuclear repulsion energy      9850.6918157222 Hartrees.
 IExCor= 1009 DFT=T Ex+Corr=PBE1PBE ExCW=0 ScaHFX=  0.250000
 ScaDFX=  0.750000  0.750000  1.000000  1.000000 ScalE2=  1.000000  1.000000
 IRadAn=      5 IRanWt=     -1 IRanGd=            0 ICorTp=0 IEmpDi=  4
 NAtoms=  140 NActive=  140 NUniq=  140 SFac= 1.00D+00 NAtFMM=   60 NAOKFM=T Big=T
 Integral buffers will be    131072 words long.
 Regular integral format.
 Two-electron integral symmetry is turned on.
 Leave Link  301 at Thu May  5 11:17:49 2022, MaxMem= 10066329600 cpu:               1.4 elap:               0.1
 (Enter /sw/apps/gaussian-16.0/g16/l302.exe)
 NPDir=0 NMtPBC=     1 NCelOv=     1 NCel=       1 NClECP=     1 NCelD=      1
         NCelK=      1 NCelE2=     1 NClLst=     1 CellRange=     0.0.
 One-electron integrals computed using PRISM.
 One-electron integral symmetry used in STVInt
   1 Symmetry operations used in ECPInt.
 ECPInt:  NShTT=  192510 NPrTT=  683786 LenC2=  105834 LenP2D=  222757.
 LDataN:  DoStor=T MaxTD1= 4 Len=   56
 NBasis=  1298 RedAO= T EigKep=  2.95D-04  NBF=  1298
 NBsUse=  1298 1.00D-06 EigRej= -1.00D+00 NBFU=  1298
 Precomputing XC quadrature grid using
 IXCGrd= 4 IRadAn=           5 IRanWt=          -1 IRanGd=           0 AccXCQ= 0.00D+00.
 Generated NRdTot=       0 NPtTot=           0 NUsed=           0 NTot=          32
 NSgBfM=  1086  1078  1078  1086  1086 MxSgAt=   140 MxSgA2=   140.
 Leave Link  302 at Thu May  5 11:17:52 2022, MaxMem= 10066329600 cpu:              78.9 elap:               3.3
 (Enter /sw/apps/gaussian-16.0/g16/l303.exe)
 DipDrv:  MaxL=1.
 Leave Link  303 at Thu May  5 11:17:53 2022, MaxMem= 10066329600 cpu:               7.0 elap:               0.3
 (Enter /sw/apps/gaussian-16.0/g16/l308.exe)
 Leave Link  308 at Thu May  5 11:17:53 2022, MaxMem= 10066329600 cpu:              11.4 elap:               0.5
 (Enter /sw/apps/gaussian-16.0/g16/l401.exe)
 ExpMin= 3.36D-02 ExpMax= 4.95D+03 ExpMxC= 7.45D+02 IAcc=3 IRadAn=         5 AccDes= 0.00D+00
 Harris functional with IExCor= 1009 and IRadAn=       5 diagonalized for initial guess.
 HarFok:  IExCor= 1009 AccDes= 0.00D+00 IRadAn=         5 IDoV= 1 UseB2=F ITyADJ=14
 ICtDFT=  3500011 ScaDFX=  1.000000  1.000000  1.000000  1.000000
 FoFCou: FMM=F IPFlag=           0 FMFlag=      100000 FMFlg1=        2001
         NFxFlg=           0 DoJE=T BraDBF=F KetDBF=T FulRan=T
         wScrn=  0.000000 ICntrl=       500 IOpCl=  0 I1Cent=   200000004 NGrid=           0
         NMat0=    1 NMatS0=      1 NMatT0=    0 NMatD0=    1 NMtDS0=    0 NMtDT0=    0
 Petite list used in FoFCou.
 Harris En= -3006.14181459472    
 JPrj=0 DoOrth=F DoCkMO=F.
 Leave Link  401 at Thu May  5 11:17:59 2022, MaxMem= 10066329600 cpu:             135.3 elap:               5.7
 (Enter /sw/apps/gaussian-16.0/g16/l502.exe)
 Integral symmetry usage will be decided dynamically.
 Closed shell SCF:
 Using DIIS extrapolation, IDIIS=  1040.
 NGot= 10066329600 LenX= 10062561258 LenY= 10060699398
 Requested convergence on RMS density matrix=1.00D-08 within 128 cycles.
 Requested convergence on MAX density matrix=1.00D-06.
 Requested convergence on             energy=1.00D-06.
 No special actions if energy rises.
 Fock matrices will be formed incrementally for  20 cycles.

 Cycle   1  Pass 1  IDiag  1:
 FoFJK:  IHMeth= 1 ICntrl=       0 DoSepK=F KAlg= 0 I1Cent=           0 FoldK=F
 IRaf= 530000000 NMat=       1 IRICut=       1 DoRegI=T DoRafI=F ISym2E= 0 IDoP0=0 IntGTp=1.
 FoFCou: FMM=T IPFlag=           0 FMFlag=      100000 FMFlg1=        2001
         NFxFlg=           0 DoJE=F BraDBF=F KetDBF=F FulRan=T
         wScrn=  0.000000 ICntrl=         0 IOpCl=  0 I1Cent=           0 NGrid=           0
         NMat0=    1 NMatS0=      1 NMatT0=    0 NMatD0=    1 NMtDS0=    0 NMtDT0=    0
 Symmetry not used in FoFCou.
 FMM levels:  10  Number of levels for PrismC:   9
 E= -3003.78359603299    
 DIIS: error= 2.31D-02 at cycle   1 NSaved=   1.
 NSaved= 1 IEnMin= 1 EnMin= -3003.78359603299     IErMin= 1 ErrMin= 2.31D-02
 ErrMax= 2.31D-02  0.00D+00 EMaxC= 1.00D-01 BMatC= 1.47D+00 BMatP= 1.47D+00
 IDIUse=3 WtCom= 7.69D-01 WtEn= 2.31D-01
 Coeff-Com:  0.100D+01
 Coeff-En:   0.100D+01
 Coeff:      0.100D+01
 Gap=     0.095 Goal=   None    Shift=    0.000
 GapD=    0.095 DampG=0.500 DampE=0.500 DampFc=0.2500 IDamp=-1.
 Damping current iteration by 2.50D-01
 RMSDP=2.72D-03 MaxDP=6.13D-01              OVMax= 2.40D-01

 Cycle   2  Pass 1  IDiag  1:
 RMSU=  6.73D-04    CP:  9.90D-01
 E= -3004.33844982072     Delta-E=       -0.554853787726 Rises=F Damp=T
 DIIS: error= 1.11D-02 at cycle   2 NSaved=   2.
 NSaved= 2 IEnMin= 2 EnMin= -3004.33844982072     IErMin= 2 ErrMin= 1.11D-02
 ErrMax= 1.11D-02  0.00D+00 EMaxC= 1.00D-01 BMatC= 3.67D-01 BMatP= 1.47D+00
 IDIUse=3 WtCom= 8.89D-01 WtEn= 1.11D-01
 Coeff-Com: -0.785D+00 0.178D+01
 Coeff-En:   0.000D+00 0.100D+01
 Coeff:     -0.698D+00 0.170D+01
 Gap=     0.183 Goal=   None    Shift=    0.000
 RMSDP=9.66D-04 MaxDP=5.61D-02 DE=-5.55D-01 OVMax= 1.90D-01

 Cycle   3  Pass 1  IDiag  1:
 RMSU=  7.94D-04    CP:  9.64D-01  1.74D+00
 E= -3005.19832459450     Delta-E=       -0.859874773783 Rises=F Damp=F
 DIIS: error= 1.15D-02 at cycle   3 NSaved=   3.
 NSaved= 3 IEnMin= 3 EnMin= -3005.19832459450     IErMin= 2 ErrMin= 1.11D-02
 ErrMax= 1.15D-02  0.00D+00 EMaxC= 1.00D-01 BMatC= 1.47D-01 BMatP= 3.67D-01
 IDIUse=3 WtCom= 8.85D-01 WtEn= 1.15D-01
 Coeff-Com: -0.481D+00 0.103D+01 0.452D+00
 Coeff-En:   0.000D+00 0.000D+00 0.100D+01
 Coeff:     -0.425D+00 0.910D+00 0.515D+00
 Gap=     0.081 Goal=   None    Shift=    0.000
 RMSDP=5.11D-04 MaxDP=8.57D-02 DE=-8.60D-01 OVMax= 1.21D-01

 Cycle   4  Pass 1  IDiag  1:
 RMSU=  3.62D-04    CP:  9.70D-01  1.93D+00  5.79D-01
 E= -3005.29887187494     Delta-E=       -0.100547280437 Rises=F Damp=F
 DIIS: error= 6.52D-03 at cycle   4 NSaved=   4.
 NSaved= 4 IEnMin= 4 EnMin= -3005.29887187494     IErMin= 4 ErrMin= 6.52D-03
 ErrMax= 6.52D-03  0.00D+00 EMaxC= 1.00D-01 BMatC= 3.57D-02 BMatP= 1.47D-01
 IDIUse=3 WtCom= 9.35D-01 WtEn= 6.52D-02
 Coeff-Com: -0.871D-01 0.194D+00 0.329D+00 0.564D+00
 Coeff-En:   0.000D+00 0.000D+00 0.235D+00 0.765D+00
 Coeff:     -0.814D-01 0.182D+00 0.323D+00 0.577D+00
 Gap=     0.082 Goal=   None    Shift=    0.000
 RMSDP=2.34D-04 MaxDP=3.92D-02 DE=-1.01D-01 OVMax= 9.80D-02

 Cycle   5  Pass 1  IDiag  1:
 RMSU=  1.18D-04    CP:  9.69D-01  1.83D+00  7.19D-01  5.70D-01
 E= -3005.32610111152     Delta-E=       -0.027229236577 Rises=F Damp=F
 DIIS: error= 1.47D-03 at cycle   5 NSaved=   5.
 NSaved= 5 IEnMin= 5 EnMin= -3005.32610111152     IErMin= 5 ErrMin= 1.47D-03
 ErrMax= 1.47D-03  0.00D+00 EMaxC= 1.00D-01 BMatC= 4.32D-03 BMatP= 3.57D-02
 IDIUse=3 WtCom= 9.85D-01 WtEn= 1.47D-02
 Coeff-Com: -0.183D-01 0.448D-01 0.180D+00 0.387D+00 0.407D+00
 Coeff-En:   0.000D+00 0.000D+00 0.000D+00 0.129D+00 0.871D+00
 Coeff:     -0.180D-01 0.441D-01 0.177D+00 0.383D+00 0.414D+00
 Gap=     0.080 Goal=   None    Shift=    0.000
 RMSDP=1.02D-04 MaxDP=7.40D-03 DE=-2.72D-02 OVMax= 5.87D-02

 Cycle   6  Pass 1  IDiag  1:
 RMSU=  4.73D-05    CP:  9.68D-01  1.84D+00  7.05D-01  6.66D-01  3.03D-01
 E= -3005.33076969361     Delta-E=       -0.004668582096 Rises=F Damp=F
 DIIS: error= 5.64D-04 at cycle   6 NSaved=   6.
 NSaved= 6 IEnMin= 6 EnMin= -3005.33076969361     IErMin= 6 ErrMin= 5.64D-04
 ErrMax= 5.64D-04  0.00D+00 EMaxC= 1.00D-01 BMatC= 5.98D-04 BMatP= 4.32D-03
 IDIUse=3 WtCom= 9.94D-01 WtEn= 5.64D-03
 Coeff-Com:  0.135D-02-0.126D-03 0.685D-01 0.169D+00 0.292D+00 0.470D+00
 Coeff-En:   0.000D+00 0.000D+00 0.000D+00 0.000D+00 0.163D+00 0.837D+00
 Coeff:      0.134D-02-0.125D-03 0.681D-01 0.168D+00 0.291D+00 0.472D+00
 Gap=     0.080 Goal=   None    Shift=    0.000
 RMSDP=3.59D-05 MaxDP=1.96D-03 DE=-4.67D-03 OVMax= 2.00D-02

 Cycle   7  Pass 1  IDiag  1:
 RMSU=  1.61D-05    CP:  9.68D-01  1.84D+00  7.12D-01  6.47D-01  4.71D-01
                    CP:  5.06D-01
 E= -3005.33150965257     Delta-E=       -0.000739958961 Rises=F Damp=F
 DIIS: error= 3.28D-04 at cycle   7 NSaved=   7.
 NSaved= 7 IEnMin= 7 EnMin= -3005.33150965257     IErMin= 7 ErrMin= 3.28D-04
 ErrMax= 3.28D-04  0.00D+00 EMaxC= 1.00D-01 BMatC= 5.36D-05 BMatP= 5.98D-04
 IDIUse=3 WtCom= 9.97D-01 WtEn= 3.28D-03
 Coeff-Com:  0.279D-02-0.500D-02 0.207D-01 0.557D-01 0.131D+00 0.296D+00
 Coeff-Com:  0.499D+00
 Coeff-En:   0.000D+00 0.000D+00 0.000D+00 0.000D+00 0.000D+00 0.495D-01
 Coeff-En:   0.951D+00
 Coeff:      0.278D-02-0.498D-02 0.207D-01 0.556D-01 0.130D+00 0.296D+00
 Coeff:      0.500D+00
 Gap=     0.080 Goal=   None    Shift=    0.000
 RMSDP=1.01D-05 MaxDP=7.86D-04 DE=-7.40D-04 OVMax= 4.67D-03

 Cycle   8  Pass 1  IDiag  1:
 RMSU=  5.86D-06    CP:  9.68D-01  1.84D+00  7.12D-01  6.52D-01  4.53D-01
                    CP:  5.77D-01  5.71D-01
 E= -3005.33156112504     Delta-E=       -0.000051472471 Rises=F Damp=F
 DIIS: error= 6.79D-05 at cycle   8 NSaved=   8.
 NSaved= 8 IEnMin= 8 EnMin= -3005.33156112504     IErMin= 8 ErrMin= 6.79D-05
 ErrMax= 6.79D-05  0.00D+00 EMaxC= 1.00D-01 BMatC= 7.55D-06 BMatP= 5.36D-05
 IDIUse=1 WtCom= 1.00D+00 WtEn= 0.00D+00
 Coeff-Com:  0.160D-02-0.310D-02 0.576D-02 0.166D-01 0.520D-01 0.140D+00
 Coeff-Com:  0.325D+00 0.462D+00
 Coeff:      0.160D-02-0.310D-02 0.576D-02 0.166D-01 0.520D-01 0.140D+00
 Coeff:      0.325D+00 0.462D+00
 Gap=     0.080 Goal=   None    Shift=    0.000
 RMSDP=3.95D-06 MaxDP=2.76D-04 DE=-5.15D-05 OVMax= 2.02D-03

 Cycle   9  Pass 1  IDiag  1:
 RMSU=  2.08D-06    CP:  9.68D-01  1.84D+00  7.12D-01  6.52D-01  4.58D-01
                    CP:  5.77D-01  6.45D-01  4.80D-01
 E= -3005.33156899390     Delta-E=       -0.000007868861 Rises=F Damp=F
 DIIS: error= 1.88D-05 at cycle   9 NSaved=   9.
 NSaved= 9 IEnMin= 9 EnMin= -3005.33156899390     IErMin= 9 ErrMin= 1.88D-05
 ErrMax= 1.88D-05  0.00D+00 EMaxC= 1.00D-01 BMatC= 8.56D-07 BMatP= 7.55D-06
 IDIUse=1 WtCom= 1.00D+00 WtEn= 0.00D+00
 Coeff-Com:  0.618D-03-0.121D-02 0.109D-02 0.311D-02 0.160D-01 0.507D-01
 Coeff-Com:  0.139D+00 0.290D+00 0.500D+00
 Coeff:      0.618D-03-0.121D-02 0.109D-02 0.311D-02 0.160D-01 0.507D-01
 Coeff:      0.139D+00 0.290D+00 0.500D+00
 Gap=     0.080 Goal=   None    Shift=    0.000
 RMSDP=1.41D-06 MaxDP=2.22D-04 DE=-7.87D-06 OVMax= 7.66D-04

 Cycle  10  Pass 1  IDiag  1:
 RMSU=  9.30D-07    CP:  9.68D-01  1.84D+00  7.12D-01  6.52D-01  4.59D-01
                    CP:  5.83D-01  6.34D-01  5.88D-01  6.41D-01
 E= -3005.33156975358     Delta-E=       -0.000000759672 Rises=F Damp=F
 DIIS: error= 1.28D-05 at cycle  10 NSaved=  10.
 NSaved=10 IEnMin=10 EnMin= -3005.33156975358     IErMin=10 ErrMin= 1.28D-05
 ErrMax= 1.28D-05  0.00D+00 EMaxC= 1.00D-01 BMatC= 1.77D-07 BMatP= 8.56D-07
 IDIUse=1 WtCom= 1.00D+00 WtEn= 0.00D+00
 Coeff-Com:  0.134D-03-0.266D-03-0.249D-03-0.938D-03 0.166D-02 0.926D-02
 Coeff-Com:  0.362D-01 0.119D+00 0.341D+00 0.493D+00
 Coeff:      0.134D-03-0.266D-03-0.249D-03-0.938D-03 0.166D-02 0.926D-02
 Coeff:      0.362D-01 0.119D+00 0.341D+00 0.493D+00
 Gap=     0.080 Goal=   None    Shift=    0.000
 RMSDP=7.51D-07 MaxDP=7.86D-05 DE=-7.60D-07 OVMax= 5.32D-04

 Cycle  11  Pass 1  IDiag  1:
 RMSU=  4.39D-07    CP:  9.68D-01  1.84D+00  7.12D-01  6.52D-01  4.59D-01
                    CP:  5.83D-01  6.39D-01  5.75D-01  7.95D-01  4.58D-01
 E= -3005.33156990716     Delta-E=       -0.000000153583 Rises=F Damp=F
 DIIS: error= 4.86D-06 at cycle  11 NSaved=  11.
 NSaved=11 IEnMin=11 EnMin= -3005.33156990716     IErMin=11 ErrMin= 4.86D-06
 ErrMax= 4.86D-06  0.00D+00 EMaxC= 1.00D-01 BMatC= 5.38D-08 BMatP= 1.77D-07
 IDIUse=1 WtCom= 1.00D+00 WtEn= 0.00D+00
 Coeff-Com: -0.376D-06 0.211D-05-0.382D-03-0.131D-02-0.155D-02-0.200D-02
 Coeff-Com:  0.304D-02 0.399D-01 0.167D+00 0.386D+00 0.409D+00
 Coeff:     -0.376D-06 0.211D-05-0.382D-03-0.131D-02-0.155D-02-0.200D-02
 Coeff:      0.304D-02 0.399D-01 0.167D+00 0.386D+00 0.409D+00
 Gap=     0.080 Goal=   None    Shift=    0.000
 RMSDP=3.29D-07 MaxDP=3.97D-05 DE=-1.54D-07 OVMax= 2.10D-04

 Cycle  12  Pass 1  IDiag  1:
 RMSU=  1.54D-07    CP:  9.68D-01  1.84D+00  7.12D-01  6.52D-01  4.59D-01
                    CP:  5.83D-01  6.42D-01  5.87D-01  7.75D-01  6.69D-01
                    CP:  5.77D-01
 E= -3005.33156997636     Delta-E=       -0.000000069202 Rises=F Damp=F
 DIIS: error= 1.19D-06 at cycle  12 NSaved=  12.
 NSaved=12 IEnMin=12 EnMin= -3005.33156997636     IErMin=12 ErrMin= 1.19D-06
 ErrMax= 1.19D-06  0.00D+00 EMaxC= 1.00D-01 BMatC= 2.88D-09 BMatP= 5.38D-08
 IDIUse=1 WtCom= 1.00D+00 WtEn= 0.00D+00
 Coeff-Com: -0.128D-04 0.288D-04-0.175D-03-0.615D-03-0.107D-02-0.246D-02
 Coeff-Com: -0.321D-02 0.698D-02 0.451D-01 0.160D+00 0.224D+00 0.572D+00
 Coeff:     -0.128D-04 0.288D-04-0.175D-03-0.615D-03-0.107D-02-0.246D-02
 Coeff:     -0.321D-02 0.698D-02 0.451D-01 0.160D+00 0.224D+00 0.572D+00
 Gap=     0.080 Goal=   None    Shift=    0.000
 RMSDP=9.81D-08 MaxDP=1.25D-05 DE=-6.92D-08 OVMax= 5.91D-05

 Cycle  13  Pass 1  IDiag  1:
 RMSU=  6.68D-08    CP:  9.68D-01  1.84D+00  7.12D-01  6.52D-01  4.59D-01
                    CP:  5.84D-01  6.42D-01  5.89D-01  7.90D-01  6.69D-01
                    CP:  6.91D-01  7.96D-01
 E= -3005.33156997952     Delta-E=       -0.000000003156 Rises=F Damp=F
 DIIS: error= 5.53D-07 at cycle  13 NSaved=  13.
 NSaved=13 IEnMin=13 EnMin= -3005.33156997952     IErMin=13 ErrMin= 5.53D-07
 ErrMax= 5.53D-07  0.00D+00 EMaxC= 1.00D-01 BMatC= 8.96D-10 BMatP= 2.88D-09
 IDIUse=1 WtCom= 1.00D+00 WtEn= 0.00D+00
 Coeff-Com: -0.765D-05 0.177D-04-0.317D-04-0.122D-03-0.367D-03-0.127D-02
 Coeff-Com: -0.293D-02-0.427D-02-0.106D-01 0.206D-01 0.381D-01 0.374D+00
 Coeff-Com:  0.586D+00
 Coeff:     -0.765D-05 0.177D-04-0.317D-04-0.122D-03-0.367D-03-0.127D-02
 Coeff:     -0.293D-02-0.427D-02-0.106D-01 0.206D-01 0.381D-01 0.374D+00
 Coeff:      0.586D+00
 Gap=     0.080 Goal=   None    Shift=    0.000
 RMSDP=4.77D-08 MaxDP=2.76D-06 DE=-3.16D-09 OVMax= 2.33D-05

 Cycle  14  Pass 1  IDiag  1:
 RMSU=  2.79D-08    CP:  9.68D-01  1.84D+00  7.12D-01  6.52D-01  4.59D-01
                    CP:  5.84D-01  6.42D-01  5.91D-01  7.95D-01  6.93D-01
                    CP:  7.01D-01  9.66D-01  8.41D-01
 E= -3005.33156998080     Delta-E=       -0.000000001288 Rises=F Damp=F
 DIIS: error= 2.52D-07 at cycle  14 NSaved=  14.
 NSaved=14 IEnMin=14 EnMin= -3005.33156998080     IErMin=14 ErrMin= 2.52D-07
 ErrMax= 2.52D-07  0.00D+00 EMaxC= 1.00D-01 BMatC= 1.30D-10 BMatP= 8.96D-10
 IDIUse=1 WtCom= 1.00D+00 WtEn= 0.00D+00
 Coeff-Com: -0.928D-06 0.292D-05 0.172D-04 0.531D-04-0.232D-06-0.287D-03
 Coeff-Com: -0.117D-02-0.396D-02-0.168D-01-0.190D-01-0.284D-01 0.116D+00
 Coeff-Com:  0.338D+00 0.616D+00
 Coeff:     -0.928D-06 0.292D-05 0.172D-04 0.531D-04-0.232D-06-0.287D-03
 Coeff:     -0.117D-02-0.396D-02-0.168D-01-0.190D-01-0.284D-01 0.116D+00
 Coeff:      0.338D+00 0.616D+00
 Gap=     0.080 Goal=   None    Shift=    0.000
 RMSDP=2.23D-08 MaxDP=3.43D-06 DE=-1.29D-09 OVMax= 1.13D-05

 Cycle  15  Pass 1  IDiag  1:
 RMSU=  1.14D-08    CP:  9.68D-01  1.84D+00  7.12D-01  6.52D-01  4.59D-01
                    CP:  5.84D-01  6.43D-01  5.91D-01  7.96D-01  7.00D-01
                    CP:  7.22D-01  1.01D+00  9.88D-01  8.76D-01
 E= -3005.33156998083     Delta-E=       -0.000000000027 Rises=F Damp=F
 DIIS: error= 1.87D-07 at cycle  15 NSaved=  15.
 NSaved=15 IEnMin=15 EnMin= -3005.33156998083     IErMin=15 ErrMin= 1.87D-07
 ErrMax= 1.87D-07  0.00D+00 EMaxC= 1.00D-01 BMatC= 2.70D-11 BMatP= 1.30D-10
 IDIUse=1 WtCom= 1.00D+00 WtEn= 0.00D+00
 Coeff-Com:  0.896D-06-0.150D-05 0.147D-04 0.480D-04 0.654D-04 0.593D-04
 Coeff-Com: -0.106D-03-0.119D-02-0.725D-02-0.120D-01-0.233D-01 0.361D-02
 Coeff-Com:  0.722D-01 0.364D+00 0.604D+00
 Coeff:      0.896D-06-0.150D-05 0.147D-04 0.480D-04 0.654D-04 0.593D-04
 Coeff:     -0.106D-03-0.119D-02-0.725D-02-0.120D-01-0.233D-01 0.361D-02
 Coeff:      0.722D-01 0.364D+00 0.604D+00
 Gap=     0.080 Goal=   None    Shift=    0.000
 RMSDP=8.55D-09 MaxDP=5.88D-07 DE=-2.73D-11 OVMax= 4.33D-06

 SCF Done:  E(RPBE1PBE) =  -3005.33156998     A.U. after   15 cycles
            NFock= 15  Conv=0.85D-08     -V/T= 2.0102
 KE= 2.974968190194D+03 PE=-2.669215718207D+04 EE= 1.086116560617D+04
 Leave Link  502 at Thu May  5 11:22:30 2022, MaxMem= 10066329600 cpu:            6466.4 elap:             271.1
 (Enter /sw/apps/gaussian-16.0/g16/l801.exe)
 DoSCS=F DFT=T ScalE2(SS,OS)=  1.000000  1.000000
 ExpMin= 3.36D-02 ExpMax= 4.95D+03 ExpMxC= 7.45D+02 IAcc=3 IRadAn=         5 AccDes= 0.00D+00
 HarFok:  IExCor=  205 AccDes= 0.00D+00 IRadAn=         5 IDoV=-2 UseB2=F ITyADJ=14
 ICtDFT= 12500011 ScaDFX=  1.000000  1.000000  1.000000  1.000000
 GSVD:  LWork=       -5460 too small for GESVD, short by       25550 words or       25550 for optimal perf.
 Largest valence mixing into a core orbital is  1.09D-04
 Largest core mixing into a valence orbital is  5.68D-05
 Range of M.O.s used for correlation:    71  1298
 NBasis=  1298 NAE=   246 NBE=   246 NFC=    70 NFV=     0
 NROrb=   1228 NOA=   176 NOB=   176 NVA=  1052 NVB=  1052

 **** Warning!!: The smallest alpha delta epsilon is  0.80326578D-01

 Leave Link  801 at Thu May  5 11:22:30 2022, MaxMem= 10066329600 cpu:               6.8 elap:               0.3
 (Enter /sw/apps/gaussian-16.0/g16/l914.exe)
 RHF ground state
 Two-electron integrals replicated using symmetry.
 MDV= 10066329600 DFT=T DoStab=F Mixed=T DoRPA=T DoScal=F NonHer=T
 Making orbital integer symmetry assigments:
 Orbital symmetries:
       Occupied  (A) (A) (A) (A) (A) (A) (A) (A) (A) (A) (A) (A)
                 (A) (A) (A) (A) (A) (A) (A) (A) (A) (A) (A) (A)
                 (A) (A) (A) (A) (A) (A) (A) (A) (A) (A) (A) (A)
                 (A) (A) (A) (A) (A) (A) (A) (A) (A) (A) (A) (A)
                 (A) (A) (A) (A) (A) (A) (A) (A) (A) (A) (A) (A)
                 (A) (A) (A) (A) (A) (A) (A) (A) (A) (A) (A) (A)
                 (A) (A) (A) (A) (A) (A) (A) (A) (A) (A) (A) (A)
                 (A) (A) (A) (A) (A) (A) (A) (A) (A) (A) (A) (A)
                 (A) (A) (A) (A) (A) (A) (A) (A) (A) (A) (A) (A)
                 (A) (A) (A) (A) (A) (A) (A) (A) (A) (A) (A) (A)
                 (A) (A) (A) (A) (A) (A) (A) (A) (A) (A) (A) (A)
                 (A) (A) (A) (A) (A) (A) (A) (A) (A) (A) (A) (A)
                 (A) (A) (A) (A) (A) (A) (A) (A) (A) (A) (A) (A)
                 (A) (A) (A) (A) (A) (A) (A) (A) (A) (A) (A) (A)
                 (A) (A) (A) (A) (A) (A) (A) (A) (A) (A) (A) (A)
                 (A) (A) (A) (A) (A) (A) (A) (A) (A) (A) (A) (A)
                 (A) (A) (A) (A) (A) (A) (A) (A) (A) (A) (A) (A)
                 (A) (A) (A) (A) (A) (A) (A) (A) (A) (A) (A) (A)
                 (A) (A) (A) (A) (A) (A) (A) (A) (A) (A) (A) (A)
                 (A) (A) (A) (A) (A) (A) (A) (A) (A) (A) (A) (A)
                 (A) (A) (A) (A) (A) (A)
       Virtual   (A) (A) (A) (A) (A) (A) (A) (A) (A) (A) (A) (A)
                 (A) (A) (A) (A) (A) (A) (A) (A) (A) (A) (A) (A)
                 (A) (A) (A) (A) (A) (A) (A) (A) (A) (A) (A) (A)
                 (A) (A) (A) (A) (A) (A) (A) (A) (A) (A) (A) (A)
                 (A) (A) (A) (A) (A) (A) (A) (A) (A) (A) (A) (A)
                 (A) (A) (A) (A) (A) (A) (A) (A) (A) (A) (A) (A)
                 (A) (A) (A) (A) (A) (A) (A) (A) (A) (A) (A) (A)
                 (A) (A) (A) (A) (A) (A) (A) (A) (A) (A) (A) (A)
                 (A) (A) (A) (A) (A) (A) (A) (A) (A) (A) (A) (A)
                 (A) (A) (A) (A) (A) (A) (A) (A) (A) (A) (A) (A)
                 (A) (A) (A) (A) (A) (A) (A) (A) (A) (A) (A) (A)
                 (A) (A) (A) (A) (A) (A) (A) (A) (A) (A) (A) (A)
                 (A) (A) (A) (A) (A) (A) (A) (A) (A) (A) (A) (A)
                 (A) (A) (A) (A) (A) (A) (A) (A) (A) (A) (A) (A)
                 (A) (A) (A) (A) (A) (A) (A) (A) (A) (A) (A) (A)
                 (A) (A) (A) (A) (A) (A) (A) (A) (A) (A) (A) (A)
                 (A) (A) (A) (A) (A) (A) (A) (A) (A) (A) (A) (A)
                 (A) (A) (A) (A) (A) (A) (A) (A) (A) (A) (A) (A)
                 (A) (A) (A) (A) (A) (A) (A) (A) (A) (A) (A) (A)
                 (A) (A) (A) (A) (A) (A) (A) (A) (A) (A) (A) (A)
                 (A) (A) (A) (A) (A) (A) (A) (A) (A) (A) (A) (A)
                 (A) (A) (A) (A) (A) (A) (A) (A) (A) (A) (A) (A)
                 (A) (A) (A) (A) (A) (A) (A) (A) (A) (A) (A) (A)
                 (A) (A) (A) (A) (A) (A) (A) (A) (A) (A) (A) (A)
                 (A) (A) (A) (A) (A) (A) (A) (A) (A) (A) (A) (A)
                 (A) (A) (A) (A) (A) (A) (A) (A) (A) (A) (A) (A)
                 (A) (A) (A) (A) (A) (A) (A) (A) (A) (A) (A) (A)
                 (A) (A) (A) (A) (A) (A) (A) (A) (A) (A) (A) (A)
                 (A) (A) (A) (A) (A) (A) (A) (A) (A) (A) (A) (A)
                 (A) (A) (A) (A) (A) (A) (A) (A) (A) (A) (A) (A)
                 (A) (A) (A) (A) (A) (A) (A) (A) (A) (A) (A) (A)
                 (A) (A) (A) (A) (A) (A) (A) (A) (A) (A) (A) (A)
                 (A) (A) (A) (A) (A) (A) (A) (A) (A) (A) (A) (A)
                 (A) (A) (A) (A) (A) (A) (A) (A) (A) (A) (A) (A)
                 (A) (A) (A) (A) (A) (A) (A) (A) (A) (A) (A) (A)
                 (A) (A) (A) (A) (A) (A) (A) (A) (A) (A) (A) (A)
                 (A) (A) (A) (A) (A) (A) (A) (A) (A) (A) (A) (A)
                 (A) (A) (A) (A) (A) (A) (A) (A) (A) (A) (A) (A)
                 (A) (A) (A) (A) (A) (A) (A) (A) (A) (A) (A) (A)
                 (A) (A) (A) (A) (A) (A) (A) (A) (A) (A) (A) (A)
                 (A) (A) (A) (A) (A) (A) (A) (A) (A) (A) (A) (A)
                 (A) (A) (A) (A) (A) (A) (A) (A) (A) (A) (A) (A)
                 (A) (A) (A) (A) (A) (A) (A) (A) (A) (A) (A) (A)
                 (A) (A) (A) (A) (A) (A) (A) (A) (A) (A) (A) (A)
                 (A) (A) (A) (A) (A) (A) (A) (A) (A) (A) (A) (A)
                 (A) (A) (A) (A) (A) (A) (A) (A) (A) (A) (A) (A)
                 (A) (A) (A) (A) (A) (A) (A) (A) (A) (A) (A) (A)
                 (A) (A) (A) (A) (A) (A) (A) (A) (A) (A) (A) (A)
                 (A) (A) (A) (A) (A) (A) (A) (A) (A) (A) (A) (A)
                 (A) (A) (A) (A) (A) (A) (A) (A) (A) (A) (A) (A)
                 (A) (A) (A) (A) (A) (A) (A) (A) (A) (A) (A) (A)
                 (A) (A) (A) (A) (A) (A) (A) (A) (A) (A) (A) (A)
                 (A) (A) (A) (A) (A) (A) (A) (A) (A) (A) (A) (A)
                 (A) (A) (A) (A) (A) (A) (A) (A) (A) (A) (A) (A)
                 (A) (A) (A) (A) (A) (A) (A) (A) (A) (A) (A) (A)
                 (A) (A) (A) (A) (A) (A) (A) (A) (A) (A) (A) (A)
                 (A) (A) (A) (A) (A) (A) (A) (A) (A) (A) (A) (A)
                 (A) (A) (A) (A) (A) (A) (A) (A) (A) (A) (A) (A)
                 (A) (A) (A) (A) (A) (A) (A) (A) (A) (A) (A) (A)
                 (A) (A) (A) (A) (A) (A) (A) (A) (A) (A) (A) (A)
                 (A) (A) (A) (A) (A) (A) (A) (A) (A) (A) (A) (A)
                 (A) (A) (A) (A) (A) (A) (A) (A) (A) (A) (A) (A)
                 (A) (A) (A) (A) (A) (A) (A) (A) (A) (A) (A) (A)
                 (A) (A) (A) (A) (A) (A) (A) (A) (A) (A) (A) (A)
                 (A) (A) (A) (A) (A) (A) (A) (A) (A) (A) (A) (A)
                 (A) (A) (A) (A) (A) (A) (A) (A) (A) (A) (A) (A)
                 (A) (A) (A) (A) (A) (A) (A) (A) (A) (A) (A) (A)
                 (A) (A) (A) (A) (A) (A) (A) (A) (A) (A) (A) (A)
                 (A) (A) (A) (A) (A) (A) (A) (A) (A) (A) (A) (A)
                 (A) (A) (A) (A) (A) (A) (A) (A) (A) (A) (A) (A)
                 (A) (A) (A) (A) (A) (A) (A) (A) (A) (A) (A) (A)
                 (A) (A) (A) (A) (A) (A) (A) (A) (A) (A) (A) (A)
                 (A) (A) (A) (A) (A) (A) (A) (A) (A) (A) (A) (A)
                 (A) (A) (A) (A) (A) (A) (A) (A) (A) (A) (A) (A)
                 (A) (A) (A) (A) (A) (A) (A) (A) (A) (A) (A) (A)
                 (A) (A) (A) (A) (A) (A) (A) (A) (A) (A) (A) (A)
                 (A) (A) (A) (A) (A) (A) (A) (A) (A) (A) (A) (A)
                 (A) (A) (A) (A) (A) (A) (A) (A) (A) (A) (A) (A)
                 (A) (A) (A) (A) (A) (A) (A) (A) (A) (A) (A) (A)
                 (A) (A) (A) (A) (A) (A) (A) (A) (A) (A) (A) (A)
                 (A) (A) (A) (A) (A) (A) (A) (A) (A) (A) (A) (A)
                 (A) (A) (A) (A) (A) (A) (A) (A) (A) (A) (A) (A)
                 (A) (A) (A) (A) (A) (A) (A) (A) (A) (A) (A) (A)
                 (A) (A) (A) (A) (A) (A) (A) (A) (A) (A) (A) (A)
                 (A) (A) (A) (A) (A) (A) (A) (A) (A) (A) (A) (A)
                 (A) (A) (A) (A) (A) (A) (A) (A) (A) (A) (A) (A)
                 (A) (A) (A) (A) (A) (A) (A) (A) (A) (A) (A) (A)
                 (A) (A) (A) (A) (A) (A) (A) (A)
    20 initial guesses have been made.
 Convergence on wavefunction:    0.001000000000000
 Davidson Disk Diagonalization:  ConvIn= 1.00D-03 SkipCon=T Conv= 1.00D-03.
 Max sub-space:  2000 roots to seek:    20 dimension of matrix:       370304
 Iteration     1 Dimension    20 NMult     0 NNew     20
 CISAX will form    20 AO SS matrices at one time.
 NMat=    20 NSing=    20 JSym2X= 0.
 FoFJK:  IHMeth= 1 ICntrl=       0 DoSepK=F KAlg= 0 I1Cent=           0 FoldK=F
 IRaf= 530000000 NMat=      40 IRICut=       1 DoRegI=T DoRafI=F ISym2E= 0 IDoP0=3 IntGTp=3.
 FoFCou: FMM=T IPFlag=           0 FMFlag=      100000 FMFlg1=        2001
         NFxFlg=           0 DoJE=F BraDBF=F KetDBF=F FulRan=T
         wScrn=  0.000000 ICntrl=         0 IOpCl=  0 I1Cent=           0 NGrid=           0
         NMat0=   40 NMatS0=     20 NMatT0=    0 NMatD0=   40 NMtDS0=    0 NMtDT0=    0
 Symmetry not used in FoFCou.
 FMM levels:  10  Number of levels for PrismC:   9
 New state      3 was old state      8
 New state      5 was old state      7
 Excitation Energies [eV] at current iteration:
 Root      1 :     2.229729623331848
 Root      2 :     2.515708490967348
 Root      3 :     3.255353784548229
 Root      4 :     3.316358867131905
 Root      5 :     3.433728665345804
 Root      6 :     3.466667435466962
 Root      7 :     3.556331568127714
 Root      8 :     3.718137418785394
 Root      9 :     3.759017583212243
 Root     10 :     3.843359102893473
 Root     11 :     3.990818390992624
 Root     12 :     4.038120583244368
 Root     13 :     4.153132761703361
 Root     14 :     4.322248214527791
 Root     15 :     4.512716455267965
 Root     16 :     4.514076953481025
 Root     17 :     4.541793619763616
 Root     18 :     4.659076387998972
 Root     19 :     4.826949397483700
 Root     20 :     5.042050712010499
 Iteration     2 Dimension    30 NMult    20 NNew     10
 CISAX will form    10 AO SS matrices at one time.
 NMat=    10 NSing=    10 JSym2X= 0.
 Root      1 not converged, maximum delta is    0.059026583689101
 Root      2 not converged, maximum delta is    0.051914846427302
 Root      3 not converged, maximum delta is    0.133794544963425
 New state      4 was old state      5
 Root      4 not converged, maximum delta is    0.083682565736547
 New state      5 was old state      4
 Root      5 not converged, maximum delta is    0.010262270228145
 Excitation Energies [eV] at current iteration:
 Root      1 :     1.931410711771347   Change is   -0.298318911560501
 Root      2 :     2.244899514638073   Change is   -0.270808976329275
 Root      3 :     3.116938050743739   Change is   -0.138415733804491
 Root      4 :     3.195700651895887   Change is   -0.238028013449917
 Root      5 :     3.315860069090374   Change is   -0.000498798041532
 Iteration     3 Dimension    40 NMult    30 NNew     10
 CISAX will form    10 AO SS matrices at one time.
 NMat=    10 NSing=    10 JSym2X= 0.
 Root      1 not converged, maximum delta is    0.025646157901177
 Root      2 not converged, maximum delta is    0.015222876697854
 Root      3 not converged, maximum delta is    0.077153352018471
 Root      4 not converged, maximum delta is    0.111144942244692
 Root      5 not converged, maximum delta is    0.294111231194840
 Excitation Energies [eV] at current iteration:
 Root      1 :     1.904724876081269   Change is   -0.026685835690078
 Root      2 :     2.230554333592243   Change is   -0.014345181045830
 Root      3 :     3.096709531985121   Change is   -0.020228518758618
 Root      4 :     3.166367580057361   Change is   -0.029333071838525
 Root      5 :     3.313997684887180   Change is   -0.001862384203194
 Iteration     4 Dimension    50 NMult    40 NNew     10
 CISAX will form    10 AO SS matrices at one time.
 NMat=    10 NSing=    10 JSym2X= 0.
 Root      1 not converged, maximum delta is    0.003509269895423
 Root      2 not converged, maximum delta is    0.002661475555269
 Root      3 not converged, maximum delta is    0.035678620889012
 Root      4 not converged, maximum delta is    0.099394619876531
 Root      5 not converged, maximum delta is    0.467203743144755
 Excitation Energies [eV] at current iteration:
 Root      1 :     1.901731199081225   Change is   -0.002993677000043
 Root      2 :     2.228531099602981   Change is   -0.002023233989262
 Root      3 :     3.093480304152675   Change is   -0.003229227832445
 Root      4 :     3.153853120103210   Change is   -0.012514459954152
 Root      5 :     3.248265482130014   Change is   -0.065732202757166
 Iteration     5 Dimension    60 NMult    50 NNew     10
 CISAX will form    10 AO SS matrices at one time.
 NMat=    10 NSing=    10 JSym2X= 0.
 Root      1 not converged, maximum delta is    0.001001012904551
 Root      2 has converged.
 Root      3 not converged, maximum delta is    0.007254975903845
 Root      4 not converged, maximum delta is    0.018579635771091
 Root      5 not converged, maximum delta is    0.015637447115232
 Excitation Energies [eV] at current iteration:
 Root      1 :     1.901385259818335   Change is   -0.000345939262890
 Root      2 :     2.228317110594438   Change is   -0.000213989008544
 Root      3 :     3.092909254745868   Change is   -0.000571049406807
 Root      4 :     3.151620512264763   Change is   -0.002232607838447
 Root      5 :     3.241726362309147   Change is   -0.006539119820867
 Iteration     6 Dimension    68 NMult    60 NNew      8
 CISAX will form     8 AO SS matrices at one time.
 NMat=     8 NSing=     8 JSym2X= 0.
 Root      1 has converged.
 Root      2 has converged.
 Root      3 not converged, maximum delta is    0.001166492745699
 Root      4 not converged, maximum delta is    0.002878751811277
 Root      5 not converged, maximum delta is    0.007351655181372
 Excitation Energies [eV] at current iteration:
 Root      1 :     1.901352608665527   Change is   -0.000032651152808
 Root      2 :     2.228311884486481   Change is   -0.000005226107957
 Root      3 :     3.092827871531572   Change is   -0.000081383214296
 Root      4 :     3.151303739176540   Change is   -0.000316773088223
 Root      5 :     3.240595809680306   Change is   -0.001130552628841
 Iteration     7 Dimension    74 NMult    68 NNew      6
 CISAX will form     6 AO SS matrices at one time.
 NMat=     6 NSing=     6 JSym2X= 0.
 Root      1 has converged.
 Root      2 has converged.
 Root      3 has converged.
 Root      4 not converged, maximum delta is    0.001624772253764
 Root      5 not converged, maximum delta is    0.005346944822520
 Excitation Energies [eV] at current iteration:
 Root      1 :     1.901352559121790   Change is   -0.000000049543737
 Root      2 :     2.228310915289361   Change is   -0.000000969197120
 Root      3 :     3.092817792285545   Change is   -0.000010079246027
 Root      4 :     3.151262303586513   Change is   -0.000041435590027
 Root      5 :     3.240426686019153   Change is   -0.000169123661152
 Iteration     8 Dimension    78 NMult    74 NNew      4
 CISAX will form     4 AO SS matrices at one time.
 NMat=     4 NSing=     4 JSym2X= 0.
 Root      1 has converged.
 Root      2 has converged.
 Root      3 has converged.
 Root      4 not converged, maximum delta is    0.003535418515610
 Root      5 not converged, maximum delta is    0.019745009202479
 Excitation Energies [eV] at current iteration:
 Root      1 :     1.901352453045504   Change is   -0.000000106076286
 Root      2 :     2.228309723070155   Change is   -0.000001192219206
 Root      3 :     3.092815466733971   Change is   -0.000002325551574
 Root      4 :     3.151243435048847   Change is   -0.000018868537667
 Root      5 :     3.240279093390150   Change is   -0.000147592629004
 Iteration     9 Dimension    82 NMult    78 NNew      4
 CISAX will form     4 AO SS matrices at one time.
 NMat=     4 NSing=     4 JSym2X= 0.
 Root      1 has converged.
 Root      2 has converged.
 Root      3 has converged.
 Root      4 not converged, maximum delta is    0.003365102839975
 Root      5 not converged, maximum delta is    0.075947315786957
 Excitation Energies [eV] at current iteration:
 Root      1 :     1.901352404655309   Change is   -0.000000048390196
 Root      2 :     2.228309303580197   Change is   -0.000000419489958
 Root      3 :     3.092814478003516   Change is   -0.000000988730454
 Root      4 :     3.151232255108200   Change is   -0.000011179940647
 Root      5 :     3.239848143958615   Change is   -0.000430949431534
 Iteration    10 Dimension    86 NMult    82 NNew      4
 CISAX will form     4 AO SS matrices at one time.
 NMat=     4 NSing=     4 JSym2X= 0.
 Root      1 has converged.
 Root      2 has converged.
 Root      3 has converged.
 Root      4 has converged.
 Root      5 not converged, maximum delta is    0.057356781126288
 Excitation Energies [eV] at current iteration:
 Root      1 :     1.901352326109883   Change is   -0.000000078545425
 Root      2 :     2.228308881665410   Change is   -0.000000421914786
 Root      3 :     3.092814340059108   Change is   -0.000000137944409
 Root      4 :     3.151230716127974   Change is   -0.000001538980226
 Root      5 :     3.239530413254301   Change is   -0.000317730704314
 Iteration    11 Dimension    88 NMult    86 NNew      2
 CISAX will form     2 AO SS matrices at one time.
 NMat=     2 NSing=     2 JSym2X= 0.
 Root      1 has converged.
 Root      2 has converged.
 Root      3 has converged.
 Root      4 has converged.
 Root      5 not converged, maximum delta is    0.011067876561684
 Excitation Energies [eV] at current iteration:
 Root      1 :     1.901352300045201   Change is   -0.000000026064682
 Root      2 :     2.228308148044771   Change is   -0.000000733620639
 Root      3 :     3.092814331241058   Change is   -0.000000008818050
 Root      4 :     3.151230552021303   Change is   -0.000000164106671
 Root      5 :     3.239467071920252   Change is   -0.000063341334049
 Iteration    12 Dimension    90 NMult    88 NNew      2
 CISAX will form     2 AO SS matrices at one time.
 NMat=     2 NSing=     2 JSym2X= 0.
 Root      1 has converged.
 Root      2 has converged.
 Root      3 has converged.
 Root      4 has converged.
 Root      5 not converged, maximum delta is    0.001655120565093
 Excitation Energies [eV] at current iteration:
 Root      1 :     1.901352220643043   Change is   -0.000000079402158
 Root      2 :     2.228308033207638   Change is   -0.000000114837134
 Root      3 :     3.092814326547958   Change is   -0.000000004693100
 Root      4 :     3.151230534231239   Change is   -0.000000017790064
 Root      5 :     3.239457820528355   Change is   -0.000009251391896
 Convergence on energies, max DE= 9.25D-06.
 Convergence on expansion vectors.
 ***********************************************************************
 Excited states from <AA,BB:AA,BB> singles matrix:
 ***********************************************************************
 
 1PDM for each excited state written to RWF  633
 Ground to excited state transition densities written to RWF  633
 Ground to excited state transition electric dipole moments (Au):
       state          X           Y           Z        Dip. S.      Osc.
         1        -1.1863      2.0109     -1.1982      6.8864      0.3208
         2        -0.3816     -0.6140     -0.4945      0.7672      0.0419
         3         0.5498      0.7535      0.6521      1.2951      0.0981
         4        -0.8606     -1.1353     -1.0997      3.2391      0.2501
         5        -0.5095     -0.7046     -0.6106      1.1288      0.0896
 Ground to excited state transition velocity dipole moments (Au):
       state          X           Y           Z        Dip. S.      Osc.
         1         0.0800     -0.1359      0.0814      0.0315      0.3006
         2         0.0278      0.0470      0.0374      0.0044      0.0357
         3        -0.0571     -0.0832     -0.0718      0.0153      0.0899
         4         0.0943      0.1286      0.1206      0.0400      0.2301
         5         0.0602      0.0829      0.0724      0.0157      0.0881
 Ground to excited state transition magnetic dipole moments (Au):
       state          X           Y           Z
         1         0.1954     -0.6380     -1.3370
         2         0.4291     -0.3132      0.0695
         3        -0.3952      1.0104     -0.6402
         4         0.4386     -0.8032      0.7123
         5        -0.5110     -0.4554      0.8910
 Ground to excited state transition velocity quadrupole moments (Au):
       state          XX          YY          ZZ          XY          XZ          YZ
         1         1.0943     -0.6056     -0.1673     -0.6629      0.4719      0.3802
         2         0.4092      0.1319     -0.0403      0.2730      0.3381     -0.0850
         3        -0.6231     -0.1678      0.0603     -0.8497     -0.4955     -0.3422
         4         1.0011      0.2793     -0.1859      1.4452      0.7851      0.6214
         5         0.8110     -0.1379      0.0105      0.8771      0.5943      0.2672
 <0|del|b> * <b|rxdel|0> + <0|del|b> * <b|delr+rdel|0>
 Rotatory Strengths (R) in cgs (10**-40 erg-esu-cm/Gauss)
       state          XX          YY          ZZ    R(velocity)    E-M Angle
         1       -60.6436    -44.7934     39.4566    -21.9934       91.41
         2       -76.9518      8.4149     66.7133     -0.6078       90.34
         3       -57.0182     84.2511   -123.7818    -32.1830       95.71
         4       170.5366     35.2984    -59.7359     48.6997       84.08
         5       121.8798    -40.5846   -104.8545     -7.8531       91.61
 1/2[<0|r|b>*<b|rxdel|0> + (<0|rxdel|b>*<b|r|0>)*]
 Rotatory Strengths (R) in cgs (10**-40 erg-esu-cm/Gauss)
       state          XX          YY          ZZ     R(length)
         1       163.8875    907.2930  -1132.8136    -20.5444
         2       115.8009   -135.9907     24.3119      1.3740
         3       153.6452   -538.3547    295.1964    -29.8377
         4       266.9459   -644.9091    553.9864     58.6744
         5      -184.1045   -226.9113    384.7022     -8.7712
  1/2[<0|del|b>*<b|r|0> + (<0|r|b>*<b|del|0>)*] (Au)
       state          X           Y           Z        Dip. S.   Osc.(frdel)
         1        -0.0949     -0.2733     -0.0976      0.4658      0.3105
         2        -0.0106     -0.0289     -0.0185      0.0580      0.0386
         3        -0.0314     -0.0627     -0.0468      0.1408      0.0939
         4        -0.0811     -0.1460     -0.1326      0.3597      0.2398
         5        -0.0307     -0.0584     -0.0442      0.1333      0.0889

 Excitation energies and oscillator strengths:
 
 Excited State   1:      Singlet-A      1.9014 eV  652.08 nm  f=0.3208  <S**2>=0.000
     245 -> 248        0.20769
     246 -> 247        0.67977
 This state for optimization and/or second-order correction.
 Total Energy, E(TD-HF/TD-DFT) =  -3005.26169657    
 Copying the excited state density for this state as the 1-particle RhoCI density.
 
 Excited State   2:      Singlet-A      2.2283 eV  556.41 nm  f=0.0419  <S**2>=0.000
     245 -> 247        0.61690
     246 -> 248       -0.33356
 
 Excited State   3:      Singlet-A      3.0928 eV  400.88 nm  f=0.0981  <S**2>=0.000
     242 -> 247        0.55847
     242 -> 249       -0.13628
     242 -> 250        0.11422
     243 -> 247       -0.16336
     245 -> 247       -0.14059
     246 -> 248       -0.30266
 
 Excited State   4:      Singlet-A      3.1512 eV  393.45 nm  f=0.2501  <S**2>=0.000
     239 -> 247       -0.10843
     242 -> 247        0.18257
     243 -> 247       -0.39101
     245 -> 247        0.21480
     246 -> 248        0.45422
     246 -> 249        0.16172
 
 Excited State   5:      Singlet-A      3.2395 eV  382.73 nm  f=0.0896  <S**2>=0.000
     240 -> 247       -0.20848
     241 -> 247        0.14662
     242 -> 247        0.29932
     243 -> 247        0.50261
     245 -> 247        0.12456
     246 -> 248        0.18704
     246 -> 249        0.13467
 SavETr:  write IOETrn=   770 NScale= 10 NData=  16 NLR=1 NState=    5 LETran=     100.
 Leave Link  914 at Thu May  5 11:44:27 2022, MaxMem= 10066329600 cpu:           31551.6 elap:            1317.2
 (Enter /sw/apps/gaussian-16.0/g16/l601.exe)
 Copying SCF densities to generalized density rwf, IOpCl= 0 IROHF=0.
 Hyperfine terms turned off by default for NAtoms > 100.

 **********************************************************************

            Population analysis using the SCF density.

 **********************************************************************

 Orbital symmetries:
       Occupied  (A) (A) (A) (A) (A) (A) (A) (A) (A) (A) (A) (A)
                 (A) (A) (A) (A) (A) (A) (A) (A) (A) (A) (A) (A)
                 (A) (A) (A) (A) (A) (A) (A) (A) (A) (A) (A) (A)
                 (A) (A) (A) (A) (A) (A) (A) (A) (A) (A) (A) (A)
                 (A) (A) (A) (A) (A) (A) (A) (A) (A) (A) (A) (A)
                 (A) (A) (A) (A) (A) (A) (A) (A) (A) (A) (A) (A)
                 (A) (A) (A) (A) (A) (A) (A) (A) (A) (A) (A) (A)
                 (A) (A) (A) (A) (A) (A) (A) (A) (A) (A) (A) (A)
[...]
 Alpha virt. eigenvalues --    1.14416   1.15113   1.15582   1.15666   1.16071
 Alpha virt. eigenvalues --    1.16776   1.17221   1.17310   1.17710   1.19015
 Alpha virt. eigenvalues --    1.19345   1.19572   1.19804   1.20169   1.20243
 Alpha virt. eigenvalues --    1.20514   1.21137   1.21729   1.21940   1.22824
 Alpha virt. eigenvalues --    1.23209   1.23617   1.23841   1.24395   1.24671
 Alpha virt. eigenvalues --    1.25046   1.25216   1.26436   1.26701   1.26944
 Alpha virt. eigenvalues --    1.27210   1.28183   1.29544   1.29807   1.29936
 Alpha virt. eigenvalues --    1.30371   1.30873   1.31301   1.31465   1.31601
 Alpha virt. eigenvalues --    1.32282   1.32883   1.33138   1.33541   1.34343
 Alpha virt. eigenvalues --    1.34509   1.34914   1.35088   1.35647   1.35902
 Alpha virt. eigenvalues --    1.36746   1.36875   1.37153   1.37971   1.38654
 Alpha virt. eigenvalues --    1.39010   1.39144   1.39493   1.39745   1.40230
 Alpha virt. eigenvalues --    1.40340   1.40658   1.41077   1.41534   1.42092
 Alpha virt. eigenvalues --    1.42377   1.42600   1.42711   1.43157   1.43270
 Alpha virt. eigenvalues --    1.43978   1.44163   1.44414   1.44723   1.45784
 Alpha virt. eigenvalues --    1.46142   1.46267   1.46948   1.47368   1.48019
 Alpha virt. eigenvalues --    1.48865   1.49326   1.49548   1.50423   1.50766
 Alpha virt. eigenvalues --    1.51058   1.51293   1.51387   1.51808   1.51857
 Alpha virt. eigenvalues --    1.52152   1.53180   1.53297   1.53580   1.53845
 Alpha virt. eigenvalues --    1.53862   1.54293   1.54390   1.54735   1.54946
 Alpha virt. eigenvalues --    1.55178   1.55508   1.55884   1.56148   1.56191
 Alpha virt. eigenvalues --    1.56359   1.56403   1.56681   1.56842   1.57259
 Alpha virt. eigenvalues --    1.57475   1.57497   1.57887   1.58094   1.59458
 Alpha virt. eigenvalues --    1.59690   1.59821   1.60241   1.60452   1.60740
 Alpha virt. eigenvalues --    1.61236   1.61279   1.61925   1.62602   1.62902
 Alpha virt. eigenvalues --    1.62955   1.63853   1.64128   1.64627   1.65298
 Alpha virt. eigenvalues --    1.65794   1.65849   1.66358   1.66713   1.67274
 Alpha virt. eigenvalues --    1.67529   1.68406   1.68860   1.69238   1.69696
 Alpha virt. eigenvalues --    1.69954   1.70357   1.70509   1.70914   1.71045
 Alpha virt. eigenvalues --    1.71578   1.71764   1.72293   1.72940   1.73103
 Alpha virt. eigenvalues --    1.73433   1.73803   1.73923   1.74284   1.74506
 Alpha virt. eigenvalues --    1.74683   1.74983   1.75448   1.75700   1.75853
 Alpha virt. eigenvalues --    1.76074   1.76311   1.76710   1.76812   1.76911
 Alpha virt. eigenvalues --    1.77227   1.77617   1.77678   1.77759   1.78027
 Alpha virt. eigenvalues --    1.78069   1.78149   1.78422   1.78538   1.78730
 Alpha virt. eigenvalues --    1.78862   1.78952   1.79191   1.79370   1.79560
 Alpha virt. eigenvalues --    1.79719   1.80024   1.80174   1.80443   1.80561
 Alpha virt. eigenvalues --    1.80713   1.81060   1.81122   1.81537   1.81583
 Alpha virt. eigenvalues --    1.81761   1.81855   1.81998   1.82490   1.82561
 Alpha virt. eigenvalues --    1.82621   1.83032   1.83066   1.83231   1.83494
 Alpha virt. eigenvalues --    1.83644   1.83676   1.84225   1.84429   1.84694
 Alpha virt. eigenvalues --    1.84892   1.85171   1.85272   1.85480   1.85669
 Alpha virt. eigenvalues --    1.86009   1.86246   1.86313   1.86461   1.86757
 Alpha virt. eigenvalues --    1.86959   1.87029   1.87158   1.87310   1.87631
 Alpha virt. eigenvalues --    1.87770   1.88068   1.88451   1.88572   1.88896
 Alpha virt. eigenvalues --    1.89105   1.89261   1.89539   1.89948   1.90257
 Alpha virt. eigenvalues --    1.90598   1.91053   1.91203   1.91283   1.91455
 Alpha virt. eigenvalues --    1.91671   1.91985   1.92303   1.92386   1.93159
 Alpha virt. eigenvalues --    1.93389   1.93600   1.93858   1.94104   1.94409
 Alpha virt. eigenvalues --    1.94678   1.94790   1.95226   1.95488   1.95667
 Alpha virt. eigenvalues --    1.95771   1.96033   1.96446   1.96540   1.96699
 Alpha virt. eigenvalues --    1.96876   1.97753   1.97814   1.98281   1.98710
 Alpha virt. eigenvalues --    1.98785   1.99092   1.99236   1.99518   1.99793
 Alpha virt. eigenvalues --    1.99912   2.00392   2.00419   2.00460   2.00694
 Alpha virt. eigenvalues --    2.01233   2.01531   2.01739   2.02064   2.02465
 Alpha virt. eigenvalues --    2.02776   2.02912   2.03476   2.03959   2.04404
 Alpha virt. eigenvalues --    2.04578   2.04842   2.04972   2.05560   2.05897
 Alpha virt. eigenvalues --    2.06393   2.06743   2.07365   2.07756   2.08129
 Alpha virt. eigenvalues --    2.08176   2.08360   2.08516   2.08931   2.08983
 Alpha virt. eigenvalues --    2.09229   2.09450   2.09737   2.09946   2.10023
 Alpha virt. eigenvalues --    2.10258   2.10778   2.10842   2.11235   2.11490
 Alpha virt. eigenvalues --    2.11948   2.12233   2.12547   2.12661   2.13359
 Alpha virt. eigenvalues --    2.13592   2.13730   2.14277   2.14767   2.15225
 Alpha virt. eigenvalues --    2.15560   2.15623   2.16194   2.16874   2.17113
 Alpha virt. eigenvalues --    2.17365   2.17755   2.17919   2.18174   2.18449
 Alpha virt. eigenvalues --    2.18824   2.20055   2.20558   2.20924   2.21105
 Alpha virt. eigenvalues --    2.21154   2.21429   2.22390   2.22545   2.23056
 Alpha virt. eigenvalues --    2.23328   2.23662   2.24851   2.25172   2.25292
 Alpha virt. eigenvalues --    2.25494   2.25985   2.26174   2.26358   2.26869
 Alpha virt. eigenvalues --    2.26986   2.28634   2.28700   2.29219   2.29474
 Alpha virt. eigenvalues --    2.29589   2.30276   2.30422   2.30548   2.31055
 Alpha virt. eigenvalues --    2.31260   2.31751   2.31828   2.31951   2.32428
 Alpha virt. eigenvalues --    2.32628   2.33093   2.33419   2.34243   2.35092
 Alpha virt. eigenvalues --    2.35388   2.35542   2.35878   2.36236   2.36693
 Alpha virt. eigenvalues --    2.36916   2.37337   2.37463   2.37737   2.38108
 Alpha virt. eigenvalues --    2.38393   2.38692   2.38933   2.39123   2.39387
 Alpha virt. eigenvalues --    2.40036   2.40289   2.40483   2.41223   2.41341
 Alpha virt. eigenvalues --    2.41645   2.42508   2.42636   2.43532   2.44022
 Alpha virt. eigenvalues --    2.44234   2.44646   2.44879   2.44913   2.45103
 Alpha virt. eigenvalues --    2.45771   2.46097   2.46437   2.46687   2.47146
 Alpha virt. eigenvalues --    2.47480   2.47909   2.48825   2.49076   2.49222
 Alpha virt. eigenvalues --    2.50025   2.50462   2.50750   2.51166   2.51887
 Alpha virt. eigenvalues --    2.52132   2.52254   2.52622   2.52769   2.53656
 Alpha virt. eigenvalues --    2.53889   2.54505   2.54854   2.55361   2.55924
 Alpha virt. eigenvalues --    2.56480   2.56869   2.56945   2.57343   2.57572
 Alpha virt. eigenvalues --    2.58902   2.58950   2.59219   2.59482   2.59720
 Alpha virt. eigenvalues --    2.60406   2.60823   2.60898   2.61383   2.62111
 Alpha virt. eigenvalues --    2.62504   2.62623   2.63056   2.63289   2.63545
 Alpha virt. eigenvalues --    2.64125   2.64543   2.64863   2.64945   2.65331
 Alpha virt. eigenvalues --    2.65634   2.65982   2.66824   2.67307   2.68133
 Alpha virt. eigenvalues --    2.68949   2.69180   2.69259   2.70231   2.70505
 Alpha virt. eigenvalues --    2.70646   2.70793   2.71086   2.71408   2.71560
 Alpha virt. eigenvalues --    2.72030   2.72518   2.72884   2.73425   2.73634
 Alpha virt. eigenvalues --    2.73666   2.74507   2.74889   2.75162   2.75320
 Alpha virt. eigenvalues --    2.75793   2.76600   2.77193   2.77887   2.78033
 Alpha virt. eigenvalues --    2.78567   2.79080   2.79278   2.80493   2.80860
 Alpha virt. eigenvalues --    2.81513   2.82289   2.83626   2.83949   2.84088
 Alpha virt. eigenvalues --    2.84647   2.85397   2.85771   2.85898   2.86778
 Alpha virt. eigenvalues --    2.87130   2.87482   2.87931   2.88746   2.89061
 Alpha virt. eigenvalues --    2.89556   2.89987   2.90040   2.90670   2.91073
 Alpha virt. eigenvalues --    2.91562   2.91577   2.92236   2.92420   2.92554
 Alpha virt. eigenvalues --    2.93156   2.93269   2.93467   2.93671   2.94032
 Alpha virt. eigenvalues --    2.94043   2.94490   2.94593   2.95089   2.95625
 Alpha virt. eigenvalues --    2.95963   2.96046   2.96228   2.96346   2.96527
 Alpha virt. eigenvalues --    2.97122   2.97312   2.97672   2.97815   2.97922
 Alpha virt. eigenvalues --    2.98240   2.98823   2.99110   2.99276   2.99498
 Alpha virt. eigenvalues --    2.99541   2.99818   3.00439   3.01151   3.01521
 Alpha virt. eigenvalues --    3.01737   3.02587   3.02869   3.03045   3.03076
 Alpha virt. eigenvalues --    3.03190   3.03735   3.03903   3.04382   3.05009
 Alpha virt. eigenvalues --    3.05628   3.05722   3.06127   3.06234   3.07315
 Alpha virt. eigenvalues --    3.07920   3.08454   3.08582   3.08761   3.09410
 Alpha virt. eigenvalues --    3.09500   3.10111   3.10212   3.10495   3.11474
 Alpha virt. eigenvalues --    3.12952   3.14357   3.14573   3.14789   3.15055
 Alpha virt. eigenvalues --    3.15836   3.16188   3.16556   3.17240   3.18848
 Alpha virt. eigenvalues --    3.19193   3.20625   3.21337   3.21645   3.22541
 Alpha virt. eigenvalues --    3.25776   3.26138   3.37425   3.38766   3.42352
 Alpha virt. eigenvalues --    3.43493   3.44854   3.45609   3.49753   3.51034
 Alpha virt. eigenvalues --    3.53194   3.57623   3.63249   3.63600   3.64174
 Alpha virt. eigenvalues --    3.68838   3.69757
          Condensed to atoms (all electrons):
 Mulliken charges:
               1
     1  Mg   0.951738
     2  C   -0.029848
     3  C   -0.072817
     4  C   -0.067531
     5  C   -0.068253
     6  N   -0.387991
     7  C    0.049501
     8  C   -0.077541
     9  C   -0.163600
    10  C    0.110431
    11  C    0.030321
    12  C    0.038504
    13  C   -0.025480
    14  C    0.198199
    15  O   -0.212537
    16  O   -0.373575
    17  N   -0.441879
    18  C    0.140866
    19  C   -0.189680
    20  C   -0.065135
    21  C    0.160701
    22  C    0.074003
    23  C    0.053187
    24  O   -0.252847
    25  C   -0.019561
    26  N   -0.369312
    27  C    0.051691
    28  C   -0.116615
    29  C   -0.096273
    30  C    0.102027
    31  C    0.011039
    32  C   -0.073259
    33  C   -0.048435
    34  N   -0.497054
    35  C    0.100078
    36  C   -0.150878
    37  C   -0.100506
    38  C    0.215534
    39  C    0.064015
    40  C    0.150923
    41  O   -0.208298
    42  C   -0.126370
    43  C    0.288806
    44  O   -0.284384
    45  O   -0.366803
    46  C    0.124650
    47  C    0.248238
    48  C   -0.147519
    49  C   -0.263108
    50  C    0.025558
    51  C    0.019307
    52  C   -0.027938
    53  C    0.014506
    54  C   -0.226545
    55  C   -0.040606
    56  C    0.016506
    57  C   -0.060713
    58  C   -0.009743
    59  C   -0.203009
    60  C   -0.012272
    61  C   -0.003844
    62  C   -0.043383
    63  C    0.023951
    64  C   -0.247881
    65  C   -0.003084
    66  C   -0.026306
    67  H   -0.002428
    68  H   -0.013931
    69  H    0.001196
    70  H    0.056176
    71  H    0.051990
    72  H    0.035609
    73  H    0.050655
    74  H    0.045888
    75  H    0.032602
    76  H    0.054967
    77  H    0.047234
    78  H    0.057257
    79  H    0.066200
    80  H    0.048228
    81  H    0.071763
    82  H    0.057331
    83  H    0.041228
    84  H    0.085271
    85  H    0.053742
    86  H    0.044829
    87  H    0.048075
    88  H    0.042979
    89  H    0.039462
    90  H    0.036656
    91  H    0.031018
    92  H    0.055360
    93  H    0.048219
    94  H    0.036436
    95  H    0.072486
    96  H    0.066141
    97  H    0.044969
    98  H    0.077085
    99  H    0.049229
   100  H    0.074172
   101  H    0.072755
   102  H    0.071928
   103  H    0.049913
   104  H    0.029105
   105  H    0.028637
   106  H    0.057220
   107  H    0.070922
   108  H    0.021773
   109  H    0.053689
   110  H    0.035876
   111  H    0.036676
   112  H    0.024246
   113  H    0.020527
   114  H    0.028298
   115  H    0.027634
   116  H    0.028849
   117  H    0.034860
   118  H    0.021034
   119  H    0.013443
   120  H    0.038827
   121  H    0.036818
   122  H    0.025026
   123  H    0.022210
   124  H    0.031548
   125  H    0.043802
   126  H    0.034598
   127  H    0.021795
   128  H    0.027308
   129  H    0.017424
   130  H    0.022789
   131  H    0.027047
   132  H    0.017469
   133  H    0.027976
   134  H    0.037949
   135  H    0.034701
   136  H    0.024411
   137  H    0.023328
   138  H    0.027125
   139  H    0.022987
   140  H    0.037522
 Sum of Mulliken charges =  -0.00000
 Mulliken charges with hydrogens summed into heavy atoms:
               1
     1  Mg   0.951738
     2  C   -0.029848
     3  C   -0.075245
     4  C   -0.081462
     5  C   -0.067057
     6  N   -0.387991
     7  C    0.049501
     8  C   -0.021365
     9  C   -0.111610
    10  C    0.110431
    11  C    0.162473
    12  C    0.126072
    13  C    0.079011
    14  C    0.198199
    15  O   -0.212537
    16  O   -0.373575
    17  N   -0.441879
    18  C    0.140866
    19  C   -0.189680
    20  C   -0.065135
    21  C    0.160701
    22  C    0.260194
    23  C    0.053187
    24  O   -0.252847
    25  C    0.164268
    26  N   -0.369312
    27  C    0.051691
    28  C   -0.062873
    29  C   -0.051444
    30  C    0.102027
    31  C    0.141554
    32  C   -0.005586
    33  C    0.091580
    34  N   -0.497054
    35  C    0.100078
    36  C   -0.150878
    37  C   -0.100506
    38  C    0.215534
    39  C    0.247611
    40  C    0.150923
    41  O   -0.208298
    42  C   -0.049285
    43  C    0.288806
    44  O   -0.284384
    45  O   -0.366803
    46  C    0.320806
    47  C    0.370079
    48  C   -0.118414
    49  C   -0.263108
    50  C    0.182338
    51  C    0.094770
    52  C    0.044614
    53  C    0.059279
    54  C   -0.198247
    55  C    0.050737
    56  C    0.050983
    57  C    0.014932
    58  C    0.037494
    59  C   -0.171461
    60  C    0.087923
    61  C    0.040888
    62  C    0.006453
    63  C    0.069395
    64  C   -0.209932
    65  C    0.079356
    66  C    0.061328
 Electronic spatial extent (au):  <R**2>=          84947.2364
 Charge=             -0.0000 electrons
 Dipole moment (field-independent basis, Debye):
    X=             -1.2750    Y=              3.1285    Z=              0.4928  Tot=              3.4141
 Quadrupole moment (field-independent basis, Debye-Ang):
   XX=           -392.0505   YY=           -420.6646   ZZ=           -382.8522
   XY=             44.8580   XZ=              1.3329   YZ=             35.4813
 Traceless Quadrupole moment (field-independent basis, Debye-Ang):
   XX=              6.4719   YY=            -22.1422   ZZ=             15.6702
   XY=             44.8580   XZ=              1.3329   YZ=             35.4813
 Octapole moment (field-independent basis, Debye-Ang**2):
  XXX=            -32.6816  YYY=             -5.0476  ZZZ=            -43.0628  XYY=             12.2453
  XXY=            128.4660  XXZ=            117.4999  XZZ=             52.2526  YZZ=           -106.7043
  YYZ=             24.6460  XYZ=             76.3928
 Hexadecapole moment (field-independent basis, Debye-Ang**3):
 XXXX=         -68058.1073 YYYY=         -32399.5951 ZZZZ=         -16047.9343 XXXY=            802.7718
 XXXZ=            442.6911 YYYX=            867.5724 YYYZ=           1746.0846 ZZZX=             31.0064
 ZZZY=            424.9594 XXYY=         -16321.2446 XXZZ=         -13694.8904 YYZZ=          -7977.2865
 XXYZ=             51.1428 YYXZ=           -471.0391 ZZXY=            -14.9738
 N-N= 9.850691815722D+03 E-N=-2.669215718758D+04  KE= 2.974968190194D+03
 Leave Link  601 at Thu May  5 11:44:28 2022, MaxMem= 10066329600 cpu:              12.1 elap:               0.6
 (Enter /sw/apps/gaussian-16.0/g16/l9999.exe)
 1\1\GINC-BP1-COMPUTE067\SP\RPBE1PBE TD-FC\def2SVP\C55H74Mg1N4O6\OF1564
 1\05-May-2022\0\\#p PBE1PBE/Def2SVP td=(nstates=5)\\step_851_chromopho
 re_17 TDDFT with PBE1PBE functional\\0,1\Mg,0,29.022,58.687,41.776\C,0
 ,26.024,57.072,40.536\C,0,30.818,56.104,40.485\C,0,31.895,60.528,41.98
 2\C,0,27.115,61.415,42.564\N,0,28.443,56.86,40.46\C,0,27.206,56.224,40
 .229\C,0,27.331,54.898,39.591\C,0,28.835,54.51,39.877\C,0,29.45,55.901
 ,40.372\C,0,29.014,53.371,40.887\C,0,26.991,54.878,38.1\C,0,25.98,53.9
 53,37.416\C,0,25.247,54.388,36.097\O,0,24.092,54.455,35.835\O,0,26.223
 ,54.723,35.213\N,0,31.124,58.354,41.379\C,0,31.588,57.216,40.838\C,0,3
 3.081,57.232,40.756\C,0,33.457,58.525,41.147\C,0,32.157,59.233,41.538\
 C,0,33.921,56.118,40.297\C,0,34.889,59.046,41.139\O,0,35.849,58.369,40
 .739\C,0,35.197,60.333,41.731\N,0,29.489,60.766,42.253\C,0,30.732,61.2
 51,42.353\C,0,30.727,62.665,42.718\C,0,29.151,62.931,42.956\C,0,28.524
 ,61.638,42.586\C,0,31.627,62.972,43.947\C,0,28.619,64.189,42.164\C,0,2
 8.461,65.529,42.933\N,0,26.982,59.138,41.782\C,0,26.316,60.343,42.145\
 C,0,24.84,60.14,42.\C,0,24.79,58.883,41.331\C,0,26.058,58.326,41.24\C,
 0,23.724,61.063,42.35\C,0,23.82,57.981,40.693\O,0,22.633,58.054,40.438
 \C,0,24.607,56.759,40.23\C,0,24.043,55.513,40.929\O,0,24.34,55.191,42.
 097\O,0,23.427,54.662,40.039\C,0,23.14,53.301,40.5\C,0,25.84,55.039,33
 .832\C,0,26.698,56.134,33.317\C,0,26.768,56.543,31.989\C,0,25.928,55.7
 96,30.991\C,0,27.789,57.668,31.512\C,0,27.182,58.984,31.142\C,0,27.738
 ,60.11,32.035\C,0,28.821,60.905,31.286\C,0,28.49,62.407,31.291\C,0,30.
 269,60.614,31.76\C,0,31.073,59.602,30.898\C,0,32.073,58.748,31.706\C,0
 ,32.795,57.679,30.847\C,0,32.012,56.326,30.83\C,0,34.312,57.442,31.158
 \C,0,35.218,57.295,29.904\C,0,35.084,55.923,29.258\C,0,36.399,55.227,2
 8.957\C,0,36.566,54.774,27.505\C,0,36.645,54.066,29.908\H,0,31.461,55.
 264,40.216\H,0,32.751,61.203,41.916\H,0,26.48,62.267,42.816\H,0,26.594
 ,54.273,40.095\H,0,29.322,54.174,38.962\H,0,27.997,53.132,41.198\H,0,2
 9.561,53.679,41.778\H,0,29.442,52.485,40.418\H,0,27.938,54.557,37.664\
 H,0,26.88,55.883,37.691\H,0,25.252,53.653,38.17\H,0,26.459,53.031,37.0
 89\H,0,33.748,56.014,39.226\H,0,33.585,55.246,40.857\H,0,34.967,56.298
 ,40.546\H,0,34.612,61.091,41.21\H,0,36.187,60.632,41.384\H,0,35.197,60
 .429,42.817\H,0,30.981,63.345,41.906\H,0,29.068,63.173,44.016\H,0,32.4
 65,62.293,44.108\H,0,30.984,62.99,44.826\H,0,32.112,63.925,43.735\H,0,
 27.66,63.909,41.726\H,0,29.225,64.406,41.284\H,0,27.522,65.986,42.618\
 H,0,29.331,66.148,42.715\H,0,28.482,65.2,43.972\H,0,22.743,60.605,42.4
 74\H,0,23.758,61.732,41.49\H,0,23.929,61.655,43.242\H,0,24.363,56.505,
 39.199\H,0,24.155,52.91,40.443\H,0,22.401,52.843,39.842\H,0,22.74,53.2
 36,41.512\H,0,24.827,55.395,33.648\H,0,25.957,54.102,33.287\H,0,27.299
 ,56.596,34.1\H,0,25.954,56.438,30.11\H,0,24.874,55.749,31.268\H,0,26.4
 61,54.874,30.76\H,0,28.065,57.311,30.52\H,0,28.676,57.771,32.137\H,0,2
 6.13,58.856,31.398\H,0,27.346,59.235,30.094\H,0,28.17,59.741,32.965\H,
 0,26.967,60.828,32.314\H,0,28.735,60.776,30.207\H,0,28.902,62.83,32.20
 7\H,0,27.403,62.49,31.272\H,0,28.819,63.067,30.489\H,0,30.231,60.505,3
 2.844\H,0,30.828,61.545,31.667\H,0,31.67,60.27,30.277\H,0,30.435,58.93
 4,30.32\H,0,31.526,58.259,32.512\H,0,32.708,59.467,32.224\H,0,32.721,5
 7.928,29.788\H,0,32.574,55.48,31.227\H,0,31.602,56.198,29.828\H,0,31.1
 49,56.464,31.481\H,0,34.426,56.537,31.755\H,0,34.654,58.278,31.768\H,0
 ,36.262,57.446,30.179\H,0,35.059,58.134,29.227\H,0,34.549,56.073,28.32
 \H,0,34.433,55.238,29.802\H,0,37.264,55.843,29.207\H,0,35.796,55.127,2
 6.82\H,0,36.746,53.702,27.422\H,0,37.51,55.143,27.105\H,0,37.218,53.23
 8,29.49\H,0,35.731,53.535,30.174\H,0,37.123,54.458,30.805\\Version=ES6
 4L-G16RevA.03\State=1-A\HF=-3005.33157\RMSD=8.545e-09\PG=C01 [X(C55H74
 Mg1N4O6)]\\@


 THE WORLD IS NOT A HAMBURGER - YOU CAN'T HAVE IT YOUR WAY.
 Job cpu time:       0 days 10 hours 38 minutes  2.3 seconds.
 Elapsed time:       0 days  0 hours 26 minutes 39.6 seconds.
 File lengths (MBytes):  RWF=   8929 Int=      0 D2E=      0 Chk=    390 Scr=      1
 Normal termination of Gaussian 16 at Thu May  5 11:44:29 2022.
