 Entering Gaussian System, Link 0=g16
 Initial command:
 /sw/apps/gaussian-16.0/g16/l1.exe "/tmp/Gau-42724.inp" -scrdir="/tmp/"
 Entering Link 1 = /sw/apps/gaussian-16.0/g16/l1.exe PID=     42725.
  
 Copyright (c) 1988,1990,1992,1993,1995,1998,2003,2009,2016,
            Gaussian, Inc.  All Rights Reserved.
  
 This is part of the Gaussian(R) 16 program.  It is based on
 the Gaussian(R) 09 system (copyright 2009, Gaussian, Inc.),
 the Gaussian(R) 03 system (copyright 2003, Gaussian, Inc.),
 the Gaussian(R) 98 system (copyright 1998, Gaussian, Inc.),
 the Gaussian(R) 94 system (copyright 1995, Gaussian, Inc.),
 the Gaussian 92(TM) system (copyright 1992, Gaussian, Inc.),
 the Gaussian 90(TM) system (copyright 1990, Gaussian, Inc.),
 the Gaussian 88(TM) system (copyright 1988, Gaussian, Inc.),
 the Gaussian 86(TM) system (copyright 1986, Carnegie Mellon
 University), and the Gaussian 82(TM) system (copyright 1983,
 Carnegie Mellon University). Gaussian is a federally registered
 trademark of Gaussian, Inc.
  
 This software contains proprietary and confidential information,
 including trade secrets, belonging to Gaussian, Inc.
  
 This software is provided under written license and may be
 used, copied, transmitted, or stored only in accord with that
 written license.
  
 The following legend is applicable only to US Government
 contracts under FAR:
  
                    RESTRICTED RIGHTS LEGEND
  
 Use, reproduction and disclosure by the US Government is
 subject to restrictions as set forth in subparagraphs (a)
 and (c) of the Commercial Computer Software - Restricted
 Rights clause in FAR 52.227-19.
  
 Gaussian, Inc.
 340 Quinnipiac St., Bldg. 40, Wallingford CT 06492
  
  
 ---------------------------------------------------------------
 Warning -- This program may not be used in any manner that
 competes with the business of Gaussian, Inc. or will provide
 assistance to any competitor of Gaussian, Inc.  The licensee
 of this program is prohibited from giving any competitor of
 Gaussian, Inc. access to this program.  By using this program,
 the user acknowledges that Gaussian, Inc. is engaged in the
 business of creating and licensing software in the field of
 computational chemistry and represents and warrants to the
 licensee that it is not a competitor of Gaussian, Inc. and that
 it will not use this program in any manner prohibited above.
 ---------------------------------------------------------------
  

 Cite this work as:
 Gaussian 16, Revision A.03,
 M. J. Frisch, G. W. Trucks, H. B. Schlegel, G. E. Scuseria, 
 M. A. Robb, J. R. Cheeseman, G. Scalmani, V. Barone, 
 G. A. Petersson, H. Nakatsuji, X. Li, M. Caricato, A. V. Marenich, 
 J. Bloino, B. G. Janesko, R. Gomperts, B. Mennucci, H. P. Hratchian, 
 J. V. Ortiz, A. F. Izmaylov, J. L. Sonnenberg, D. Williams-Young, 
 F. Ding, F. Lipparini, F. Egidi, J. Goings, B. Peng, A. Petrone, 
 T. Henderson, D. Ranasinghe, V. G. Zakrzewski, J. Gao, N. Rega, 
 G. Zheng, W. Liang, M. Hada, M. Ehara, K. Toyota, R. Fukuda, 
 J. Hasegawa, M. Ishida, T. Nakajima, Y. Honda, O. Kitao, H. Nakai, 
 T. Vreven, K. Throssell, J. A. Montgomery, Jr., J. E. Peralta, 
 F. Ogliaro, M. J. Bearpark, J. J. Heyd, E. N. Brothers, K. N. Kudin, 
 V. N. Staroverov, T. A. Keith, R. Kobayashi, J. Normand, 
 K. Raghavachari, A. P. Rendell, J. C. Burant, S. S. Iyengar, 
 J. Tomasi, M. Cossi, J. M. Millam, M. Klene, C. Adamo, R. Cammi, 
 J. W. Ochterski, R. L. Martin, K. Morokuma, O. Farkas, 
 J. B. Foresman, and D. J. Fox, Gaussian, Inc., Wallingford CT, 2016.
 
 ******************************************
 Gaussian 16:  ES64L-G16RevA.03 25-Dec-2016
                 5-May-2022 
 ******************************************
 %nproc=24
 Will use up to   24 processors via shared memory.
 %mem=50gb
 --------------------
 #p ZINDO=(nstates=5)
 --------------------
 1/38=1,172=1/1;
 2/12=2,17=6,18=5,40=1/2;
 3/5=2,25=1,41=400000/1,2,3,8;
 4/5=3,35=1/1;
 5/5=2,35=1,38=5/2;
 8/6=1,108=5/1;
 9/41=5,42=1,49=10/14;
 6/7=2,8=2,9=2,10=2/1;
 99/5=1,9=1/99;
 Leave Link    1 at Thu May  5 15:44:04 2022, MaxMem=  6710886400 cpu:               0.7 elap:               0.0
 (Enter /sw/apps/gaussian-16.0/g16/l101.exe)
 ----------------------------
 step_951_chromophore_5 ZINDO
 ----------------------------
 Symbolic Z-matrix:
 Charge =  0 Multiplicity = 1
 Mg                    24.9     -7.596     46.36 
 C                     26.959   -4.963     45.397 
 C                     22.626   -6.715     44.042 
 C                     23.042   -10.388    47.213 
 C                     27.614   -9.051     48.08 
 N                     24.881   -6.112     44.762 
 C                     25.774   -5.07      44.596 
 C                     25.314   -4.101     43.524 
 C                     23.787   -4.499     43.395 
 C                     23.77    -5.92      43.989 
 C                     22.735   -3.603     44.034 
 C                     26.119   -4.202     42.219 
 C                     26.646   -2.873     41.683 
 C                     26.525   -2.587     40.224 
 O                     27.46    -2.409     39.448 
 O                     25.208   -2.504     39.895 
 N                     22.935   -8.295     45.824 
 C                     22.237   -7.846     44.813 
 C                     20.96    -8.604     44.667 
 C                     21.037   -9.599     45.708 
 C                     22.405   -9.498     46.288 
 C                     19.826   -8.294     43.734 
 C                     19.899   -10.537    46.152 
 O                     18.872   -10.422    45.493 
 C                     19.955   -11.56     47.262 
 N                     25.303   -9.564     47.464 
 C                     24.312   -10.463    47.75 
 C                     24.843   -11.602    48.654 
 C                     26.385   -11.18     48.781 
 C                     26.465   -9.794     48.139 
 C                     24.067   -11.725    50.001 
 C                     27.248   -12.248    48.14 
 C                     28.555   -12.353    48.851 
 N                     26.934   -7.123     46.671 
 C                     27.879   -7.76      47.52 
 C                     29.115   -6.896     47.623 
 C                     28.735   -5.766     46.87 
 C                     27.442   -5.963     46.287 
 C                     30.455   -7.144     48.329 
 C                     29.243   -4.474     46.37 
 O                     30.326   -3.984     46.527 
 C                     28.034   -3.974     45.407 
 C                     27.558   -2.659     45.881 
 O                     27.95    -1.575     45.497 
 O                     26.566   -2.816     46.859 
 C                     25.808   -1.694     47.462 
 C                     24.914   -2.532     38.416 
 C                     24.68    -3.95      37.951 
 C                     25.181   -4.587     36.875 
 C                     26.071   -4.041     35.815 
 C                     24.694   -6.028     36.586 
 C                     23.235   -6.263     36.159 
 C                     23.07    -7.722     35.633 
 C                     22.786   -7.691     34.109 
 C                     21.841   -8.873     33.708 
 C                     24.141   -7.782     33.275 
 C                     24.176   -6.964     31.924 
 C                     25.357   -5.973     31.944 
 C                     24.988   -4.781     31.005 
 C                     24.316   -3.704     31.867 
 C                     26.336   -4.166     30.401 
 C                     26.259   -3.658     28.876 
 C                     26.27    -4.807     27.911 
 C                     25.386   -4.443     26.673 
 C                     23.857   -4.705     27.101 
 C                     25.797   -5.334     25.399 
 H                     21.946   -6.293     43.299 
 H                     22.442   -11.247    47.519 
 H                     28.454   -9.451     48.651 
 H                     25.372   -3.099     43.949 
 H                     23.533   -4.569     42.338 
 H                     22.141   -3.217     43.206 
 H                     23.187   -2.799     44.616 
 H                     22.069   -4.269     44.583 
 H                     25.5     -4.728     41.493 
 H                     26.876   -4.959     42.422 
 H                     27.704   -2.71      41.89 
 H                     26.133   -2.041     42.164 
 H                     18.847   -8.52      44.157 
 H                     20.109   -8.892     42.869 
 H                     19.823   -7.242     43.447 
 H                     20.458   -11.287    48.19 
 H                     20.553   -12.332    46.777 
 H                     19.013   -12.084    47.425 
 H                     24.732   -12.519    48.074 
 H                     26.6     -11.123    49.848 
 H                     23.071   -11.386    49.719 
 H                     24.549   -11.027    50.685 
 H                     24.229   -12.75     50.337 
 H                     27.452   -11.972    47.105 
 H                     26.744   -13.214    48.12 
 H                     29.367   -11.833    48.342 
 H                     28.913   -13.378    48.948 
 H                     28.621   -11.928    49.852 
 H                     31.262   -6.633     47.804 
 H                     30.65    -8.216     48.357 
 H                     30.48    -6.968     49.405 
 H                     28.394   -3.803     44.392 
 H                     24.81    -2.072     47.684 
 H                     25.823   -0.721     46.972 
 H                     26.155   -1.519     48.48 
 H                     25.728   -2.079     37.851 
 H                     24.077   -1.875     38.18 
 H                     24.056   -4.548     38.614 
 H                     27.025   -4.558     35.914 
 H                     26.177   -2.959     35.899 
 H                     25.57    -4.225     34.864 
 H                     24.963   -6.682     37.416 
 H                     25.341   -6.383     35.784 
 H                     22.952   -5.573     35.364 
 H                     22.569   -5.888     36.936 
 H                     22.201   -8.037     36.211 
 H                     24.032   -8.159     35.901 
 H                     22.298   -6.753     33.846 
 H                     22.14    -9.527     32.889 
 H                     20.845   -8.565     33.393 
 H                     21.617   -9.597     34.492 
 H                     24.389   -8.789     32.937 
 H                     25.002   -7.552     33.903 
 H                     23.28    -6.354     32.038 
 H                     24.264   -7.603     31.045 
 H                     26.169   -6.551     31.504 
 H                     25.655   -5.66      32.944 
 H                     24.317   -5.151     30.23 
 H                     24.648   -2.671     31.756 
 H                     24.199   -4.076     32.884 
 H                     23.263   -3.563     31.619 
 H                     27.083   -4.96      30.418 
 H                     26.647   -3.379     31.087 
 H                     27.181   -3.093     28.737 
 H                     25.408   -2.997     28.708 
 H                     25.964   -5.74      28.385 
 H                     27.318   -4.796     27.613 
 H                     25.471   -3.397     26.378 
 H                     23.613   -5.709     26.752 
 H                     23.138   -4.078     26.574 
 H                     23.697   -4.644     28.177 
 H                     26.464   -6.15      25.678 
 H                     26.398   -4.732     24.717 
 H                     25.021   -5.825     24.812 
 
 ITRead=  0  0  0  0  0  0  0  0  0  0  0  0  0  0  0  0  0  0  0  0
 ITRead=  0  0  0  0  0  0  0  0  0  0  0  0  0  0  0  0  0  0  0  0
 ITRead=  0  0  0  0  0  0  0  0  0  0  0  0  0  0  0  0  0  0  0  0
 ITRead=  0  0  0  0  0  0  0  0  0  0  0  0  0  0  0  0  0  0  0  0
 ITRead=  0  0  0  0  0  0  0  0  0  0  0  0  0  0  0  0  0  0  0  0
 ITRead=  0  0  0  0  0  0  0  0  0  0  0  0  0  0  0  0  0  0  0  0
 ITRead=  0  0  0  0  0  0  0  0  0  0  0  0  0  0  0  0  0  0  0  0
 MicOpt= -1 -1 -1 -1 -1 -1 -1 -1 -1 -1 -1 -1 -1 -1 -1 -1 -1 -1 -1 -1
 MicOpt= -1 -1 -1 -1 -1 -1 -1 -1 -1 -1 -1 -1 -1 -1 -1 -1 -1 -1 -1 -1
 MicOpt= -1 -1 -1 -1 -1 -1 -1 -1 -1 -1 -1 -1 -1 -1 -1 -1 -1 -1 -1 -1
 MicOpt= -1 -1 -1 -1 -1 -1 -1 -1 -1 -1 -1 -1 -1 -1 -1 -1 -1 -1 -1 -1
 MicOpt= -1 -1 -1 -1 -1 -1 -1 -1 -1 -1 -1 -1 -1 -1 -1 -1 -1 -1 -1 -1
 MicOpt= -1 -1 -1 -1 -1 -1 -1 -1 -1 -1 -1 -1 -1 -1 -1 -1 -1 -1 -1 -1
 MicOpt= -1 -1 -1 -1 -1 -1 -1 -1 -1 -1 -1 -1 -1 -1 -1 -1 -1 -1 -1 -1
 NAtoms=    140 NQM=      140 NQMF=       0 NMMI=      0 NMMIF=      0
                NMic=       0 NMicF=      0.
                    Isotopes and Nuclear Properties:
 (Nuclear quadrupole moments (NQMom) in fm**2, nuclear magnetic moments (NMagM)
  in nuclear magnetons)

  Atom         1           2           3           4           5           6           7           8           9          10
 IAtWgt=          24          12          12          12          12          14          12          12          12          12
 AtmWgt=  23.9850450  12.0000000  12.0000000  12.0000000  12.0000000  14.0030740  12.0000000  12.0000000  12.0000000  12.0000000
 NucSpn=           0           0           0           0           0           2           0           0           0           0
 AtZEff=  -0.0000000  -0.0000000  -0.0000000  -0.0000000  -0.0000000  -0.0000000  -0.0000000  -0.0000000  -0.0000000  -0.0000000
 NQMom=    0.0000000   0.0000000   0.0000000   0.0000000   0.0000000   2.0440000   0.0000000   0.0000000   0.0000000   0.0000000
 NMagM=    0.0000000   0.0000000   0.0000000   0.0000000   0.0000000   0.4037610   0.0000000   0.0000000   0.0000000   0.0000000
 AtZNuc=  12.0000000   6.0000000   6.0000000   6.0000000   6.0000000   7.0000000   6.0000000   6.0000000   6.0000000   6.0000000

  Atom        11          12          13          14          15          16          17          18          19          20
 IAtWgt=          12          12          12          12          16          16          14          12          12          12
 AtmWgt=  12.0000000  12.0000000  12.0000000  12.0000000  15.9949146  15.9949146  14.0030740  12.0000000  12.0000000  12.0000000
 NucSpn=           0           0           0           0           0           0           2           0           0           0
 AtZEff=  -0.0000000  -0.0000000  -0.0000000  -0.0000000  -0.0000000  -0.0000000  -0.0000000  -0.0000000  -0.0000000  -0.0000000
 NQMom=    0.0000000   0.0000000   0.0000000   0.0000000   0.0000000   0.0000000   2.0440000   0.0000000   0.0000000   0.0000000
 NMagM=    0.0000000   0.0000000   0.0000000   0.0000000   0.0000000   0.0000000   0.4037610   0.0000000   0.0000000   0.0000000
 AtZNuc=   6.0000000   6.0000000   6.0000000   6.0000000   8.0000000   8.0000000   7.0000000   6.0000000   6.0000000   6.0000000

  Atom        21          22          23          24          25          26          27          28          29          30
 IAtWgt=          12          12          12          16          12          14          12          12          12          12
 AtmWgt=  12.0000000  12.0000000  12.0000000  15.9949146  12.0000000  14.0030740  12.0000000  12.0000000  12.0000000  12.0000000
 NucSpn=           0           0           0           0           0           2           0           0           0           0
 AtZEff=  -0.0000000  -0.0000000  -0.0000000  -0.0000000  -0.0000000  -0.0000000  -0.0000000  -0.0000000  -0.0000000  -0.0000000
 NQMom=    0.0000000   0.0000000   0.0000000   0.0000000   0.0000000   2.0440000   0.0000000   0.0000000   0.0000000   0.0000000
 NMagM=    0.0000000   0.0000000   0.0000000   0.0000000   0.0000000   0.4037610   0.0000000   0.0000000   0.0000000   0.0000000
 AtZNuc=   6.0000000   6.0000000   6.0000000   8.0000000   6.0000000   7.0000000   6.0000000   6.0000000   6.0000000   6.0000000

  Atom        31          32          33          34          35          36          37          38          39          40
 IAtWgt=          12          12          12          14          12          12          12          12          12          12
 AtmWgt=  12.0000000  12.0000000  12.0000000  14.0030740  12.0000000  12.0000000  12.0000000  12.0000000  12.0000000  12.0000000
 NucSpn=           0           0           0           2           0           0           0           0           0           0
 AtZEff=  -0.0000000  -0.0000000  -0.0000000  -0.0000000  -0.0000000  -0.0000000  -0.0000000  -0.0000000  -0.0000000  -0.0000000
 NQMom=    0.0000000   0.0000000   0.0000000   2.0440000   0.0000000   0.0000000   0.0000000   0.0000000   0.0000000   0.0000000
 NMagM=    0.0000000   0.0000000   0.0000000   0.4037610   0.0000000   0.0000000   0.0000000   0.0000000   0.0000000   0.0000000
 AtZNuc=   6.0000000   6.0000000   6.0000000   7.0000000   6.0000000   6.0000000   6.0000000   6.0000000   6.0000000   6.0000000

  Atom        41          42          43          44          45          46          47          48          49          50
 IAtWgt=          16          12          12          16          16          12          12          12          12          12
 AtmWgt=  15.9949146  12.0000000  12.0000000  15.9949146  15.9949146  12.0000000  12.0000000  12.0000000  12.0000000  12.0000000
 NucSpn=           0           0           0           0           0           0           0           0           0           0
 AtZEff=  -0.0000000  -0.0000000  -0.0000000  -0.0000000  -0.0000000  -0.0000000  -0.0000000  -0.0000000  -0.0000000  -0.0000000
 NQMom=    0.0000000   0.0000000   0.0000000   0.0000000   0.0000000   0.0000000   0.0000000   0.0000000   0.0000000   0.0000000
 NMagM=    0.0000000   0.0000000   0.0000000   0.0000000   0.0000000   0.0000000   0.0000000   0.0000000   0.0000000   0.0000000
 AtZNuc=   8.0000000   6.0000000   6.0000000   8.0000000   8.0000000   6.0000000   6.0000000   6.0000000   6.0000000   6.0000000

  Atom        51          52          53          54          55          56          57          58          59          60
 IAtWgt=          12          12          12          12          12          12          12          12          12          12
 AtmWgt=  12.0000000  12.0000000  12.0000000  12.0000000  12.0000000  12.0000000  12.0000000  12.0000000  12.0000000  12.0000000
 NucSpn=           0           0           0           0           0           0           0           0           0           0
 AtZEff=  -0.0000000  -0.0000000  -0.0000000  -0.0000000  -0.0000000  -0.0000000  -0.0000000  -0.0000000  -0.0000000  -0.0000000
 NQMom=    0.0000000   0.0000000   0.0000000   0.0000000   0.0000000   0.0000000   0.0000000   0.0000000   0.0000000   0.0000000
 NMagM=    0.0000000   0.0000000   0.0000000   0.0000000   0.0000000   0.0000000   0.0000000   0.0000000   0.0000000   0.0000000
 AtZNuc=   6.0000000   6.0000000   6.0000000   6.0000000   6.0000000   6.0000000   6.0000000   6.0000000   6.0000000   6.0000000

  Atom        61          62          63          64          65          66          67          68          69          70
 IAtWgt=          12          12          12          12          12          12           1           1           1           1
 AtmWgt=  12.0000000  12.0000000  12.0000000  12.0000000  12.0000000  12.0000000   1.0078250   1.0078250   1.0078250   1.0078250
 NucSpn=           0           0           0           0           0           0           1           1           1           1
 AtZEff=  -0.0000000  -0.0000000  -0.0000000  -0.0000000  -0.0000000  -0.0000000  -0.0000000  -0.0000000  -0.0000000  -0.0000000
 NQMom=    0.0000000   0.0000000   0.0000000   0.0000000   0.0000000   0.0000000   0.0000000   0.0000000   0.0000000   0.0000000
 NMagM=    0.0000000   0.0000000   0.0000000   0.0000000   0.0000000   0.0000000   2.7928460   2.7928460   2.7928460   2.7928460
 AtZNuc=   6.0000000   6.0000000   6.0000000   6.0000000   6.0000000   6.0000000   1.0000000   1.0000000   1.0000000   1.0000000

  Atom        71          72          73          74          75          76          77          78          79          80
 IAtWgt=           1           1           1           1           1           1           1           1           1           1
 AtmWgt=   1.0078250   1.0078250   1.0078250   1.0078250   1.0078250   1.0078250   1.0078250   1.0078250   1.0078250   1.0078250
 NucSpn=           1           1           1           1           1           1           1           1           1           1
 AtZEff=  -0.0000000  -0.0000000  -0.0000000  -0.0000000  -0.0000000  -0.0000000  -0.0000000  -0.0000000  -0.0000000  -0.0000000
 NQMom=    0.0000000   0.0000000   0.0000000   0.0000000   0.0000000   0.0000000   0.0000000   0.0000000   0.0000000   0.0000000
 NMagM=    2.7928460   2.7928460   2.7928460   2.7928460   2.7928460   2.7928460   2.7928460   2.7928460   2.7928460   2.7928460
 AtZNuc=   1.0000000   1.0000000   1.0000000   1.0000000   1.0000000   1.0000000   1.0000000   1.0000000   1.0000000   1.0000000

  Atom        81          82          83          84          85          86          87          88          89          90
 IAtWgt=           1           1           1           1           1           1           1           1           1           1
 AtmWgt=   1.0078250   1.0078250   1.0078250   1.0078250   1.0078250   1.0078250   1.0078250   1.0078250   1.0078250   1.0078250
 NucSpn=           1           1           1           1           1           1           1           1           1           1
 AtZEff=  -0.0000000  -0.0000000  -0.0000000  -0.0000000  -0.0000000  -0.0000000  -0.0000000  -0.0000000  -0.0000000  -0.0000000
 NQMom=    0.0000000   0.0000000   0.0000000   0.0000000   0.0000000   0.0000000   0.0000000   0.0000000   0.0000000   0.0000000
 NMagM=    2.7928460   2.7928460   2.7928460   2.7928460   2.7928460   2.7928460   2.7928460   2.7928460   2.7928460   2.7928460
 AtZNuc=   1.0000000   1.0000000   1.0000000   1.0000000   1.0000000   1.0000000   1.0000000   1.0000000   1.0000000   1.0000000

  Atom        91          92          93          94          95          96          97          98          99         100
 IAtWgt=           1           1           1           1           1           1           1           1           1           1
 AtmWgt=   1.0078250   1.0078250   1.0078250   1.0078250   1.0078250   1.0078250   1.0078250   1.0078250   1.0078250   1.0078250
 NucSpn=           1           1           1           1           1           1           1           1           1           1
 AtZEff=  -0.0000000  -0.0000000  -0.0000000  -0.0000000  -0.0000000  -0.0000000  -0.0000000  -0.0000000  -0.0000000  -0.0000000
 NQMom=    0.0000000   0.0000000   0.0000000   0.0000000   0.0000000   0.0000000   0.0000000   0.0000000   0.0000000   0.0000000
 NMagM=    2.7928460   2.7928460   2.7928460   2.7928460   2.7928460   2.7928460   2.7928460   2.7928460   2.7928460   2.7928460
 AtZNuc=   1.0000000   1.0000000   1.0000000   1.0000000   1.0000000   1.0000000   1.0000000   1.0000000   1.0000000   1.0000000

  Atom       101         102         103         104         105         106         107         108         109         110
 IAtWgt=           1           1           1           1           1           1           1           1           1           1
 AtmWgt=   1.0078250   1.0078250   1.0078250   1.0078250   1.0078250   1.0078250   1.0078250   1.0078250   1.0078250   1.0078250
 NucSpn=           1           1           1           1           1           1           1           1           1           1
 AtZEff=  -0.0000000  -0.0000000  -0.0000000  -0.0000000  -0.0000000  -0.0000000  -0.0000000  -0.0000000  -0.0000000  -0.0000000
 NQMom=    0.0000000   0.0000000   0.0000000   0.0000000   0.0000000   0.0000000   0.0000000   0.0000000   0.0000000   0.0000000
 NMagM=    2.7928460   2.7928460   2.7928460   2.7928460   2.7928460   2.7928460   2.7928460   2.7928460   2.7928460   2.7928460
 AtZNuc=   1.0000000   1.0000000   1.0000000   1.0000000   1.0000000   1.0000000   1.0000000   1.0000000   1.0000000   1.0000000

  Atom       111         112         113         114         115         116         117         118         119         120
 IAtWgt=           1           1           1           1           1           1           1           1           1           1
 AtmWgt=   1.0078250   1.0078250   1.0078250   1.0078250   1.0078250   1.0078250   1.0078250   1.0078250   1.0078250   1.0078250
 NucSpn=           1           1           1           1           1           1           1           1           1           1
 AtZEff=  -0.0000000  -0.0000000  -0.0000000  -0.0000000  -0.0000000  -0.0000000  -0.0000000  -0.0000000  -0.0000000  -0.0000000
 NQMom=    0.0000000   0.0000000   0.0000000   0.0000000   0.0000000   0.0000000   0.0000000   0.0000000   0.0000000   0.0000000
 NMagM=    2.7928460   2.7928460   2.7928460   2.7928460   2.7928460   2.7928460   2.7928460   2.7928460   2.7928460   2.7928460
 AtZNuc=   1.0000000   1.0000000   1.0000000   1.0000000   1.0000000   1.0000000   1.0000000   1.0000000   1.0000000   1.0000000

  Atom       121         122         123         124         125         126         127         128         129         130
 IAtWgt=           1           1           1           1           1           1           1           1           1           1
 AtmWgt=   1.0078250   1.0078250   1.0078250   1.0078250   1.0078250   1.0078250   1.0078250   1.0078250   1.0078250   1.0078250
 NucSpn=           1           1           1           1           1           1           1           1           1           1
 AtZEff=  -0.0000000  -0.0000000  -0.0000000  -0.0000000  -0.0000000  -0.0000000  -0.0000000  -0.0000000  -0.0000000  -0.0000000
 NQMom=    0.0000000   0.0000000   0.0000000   0.0000000   0.0000000   0.0000000   0.0000000   0.0000000   0.0000000   0.0000000
 NMagM=    2.7928460   2.7928460   2.7928460   2.7928460   2.7928460   2.7928460   2.7928460   2.7928460   2.7928460   2.7928460
 AtZNuc=   1.0000000   1.0000000   1.0000000   1.0000000   1.0000000   1.0000000   1.0000000   1.0000000   1.0000000   1.0000000

  Atom       131         132         133         134         135         136         137         138         139         140
 IAtWgt=           1           1           1           1           1           1           1           1           1           1
 AtmWgt=   1.0078250   1.0078250   1.0078250   1.0078250   1.0078250   1.0078250   1.0078250   1.0078250   1.0078250   1.0078250
 NucSpn=           1           1           1           1           1           1           1           1           1           1
 AtZEff=  -0.0000000  -0.0000000  -0.0000000  -0.0000000  -0.0000000  -0.0000000  -0.0000000  -0.0000000  -0.0000000  -0.0000000
 NQMom=    0.0000000   0.0000000   0.0000000   0.0000000   0.0000000   0.0000000   0.0000000   0.0000000   0.0000000   0.0000000
 NMagM=    2.7928460   2.7928460   2.7928460   2.7928460   2.7928460   2.7928460   2.7928460   2.7928460   2.7928460   2.7928460
 AtZNuc=   1.0000000   1.0000000   1.0000000   1.0000000   1.0000000   1.0000000   1.0000000   1.0000000   1.0000000   1.0000000
 Leave Link  101 at Thu May  5 15:44:04 2022, MaxMem=  6710886400 cpu:               2.8 elap:               0.1
 (Enter /sw/apps/gaussian-16.0/g16/l202.exe)
 Stoichiometry    C55H74MgN4O6
 Framework group  C1[X(C55H74MgN4O6)]
 Deg. of freedom   414
 Full point group                 C1      NOp   1
 Largest Abelian subgroup         C1      NOp   1
 Largest concise Abelian subgroup C1      NOp   1
                         Standard orientation:                         
 ---------------------------------------------------------------------
 Center     Atomic      Atomic             Coordinates (Angstroms)
 Number     Number       Type             X           Y           Z
 ---------------------------------------------------------------------
      1         12           0        5.021221    0.396584   -0.153544
      2          6           0        3.643372   -2.797278   -0.135862
      3          6           0        2.496488    1.515912   -2.075312
      4          6           0        6.329103    3.590458    0.098750
      5          6           0        7.086096   -0.510745    2.558331
      6          7           0        3.167432   -0.500627   -0.870970
      7          6           0        2.835893   -1.842181   -0.838030
      8          6           0        1.581308   -2.130896   -1.639533
      9          6           0        1.476570   -0.816937   -2.516639
     10          6           0        2.332419    0.179819   -1.712671
     11          6           0        1.892503   -0.872266   -3.980121
     12          6           0        0.350125   -2.424109   -0.768060
     13          6           0       -0.412746   -3.694024   -1.137670
     14          6           0       -1.902906   -3.649122   -1.187918
     15          8           0       -2.664483   -4.300131   -0.477797
     16          8           0       -2.288945   -2.806682   -2.183352
     17          7           0        4.559656    2.271855   -1.106141
     18          6           0        3.456584    2.519080   -1.764197
     19          6           0        3.413595    3.939218   -2.220231
     20          6           0        4.629003    4.502352   -1.686097
     21          6           0        5.227522    3.458709   -0.808253
     22          6           0        2.398109    4.566451   -3.130129
     23          6           0        5.204265    5.893165   -2.012801
     24          8           0        4.498910    6.561901   -2.759461
     25          6           0        6.491975    6.482486   -1.487188
     26          7           0        6.497761    1.462779    1.238328
     27          6           0        6.915866    2.747443    1.021750
     28          6           0        8.041051    3.136742    2.011145
     29          6           0        8.139741    1.795314    2.884533
     30          6           0        7.245841    0.789166    2.157779
     31          6           0        9.357655    3.572615    1.298206
     32          6           0        7.748206    2.102974    4.315728
     33          6           0        8.512706    1.236738    5.259111
     34          7           0        5.308219   -1.328110    1.029955
     35          6           0        6.297584   -1.577542    2.019165
     36          6           0        6.276493   -3.044465    2.383161
     37          6           0        5.306547   -3.544599    1.490199
     38          6           0        4.726298   -2.478296    0.730689
     39          6           0        7.064851   -3.825239    3.443548
     40          6           0        4.585427   -4.778898    1.124385
     41          8           0        4.683893   -5.873520    1.603703
     42          6           0        3.501187   -4.240294    0.041159
     43          6           0        3.695275   -4.965359   -1.230489
     44          8           0        3.123831   -5.982844   -1.568648
     45          8           0        4.648825   -4.317311   -2.027968
     46          6           0        4.996467   -4.729422   -3.408680
     47          6           0       -3.744400   -2.411988   -2.160344
     48          6           0       -3.935369   -1.145531   -1.359519
     49          6           0       -4.849596   -0.868145   -0.409891
     50          6           0       -5.962234   -1.728950    0.074740
     51          6           0       -4.872660    0.559884    0.187915
     52          6           0       -5.298591    1.744301   -0.696377
     53          6           0       -5.538985    3.003491    0.192012
     54          6           0       -7.049582    3.353190    0.191763
     55          6           0       -7.248904    4.902498    0.295997
     56          6           0       -7.801038    2.634079    1.399263
     57          6           0       -9.282260    2.167220    1.110173
     58          6           0       -9.411208    0.651952    1.364293
     59          6           0      -10.575099    0.121186    0.468530
     60          6           0       -9.961715   -0.345521   -0.858309
     61          6           0      -11.237408   -1.147265    1.184438
     62          6           0      -12.833508   -1.288487    1.035646
     63          6           0      -13.557811   -0.321916    1.925968
     64          6           0      -14.873781    0.138410    1.216800
     65          6           0      -14.458636    1.284243    0.165900
     66          6           0      -15.936424    0.688231    2.291214
     67          1           0        1.662064    1.738645   -2.743638
     68          1           0        6.773187    4.586374    0.148314
     69          1           0        7.753381   -0.833783    3.359591
     70          1           0        1.806932   -2.967183   -2.301131
     71          1           0        0.444456   -0.468840   -2.501344
     72          1           0        0.984769   -0.668741   -4.547582
     73          1           0        2.324443   -1.838781   -4.242266
     74          1           0        2.535274   -0.006519   -4.140873
     75          1           0       -0.282636   -1.537456   -0.787344
     76          1           0        0.722408   -2.381794    0.255131
     77          1           0       -0.203099   -4.534831   -0.475950
     78          1           0       -0.119993   -4.035960   -2.129703
     79          1           0        2.821215    5.325265   -3.788633
     80          1           0        1.675413    4.931989   -2.402111
     81          1           0        1.913727    3.820063   -3.760494
     82          1           0        7.367419    5.835637   -1.424685
     83          1           0        6.186791    6.724463   -0.468796
     84          1           0        6.718926    7.470774   -1.887549
     85          1           0        7.645141    3.963461    2.602247
     86          1           0        9.182763    1.481261    2.846609
     87          1           0        8.979900    4.008062    0.374005
     88          1           0        9.911133    2.652881    1.110761
     89          1           0        9.890605    4.188589    2.023675
     90          1           0        6.687441    1.890233    4.451870
     91          1           0        7.896712    3.155487    4.556006
     92          1           0        7.942567    0.379049    5.617072
     93          1           0        8.818357    1.753373    6.168981
     94          1           0        9.414686    0.754443    4.883869
     95          1           0        6.480579   -4.670988    3.805943
     96          1           0        7.306036   -3.158225    4.271144
     97          1           0        8.086911   -4.104372    3.184981
     98          1           0        2.485897   -4.479626    0.358921
     99          1           0        5.251102   -3.820348   -3.953581
    100          1           0        4.328910   -5.403945   -3.943881
    101          1           0        5.973441   -5.211957   -3.414970
    102          1           0       -4.356459   -3.214239   -1.749484
    103          1           0       -4.132641   -2.323308   -3.174897
    104          1           0       -3.192412   -0.371929   -1.549531
    105          1           0       -5.731114   -1.981887    1.109057
    106          1           0       -6.084684   -2.614582   -0.549501
    107          1           0       -6.877321   -1.146881   -0.039589
    108          1           0       -3.922992    0.768918    0.681283
    109          1           0       -5.567328    0.497944    1.025434
    110          1           0       -6.221385    1.513359   -1.228665
    111          1           0       -4.632978    1.806870   -1.557164
    112          1           0       -4.942768    3.737458   -0.350471
    113          1           0       -5.157285    2.665047    1.155338
    114          1           0       -7.505914    3.006944   -0.735077
    115          1           0       -7.915120    5.293617    1.064802
    116          1           0       -7.653041    5.365070   -0.603339
    117          1           0       -6.348598    5.492718    0.469481
    118          1           0       -7.929368    3.262698    2.281401
    119          1           0       -7.198582    1.821101    1.805118
    120          1           0       -9.320363    2.286785    0.027508
    121          1           0      -10.017801    2.692934    1.719527
    122          1           0       -9.701967    0.603552    2.413171
    123          1           0       -8.480258    0.100991    1.235658
    124          1           0      -11.287861    0.931768    0.317892
    125          1           0      -10.257789   -1.319065   -1.250973
    126          1           0       -8.896956   -0.116157   -0.864771
    127          1           0      -10.270004    0.270620   -1.704194
    128          1           0      -11.040737   -1.048076    2.252247
    129          1           0      -10.705288   -2.021344    0.810914
    130          1           0      -13.045551   -2.297125    1.391056
    131          1           0      -13.156346   -1.201921   -0.002443
    132          1           0      -12.924135    0.515682    2.218690
    133          1           0      -13.814403   -0.981171    2.754685
    134          1           0      -15.361682   -0.660261    0.657835
    135          1           0      -14.616048    2.234743    0.676903
    136          1           0      -15.122190    1.353459   -0.695915
    137          1           0      -13.421064    1.212123   -0.158661
    138          1           0      -15.481482    0.824230    3.272599
    139          1           0      -16.699612   -0.070936    2.464244
    140          1           0      -16.445288    1.634808    2.109900
 ---------------------------------------------------------------------
 Rotational constants (GHZ):           0.0411968           0.0109008           0.0097123
 Leave Link  202 at Thu May  5 15:44:04 2022, MaxMem=  6710886400 cpu:               0.2 elap:               0.0
 (Enter /sw/apps/gaussian-16.0/g16/l301.exe)
 Standard basis: VSTO-6G (5D, 7F)
 Ernie: Thresh=  0.10000D-02 Tol=  0.10000D-05 Strict=F.
 There are   338 symmetry adapted cartesian basis functions of A   symmetry.
 There are   338 symmetry adapted basis functions of A   symmetry.
   338 basis functions,  2028 primitive gaussians,   338 cartesian basis functions
   176 alpha electrons      176 beta electrons
       nuclear repulsion energy      4849.4518745677 Hartrees.
 IExCor=    0 DFT=F Ex=HF Corr=None ExCW=0 ScaHFX=  1.000000
 ScaDFX=  1.000000  1.000000  1.000000  1.000000 ScalE2=  1.000000  1.000000
 IRadAn=      5 IRanWt=     -1 IRanGd=            0 ICorTp=0 IEmpDi=  4
 Integral buffers will be    131072 words long.
 Regular integral format.
 Two-electron integral symmetry is turned off.
 Leave Link  301 at Thu May  5 15:44:04 2022, MaxMem=  6710886400 cpu:               1.2 elap:               0.1
 (Enter /sw/apps/gaussian-16.0/g16/l302.exe)
 Do NDO integrals.
 NPDir=0 NMtPBC=     1 NCelOv=     1 NCel=       1 NClECP=     1 NCelD=      1
         NCelK=      1 NCelE2=     1 NClLst=     1 CellRange=     0.0.
 One-electron integrals computed using PRISM.
 Generate ZINDO/S integrals.
 NDO Nuclear repulsion=  4366.532526166104 Hartrees.
 NBasis=   338 RedAO= F EigKep=  0.00D+00  NBF=   338
 NBsUse=   338 1.00D-04 EigRej=  0.00D+00 NBFU=   338
 Leave Link  302 at Thu May  5 15:44:05 2022, MaxMem=  6710886400 cpu:               8.2 elap:               0.4
 (Enter /sw/apps/gaussian-16.0/g16/l303.exe)
 DipDrv:  MaxL=1.
 DipDrv:  will hold  3 matrices at once.
 Leave Link  303 at Thu May  5 15:44:05 2022, MaxMem=  6710886400 cpu:               0.5 elap:               0.0
 (Enter /sw/apps/gaussian-16.0/g16/l308.exe)
 Leave Link  308 at Thu May  5 15:44:05 2022, MaxMem=  6710886400 cpu:               5.3 elap:               0.3
 (Enter /sw/apps/gaussian-16.0/g16/l401.exe)
 Simple Huckel Guess.
 JPrj=0 DoOrth=F DoCkMO=F.
 Leave Link  401 at Thu May  5 15:44:05 2022, MaxMem=  6710886400 cpu:               2.5 elap:               0.1
 (Enter /sw/apps/gaussian-16.0/g16/l502.exe)
 Two-electron integral symmetry not used.
 Closed shell SCF:
 Using DIIS extrapolation, IDIIS=  1040.
 Overlap will be assumed to be unity.
 NGot=  6710886400 LenX=  6710643598 LenY=  6710528913
 Requested convergence on RMS density matrix=1.00D-08 within 128 cycles.
 Requested convergence on MAX density matrix=1.00D-06.
 Requested convergence on             energy=1.00D-06.
 No special actions if energy rises.
 Fock matrices will be formed incrementally for  20 cycles.

 Cycle   1  Pass 1  IDiag  1:
 E= -472.088185334571    
 DIIS: error= 5.49D-02 at cycle   1 NSaved=   1.
 NSaved= 1 IEnMin= 1 EnMin= -472.088185334571     IErMin= 1 ErrMin= 5.49D-02
 ErrMax= 5.49D-02  0.00D+00 EMaxC= 1.00D-01 BMatC= 8.30D-01 BMatP= 8.30D-01
 IDIUse=3 WtCom= 4.51D-01 WtEn= 5.49D-01
 Coeff-Com:  0.100D+01
 Coeff-En:   0.100D+01
 Coeff:      0.100D+01
 GapD=    2.000 DampG=2.000 DampE=0.500 DampFc=1.0000 IDamp=-1.
 RMSDP=3.99D-03 MaxDP=1.69D-01              OVMax= 0.00D+00

 Cycle   2  Pass 1  IDiag  1:
 RMSU=  3.98D-03    CP:  9.95D-01
 E= -473.914861778512     Delta-E=       -1.826676443941 Rises=F Damp=F
 DIIS: error= 1.92D-02 at cycle   2 NSaved=   2.
 NSaved= 2 IEnMin= 2 EnMin= -473.914861778512     IErMin= 2 ErrMin= 1.92D-02
 ErrMax= 1.92D-02  0.00D+00 EMaxC= 1.00D-01 BMatC= 5.19D-02 BMatP= 8.30D-01
 IDIUse=3 WtCom= 8.08D-01 WtEn= 1.92D-01
 Coeff-Com: -0.733D-01 0.107D+01
 Coeff-En:   0.000D+00 0.100D+01
 Coeff:     -0.592D-01 0.106D+01
 RMSDP=1.10D-03 MaxDP=4.30D-02 DE=-1.83D+00 OVMax= 0.00D+00

 Cycle   3  Pass 1  IDiag  1:
 RMSU=  1.03D-03    CP:  9.93D-01  1.10D+00
 E= -474.016514042883     Delta-E=       -0.101652264370 Rises=F Damp=F
 DIIS: error= 7.66D-03 at cycle   3 NSaved=   3.
 NSaved= 3 IEnMin= 3 EnMin= -474.016514042883     IErMin= 3 ErrMin= 7.66D-03
 ErrMax= 7.66D-03  0.00D+00 EMaxC= 1.00D-01 BMatC= 7.10D-03 BMatP= 5.19D-02
 IDIUse=3 WtCom= 9.23D-01 WtEn= 7.66D-02
 Coeff-Com: -0.676D-01 0.241D+00 0.827D+00
 Coeff-En:   0.000D+00 0.000D+00 0.100D+01
 Coeff:     -0.624D-01 0.222D+00 0.840D+00
 RMSDP=3.66D-04 MaxDP=1.79D-02 DE=-1.02D-01 OVMax= 0.00D+00

 Cycle   4  Pass 1  IDiag  1:
 RMSU=  2.34D-04    CP:  9.93D-01  1.16D+00  9.24D-01
 E= -474.029138076517     Delta-E=       -0.012624033635 Rises=F Damp=F
 DIIS: error= 1.10D-03 at cycle   4 NSaved=   4.
 NSaved= 4 IEnMin= 4 EnMin= -474.029138076517     IErMin= 4 ErrMin= 1.10D-03
 ErrMax= 1.10D-03  0.00D+00 EMaxC= 1.00D-01 BMatC= 2.71D-04 BMatP= 7.10D-03
 IDIUse=3 WtCom= 9.89D-01 WtEn= 1.10D-02
 Coeff-Com:  0.172D-02-0.400D-01 0.424D-02 0.103D+01
 Coeff-En:   0.000D+00 0.000D+00 0.000D+00 0.100D+01
 Coeff:      0.170D-02-0.396D-01 0.419D-02 0.103D+01
 RMSDP=1.30D-04 MaxDP=4.48D-03 DE=-1.26D-02 OVMax= 0.00D+00

 Cycle   5  Pass 1  IDiag  1:
 RMSU=  8.58D-05    CP:  9.93D-01  1.17D+00  1.01D+00  1.09D+00
 E= -474.030115598555     Delta-E=       -0.000977522038 Rises=F Damp=F
 DIIS: error= 5.56D-04 at cycle   5 NSaved=   5.
 NSaved= 5 IEnMin= 5 EnMin= -474.030115598555     IErMin= 5 ErrMin= 5.56D-04
 ErrMax= 5.56D-04  0.00D+00 EMaxC= 1.00D-01 BMatC= 5.38D-05 BMatP= 2.71D-04
 IDIUse=3 WtCom= 9.94D-01 WtEn= 5.56D-03
 Coeff-Com:  0.598D-02-0.247D-01-0.922D-01 0.200D+00 0.911D+00
 Coeff-En:   0.000D+00 0.000D+00 0.000D+00 0.000D+00 0.100D+01
 Coeff:      0.594D-02-0.246D-01-0.917D-01 0.199D+00 0.911D+00
 RMSDP=5.49D-05 MaxDP=1.68D-03 DE=-9.78D-04 OVMax= 0.00D+00

 Cycle   6  Pass 1  IDiag  1:
 RMSU=  3.13D-05    CP:  9.93D-01  1.17D+00  1.03D+00  1.26D+00  1.11D+00
 E= -474.030296951434     Delta-E=       -0.000181352879 Rises=F Damp=F
 DIIS: error= 1.46D-04 at cycle   6 NSaved=   6.
 NSaved= 6 IEnMin= 6 EnMin= -474.030296951434     IErMin= 6 ErrMin= 1.46D-04
 ErrMax= 1.46D-04  0.00D+00 EMaxC= 1.00D-01 BMatC= 6.35D-06 BMatP= 5.38D-05
 IDIUse=3 WtCom= 9.99D-01 WtEn= 1.46D-03
 Coeff-Com: -0.382D-03 0.653D-02-0.106D-01-0.108D+00 0.554D-03 0.111D+01
 Coeff-En:   0.000D+00 0.000D+00 0.000D+00 0.000D+00 0.000D+00 0.100D+01
 Coeff:     -0.382D-03 0.652D-02-0.106D-01-0.107D+00 0.554D-03 0.111D+01
 RMSDP=3.68D-05 MaxDP=1.32D-03 DE=-1.81D-04 OVMax= 0.00D+00

 Cycle   7  Pass 1  IDiag  1:
 RMSU=  1.88D-05    CP:  9.92D-01  1.17D+00  1.04D+00  1.30D+00  1.40D+00
                    CP:  1.46D+00
 E= -474.030342795450     Delta-E=       -0.000045844016 Rises=F Damp=F
 DIIS: error= 9.36D-05 at cycle   7 NSaved=   7.
 NSaved= 7 IEnMin= 7 EnMin= -474.030342795450     IErMin= 7 ErrMin= 9.36D-05
 ErrMax= 9.36D-05  0.00D+00 EMaxC= 1.00D-01 BMatC= 1.97D-06 BMatP= 6.35D-06
 IDIUse=1 WtCom= 1.00D+00 WtEn= 0.00D+00
 Coeff-Com: -0.787D-03 0.394D-02 0.837D-02-0.286D-01-0.139D+00 0.201D+00
 Coeff-Com:  0.956D+00
 Coeff:     -0.787D-03 0.394D-02 0.837D-02-0.286D-01-0.139D+00 0.201D+00
 Coeff:      0.956D+00
 RMSDP=2.14D-05 MaxDP=6.94D-04 DE=-4.58D-05 OVMax= 0.00D+00

 Cycle   8  Pass 1  IDiag  1:
 RMSU=  6.39D-06    CP:  9.92D-01  1.17D+00  1.04D+00  1.31D+00  1.52D+00
                    CP:  1.86D+00  1.63D+00
 E= -474.030361373158     Delta-E=       -0.000018577708 Rises=F Damp=F
 DIIS: error= 5.77D-05 at cycle   8 NSaved=   8.
 NSaved= 8 IEnMin= 8 EnMin= -474.030361373158     IErMin= 8 ErrMin= 5.77D-05
 ErrMax= 5.77D-05  0.00D+00 EMaxC= 1.00D-01 BMatC= 8.31D-07 BMatP= 1.97D-06
 IDIUse=1 WtCom= 1.00D+00 WtEn= 0.00D+00
 Coeff-Com:  0.188D-03-0.201D-02 0.134D-02 0.340D-01-0.164D-01-0.180D+00
 Coeff-Com: -0.488D+00 0.165D+01
 Coeff:      0.188D-03-0.201D-02 0.134D-02 0.340D-01-0.164D-01-0.180D+00
 Coeff:     -0.488D+00 0.165D+01
 RMSDP=3.15D-05 MaxDP=9.00D-04 DE=-1.86D-05 OVMax= 0.00D+00

 Cycle   9  Pass 1  IDiag  1:
 RMSU=  5.07D-06    CP:  9.92D-01  1.17D+00  1.04D+00  1.32D+00  1.68D+00
                    CP:  2.34D+00  2.80D+00  2.16D+00
 E= -474.030380053176     Delta-E=       -0.000018680018 Rises=F Damp=F
 DIIS: error= 3.44D-05 at cycle   9 NSaved=   9.
 NSaved= 9 IEnMin= 9 EnMin= -474.030380053176     IErMin= 9 ErrMin= 3.44D-05
 ErrMax= 3.44D-05  0.00D+00 EMaxC= 1.00D-01 BMatC= 6.03D-07 BMatP= 8.31D-07
 IDIUse=1 WtCom= 1.00D+00 WtEn= 0.00D+00
 Coeff-Com:  0.382D-03-0.157D-02-0.528D-02 0.825D-02 0.576D-01 0.525D-01
 Coeff-Com: -0.960D+00 0.348D+00 0.150D+01
 Coeff:      0.382D-03-0.157D-02-0.528D-02 0.825D-02 0.576D-01 0.525D-01
 Coeff:     -0.960D+00 0.348D+00 0.150D+01
 RMSDP=3.61D-05 MaxDP=1.00D-03 DE=-1.87D-05 OVMax= 0.00D+00

 Cycle  10  Pass 1  IDiag  1:
 RMSU=  2.25D-05    CP:  9.92D-01  1.17D+00  1.05D+00  1.33D+00  1.84D+00
                    CP:  2.87D+00  3.00D+00  3.00D+00  2.24D+00
 E= -474.030394844694     Delta-E=       -0.000014791517 Rises=F Damp=F
 DIIS: error= 2.65D-05 at cycle  10 NSaved=  10.
 NSaved=10 IEnMin=10 EnMin= -474.030394844694     IErMin=10 ErrMin= 2.65D-05
 ErrMax= 2.65D-05  0.00D+00 EMaxC= 1.00D-01 BMatC= 1.78D-07 BMatP= 6.03D-07
 IDIUse=1 WtCom= 1.00D+00 WtEn= 0.00D+00
 Coeff-Com: -0.135D-03 0.133D-02-0.821D-03-0.206D-01 0.168D-02 0.166D+00
 Coeff-Com:  0.940D-01-0.427D+00-0.544D+00 0.173D+01
 Coeff:     -0.135D-03 0.133D-02-0.821D-03-0.206D-01 0.168D-02 0.166D+00
 Coeff:      0.940D-01-0.427D+00-0.544D+00 0.173D+01
 RMSDP=2.79D-05 MaxDP=7.72D-04 DE=-1.48D-05 OVMax= 0.00D+00

 Cycle  11  Pass 1  IDiag  1:
 RMSU=  8.90D-06    CP:  9.92D-01  1.17D+00  1.05D+00  1.34D+00  1.96D+00
                    CP:  3.00D+00  3.00D+00  3.00D+00  3.00D+00  1.97D+00
 E= -474.030401019578     Delta-E=       -0.000006174884 Rises=F Damp=F
 DIIS: error= 1.58D-05 at cycle  11 NSaved=  11.
 NSaved=11 IEnMin=11 EnMin= -474.030401019578     IErMin=11 ErrMin= 1.58D-05
 ErrMax= 1.58D-05  0.00D+00 EMaxC= 1.00D-01 BMatC= 5.56D-08 BMatP= 1.78D-07
 IDIUse=1 WtCom= 1.00D+00 WtEn= 0.00D+00
 Coeff-Com: -0.115D-03 0.514D-03 0.161D-02-0.423D-02-0.158D-01-0.231D-02
 Coeff-Com:  0.232D+00-0.175D-01-0.728D+00 0.227D+00 0.131D+01
 Coeff:     -0.115D-03 0.514D-03 0.161D-02-0.423D-02-0.158D-01-0.231D-02
 Coeff:      0.232D+00-0.175D-01-0.728D+00 0.227D+00 0.131D+01
 RMSDP=1.92D-05 MaxDP=5.29D-04 DE=-6.17D-06 OVMax= 0.00D+00

 Cycle  12  Pass 1  IDiag  1:
 RMSU=  2.15D-06    CP:  9.92D-01  1.17D+00  1.05D+00  1.34D+00  2.04D+00
                    CP:  3.00D+00  3.00D+00  3.00D+00  3.00D+00  2.63D+00
                    CP:  2.08D+00
 E= -474.030402680263     Delta-E=       -0.000001660685 Rises=F Damp=F
 DIIS: error= 6.24D-06 at cycle  12 NSaved=  12.
 NSaved=12 IEnMin=12 EnMin= -474.030402680263     IErMin=12 ErrMin= 6.24D-06
 ErrMax= 6.24D-06  0.00D+00 EMaxC= 1.00D-01 BMatC= 6.21D-09 BMatP= 5.56D-08
 IDIUse=1 WtCom= 1.00D+00 WtEn= 0.00D+00
 Coeff-Com:  0.406D-04-0.334D-03 0.131D-03 0.448D-02 0.156D-02-0.356D-01
 Coeff-Com: -0.510D-01 0.159D+00 0.140D+00-0.394D+00-0.127D+00 0.130D+01
 Coeff:      0.406D-04-0.334D-03 0.131D-03 0.448D-02 0.156D-02-0.356D-01
 Coeff:     -0.510D-01 0.159D+00 0.140D+00-0.394D+00-0.127D+00 0.130D+01
 RMSDP=3.24D-06 MaxDP=1.16D-04 DE=-1.66D-06 OVMax= 0.00D+00

 Cycle  13  Pass 1  IDiag  1:
 RMSU=  1.14D-06    CP:  9.92D-01  1.17D+00  1.05D+00  1.34D+00  2.05D+00
                    CP:  3.00D+00  3.00D+00  3.00D+00  3.00D+00  2.73D+00
                    CP:  2.27D+00  1.34D+00
 E= -474.030402778769     Delta-E=       -0.000000098506 Rises=F Damp=F
 DIIS: error= 2.99D-06 at cycle  13 NSaved=  13.
 NSaved=13 IEnMin=13 EnMin= -474.030402778769     IErMin=13 ErrMin= 2.99D-06
 ErrMax= 2.99D-06  0.00D+00 EMaxC= 1.00D-01 BMatC= 1.30D-09 BMatP= 6.21D-09
 IDIUse=1 WtCom= 1.00D+00 WtEn= 0.00D+00
 Coeff-Com:  0.178D-04-0.955D-04-0.208D-03 0.102D-02 0.262D-02-0.374D-02
 Coeff-Com: -0.385D-01 0.242D-01 0.923D-01-0.537D-01-0.198D+00 0.154D+00
 Coeff-Com:  0.102D+01
 Coeff:      0.178D-04-0.955D-04-0.208D-03 0.102D-02 0.262D-02-0.374D-02
 Coeff:     -0.385D-01 0.242D-01 0.923D-01-0.537D-01-0.198D+00 0.154D+00
 Coeff:      0.102D+01
 RMSDP=1.25D-06 MaxDP=4.03D-05 DE=-9.85D-08 OVMax= 0.00D+00

 Cycle  14  Pass 1  IDiag  1:
 RMSU=  3.07D-07    CP:  9.92D-01  1.17D+00  1.05D+00  1.34D+00  2.05D+00
                    CP:  3.00D+00  3.00D+00  3.00D+00  3.00D+00  2.77D+00
                    CP:  2.34D+00  1.47D+00  1.35D+00
 E= -474.030402795672     Delta-E=       -0.000000016903 Rises=F Damp=F
 DIIS: error= 1.66D-06 at cycle  14 NSaved=  14.
 NSaved=14 IEnMin=14 EnMin= -474.030402795672     IErMin=14 ErrMin= 1.66D-06
 ErrMax= 1.66D-06  0.00D+00 EMaxC= 1.00D-01 BMatC= 4.48D-10 BMatP= 1.30D-09
 IDIUse=1 WtCom= 1.00D+00 WtEn= 0.00D+00
 Coeff-Com: -0.137D-04 0.106D-03-0.376D-04-0.132D-02-0.863D-03 0.109D-01
 Coeff-Com:  0.166D-01-0.416D-01-0.511D-01 0.126D+00 0.319D-01-0.339D+00
 Coeff-Com: -0.185D+00 0.143D+01
 Coeff:     -0.137D-04 0.106D-03-0.376D-04-0.132D-02-0.863D-03 0.109D-01
 Coeff:      0.166D-01-0.416D-01-0.511D-01 0.126D+00 0.319D-01-0.339D+00
 Coeff:     -0.185D+00 0.143D+01
 RMSDP=5.98D-07 MaxDP=1.99D-05 DE=-1.69D-08 OVMax= 0.00D+00

 Cycle  15  Pass 1  IDiag  1:
 RMSU=  1.57D-07    CP:  9.92D-01  1.17D+00  1.05D+00  1.34D+00  2.05D+00
                    CP:  3.00D+00  3.00D+00  3.00D+00  3.00D+00  2.78D+00
                    CP:  2.35D+00  1.53D+00  1.72D+00  2.11D+00
 E= -474.030402803349     Delta-E=       -0.000000007677 Rises=F Damp=F
 DIIS: error= 9.06D-07 at cycle  15 NSaved=  15.
 NSaved=15 IEnMin=15 EnMin= -474.030402803349     IErMin=15 ErrMin= 9.06D-07
 ErrMax= 9.06D-07  0.00D+00 EMaxC= 1.00D-01 BMatC= 1.63D-10 BMatP= 4.48D-10
 IDIUse=1 WtCom= 1.00D+00 WtEn= 0.00D+00
 Coeff-Com: -0.485D-05 0.232D-04 0.815D-04-0.162D-03-0.129D-02 0.101D-02
 Coeff-Com:  0.122D-01-0.512D-02-0.269D-01 0.901D-02 0.517D-01 0.596D-02
 Coeff-Com: -0.379D+00-0.142D+00 0.147D+01
 Coeff:     -0.485D-05 0.232D-04 0.815D-04-0.162D-03-0.129D-02 0.101D-02
 Coeff:      0.122D-01-0.512D-02-0.269D-01 0.901D-02 0.517D-01 0.596D-02
 Coeff:     -0.379D+00-0.142D+00 0.147D+01
 RMSDP=5.10D-07 MaxDP=1.53D-05 DE=-7.68D-09 OVMax= 0.00D+00

 Cycle  16  Pass 1  IDiag  1:
 RMSU=  9.32D-08    CP:  9.92D-01  1.17D+00  1.05D+00  1.34D+00  2.05D+00
                    CP:  3.00D+00  3.00D+00  3.00D+00  3.00D+00  2.78D+00
                    CP:  2.36D+00  1.58D+00  2.00D+00  3.00D+00  1.87D+00
 E= -474.030402806800     Delta-E=       -0.000000003452 Rises=F Damp=F
 DIIS: error= 4.30D-07 at cycle  16 NSaved=  16.
 NSaved=16 IEnMin=16 EnMin= -474.030402806800     IErMin=16 ErrMin= 4.30D-07
 ErrMax= 4.30D-07  0.00D+00 EMaxC= 1.00D-01 BMatC= 4.75D-11 BMatP= 1.63D-10
 IDIUse=1 WtCom= 1.00D+00 WtEn= 0.00D+00
 Coeff-Com:  0.642D-05-0.458D-04 0.923D-06 0.586D-03 0.217D-03-0.359D-02
 Coeff-Com: -0.850D-02 0.158D-01 0.248D-01-0.477D-01-0.247D-01 0.137D+00
 Coeff-Com:  0.105D+00-0.523D+00-0.113D+00 0.144D+01
 Coeff:      0.642D-05-0.458D-04 0.923D-06 0.586D-03 0.217D-03-0.359D-02
 Coeff:     -0.850D-02 0.158D-01 0.248D-01-0.477D-01-0.247D-01 0.137D+00
 Coeff:      0.105D+00-0.523D+00-0.113D+00 0.144D+01
 RMSDP=2.98D-07 MaxDP=9.01D-06 DE=-3.45D-09 OVMax= 0.00D+00

 Cycle  17  Pass 1  IDiag  1:
 RMSU=  1.24D-07    CP:  9.92D-01  1.17D+00  1.05D+00  1.34D+00  2.05D+00
                    CP:  3.00D+00  3.00D+00  3.00D+00  3.00D+00  2.78D+00
                    CP:  2.36D+00  1.60D+00  2.15D+00  3.00D+00  2.60D+00
                    CP:  2.75D+00
 E= -474.030402807766     Delta-E=       -0.000000000966 Rises=F Damp=F
 DIIS: error= 3.45D-07 at cycle  17 NSaved=  17.
 NSaved=17 IEnMin=17 EnMin= -474.030402807766     IErMin=17 ErrMin= 3.45D-07
 ErrMax= 3.45D-07  0.00D+00 EMaxC= 1.00D-01 BMatC= 9.55D-12 BMatP= 4.75D-11
 IDIUse=1 WtCom= 1.00D+00 WtEn= 0.00D+00
 Coeff-Com:  0.680D-06-0.238D-05-0.226D-04 0.181D-04 0.211D-03 0.133D-03
 Coeff-Com: -0.278D-02 0.623D-03 0.504D-02 0.282D-03-0.106D-01-0.826D-02
 Coeff-Com:  0.779D-01 0.595D-01-0.291D+00-0.126D+00 0.130D+01
 Coeff:      0.680D-06-0.238D-05-0.226D-04 0.181D-04 0.211D-03 0.133D-03
 Coeff:     -0.278D-02 0.623D-03 0.504D-02 0.282D-03-0.106D-01-0.826D-02
 Coeff:      0.779D-01 0.595D-01-0.291D+00-0.126D+00 0.130D+01
 RMSDP=1.10D-07 MaxDP=2.99D-06 DE=-9.66D-10 OVMax= 0.00D+00

 Cycle  18  Pass 1  IDiag  1:
 RMSU=  5.53D-08    CP:  9.92D-01  1.17D+00  1.05D+00  1.34D+00  2.05D+00
                    CP:  3.00D+00  3.00D+00  3.00D+00  3.00D+00  2.78D+00
                    CP:  2.36D+00  1.61D+00  2.19D+00  3.00D+00  2.88D+00
                    CP:  3.00D+00  1.27D+00
 E= -474.030402807913     Delta-E=       -0.000000000146 Rises=F Damp=F
 DIIS: error= 2.15D-07 at cycle  18 NSaved=  18.
 NSaved=18 IEnMin=18 EnMin= -474.030402807913     IErMin=18 ErrMin= 2.15D-07
 ErrMax= 2.15D-07  0.00D+00 EMaxC= 1.00D-01 BMatC= 2.64D-12 BMatP= 9.55D-12
 IDIUse=1 WtCom= 1.00D+00 WtEn= 0.00D+00
 Coeff-Com: -0.216D-05 0.151D-04 0.701D-07-0.185D-03-0.822D-04 0.113D-02
 Coeff-Com:  0.294D-02-0.489D-02-0.846D-02 0.145D-01 0.961D-02-0.425D-01
 Coeff-Com: -0.413D-01 0.153D+00 0.776D-01-0.471D+00-0.147D+00 0.146D+01
 Coeff:     -0.216D-05 0.151D-04 0.701D-07-0.185D-03-0.822D-04 0.113D-02
 Coeff:      0.294D-02-0.489D-02-0.846D-02 0.145D-01 0.961D-02-0.425D-01
 Coeff:     -0.413D-01 0.153D+00 0.776D-01-0.471D+00-0.147D+00 0.146D+01
 RMSDP=6.93D-08 MaxDP=2.04D-06 DE=-1.46D-10 OVMax= 0.00D+00

 Cycle  19  Pass 1  IDiag  1:
 RMSU=  1.19D-08    CP:  9.92D-01  1.17D+00  1.05D+00  1.34D+00  2.05D+00
                    CP:  3.00D+00  3.00D+00  3.00D+00  3.00D+00  2.78D+00
                    CP:  2.36D+00  1.61D+00  2.21D+00  3.00D+00  3.00D+00
                    CP:  3.00D+00  1.42D+00  1.93D+00
 E= -474.030402808002     Delta-E=       -0.000000000089 Rises=F Damp=F
 DIIS: error= 8.26D-08 at cycle  19 NSaved=  19.
 NSaved=19 IEnMin=19 EnMin= -474.030402808002     IErMin=19 ErrMin= 8.26D-08
 ErrMax= 8.26D-08  0.00D+00 EMaxC= 1.00D-01 BMatC= 3.39D-13 BMatP= 2.64D-12
 IDIUse=1 WtCom= 1.00D+00 WtEn= 0.00D+00
 Coeff-Com: -0.283D-06 0.160D-05 0.510D-05-0.198D-04-0.357D-04 0.210D-04
 Coeff-Com:  0.740D-03-0.499D-03-0.151D-02 0.968D-03 0.266D-02-0.134D-02
 Coeff-Com: -0.154D-01-0.457D-02 0.576D-01 0.685D-02-0.222D+00 0.416D-01
 Coeff-Com:  0.113D+01
 Coeff:     -0.283D-06 0.160D-05 0.510D-05-0.198D-04-0.357D-04 0.210D-04
 Coeff:      0.740D-03-0.499D-03-0.151D-02 0.968D-03 0.266D-02-0.134D-02
 Coeff:     -0.154D-01-0.457D-02 0.576D-01 0.685D-02-0.222D+00 0.416D-01
 Coeff:      0.113D+01
 RMSDP=1.55D-08 MaxDP=8.30D-07 DE=-8.91D-11 OVMax= 0.00D+00

 Cycle  20  Pass 1  IDiag  1:
 RMSU=  5.41D-09    CP:  9.92D-01  1.17D+00  1.05D+00  1.34D+00  2.05D+00
                    CP:  3.00D+00  3.00D+00  3.00D+00  3.00D+00  2.78D+00
                    CP:  2.36D+00  1.61D+00  2.22D+00  3.00D+00  3.00D+00
                    CP:  3.00D+00  1.45D+00  2.14D+00  1.51D+00
 E= -474.030402807974     Delta-E=        0.000000000027 Rises=F Damp=F
 DIIS: error= 3.24D-08 at cycle  20 NSaved=  20.
 NSaved=20 IEnMin=19 EnMin= -474.030402808002     IErMin=20 ErrMin= 3.24D-08
 ErrMax= 3.24D-08  0.00D+00 EMaxC= 1.00D-01 BMatC= 6.67D-14 BMatP= 3.39D-13
 IDIUse=1 WtCom= 1.00D+00 WtEn= 0.00D+00
 Coeff-Com:  0.404D-06-0.284D-05 0.438D-06 0.324D-04 0.229D-04-0.225D-03
 Coeff-Com: -0.506D-03 0.921D-03 0.147D-02-0.256D-02-0.173D-02 0.761D-02
 Coeff-Com:  0.764D-02-0.274D-01-0.166D-01 0.867D-01 0.268D-01-0.273D+00
 Coeff-Com: -0.410D-02 0.119D+01
 Coeff:      0.404D-06-0.284D-05 0.438D-06 0.324D-04 0.229D-04-0.225D-03
 Coeff:     -0.506D-03 0.921D-03 0.147D-02-0.256D-02-0.173D-02 0.761D-02
 Coeff:      0.764D-02-0.274D-01-0.166D-01 0.867D-01 0.268D-01-0.273D+00
 Coeff:     -0.410D-02 0.119D+01
 RMSDP=6.87D-09 MaxDP=3.48D-07 DE= 2.73D-11 OVMax= 0.00D+00

 SCF Done:  E(RZINDO/S) =  -474.030402808     A.U. after   20 cycles
            NFock= 20  Conv=0.69D-08     -V/T= 0.9496
 KE=-9.406605556558D+03 PE=-4.852245183429D-07 EE= 4.566042628069D+03
 Leave Link  502 at Thu May  5 15:44:06 2022, MaxMem=  6710886400 cpu:              21.0 elap:               0.9
 (Enter /sw/apps/gaussian-16.0/g16/l801.exe)
 Range of M.O.s used for correlation:     1   338
 NBasis=   338 NAE=   176 NBE=   176 NFC=     0 NFV=     0
 NROrb=    338 NOA=   176 NOB=   176 NVA=   162 NVB=   162
 Leave Link  801 at Thu May  5 15:44:06 2022, MaxMem=  6710886400 cpu:               0.4 elap:               0.0
 (Enter /sw/apps/gaussian-16.0/g16/l914.exe)
 RHF ground state
 Two-electron integral symmetry not used.
 MDV=  6710886400 DFT=F DoStab=F Mixed=F DoRPA=F DoScal=F NonHer=F
 Making orbital integer symmetry assigments:
 Orbital symmetries:
       Occupied  (A) (A) (A) (A) (A) (A) (A) (A) (A) (A) (A) (A)
                 (A) (A) (A) (A) (A) (A) (A) (A) (A) (A) (A) (A)
                 (A) (A) (A) (A) (A) (A) (A) (A) (A) (A) (A) (A)
                 (A) (A) (A) (A) (A) (A) (A) (A) (A) (A) (A) (A)
                 (A) (A) (A) (A) (A) (A) (A) (A) (A) (A) (A) (A)
                 (A) (A) (A) (A) (A) (A) (A) (A) (A) (A) (A) (A)
                 (A) (A) (A) (A) (A) (A) (A) (A) (A) (A) (A) (A)
                 (A) (A) (A) (A) (A) (A) (A) (A) (A) (A) (A) (A)
                 (A) (A) (A) (A) (A) (A) (A) (A) (A) (A) (A) (A)
                 (A) (A) (A) (A) (A) (A) (A) (A) (A) (A) (A) (A)
                 (A) (A) (A) (A) (A) (A) (A) (A) (A) (A) (A) (A)
                 (A) (A) (A) (A) (A) (A) (A) (A) (A) (A) (A) (A)
                 (A) (A) (A) (A) (A) (A) (A) (A) (A) (A) (A) (A)
                 (A) (A) (A) (A) (A) (A) (A) (A) (A) (A) (A) (A)
                 (A) (A) (A) (A) (A) (A) (A) (A)
       Virtual   (A) (A) (A) (A) (A) (A) (A) (A) (A) (A) (A) (A)
                 (A) (A) (A) (A) (A) (A) (A) (A) (A) (A) (A) (A)
                 (A) (A) (A) (A) (A) (A) (A) (A) (A) (A) (A) (A)
                 (A) (A) (A) (A) (A) (A) (A) (A) (A) (A) (A) (A)
                 (A) (A) (A) (A) (A) (A) (A) (A) (A) (A) (A) (A)
                 (A) (A) (A) (A) (A) (A) (A) (A) (A) (A) (A) (A)
                 (A) (A) (A) (A) (A) (A) (A) (A) (A) (A) (A) (A)
                 (A) (A) (A) (A) (A) (A) (A) (A) (A) (A) (A) (A)
                 (A) (A) (A) (A) (A) (A) (A) (A) (A) (A) (A) (A)
                 (A) (A) (A) (A) (A) (A) (A) (A) (A) (A) (A) (A)
                 (A) (A) (A) (A) (A) (A) (A) (A) (A) (A) (A) (A)
                 (A) (A) (A) (A) (A) (A) (A) (A) (A) (A) (A) (A)
                 (A) (A) (A) (A) (A) (A) (A) (A) (A) (A) (A) (A)
                 (A) (A) (A) (A) (A) (A)
    20 initial guesses have been made.
 Convergence on wavefunction:    0.001000000000000
 Davidson Disk Diagonalization:  ConvIn= 1.00D-03 SkipCon=T Conv= 1.00D-03.
 Max sub-space:  2000 roots to seek:    20 dimension of matrix:        57024
 Iteration     1 Dimension    20 NMult     0 NNew     20
 CISAX will form    20 AO SS matrices at one time.
 NMat=    20 NSing=    20 JSym2X= 0.
 New state      3 was old state      6
 New state      5 was old state      3
 Excitation Energies [eV] at current iteration:
 Root      1 :     1.641371404198968
 Root      2 :     2.105022297818180
 Root      3 :     3.115157144257422
 Root      4 :     3.337204514787071
 Root      5 :     3.372920898496558
 Root      6 :     3.466782123591218
 Root      7 :     3.724383838374496
 Root      8 :     3.793891574049373
 Root      9 :     3.806434640106870
 Root     10 :     4.045020063147293
 Root     11 :     4.111416282267010
 Root     12 :     4.273713008726683
 Root     13 :     4.396800073162956
 Root     14 :     4.511315135519594
 Root     15 :     4.613533472976899
 Root     16 :     4.665038102465910
 Root     17 :     4.726254048360998
 Root     18 :     4.813463982377702
 Root     19 :     4.956387183655885
 Root     20 :     5.810719084094904
 Iteration     2 Dimension    40 NMult    20 NNew     20
 CISAX will form    20 AO SS matrices at one time.
 NMat=    20 NSing=    20 JSym2X= 0.
 Root      1 not converged, maximum delta is    0.040449736219636
 Root      2 not converged, maximum delta is    0.019250098273169
 New state      3 was old state      5
 Root      3 not converged, maximum delta is    0.102863045418173
 New state      4 was old state      3
 Root      4 not converged, maximum delta is    0.268933322558772
 New state      5 was old state      4
 Root      5 not converged, maximum delta is    0.231323406954473
 Excitation Energies [eV] at current iteration:
 Root      1 :     1.293404106045076   Change is   -0.347967298153892
 Root      2 :     1.911898693702493   Change is   -0.193123604115687
 Root      3 :     2.999520735141866   Change is   -0.373400163354692
 Root      4 :     3.084736249838083   Change is   -0.030420894419339
 Root      5 :     3.113314424998676   Change is   -0.223890089788394
 Root      6 :     3.228101999367395   Change is   -0.238680124223823
 Root      7 :     3.475483845992302   Change is   -0.318407728057071
 Root      8 :     3.520273151418622   Change is   -0.204110686955873
 Root      9 :     3.584914838968063   Change is   -0.221519801138807
 Root     10 :     3.718406558611509   Change is   -0.393009723655501
 Root     11 :     3.755382829380018   Change is   -0.289637233767274
 Root     12 :     3.881374734148312   Change is   -0.732158738828587
 Root     13 :     3.921987239135168   Change is   -0.804266809225830
 Root     14 :     4.115689831913418   Change is   -0.158023176813266
 Root     15 :     4.168810217573102   Change is   -0.227989855589852
 Root     16 :     4.229187954124400   Change is   -0.282127181395194
 Root     17 :     4.415085135825093   Change is   -0.249952966640817
 Root     18 :     4.755126711199721   Change is   -0.058337271177982
 Root     19 :     4.947521818793351   Change is   -0.008865364862534
 Root     20 :     5.790539752995084
 Iteration     3 Dimension    45 NMult    40 NNew      5
 CISAX will form     5 AO SS matrices at one time.
 NMat=     5 NSing=     5 JSym2X= 0.
 Root      1 not converged, maximum delta is    0.007797918007547
 Root      2 not converged, maximum delta is    0.013839970447570
 Root      3 not converged, maximum delta is    0.023563077869542
 Root      4 not converged, maximum delta is    0.261870162753110
 Root      5 not converged, maximum delta is    0.292479854591431
 Excitation Energies [eV] at current iteration:
 Root      1 :     1.276215503919900   Change is   -0.017188602125176
 Root      2 :     1.884397425541734   Change is   -0.027501268160759
 Root      3 :     2.977718327957057   Change is   -0.021802407184809
 Root      4 :     3.062073573521638   Change is   -0.022662676316446
 Root      5 :     3.095331302893872   Change is   -0.017983122104804
 Iteration     4 Dimension    50 NMult    45 NNew      5
 CISAX will form     5 AO SS matrices at one time.
 NMat=     5 NSing=     5 JSym2X= 0.
 Root      1 not converged, maximum delta is    0.001689126326667
 Root      2 not converged, maximum delta is    0.002702910013969
 Root      3 not converged, maximum delta is    0.006437222968850
 Root      4 not converged, maximum delta is    0.020630110897670
 Root      5 not converged, maximum delta is    0.023822940222469
 Excitation Energies [eV] at current iteration:
 Root      1 :     1.275432528539087   Change is   -0.000782975380813
 Root      2 :     1.883645823338716   Change is   -0.000751602203018
 Root      3 :     2.973348846475868   Change is   -0.004369481481189
 Root      4 :     3.057938022006261   Change is   -0.004135551515376
 Root      5 :     3.094435614963253   Change is   -0.000895687930619
 Iteration     5 Dimension    55 NMult    50 NNew      5
 CISAX will form     5 AO SS matrices at one time.
 NMat=     5 NSing=     5 JSym2X= 0.
 Root      1 has converged.
 Root      2 has converged.
 Root      3 not converged, maximum delta is    0.014422703421536
 Root      4 not converged, maximum delta is    0.031225523545850
 Root      5 not converged, maximum delta is    0.018452301329907
 Excitation Energies [eV] at current iteration:
 Root      1 :     1.275385352836700   Change is   -0.000047175702387
 Root      2 :     1.883604699392373   Change is   -0.000041123946343
 Root      3 :     2.971178812583163   Change is   -0.002170033892705
 Root      4 :     3.053996050565578   Change is   -0.003941971440684
 Root      5 :     3.094093359479039   Change is   -0.000342255484214
 Iteration     6 Dimension    58 NMult    55 NNew      3
 CISAX will form     3 AO SS matrices at one time.
 NMat=     3 NSing=     3 JSym2X= 0.
 Root      1 has converged.
 Root      2 has converged.
 Root      3 not converged, maximum delta is    0.105507922046975
 Root      4 not converged, maximum delta is    0.272155492695503
 Root      5 not converged, maximum delta is    0.674917522907617
 Excitation Energies [eV] at current iteration:
 Root      1 :     1.275385062640323   Change is   -0.000000290196376
 Root      2 :     1.883604266762649   Change is   -0.000000432629723
 Root      3 :     2.964243073479080   Change is   -0.006935739104082
 Root      4 :     3.011217636836797   Change is   -0.042778413728781
 Root      5 :     3.073481691338287   Change is   -0.020611668140752
 Iteration     7 Dimension    61 NMult    58 NNew      3
 CISAX will form     3 AO SS matrices at one time.
 NMat=     3 NSing=     3 JSym2X= 0.
 Root      1 has converged.
 Root      2 has converged.
 Root      3 not converged, maximum delta is    0.182245443197380
 Root      4 not converged, maximum delta is    0.237666465245488
 Root      5 not converged, maximum delta is    0.071930406227435
 Excitation Energies [eV] at current iteration:
 Root      1 :     1.275385030737250   Change is   -0.000000031903074
 Root      2 :     1.883604230862941   Change is   -0.000000035899708
 Root      3 :     2.945719640414671   Change is   -0.018523433064410
 Root      4 :     2.981851642902834   Change is   -0.029365993933962
 Root      5 :     3.063467707055116   Change is   -0.010013984283171
 Iteration     8 Dimension    64 NMult    61 NNew      3
 CISAX will form     3 AO SS matrices at one time.
 NMat=     3 NSing=     3 JSym2X= 0.
 Root      1 has converged.
 Root      2 has converged.
 Root      3 not converged, maximum delta is    0.031650042831306
 Root      4 not converged, maximum delta is    0.019013201873411
 Root      5 not converged, maximum delta is    0.019862064039702
 Excitation Energies [eV] at current iteration:
 Root      1 :     1.275384925695796   Change is   -0.000000105041453
 Root      2 :     1.883604058925794   Change is   -0.000000171937147
 Root      3 :     2.941024581930457   Change is   -0.004695058484214
 Root      4 :     2.980036243855580   Change is   -0.001815399047254
 Root      5 :     3.062085613082458   Change is   -0.001382093972658
 Iteration     9 Dimension    67 NMult    64 NNew      3
 CISAX will form     3 AO SS matrices at one time.
 NMat=     3 NSing=     3 JSym2X= 0.
 Root      1 has converged.
 Root      2 has converged.
 Root      3 not converged, maximum delta is    0.005093893539998
 Root      4 not converged, maximum delta is    0.002638359845143
 Root      5 not converged, maximum delta is    0.013264445070795
 Excitation Energies [eV] at current iteration:
 Root      1 :     1.275384866482722   Change is   -0.000000059213075
 Root      2 :     1.883603645362217   Change is   -0.000000413563577
 Root      3 :     2.940119448107532   Change is   -0.000905133822925
 Root      4 :     2.979830072567237   Change is   -0.000206171288343
 Root      5 :     3.061434075521386   Change is   -0.000651537561072
 Iteration    10 Dimension    70 NMult    67 NNew      3
 CISAX will form     3 AO SS matrices at one time.
 NMat=     3 NSing=     3 JSym2X= 0.
 Root      1 has converged.
 Root      2 has converged.
 Root      3 not converged, maximum delta is    0.001939332790943
 Root      4 has converged.
 Root      5 not converged, maximum delta is    0.006894893319524
 Excitation Energies [eV] at current iteration:
 Root      1 :     1.275384847111399   Change is   -0.000000019371322
 Root      2 :     1.883603411623711   Change is   -0.000000233738506
 Root      3 :     2.939901065468113   Change is   -0.000218382639419
 Root      4 :     2.979805552653636   Change is   -0.000024519913602
 Root      5 :     3.061123117578990   Change is   -0.000310957942396
 Iteration    11 Dimension    72 NMult    70 NNew      2
 CISAX will form     2 AO SS matrices at one time.
 NMat=     2 NSing=     2 JSym2X= 0.
 Root      1 has converged.
 Root      2 has converged.
 Root      3 has converged.
 Root      4 has converged.
 Root      5 not converged, maximum delta is    0.001997007337888
 Excitation Energies [eV] at current iteration:
 Root      1 :     1.275384846527692   Change is   -0.000000000583707
 Root      2 :     1.883603142458264   Change is   -0.000000269165447
 Root      3 :     2.939848459510589   Change is   -0.000052605957523
 Root      4 :     2.979802628222540   Change is   -0.000002924431096
 Root      5 :     3.061024834372644   Change is   -0.000098283206346
 Iteration    12 Dimension    73 NMult    72 NNew      1
 CISAX will form     1 AO SS matrices at one time.
 NMat=     1 NSing=     1 JSym2X= 0.
 Root      1 has converged.
 Root      2 has converged.
 Root      3 has converged.
 Root      4 has converged.
 Root      5 has converged.
 Excitation Energies [eV] at current iteration:
 Root      1 :     1.275384842197006   Change is   -0.000000004330687
 Root      2 :     1.883603134986045   Change is   -0.000000007472219
 Root      3 :     2.939841436599909   Change is   -0.000007022910680
 Root      4 :     2.979802431410785   Change is   -0.000000196811754
 Root      5 :     3.061008864118133   Change is   -0.000015970254511
 Convergence achieved on expansion vectors.
 ***********************************************************************
 Excited states from <AA,BB:AA,BB> singles matrix:
 ***********************************************************************
 
 1PDM for each excited state written to RWF  633
 Ground to excited state transition densities written to RWF  633
 Ground to excited state transition electric dipole moments (Au):
       state          X           Y           Z        Dip. S.      Osc.
         1         1.1307     -3.6401      2.0587     18.7674      0.5864
         2        -0.3967     -0.5187     -0.3112      0.5233      0.0241
         3        -1.1435     -0.8136     -0.6812      2.4337      0.1753
         4         2.3608      1.4575      1.3770      9.5937      0.7004
         5        -0.9600     -1.6075     -0.4239      3.6852      0.2764
 Ground to excited state transition velocity dipole moments (Au):
       state          X           Y           Z        Dip. S.      Osc.
         1         0.0344     -0.0387      0.0397      0.0043      0.0605
         2         0.0079      0.0147      0.0101      0.0004      0.0037
         3         0.0386      0.0234      0.0135      0.0022      0.0137
         4        -0.0715     -0.0487     -0.0397      0.0091      0.0552
         5         0.0303      0.0574      0.0195      0.0046      0.0273
 Ground to excited state transition magnetic dipole moments (Au):
       state          X           Y           Z
         1        -0.2100     -0.2844     -0.0830
         2         0.4019     -0.2934     -0.3937
         3         0.2403     -0.6168      0.6217
         4        -0.0852      0.5423     -0.1526
         5        -0.3514      0.2095      0.6624
 Ground to excited state transition velocity quadrupole moments (Au):
       state          XX          YY          ZZ          XY          XZ          YZ
         1         0.6820     -0.0423      0.0086     -0.2924      0.3182     -0.1614
         2         0.1387      0.0262     -0.0107      0.1722      0.0898     -0.0754
         3         0.5860     -0.1541      0.0656      0.2161      0.1649     -0.1157
         4        -0.6509     -0.1001     -0.0130     -0.3562     -0.4565      0.0884
         5         0.8623     -0.4776      0.1191      0.6283      0.4422      0.2047
 <0|del|b> * <b|rxdel|0> + <0|del|b> * <b|delr+rdel|0>
 Rotatory Strengths (R) in cgs (10**-40 erg-esu-cm/Gauss)
       state          XX          YY          ZZ    R(velocity)    E-M Angle
         1        63.3783    -33.7947    -22.5072      2.3588       88.87
         2       -40.2888    -16.1073      3.9286    -17.4892      114.47
         3       -22.8883     33.6528     10.3249      7.0298       85.68
         4       -91.8988    -26.8638     26.5934    -30.7230      105.25
         5        37.2685    -11.8719     64.7239     30.0402       74.24
 1/2[<0|r|b>*<b|rxdel|0> + (<0|rxdel|b>*<b|r|0>)*]
 Rotatory Strengths (R) in cgs (10**-40 erg-esu-cm/Gauss)
       state          XX          YY          ZZ     R(length)
         1       167.9349   -732.0844    120.8292   -147.7734
         2       112.7507   -107.6445    -86.6354    -27.1764
         3       194.3087   -354.8729    299.5102     46.3153
         4       142.3045   -558.9219    148.6092    -89.3361
         5      -238.5698    238.1512    198.5445     66.0420
  1/2[<0|del|b>*<b|r|0> + (<0|r|b>*<b|del|0>)*] (Au)
       state          X           Y           Z        Dip. S.   Osc.(frdel)
         1         0.0389      0.1407      0.0817     -0.2613     -0.1742
         2        -0.0031     -0.0076     -0.0032      0.0139      0.0093
         3        -0.0441     -0.0191     -0.0092      0.0724      0.0482
         4        -0.1688     -0.0710     -0.0547      0.2945      0.1963
         5        -0.0291     -0.0923     -0.0083      0.1297      0.0865

 Excitation energies and oscillator strengths:
 
 Excited State   1:      Singlet-A      1.2754 eV  972.13 nm  f=0.5864  <S**2>=0.000
     175 ->178        -0.19429
     176 ->177         0.66262
 This state for optimization and/or second-order correction.
 Total Energy, E(CIS/TDA) =  -473.983533277    
 Copying the excited state density for this state as the 1-particle RhoCI density.
 
 Excited State   2:      Singlet-A      1.8836 eV  658.23 nm  f=0.0241  <S**2>=0.000
     175 ->177         0.53453
     176 ->178         0.43753
 
 Excited State   3:      Singlet-A      2.9398 eV  421.74 nm  f=0.1753  <S**2>=0.000
     168 ->177         0.20820
     168 ->178         0.11746
     168 ->179        -0.32351
     168 ->180        -0.19218
     168 ->181         0.18290
     168 ->185        -0.20161
     171 ->177        -0.19032
     173 ->177         0.15028
     175 ->177         0.16592
     176 ->178        -0.22640
 
 Excited State   4:      Singlet-A      2.9798 eV  416.08 nm  f=0.7004  <S**2>=0.000
     168 ->177         0.12151
     168 ->179        -0.17578
     168 ->180        -0.11050
     168 ->181         0.10016
     168 ->185        -0.10382
     172 ->177         0.10480
     175 ->177        -0.32549
     176 ->178         0.41303
     176 ->179         0.21943
 
 Excited State   5:      Singlet-A      3.0610 eV  405.04 nm  f=0.2764  <S**2>=0.000
     171 ->177        -0.12850
     175 ->177         0.14047
     176 ->178        -0.18690
     176 ->179         0.51834
     176 ->181         0.19868
 SavETr:  write IOETrn=   770 NScale= 10 NData=  16 NLR=1 NState=    5 LETran=     100.
 Leave Link  914 at Thu May  5 15:44:10 2022, MaxMem=  6710886400 cpu:             102.9 elap:               4.3
 (Enter /sw/apps/gaussian-16.0/g16/l601.exe)
 Copying SCF densities to generalized density rwf, IOpCl= 0 IROHF=0.

 **********************************************************************

            Population analysis using the SCF density.

 **********************************************************************

 Orbital symmetries:
       Occupied  (A) (A) (A) (A) (A) (A) (A) (A) (A) (A) (A) (A)
                 (A) (A) (A) (A) (A) (A) (A) (A) (A) (A) (A) (A)
                 (A) (A) (A) (A) (A) (A) (A) (A) (A) (A) (A) (A)
                 (A) (A) (A) (A) (A) (A) (A) (A) (A) (A) (A) (A)
                 (A) (A) (A) (A) (A) (A) (A) (A) (A) (A) (A) (A)
                 (A) (A) (A) (A) (A) (A) (A) (A) (A) (A) (A) (A)
                 (A) (A) (A) (A) (A) (A) (A) (A) (A) (A) (A) (A)
                 (A) (A) (A) (A) (A) (A) (A) (A) (A) (A) (A) (A)
                 (A) (A) (A) (A) (A) (A) (A) (A) (A) (A) (A) (A)
                 (A) (A) (A) (A) (A) (A) (A) (A) (A) (A) (A) (A)
                 (A) (A) (A) (A) (A) (A) (A) (A) (A) (A) (A) (A)
                 (A) (A) (A) (A) (A) (A) (A) (A) (A) (A) (A) (A)
                 (A) (A) (A) (A) (A) (A) (A) (A) (A) (A) (A) (A)
                 (A) (A) (A) (A) (A) (A) (A) (A) (A) (A) (A) (A)
                 (A) (A) (A) (A) (A) (A) (A) (A)
       Virtual   (A) (A) (A) (A) (A) (A) (A) (A) (A) (A) (A) (A)
                 (A) (A) (A) (A) (A) (A) (A) (A) (A) (A) (A) (A)
                 (A) (A) (A) (A) (A) (A) (A) (A) (A) (A) (A) (A)
                 (A) (A) (A) (A) (A) (A) (A) (A) (A) (A) (A) (A)
                 (A) (A) (A) (A) (A) (A) (A) (A) (A) (A) (A) (A)
                 (A) (A) (A) (A) (A) (A) (A) (A) (A) (A) (A) (A)
                 (A) (A) (A) (A) (A) (A) (A) (A) (A) (A) (A) (A)
                 (A) (A) (A) (A) (A) (A) (A) (A) (A) (A) (A) (A)
                 (A) (A) (A) (A) (A) (A) (A) (A) (A) (A) (A) (A)
                 (A) (A) (A) (A) (A) (A) (A) (A) (A) (A) (A) (A)
                 (A) (A) (A) (A) (A) (A) (A) (A) (A) (A) (A) (A)
                 (A) (A) (A) (A) (A) (A) (A) (A) (A) (A) (A) (A)
                 (A) (A) (A) (A) (A) (A) (A) (A) (A) (A) (A) (A)
                 (A) (A) (A) (A) (A) (A)
 The electronic state is 1-A.
 Alpha  occ. eigenvalues --   -1.83022  -1.80281  -1.79403  -1.72907  -1.71199
 Alpha  occ. eigenvalues --   -1.69043  -1.65133  -1.60391  -1.59931  -1.56889
 Alpha  occ. eigenvalues --   -1.53855  -1.49874  -1.48803  -1.48022  -1.46588
 Alpha  occ. eigenvalues --   -1.45583  -1.45103  -1.40650  -1.39405  -1.37757
 Alpha  occ. eigenvalues --   -1.36500  -1.32672  -1.31815  -1.31175  -1.28708
 Alpha  occ. eigenvalues --   -1.27240  -1.27013  -1.22748  -1.21600  -1.18338
 Alpha  occ. eigenvalues --   -1.16766  -1.15033  -1.14252  -1.13269  -1.12667
 Alpha  occ. eigenvalues --   -1.11638  -1.10226  -1.09982  -1.06825  -1.04841
 Alpha  occ. eigenvalues --   -1.02337  -1.01270  -0.98886  -0.98481  -0.97626
 Alpha  occ. eigenvalues --   -0.97408  -0.94705  -0.94444  -0.92521  -0.92036
 Alpha  occ. eigenvalues --   -0.91279  -0.91137  -0.89287  -0.89125  -0.86244
 Alpha  occ. eigenvalues --   -0.86058  -0.84476  -0.83742  -0.83312  -0.82385
 Alpha  occ. eigenvalues --   -0.80187  -0.79805  -0.77560  -0.76957  -0.76839
 Alpha  occ. eigenvalues --   -0.76027  -0.75259  -0.74469  -0.73859  -0.73762
 Alpha  occ. eigenvalues --   -0.72571  -0.72012  -0.71904  -0.71201  -0.70821
 Alpha  occ. eigenvalues --   -0.70400  -0.69904  -0.69386  -0.68328  -0.68068
 Alpha  occ. eigenvalues --   -0.67355  -0.66202  -0.65846  -0.65748  -0.65163
 Alpha  occ. eigenvalues --   -0.65090  -0.64435  -0.64116  -0.64022  -0.63823
 Alpha  occ. eigenvalues --   -0.63284  -0.63090  -0.62539  -0.62488  -0.62259
 Alpha  occ. eigenvalues --   -0.61543  -0.61439  -0.61281  -0.60911  -0.60003
 Alpha  occ. eigenvalues --   -0.59759  -0.59452  -0.58862  -0.58462  -0.58206
 Alpha  occ. eigenvalues --   -0.57912  -0.57341  -0.56998  -0.56857  -0.56147
 Alpha  occ. eigenvalues --   -0.55865  -0.55225  -0.55091  -0.54759  -0.54651
 Alpha  occ. eigenvalues --   -0.54035  -0.53653  -0.53413  -0.53298  -0.52797
 Alpha  occ. eigenvalues --   -0.52550  -0.52373  -0.52233  -0.52001  -0.51508
 Alpha  occ. eigenvalues --   -0.51438  -0.51218  -0.51017  -0.50949  -0.50596
 Alpha  occ. eigenvalues --   -0.50237  -0.49893  -0.49850  -0.49319  -0.48959
 Alpha  occ. eigenvalues --   -0.48904  -0.48745  -0.48615  -0.48176  -0.47851
 Alpha  occ. eigenvalues --   -0.47802  -0.47729  -0.47527  -0.47358  -0.46974
 Alpha  occ. eigenvalues --   -0.46594  -0.46534  -0.45919  -0.45902  -0.45473
 Alpha  occ. eigenvalues --   -0.45345  -0.44990  -0.44886  -0.44548  -0.44465
 Alpha  occ. eigenvalues --   -0.44013  -0.43868  -0.43441  -0.42985  -0.42647
 Alpha  occ. eigenvalues --   -0.41792  -0.41749  -0.41399  -0.39423  -0.38546
 Alpha  occ. eigenvalues --   -0.38266  -0.37608  -0.35882  -0.34903  -0.34725
 Alpha  occ. eigenvalues --   -0.33129  -0.32739  -0.32558  -0.32445  -0.26837
 Alpha  occ. eigenvalues --   -0.21936
 Alpha virt. eigenvalues --   -0.08580  -0.02571  -0.00653   0.00815   0.01113
 Alpha virt. eigenvalues --    0.02081   0.02429   0.02907   0.04512   0.05005
 Alpha virt. eigenvalues --    0.05877   0.06095   0.06830   0.07465   0.07570
 Alpha virt. eigenvalues --    0.07921   0.08082   0.08740   0.09289   0.09387
 Alpha virt. eigenvalues --    0.09583   0.09638   0.10029   0.10221   0.10499
 Alpha virt. eigenvalues --    0.10612   0.10926   0.11070   0.11128   0.11835
 Alpha virt. eigenvalues --    0.12331   0.12490   0.12828   0.13280   0.13329
 Alpha virt. eigenvalues --    0.13557   0.13713   0.13941   0.14026   0.14404
 Alpha virt. eigenvalues --    0.14735   0.15031   0.15182   0.15359   0.15449
 Alpha virt. eigenvalues --    0.15575   0.15636   0.15925   0.16608   0.16831
 Alpha virt. eigenvalues --    0.16969   0.17281   0.17482   0.17497   0.17988
 Alpha virt. eigenvalues --    0.18009   0.18384   0.18923   0.19256   0.19363
 Alpha virt. eigenvalues --    0.19491   0.19616   0.19750   0.20406   0.20452
 Alpha virt. eigenvalues --    0.21657   0.22090   0.22495   0.23116   0.23239
 Alpha virt. eigenvalues --    0.23506   0.23573   0.23836   0.24086   0.24116
 Alpha virt. eigenvalues --    0.24201   0.24245   0.24259   0.24325   0.24368
 Alpha virt. eigenvalues --    0.24447   0.24621   0.24663   0.24700   0.24869
 Alpha virt. eigenvalues --    0.24981   0.25000   0.25005   0.25152   0.25254
 Alpha virt. eigenvalues --    0.25374   0.25388   0.25600   0.25658   0.25706
 Alpha virt. eigenvalues --    0.25727   0.25801   0.25832   0.25880   0.26008
 Alpha virt. eigenvalues --    0.26054   0.26106   0.26145   0.26504   0.26590
 Alpha virt. eigenvalues --    0.26635   0.26688   0.26752   0.26898   0.27066
 Alpha virt. eigenvalues --    0.27188   0.27539   0.27600   0.28019   0.28019
 Alpha virt. eigenvalues --    0.28334   0.28414   0.28573   0.28714   0.29199
 Alpha virt. eigenvalues --    0.29826   0.30409   0.30656   0.31180   0.31317
 Alpha virt. eigenvalues --    0.31725   0.31739   0.32345   0.32606   0.33867
 Alpha virt. eigenvalues --    0.34419   0.34888   0.35085   0.35764   0.35956
 Alpha virt. eigenvalues --    0.36200   0.36501   0.36605   0.37355   0.37972
 Alpha virt. eigenvalues --    0.38751   0.39280   0.39683   0.40120   0.40550
 Alpha virt. eigenvalues --    0.40608   0.40828   0.41103   0.41556   0.42129
 Alpha virt. eigenvalues --    0.43405   0.43749   0.45413   0.45666   0.46322
 Alpha virt. eigenvalues --    0.47275   0.47913   0.48504   0.50688   0.52499
 Alpha virt. eigenvalues --    0.53902   0.56041
          Condensed to atoms (all electrons):
 Mulliken charges:
               1
     1  Mg   0.432519
     2  C   -0.044525
     3  C   -0.088151
     4  C   -0.084433
     5  C   -0.052492
     6  N   -0.289917
     7  C    0.105354
     8  C    0.005800
     9  C    0.004806
    10  C    0.140057
    11  C   -0.047883
    12  C   -0.011115
    13  C    0.010278
    14  C    0.477391
    15  O   -0.521129
    16  O   -0.276871
    17  N   -0.307060
    18  C    0.148255
    19  C    0.044976
    20  C   -0.053004
    21  C    0.119417
    22  C   -0.029967
    23  C    0.329910
    24  O   -0.528368
    25  C   -0.024358
    26  N   -0.286026
    27  C    0.142617
    28  C   -0.014598
    29  C    0.005494
    30  C    0.103857
    31  C   -0.056822
    32  C   -0.013821
    33  C   -0.055937
    34  N   -0.313258
    35  C    0.057701
    36  C    0.019440
    37  C   -0.064494
    38  C    0.108508
    39  C   -0.034125
    40  C    0.331230
    41  O   -0.488965
    42  C    0.067460
    43  C    0.485493
    44  O   -0.512529
    45  O   -0.292125
    46  C    0.073914
    47  C    0.102803
    48  C   -0.090738
    49  C   -0.001042
    50  C   -0.037403
    51  C   -0.027497
    52  C   -0.040088
    53  C   -0.036256
    54  C   -0.000349
    55  C   -0.064944
    56  C   -0.049757
    57  C   -0.046773
    58  C   -0.039102
    59  C   -0.015566
    60  C   -0.063592
    61  C   -0.050950
    62  C   -0.038080
    63  C   -0.026994
    64  C   -0.015207
    65  C   -0.066022
    66  C   -0.067469
    67  H    0.017166
    68  H    0.017932
    69  H    0.020488
    70  H    0.031404
    71  H    0.024037
    72  H    0.018751
    73  H    0.032255
    74  H    0.028945
    75  H    0.026265
    76  H    0.028718
    77  H    0.040489
    78  H    0.043643
    79  H    0.054272
    80  H    0.042211
    81  H    0.020422
    82  H    0.040877
    83  H    0.035895
    84  H    0.042118
    85  H    0.031439
    86  H    0.026167
    87  H    0.033154
    88  H    0.026173
    89  H    0.029330
    90  H    0.023960
    91  H    0.019933
    92  H    0.014738
    93  H    0.011121
    94  H    0.017483
    95  H    0.041864
    96  H    0.016600
    97  H    0.036372
    98  H    0.054954
    99  H    0.031581
   100  H    0.057794
   101  H    0.032882
   102  H    0.051240
   103  H    0.039741
   104  H    0.022906
   105  H    0.040498
   106  H    0.022397
   107  H    0.027915
   108  H    0.021803
   109  H    0.010491
   110  H    0.012539
   111  H    0.020365
   112  H    0.024693
   113  H    0.037488
   114  H    0.031918
   115  H    0.016924
   116  H    0.011191
   117  H    0.014760
   118  H    0.012387
   119  H    0.018955
   120  H    0.023214
   121  H    0.034768
   122  H    0.009857
   123  H    0.030621
   124  H    0.032094
   125  H    0.028293
   126  H    0.023020
   127  H    0.000830
   128  H    0.015461
   129  H    0.020250
   130  H    0.014023
   131  H    0.023425
   132  H    0.032262
   133  H    0.016833
   134  H    0.029006
   135  H    0.014894
   136  H    0.017271
   137  H    0.025747
   138  H    0.013914
   139  H    0.013310
   140  H    0.023784
 Sum of Mulliken charges =  -0.00000
 Mulliken charges with hydrogens summed into heavy atoms:
               1
     1  Mg   0.432519
     2  C   -0.044525
     3  C   -0.070985
     4  C   -0.066500
     5  C   -0.032003
     6  N   -0.289917
     7  C    0.105354
     8  C    0.037204
     9  C    0.028843
    10  C    0.140057
    11  C    0.032068
    12  C    0.043867
    13  C    0.094410
    14  C    0.477391
    15  O   -0.521129
    16  O   -0.276871
    17  N   -0.307060
    18  C    0.148255
    19  C    0.044976
    20  C   -0.053004
    21  C    0.119417
    22  C    0.086937
    23  C    0.329910
    24  O   -0.528368
    25  C    0.094532
    26  N   -0.286026
    27  C    0.142617
    28  C    0.016841
    29  C    0.031661
    30  C    0.103857
    31  C    0.031835
    32  C    0.030072
    33  C   -0.012596
    34  N   -0.313258
    35  C    0.057701
    36  C    0.019440
    37  C   -0.064494
    38  C    0.108508
    39  C    0.060711
    40  C    0.331230
    41  O   -0.488965
    42  C    0.122413
    43  C    0.485493
    44  O   -0.512529
    45  O   -0.292125
    46  C    0.196171
    47  C    0.193784
    48  C   -0.067832
    49  C   -0.001042
    50  C    0.053408
    51  C    0.004797
    52  C   -0.007184
    53  C    0.025926
    54  C    0.031569
    55  C   -0.022069
    56  C   -0.018415
    57  C    0.011209
    58  C    0.001377
    59  C    0.016528
    60  C   -0.011449
    61  C   -0.015240
    62  C   -0.000632
    63  C    0.022100
    64  C    0.013800
    65  C   -0.008110
    66  C   -0.016461
 Charge=             -0.0000 electrons
 Dipole moment (field-independent basis, Debye):
    X=              3.1634    Y=              8.7194    Z=             -1.1372  Tot=              9.3449
 N-N= 4.366532526166D+03 E-N= 0.000000000000D+00  KE=-9.406605556558D+03
 Leave Link  601 at Thu May  5 15:44:10 2022, MaxMem=  6710886400 cpu:               0.7 elap:               0.0
 (Enter /sw/apps/gaussian-16.0/g16/l9999.exe)
 1\1\GINC-BP1-COMPUTE067\SP\RZINDO CIS\STO-3G\C55H74Mg1N4O6\OF15641\05-
 May-2022\0\\#p ZINDO=(nstates=5)\\step_951_chromophore_5 ZINDO\\0,1\Mg
 ,0,24.9,-7.596,46.36\C,0,26.959,-4.963,45.397\C,0,22.626,-6.715,44.042
 \C,0,23.042,-10.388,47.213\C,0,27.614,-9.051,48.08\N,0,24.881,-6.112,4
 4.762\C,0,25.774,-5.07,44.596\C,0,25.314,-4.101,43.524\C,0,23.787,-4.4
 99,43.395\C,0,23.77,-5.92,43.989\C,0,22.735,-3.603,44.034\C,0,26.119,-
 4.202,42.219\C,0,26.646,-2.873,41.683\C,0,26.525,-2.587,40.224\O,0,27.
 46,-2.409,39.448\O,0,25.208,-2.504,39.895\N,0,22.935,-8.295,45.824\C,0
 ,22.237,-7.846,44.813\C,0,20.96,-8.604,44.667\C,0,21.037,-9.599,45.708
 \C,0,22.405,-9.498,46.288\C,0,19.826,-8.294,43.734\C,0,19.899,-10.537,
 46.152\O,0,18.872,-10.422,45.493\C,0,19.955,-11.56,47.262\N,0,25.303,-
 9.564,47.464\C,0,24.312,-10.463,47.75\C,0,24.843,-11.602,48.654\C,0,26
 .385,-11.18,48.781\C,0,26.465,-9.794,48.139\C,0,24.067,-11.725,50.001\
 C,0,27.248,-12.248,48.14\C,0,28.555,-12.353,48.851\N,0,26.934,-7.123,4
 6.671\C,0,27.879,-7.76,47.52\C,0,29.115,-6.896,47.623\C,0,28.735,-5.76
 6,46.87\C,0,27.442,-5.963,46.287\C,0,30.455,-7.144,48.329\C,0,29.243,-
 4.474,46.37\O,0,30.326,-3.984,46.527\C,0,28.034,-3.974,45.407\C,0,27.5
 58,-2.659,45.881\O,0,27.95,-1.575,45.497\O,0,26.566,-2.816,46.859\C,0,
 25.808,-1.694,47.462\C,0,24.914,-2.532,38.416\C,0,24.68,-3.95,37.951\C
 ,0,25.181,-4.587,36.875\C,0,26.071,-4.041,35.815\C,0,24.694,-6.028,36.
 586\C,0,23.235,-6.263,36.159\C,0,23.07,-7.722,35.633\C,0,22.786,-7.691
 ,34.109\C,0,21.841,-8.873,33.708\C,0,24.141,-7.782,33.275\C,0,24.176,-
 6.964,31.924\C,0,25.357,-5.973,31.944\C,0,24.988,-4.781,31.005\C,0,24.
 316,-3.704,31.867\C,0,26.336,-4.166,30.401\C,0,26.259,-3.658,28.876\C,
 0,26.27,-4.807,27.911\C,0,25.386,-4.443,26.673\C,0,23.857,-4.705,27.10
 1\C,0,25.797,-5.334,25.399\H,0,21.946,-6.293,43.299\H,0,22.442,-11.247
 ,47.519\H,0,28.454,-9.451,48.651\H,0,25.372,-3.099,43.949\H,0,23.533,-
 4.569,42.338\H,0,22.141,-3.217,43.206\H,0,23.187,-2.799,44.616\H,0,22.
 069,-4.269,44.583\H,0,25.5,-4.728,41.493\H,0,26.876,-4.959,42.422\H,0,
 27.704,-2.71,41.89\H,0,26.133,-2.041,42.164\H,0,18.847,-8.52,44.157\H,
 0,20.109,-8.892,42.869\H,0,19.823,-7.242,43.447\H,0,20.458,-11.287,48.
 19\H,0,20.553,-12.332,46.777\H,0,19.013,-12.084,47.425\H,0,24.732,-12.
 519,48.074\H,0,26.6,-11.123,49.848\H,0,23.071,-11.386,49.719\H,0,24.54
 9,-11.027,50.685\H,0,24.229,-12.75,50.337\H,0,27.452,-11.972,47.105\H,
 0,26.744,-13.214,48.12\H,0,29.367,-11.833,48.342\H,0,28.913,-13.378,48
 .948\H,0,28.621,-11.928,49.852\H,0,31.262,-6.633,47.804\H,0,30.65,-8.2
 16,48.357\H,0,30.48,-6.968,49.405\H,0,28.394,-3.803,44.392\H,0,24.81,-
 2.072,47.684\H,0,25.823,-0.721,46.972\H,0,26.155,-1.519,48.48\H,0,25.7
 28,-2.079,37.851\H,0,24.077,-1.875,38.18\H,0,24.056,-4.548,38.614\H,0,
 27.025,-4.558,35.914\H,0,26.177,-2.959,35.899\H,0,25.57,-4.225,34.864\
 H,0,24.963,-6.682,37.416\H,0,25.341,-6.383,35.784\H,0,22.952,-5.573,35
 .364\H,0,22.569,-5.888,36.936\H,0,22.201,-8.037,36.211\H,0,24.032,-8.1
 59,35.901\H,0,22.298,-6.753,33.846\H,0,22.14,-9.527,32.889\H,0,20.845,
 -8.565,33.393\H,0,21.617,-9.597,34.492\H,0,24.389,-8.789,32.937\H,0,25
 .002,-7.552,33.903\H,0,23.28,-6.354,32.038\H,0,24.264,-7.603,31.045\H,
 0,26.169,-6.551,31.504\H,0,25.655,-5.66,32.944\H,0,24.317,-5.151,30.23
 \H,0,24.648,-2.671,31.756\H,0,24.199,-4.076,32.884\H,0,23.263,-3.563,3
 1.619\H,0,27.083,-4.96,30.418\H,0,26.647,-3.379,31.087\H,0,27.181,-3.0
 93,28.737\H,0,25.408,-2.997,28.708\H,0,25.964,-5.74,28.385\H,0,27.318,
 -4.796,27.613\H,0,25.471,-3.397,26.378\H,0,23.613,-5.709,26.752\H,0,23
 .138,-4.078,26.574\H,0,23.697,-4.644,28.177\H,0,26.464,-6.15,25.678\H,
 0,26.398,-4.732,24.717\H,0,25.021,-5.825,24.812\\Version=ES64L-G16RevA
 .03\State=1-A\HF=-474.0304028\RMSD=6.875e-09\PG=C01 [X(C55H74Mg1N4O6)]
 \\@


 FRICTION IS A DRAG,
 AND ENTROPY AIN'T WHAT IT USED TO BE.
 Job cpu time:       0 days  0 hours  2 minutes 28.0 seconds.
 Elapsed time:       0 days  0 hours  0 minutes  6.4 seconds.
 File lengths (MBytes):  RWF=   1263 Int=      0 D2E=      0 Chk=     38 Scr=      1
 Normal termination of Gaussian 16 at Thu May  5 15:44:10 2022.
