 Entering Gaussian System, Link 0=g16
 Initial command:
 /sw/apps/gaussian-16.0/g16/l1.exe "/tmp/Gau-250761.inp" -scrdir="/tmp/"
 Entering Link 1 = /sw/apps/gaussian-16.0/g16/l1.exe PID=    250762.
  
 Copyright (c) 1988,1990,1992,1993,1995,1998,2003,2009,2016,
            Gaussian, Inc.  All Rights Reserved.
  
 This is part of the Gaussian(R) 16 program.  It is based on
 the Gaussian(R) 09 system (copyright 2009, Gaussian, Inc.),
 the Gaussian(R) 03 system (copyright 2003, Gaussian, Inc.),
 the Gaussian(R) 98 system (copyright 1998, Gaussian, Inc.),
 the Gaussian(R) 94 system (copyright 1995, Gaussian, Inc.),
 the Gaussian 92(TM) system (copyright 1992, Gaussian, Inc.),
 the Gaussian 90(TM) system (copyright 1990, Gaussian, Inc.),
 the Gaussian 88(TM) system (copyright 1988, Gaussian, Inc.),
 the Gaussian 86(TM) system (copyright 1986, Carnegie Mellon
 University), and the Gaussian 82(TM) system (copyright 1983,
 Carnegie Mellon University). Gaussian is a federally registered
 trademark of Gaussian, Inc.
  
 This software contains proprietary and confidential information,
 including trade secrets, belonging to Gaussian, Inc.
  
 This software is provided under written license and may be
 used, copied, transmitted, or stored only in accord with that
 written license.
  
 The following legend is applicable only to US Government
 contracts under FAR:
  
                    RESTRICTED RIGHTS LEGEND
  
 Use, reproduction and disclosure by the US Government is
 subject to restrictions as set forth in subparagraphs (a)
 and (c) of the Commercial Computer Software - Restricted
 Rights clause in FAR 52.227-19.
  
 Gaussian, Inc.
 340 Quinnipiac St., Bldg. 40, Wallingford CT 06492
  
  
 ---------------------------------------------------------------
 Warning -- This program may not be used in any manner that
 competes with the business of Gaussian, Inc. or will provide
 assistance to any competitor of Gaussian, Inc.  The licensee
 of this program is prohibited from giving any competitor of
 Gaussian, Inc. access to this program.  By using this program,
 the user acknowledges that Gaussian, Inc. is engaged in the
 business of creating and licensing software in the field of
 computational chemistry and represents and warrants to the
 licensee that it is not a competitor of Gaussian, Inc. and that
 it will not use this program in any manner prohibited above.
 ---------------------------------------------------------------
  

 Cite this work as:
 Gaussian 16, Revision A.03,
 M. J. Frisch, G. W. Trucks, H. B. Schlegel, G. E. Scuseria, 
 M. A. Robb, J. R. Cheeseman, G. Scalmani, V. Barone, 
 G. A. Petersson, H. Nakatsuji, X. Li, M. Caricato, A. V. Marenich, 
 J. Bloino, B. G. Janesko, R. Gomperts, B. Mennucci, H. P. Hratchian, 
 J. V. Ortiz, A. F. Izmaylov, J. L. Sonnenberg, D. Williams-Young, 
 F. Ding, F. Lipparini, F. Egidi, J. Goings, B. Peng, A. Petrone, 
 T. Henderson, D. Ranasinghe, V. G. Zakrzewski, J. Gao, N. Rega, 
 G. Zheng, W. Liang, M. Hada, M. Ehara, K. Toyota, R. Fukuda, 
 J. Hasegawa, M. Ishida, T. Nakajima, Y. Honda, O. Kitao, H. Nakai, 
 T. Vreven, K. Throssell, J. A. Montgomery, Jr., J. E. Peralta, 
 F. Ogliaro, M. J. Bearpark, J. J. Heyd, E. N. Brothers, K. N. Kudin, 
 V. N. Staroverov, T. A. Keith, R. Kobayashi, J. Normand, 
 K. Raghavachari, A. P. Rendell, J. C. Burant, S. S. Iyengar, 
 J. Tomasi, M. Cossi, J. M. Millam, M. Klene, C. Adamo, R. Cammi, 
 J. W. Ochterski, R. L. Martin, K. Morokuma, O. Farkas, 
 J. B. Foresman, and D. J. Fox, Gaussian, Inc., Wallingford CT, 2016.
 
 ******************************************
 Gaussian 16:  ES64L-G16RevA.03 25-Dec-2016
                29-Apr-2022 
 ******************************************
 %nproc=24
 Will use up to   24 processors via shared memory.
 %mem=75GB
 ---------------------------------
 #p PBE1PBE/Def2SVP td=(nstates=5)
 ---------------------------------
 1/38=1,172=1/1;
 2/12=2,17=6,18=5,40=1/2;
 3/5=43,7=101,11=9,25=1,30=1,74=-13/1,2,3,8;
 4//1;
 5/5=2,38=5/2;
 8/6=1,10=1,108=5/1;
 9/41=5,42=1,70=2/14;
 6/7=2,8=2,9=2,10=2/1;
 99/5=1,9=1/99;
 Leave Link    1 at Fri Apr 29 08:12:39 2022, MaxMem= 10066329600 cpu:               1.0 elap:               0.0
 (Enter /sw/apps/gaussian-16.0/g16/l101.exe)
 -----------------------------------------------------
 step_201_chromophore_23 TDDFT with PBE1PBE functional
 -----------------------------------------------------
 Symbolic Z-matrix:
 Charge =  0 Multiplicity = 1
 Mg                   -8.461     40.866    42.812 
 C                    -7.589     37.591    42.042 
 C                    -5.784     41.945    40.792 
 C                    -9.695     43.869    43.046 
 C                    -11.675    39.59     43.987 
 N                    -6.907     39.884    41.557 
 C                    -6.755     38.537    41.485 
 C                    -5.604     38.235    40.572 
 C                    -4.919     39.592    40.25 
 C                    -5.925     40.54     40.889 
 C                    -3.462     39.76     40.827 
 C                    -6.027     37.487    39.275 
 C                    -5.15      36.312    38.92 
 C                    -4.292     36.637    37.727 
 O                    -3.213     37.202    37.706 
 O                    -4.923     36.206    36.57 
 N                    -7.651     42.662    42.188 
 C                    -6.699     42.923    41.295 
 C                    -6.634     44.379    41.077 
 C                    -7.688     44.996    41.78 
 C                    -8.431     43.822    42.378 
 C                    -5.421     44.969    40.369 
 C                    -7.953     46.523    41.729 
 O                    -7.297     47.304    41.064 
 C                    -9.097     47.106    42.456 
 N                    -10.383    41.603    43.494 
 C                    -10.556    42.948    43.538 
 C                    -11.914    43.365    44.096 
 C                    -12.538    42.001    44.515 
 C                    -11.47     40.975    43.94 
 C                    -11.893    44.375    45.23 
 C                    -14.003    41.785    44.045 
 C                    -15.101    41.309    45.026 
 N                    -9.442     38.999    43.034 
 C                    -10.68     38.631    43.569 
 C                    -10.782    37.18     43.61 
 C                    -9.555     36.775    43.063 
 C                    -8.776     37.903    42.717 
 C                    -11.968    36.387    44.027 
 C                    -8.919     35.576    42.642 
 O                    -9.258     34.394    42.674 
 C                    -7.601     36.097    41.916 
 C                    -6.472     35.466    42.744 
 O                    -6.438     35.531    43.949 
 O                    -5.614     34.747    41.894 
 C                    -4.407     34.118    42.493 
 C                    -4.13      36.251    35.35 
 C                    -4.867     35.791    34.083 
 C                    -5.903     36.37     33.415 
 C                    -6.42      37.74     33.707 
 C                    -6.548     35.747    32.145 
 C                    -5.694     35.804    30.864 
 C                    -6.273     36.624    29.774 
 C                    -5.474     37.93     29.587 
 C                    -4.371     37.73     28.519 
 C                    -6.431     39.102    29.213 
 C                    -5.803     40.515    29.397 
 C                    -6.498     41.479    30.349 
 C                    -5.541     42.421    31.193 
 C                    -5.439     42.001    32.68 
 C                    -5.974     43.883    31.154 
 C                    -5.717     44.558    29.823 
 C                    -4.426     45.345    29.936 
 C                    -4.657     46.878    29.624 
 C                    -4.17      47.213    28.212 
 C                    -3.981     47.729    30.731 
 H                    -4.896     42.258    40.24 
 H                    -10.125    44.871    43.109 
 H                    -12.634    39.217    44.35 
 H                    -4.872     37.622    41.098 
 H                    -4.887     39.698    39.165 
 H                    -2.733     39.517    40.053 
 H                    -3.233     38.921    41.483 
 H                    -3.293     40.674    41.396 
 H                    -6.071     38.19     38.443 
 H                    -7.087     37.246    39.35 
 H                    -5.707     35.388    38.768 
 H                    -4.46      36.048    39.721 
 H                    -4.532     44.524    40.815 
 H                    -5.251     46.035    40.524 
 H                    -5.4       44.749    39.302 
 H                    -9.057     48.193    42.387 
 H                    -8.891     46.838    43.492 
 H                    -10.019    46.758    41.99 
 H                    -12.479    43.886    43.324 
 H                    -12.519    41.841    45.593 
 H                    -12.161    43.963    46.203 
 H                    -12.564    45.222    45.089 
 H                    -10.905    44.833    45.256 
 H                    -14.091    41.246    43.102 
 H                    -14.438    42.737    43.741 
 H                    -14.809    41.224    46.073 
 H                    -15.507    40.388    44.608 
 H                    -16.04     41.861    44.977 
 H                    -11.615    35.499    44.551 
 H                    -12.381    36.119    43.054 
 H                    -12.658    36.917    44.684 
 H                    -7.474     35.74     40.894 
 H                    -4.707     33.501    43.341 
 H                    -3.839     34.917    42.971 
 H                    -3.923     33.504    41.734 
 H                    -3.353     35.495    35.471 
 H                    -3.62      37.195    35.161 
 H                    -4.438     34.882    33.663 
 H                    -7.503     37.648    33.798 
 H                    -6.276     38.431    32.877 
 H                    -5.902     38.05     34.615 
 H                    -7.549     36.132    31.952 
 H                    -6.528     34.661    32.231 
 H                    -5.609     34.799    30.45 
 H                    -4.642     36.03     31.043 
 H                    -7.351     36.745    29.88 
 H                    -6.341     36.11     28.815 
 H                    -5.123     38.099    30.605 
 H                    -4.643     37.015    27.743 
 H                    -3.404     37.462    28.944 
 H                    -4.332     38.71     28.044 
 H                    -7.295     38.952    29.861 
 H                    -6.898     39.033    28.231 
 H                    -5.978     41.084    28.484 
 H                    -4.725     40.54     29.554 
 H                    -7.257     41.032    30.99 
 H                    -7.081     42.137    29.703 
 H                    -4.506     42.321    30.866 
 H                    -4.4       42.176    32.957 
 H                    -5.691     40.952    32.832 
 H                    -6.048     42.665    33.293 
 H                    -5.567     44.372    32.04 
 H                    -7.062     43.925    31.207 
 H                    -6.561     45.118    29.421 
 H                    -5.526     43.882    28.99 
 H                    -3.811     44.787    29.23 
 H                    -4.018     45.198    30.935 
 H                    -5.713     47.145    29.612 
 H                    -5.054     47.233    27.575 
 H                    -3.509     46.389    27.944 
 H                    -3.695     48.191    28.134 
 H                    -4.817     48.238    31.211 
 H                    -3.286     48.394    30.218 
 H                    -3.466     47.173    31.513 
 
 ITRead=  0  0  0  0  0  0  0  0  0  0  0  0  0  0  0  0  0  0  0  0
 ITRead=  0  0  0  0  0  0  0  0  0  0  0  0  0  0  0  0  0  0  0  0
 ITRead=  0  0  0  0  0  0  0  0  0  0  0  0  0  0  0  0  0  0  0  0
 ITRead=  0  0  0  0  0  0  0  0  0  0  0  0  0  0  0  0  0  0  0  0
 ITRead=  0  0  0  0  0  0  0  0  0  0  0  0  0  0  0  0  0  0  0  0
 ITRead=  0  0  0  0  0  0  0  0  0  0  0  0  0  0  0  0  0  0  0  0
 ITRead=  0  0  0  0  0  0  0  0  0  0  0  0  0  0  0  0  0  0  0  0
 MicOpt= -1 -1 -1 -1 -1 -1 -1 -1 -1 -1 -1 -1 -1 -1 -1 -1 -1 -1 -1 -1
 MicOpt= -1 -1 -1 -1 -1 -1 -1 -1 -1 -1 -1 -1 -1 -1 -1 -1 -1 -1 -1 -1
 MicOpt= -1 -1 -1 -1 -1 -1 -1 -1 -1 -1 -1 -1 -1 -1 -1 -1 -1 -1 -1 -1
 MicOpt= -1 -1 -1 -1 -1 -1 -1 -1 -1 -1 -1 -1 -1 -1 -1 -1 -1 -1 -1 -1
 MicOpt= -1 -1 -1 -1 -1 -1 -1 -1 -1 -1 -1 -1 -1 -1 -1 -1 -1 -1 -1 -1
 MicOpt= -1 -1 -1 -1 -1 -1 -1 -1 -1 -1 -1 -1 -1 -1 -1 -1 -1 -1 -1 -1
 MicOpt= -1 -1 -1 -1 -1 -1 -1 -1 -1 -1 -1 -1 -1 -1 -1 -1 -1 -1 -1 -1
 NAtoms=    140 NQM=      140 NQMF=       0 NMMI=      0 NMMIF=      0
                NMic=       0 NMicF=      0.
                    Isotopes and Nuclear Properties:
 (Nuclear quadrupole moments (NQMom) in fm**2, nuclear magnetic moments (NMagM)
  in nuclear magnetons)

  Atom         1           2           3           4           5           6           7           8           9          10
 IAtWgt=          24          12          12          12          12          14          12          12          12          12
 AtmWgt=  23.9850450  12.0000000  12.0000000  12.0000000  12.0000000  14.0030740  12.0000000  12.0000000  12.0000000  12.0000000
 NucSpn=           0           0           0           0           0           2           0           0           0           0
 AtZEff=  -0.0000000  -0.0000000  -0.0000000  -0.0000000  -0.0000000  -0.0000000  -0.0000000  -0.0000000  -0.0000000  -0.0000000
 NQMom=    0.0000000   0.0000000   0.0000000   0.0000000   0.0000000   2.0440000   0.0000000   0.0000000   0.0000000   0.0000000
 NMagM=    0.0000000   0.0000000   0.0000000   0.0000000   0.0000000   0.4037610   0.0000000   0.0000000   0.0000000   0.0000000
 AtZNuc=  12.0000000   6.0000000   6.0000000   6.0000000   6.0000000   7.0000000   6.0000000   6.0000000   6.0000000   6.0000000

  Atom        11          12          13          14          15          16          17          18          19          20
 IAtWgt=          12          12          12          12          16          16          14          12          12          12
 AtmWgt=  12.0000000  12.0000000  12.0000000  12.0000000  15.9949146  15.9949146  14.0030740  12.0000000  12.0000000  12.0000000
 NucSpn=           0           0           0           0           0           0           2           0           0           0
 AtZEff=  -0.0000000  -0.0000000  -0.0000000  -0.0000000  -0.0000000  -0.0000000  -0.0000000  -0.0000000  -0.0000000  -0.0000000
 NQMom=    0.0000000   0.0000000   0.0000000   0.0000000   0.0000000   0.0000000   2.0440000   0.0000000   0.0000000   0.0000000
 NMagM=    0.0000000   0.0000000   0.0000000   0.0000000   0.0000000   0.0000000   0.4037610   0.0000000   0.0000000   0.0000000
 AtZNuc=   6.0000000   6.0000000   6.0000000   6.0000000   8.0000000   8.0000000   7.0000000   6.0000000   6.0000000   6.0000000

  Atom        21          22          23          24          25          26          27          28          29          30
 IAtWgt=          12          12          12          16          12          14          12          12          12          12
 AtmWgt=  12.0000000  12.0000000  12.0000000  15.9949146  12.0000000  14.0030740  12.0000000  12.0000000  12.0000000  12.0000000
 NucSpn=           0           0           0           0           0           2           0           0           0           0
 AtZEff=  -0.0000000  -0.0000000  -0.0000000  -0.0000000  -0.0000000  -0.0000000  -0.0000000  -0.0000000  -0.0000000  -0.0000000
 NQMom=    0.0000000   0.0000000   0.0000000   0.0000000   0.0000000   2.0440000   0.0000000   0.0000000   0.0000000   0.0000000
 NMagM=    0.0000000   0.0000000   0.0000000   0.0000000   0.0000000   0.4037610   0.0000000   0.0000000   0.0000000   0.0000000
 AtZNuc=   6.0000000   6.0000000   6.0000000   8.0000000   6.0000000   7.0000000   6.0000000   6.0000000   6.0000000   6.0000000

  Atom        31          32          33          34          35          36          37          38          39          40
 IAtWgt=          12          12          12          14          12          12          12          12          12          12
 AtmWgt=  12.0000000  12.0000000  12.0000000  14.0030740  12.0000000  12.0000000  12.0000000  12.0000000  12.0000000  12.0000000
 NucSpn=           0           0           0           2           0           0           0           0           0           0
 AtZEff=  -0.0000000  -0.0000000  -0.0000000  -0.0000000  -0.0000000  -0.0000000  -0.0000000  -0.0000000  -0.0000000  -0.0000000
 NQMom=    0.0000000   0.0000000   0.0000000   2.0440000   0.0000000   0.0000000   0.0000000   0.0000000   0.0000000   0.0000000
 NMagM=    0.0000000   0.0000000   0.0000000   0.4037610   0.0000000   0.0000000   0.0000000   0.0000000   0.0000000   0.0000000
 AtZNuc=   6.0000000   6.0000000   6.0000000   7.0000000   6.0000000   6.0000000   6.0000000   6.0000000   6.0000000   6.0000000

  Atom        41          42          43          44          45          46          47          48          49          50
 IAtWgt=          16          12          12          16          16          12          12          12          12          12
 AtmWgt=  15.9949146  12.0000000  12.0000000  15.9949146  15.9949146  12.0000000  12.0000000  12.0000000  12.0000000  12.0000000
 NucSpn=           0           0           0           0           0           0           0           0           0           0
 AtZEff=  -0.0000000  -0.0000000  -0.0000000  -0.0000000  -0.0000000  -0.0000000  -0.0000000  -0.0000000  -0.0000000  -0.0000000
 NQMom=    0.0000000   0.0000000   0.0000000   0.0000000   0.0000000   0.0000000   0.0000000   0.0000000   0.0000000   0.0000000
 NMagM=    0.0000000   0.0000000   0.0000000   0.0000000   0.0000000   0.0000000   0.0000000   0.0000000   0.0000000   0.0000000
 AtZNuc=   8.0000000   6.0000000   6.0000000   8.0000000   8.0000000   6.0000000   6.0000000   6.0000000   6.0000000   6.0000000

  Atom        51          52          53          54          55          56          57          58          59          60
 IAtWgt=          12          12          12          12          12          12          12          12          12          12
 AtmWgt=  12.0000000  12.0000000  12.0000000  12.0000000  12.0000000  12.0000000  12.0000000  12.0000000  12.0000000  12.0000000
 NucSpn=           0           0           0           0           0           0           0           0           0           0
 AtZEff=  -0.0000000  -0.0000000  -0.0000000  -0.0000000  -0.0000000  -0.0000000  -0.0000000  -0.0000000  -0.0000000  -0.0000000
 NQMom=    0.0000000   0.0000000   0.0000000   0.0000000   0.0000000   0.0000000   0.0000000   0.0000000   0.0000000   0.0000000
 NMagM=    0.0000000   0.0000000   0.0000000   0.0000000   0.0000000   0.0000000   0.0000000   0.0000000   0.0000000   0.0000000
 AtZNuc=   6.0000000   6.0000000   6.0000000   6.0000000   6.0000000   6.0000000   6.0000000   6.0000000   6.0000000   6.0000000

  Atom        61          62          63          64          65          66          67          68          69          70
 IAtWgt=          12          12          12          12          12          12           1           1           1           1
 AtmWgt=  12.0000000  12.0000000  12.0000000  12.0000000  12.0000000  12.0000000   1.0078250   1.0078250   1.0078250   1.0078250
 NucSpn=           0           0           0           0           0           0           1           1           1           1
 AtZEff=  -0.0000000  -0.0000000  -0.0000000  -0.0000000  -0.0000000  -0.0000000  -0.0000000  -0.0000000  -0.0000000  -0.0000000
 NQMom=    0.0000000   0.0000000   0.0000000   0.0000000   0.0000000   0.0000000   0.0000000   0.0000000   0.0000000   0.0000000
 NMagM=    0.0000000   0.0000000   0.0000000   0.0000000   0.0000000   0.0000000   2.7928460   2.7928460   2.7928460   2.7928460
 AtZNuc=   6.0000000   6.0000000   6.0000000   6.0000000   6.0000000   6.0000000   1.0000000   1.0000000   1.0000000   1.0000000

  Atom        71          72          73          74          75          76          77          78          79          80
 IAtWgt=           1           1           1           1           1           1           1           1           1           1
 AtmWgt=   1.0078250   1.0078250   1.0078250   1.0078250   1.0078250   1.0078250   1.0078250   1.0078250   1.0078250   1.0078250
 NucSpn=           1           1           1           1           1           1           1           1           1           1
 AtZEff=  -0.0000000  -0.0000000  -0.0000000  -0.0000000  -0.0000000  -0.0000000  -0.0000000  -0.0000000  -0.0000000  -0.0000000
 NQMom=    0.0000000   0.0000000   0.0000000   0.0000000   0.0000000   0.0000000   0.0000000   0.0000000   0.0000000   0.0000000
 NMagM=    2.7928460   2.7928460   2.7928460   2.7928460   2.7928460   2.7928460   2.7928460   2.7928460   2.7928460   2.7928460
 AtZNuc=   1.0000000   1.0000000   1.0000000   1.0000000   1.0000000   1.0000000   1.0000000   1.0000000   1.0000000   1.0000000

  Atom        81          82          83          84          85          86          87          88          89          90
 IAtWgt=           1           1           1           1           1           1           1           1           1           1
 AtmWgt=   1.0078250   1.0078250   1.0078250   1.0078250   1.0078250   1.0078250   1.0078250   1.0078250   1.0078250   1.0078250
 NucSpn=           1           1           1           1           1           1           1           1           1           1
 AtZEff=  -0.0000000  -0.0000000  -0.0000000  -0.0000000  -0.0000000  -0.0000000  -0.0000000  -0.0000000  -0.0000000  -0.0000000
 NQMom=    0.0000000   0.0000000   0.0000000   0.0000000   0.0000000   0.0000000   0.0000000   0.0000000   0.0000000   0.0000000
 NMagM=    2.7928460   2.7928460   2.7928460   2.7928460   2.7928460   2.7928460   2.7928460   2.7928460   2.7928460   2.7928460
 AtZNuc=   1.0000000   1.0000000   1.0000000   1.0000000   1.0000000   1.0000000   1.0000000   1.0000000   1.0000000   1.0000000

  Atom        91          92          93          94          95          96          97          98          99         100
 IAtWgt=           1           1           1           1           1           1           1           1           1           1
 AtmWgt=   1.0078250   1.0078250   1.0078250   1.0078250   1.0078250   1.0078250   1.0078250   1.0078250   1.0078250   1.0078250
 NucSpn=           1           1           1           1           1           1           1           1           1           1
 AtZEff=  -0.0000000  -0.0000000  -0.0000000  -0.0000000  -0.0000000  -0.0000000  -0.0000000  -0.0000000  -0.0000000  -0.0000000
 NQMom=    0.0000000   0.0000000   0.0000000   0.0000000   0.0000000   0.0000000   0.0000000   0.0000000   0.0000000   0.0000000
 NMagM=    2.7928460   2.7928460   2.7928460   2.7928460   2.7928460   2.7928460   2.7928460   2.7928460   2.7928460   2.7928460
 AtZNuc=   1.0000000   1.0000000   1.0000000   1.0000000   1.0000000   1.0000000   1.0000000   1.0000000   1.0000000   1.0000000

  Atom       101         102         103         104         105         106         107         108         109         110
 IAtWgt=           1           1           1           1           1           1           1           1           1           1
 AtmWgt=   1.0078250   1.0078250   1.0078250   1.0078250   1.0078250   1.0078250   1.0078250   1.0078250   1.0078250   1.0078250
 NucSpn=           1           1           1           1           1           1           1           1           1           1
 AtZEff=  -0.0000000  -0.0000000  -0.0000000  -0.0000000  -0.0000000  -0.0000000  -0.0000000  -0.0000000  -0.0000000  -0.0000000
 NQMom=    0.0000000   0.0000000   0.0000000   0.0000000   0.0000000   0.0000000   0.0000000   0.0000000   0.0000000   0.0000000
 NMagM=    2.7928460   2.7928460   2.7928460   2.7928460   2.7928460   2.7928460   2.7928460   2.7928460   2.7928460   2.7928460
 AtZNuc=   1.0000000   1.0000000   1.0000000   1.0000000   1.0000000   1.0000000   1.0000000   1.0000000   1.0000000   1.0000000

  Atom       111         112         113         114         115         116         117         118         119         120
 IAtWgt=           1           1           1           1           1           1           1           1           1           1
 AtmWgt=   1.0078250   1.0078250   1.0078250   1.0078250   1.0078250   1.0078250   1.0078250   1.0078250   1.0078250   1.0078250
 NucSpn=           1           1           1           1           1           1           1           1           1           1
 AtZEff=  -0.0000000  -0.0000000  -0.0000000  -0.0000000  -0.0000000  -0.0000000  -0.0000000  -0.0000000  -0.0000000  -0.0000000
 NQMom=    0.0000000   0.0000000   0.0000000   0.0000000   0.0000000   0.0000000   0.0000000   0.0000000   0.0000000   0.0000000
 NMagM=    2.7928460   2.7928460   2.7928460   2.7928460   2.7928460   2.7928460   2.7928460   2.7928460   2.7928460   2.7928460
 AtZNuc=   1.0000000   1.0000000   1.0000000   1.0000000   1.0000000   1.0000000   1.0000000   1.0000000   1.0000000   1.0000000

  Atom       121         122         123         124         125         126         127         128         129         130
 IAtWgt=           1           1           1           1           1           1           1           1           1           1
 AtmWgt=   1.0078250   1.0078250   1.0078250   1.0078250   1.0078250   1.0078250   1.0078250   1.0078250   1.0078250   1.0078250
 NucSpn=           1           1           1           1           1           1           1           1           1           1
 AtZEff=  -0.0000000  -0.0000000  -0.0000000  -0.0000000  -0.0000000  -0.0000000  -0.0000000  -0.0000000  -0.0000000  -0.0000000
 NQMom=    0.0000000   0.0000000   0.0000000   0.0000000   0.0000000   0.0000000   0.0000000   0.0000000   0.0000000   0.0000000
 NMagM=    2.7928460   2.7928460   2.7928460   2.7928460   2.7928460   2.7928460   2.7928460   2.7928460   2.7928460   2.7928460
 AtZNuc=   1.0000000   1.0000000   1.0000000   1.0000000   1.0000000   1.0000000   1.0000000   1.0000000   1.0000000   1.0000000

  Atom       131         132         133         134         135         136         137         138         139         140
 IAtWgt=           1           1           1           1           1           1           1           1           1           1
 AtmWgt=   1.0078250   1.0078250   1.0078250   1.0078250   1.0078250   1.0078250   1.0078250   1.0078250   1.0078250   1.0078250
 NucSpn=           1           1           1           1           1           1           1           1           1           1
 AtZEff=  -0.0000000  -0.0000000  -0.0000000  -0.0000000  -0.0000000  -0.0000000  -0.0000000  -0.0000000  -0.0000000  -0.0000000
 NQMom=    0.0000000   0.0000000   0.0000000   0.0000000   0.0000000   0.0000000   0.0000000   0.0000000   0.0000000   0.0000000
 NMagM=    2.7928460   2.7928460   2.7928460   2.7928460   2.7928460   2.7928460   2.7928460   2.7928460   2.7928460   2.7928460
 AtZNuc=   1.0000000   1.0000000   1.0000000   1.0000000   1.0000000   1.0000000   1.0000000   1.0000000   1.0000000   1.0000000
 Leave Link  101 at Fri Apr 29 08:12:40 2022, MaxMem= 10066329600 cpu:               3.6 elap:               0.2
 (Enter /sw/apps/gaussian-16.0/g16/l202.exe)
 Stoichiometry    C55H74MgN4O6
 Framework group  C1[X(C55H74MgN4O6)]
 Deg. of freedom   414
 Full point group                 C1      NOp   1
 Largest Abelian subgroup         C1      NOp   1
 Largest concise Abelian subgroup C1      NOp   1
                         Standard orientation:                         
 ---------------------------------------------------------------------
 Center     Atomic      Atomic             Coordinates (Angstroms)
 Number     Number       Type             X           Y           Z
 ---------------------------------------------------------------------
      1         12           0        4.428765    0.921181   -0.501205
      2          6           0        3.646499   -2.464912   -0.537857
      3          6           0        1.545706    1.503083   -2.440363
      4          6           0        4.851433    4.092517    0.098379
      5          6           0        6.716713    0.223480    2.258705
      6          7           0        2.794047   -0.327318   -1.351624
      7          6           0        2.772062   -1.681547   -1.260644
      8          6           0        1.546070   -2.186847   -1.961492
      9          6           0        0.912992   -0.969841   -2.691196
     10          6           0        1.786101    0.143632   -2.128241
     11          6           0        0.945721   -1.041878   -4.265281
     12          6           0        0.528191   -2.871517   -1.004522
     13          6           0       -0.018361   -4.182783   -1.512108
     14          6           0       -1.452364   -4.024763   -1.940713
     15          8           0       -1.880217   -3.650438   -3.018085
     16          8           0       -2.291068   -4.359855   -0.888639
     17          7           0        3.438311    2.545324   -1.308827
     18          6           0        2.258168    2.628773   -1.918887
     19          6           0        1.926532    4.049554   -2.126455
     20          6           0        2.899882    4.845855   -1.490603
     21          6           0        3.798237    3.823021   -0.831286
     22          6           0        0.807203    4.415870   -3.092710
     23          6           0        2.832033    6.394766   -1.461890
     24          8           0        1.928866    7.043999   -1.957176
     25          6           0        3.860980    7.173106   -0.745923
     26          7           0        5.669292    1.982006    0.926422
     27          6           0        5.672322    3.337402    0.864909
     28          6           0        6.627683    3.985813    1.863040
     29          6           0        7.331433    2.753023    2.503664
     30          6           0        6.502846    1.553142    1.873065
     31          6           0        7.610703    4.994196    1.294416
     32          6           0        7.405204    2.780666    4.055300
     33          6           0        8.733078    2.511264    4.802771
     34          7           0        5.105700   -0.749924    0.615263
     35          6           0        6.055327   -0.895754    1.630761
     36          6           0        6.233266   -2.307941    1.933335
     37          6           0        5.331952   -2.922245    1.050710
     38          6           0        4.660907   -1.947149    0.277518
     39          6           0        7.085254   -2.883124    3.006934
     40          6           0        4.807313   -4.217432    0.792673
     41          8           0        5.038082   -5.324623    1.276349
     42          6           0        3.640342   -3.937109   -0.253865
     43          6           0        4.077747   -4.737541   -1.489329
     44          8           0        5.191139   -4.661647   -1.949768
     45          8           0        3.040685   -5.603415   -1.877129
     46          6           0        3.236705   -6.418387   -3.105416
     47          6           0       -3.708034   -4.467203   -1.204799
     48          6           0       -4.611676   -4.814582   -0.011980
     49          6           0       -4.926993   -4.078767    1.089797
     50          6           0       -4.576152   -2.637030    1.256402
     51          6           0       -5.853001   -4.602367    2.223555
     52          6           0       -7.348789   -4.709078    1.870344
     53          6           0       -8.232719   -3.819072    2.659203
     54          6           0       -8.774368   -2.669609    1.784927
     55          6           0      -10.136692   -3.068540    1.166737
     56          6           0       -8.883783   -1.358425    2.620471
     57          6           0       -9.027133   -0.069224    1.758949
     58          6           0       -7.967636    1.012070    1.922944
     59          6           0       -7.570255    1.791157    0.599819
     60          6           0       -6.180625    1.381699    0.052785
     61          6           0       -7.564962    3.304552    0.789720
     62          6           0       -8.948987    3.906978    0.911343
     63          6           0       -9.339428    4.466248   -0.442759
     64          6           0       -9.663968    6.011525   -0.355655
     65          6           0      -11.177686    6.238851   -0.366476
     66          6           0       -8.917787    6.752213   -1.496366
     67          1           0        0.703279    1.653560   -3.117777
     68          1           0        4.984544    5.153548    0.320569
     69          1           0        7.410462    0.023103    3.076714
     70          1           0        1.834223   -2.906909   -2.727487
     71          1           0       -0.122721   -0.886604   -2.359753
     72          1           0       -0.010544   -1.415747   -4.633174
     73          1           0        1.543322   -1.897840   -4.576569
     74          1           0        1.355608   -0.161338   -4.759609
     75          1           0       -0.287572   -2.183393   -0.782298
     76          1           0        0.976803   -2.928950   -0.013182
     77          1           0        0.095505   -5.001580   -0.802365
     78          1           0        0.516698   -4.547790   -2.388395
     79          1           0        0.954773    3.833701   -4.001866
     80          1           0        0.817658    5.440004   -3.467306
     81          1           0       -0.184350    4.179944   -2.707365
     82          1           0        3.704185    8.236620   -0.925600
     83          1           0        4.781423    6.889310   -1.255630
     84          1           0        3.763158    6.979028    0.322303
     85          1           0        6.058695    4.583419    2.574215
     86          1           0        8.347119    2.607853    2.135761
     87          1           0        8.643865    4.647601    1.267131
     88          1           0        7.645813    5.940187    1.834228
     89          1           0        7.265621    5.279120    0.301279
     90          1           0        6.590044    2.250569    4.547260
     91          1           0        7.199573    3.787911    4.417401
     92          1           0        9.621339    2.393459    4.181632
     93          1           0        8.545948    1.666047    5.464882
     94          1           0        8.966985    3.213119    5.603717
     95          1           0        7.520428   -3.810240    2.634365
     96          1           0        6.333054   -3.091701    3.768388
     97          1           0        7.897831   -2.234698    3.335433
     98          1           0        2.664778   -4.325296    0.038792
     99          1           0        4.178381   -6.963436   -3.028201
    100          1           0        3.433738   -5.719884   -3.919529
    101          1           0        2.404708   -7.116301   -3.195022
    102          1           0       -3.804555   -5.341702   -1.849657
    103          1           0       -4.127022   -3.625733   -1.755556
    104          1           0       -5.085842   -5.788996   -0.123363
    105          1           0       -4.115469   -2.543502    2.240605
    106          1           0       -5.453183   -1.992448    1.305876
    107          1           0       -3.923670   -2.405738    0.413989
    108          1           0       -5.720924   -4.056727    3.157530
    109          1           0       -5.700769   -5.674778    2.341669
    110          1           0       -7.693275   -5.719930    2.089784
    111          1           0       -7.555474   -4.661372    0.800378
    112          1           0       -7.775056   -3.516250    3.600906
    113          1           0       -9.071493   -4.328141    3.134394
    114          1           0       -7.951723   -2.547474    1.080353
    115          1           0      -10.719938   -3.738586    1.797806
    116          1           0      -10.048147   -3.489747    0.165596
    117          1           0      -10.666037   -2.116231    1.145573
    118          1           0       -7.971299   -1.350912    3.217310
    119          1           0       -9.640404   -1.361894    3.404490
    120          1           0       -9.864555    0.507777    2.151057
    121          1           0       -9.248781   -0.224322    0.703404
    122          1           0       -7.076018    0.709047    2.470635
    123          1           0       -8.422265    1.749571    2.585946
    124          1           0       -8.221976    1.513069   -0.228481
    125          1           0       -6.287329    1.382767   -1.031414
    126          1           0       -5.876583    0.392644    0.393867
    127          1           0       -5.446550    2.147867    0.301115
    128          1           0       -6.908237    3.730676    0.030183
    129          1           0       -7.147876    3.530432    1.771216
    130          1           0       -9.078933    4.595526    1.745941
    131          1           0       -9.746123    3.196356    1.127992
    132          1           0      -10.170384    3.802177   -0.680553
    133          1           0       -8.531184    4.267053   -1.144996
    134          1           0       -9.334960    6.452798    0.584345
    135          1           0      -11.475328    6.398539    0.669639
    136          1           0      -11.594482    5.311250   -0.758341
    137          1           0      -11.483153    7.121358   -0.928671
    138          1           0       -8.219918    7.402014   -0.968052
    139          1           0       -9.683359    7.282756   -2.062795
    140          1           0       -8.319873    6.128703   -2.159403
 ---------------------------------------------------------------------
 Rotational constants (GHZ):           0.0303014           0.0149094           0.0115217
 Leave Link  202 at Fri Apr 29 08:12:40 2022, MaxMem= 10066329600 cpu:               0.3 elap:               0.0
 (Enter /sw/apps/gaussian-16.0/g16/l301.exe)
 Standard basis: def2SVP (5D, 7F)
 Ernie: Thresh=  0.10000D-02 Tol=  0.10000D-05 Strict=F.
 There are  1364 symmetry adapted cartesian basis functions of A   symmetry.
 There are  1298 symmetry adapted basis functions of A   symmetry.
  1298 basis functions,  2180 primitive gaussians,  1364 cartesian basis functions
   246 alpha electrons      246 beta electrons
       nuclear repulsion energy      9751.5866283474 Hartrees.
 IExCor= 1009 DFT=T Ex+Corr=PBE1PBE ExCW=0 ScaHFX=  0.250000
 ScaDFX=  0.750000  0.750000  1.000000  1.000000 ScalE2=  1.000000  1.000000
 IRadAn=      5 IRanWt=     -1 IRanGd=            0 ICorTp=0 IEmpDi=  4
 NAtoms=  140 NActive=  140 NUniq=  140 SFac= 1.00D+00 NAtFMM=   60 NAOKFM=T Big=T
 Integral buffers will be    131072 words long.
 Regular integral format.
 Two-electron integral symmetry is turned on.
 Leave Link  301 at Fri Apr 29 08:12:40 2022, MaxMem= 10066329600 cpu:               2.2 elap:               0.1
 (Enter /sw/apps/gaussian-16.0/g16/l302.exe)
 NPDir=0 NMtPBC=     1 NCelOv=     1 NCel=       1 NClECP=     1 NCelD=      1
         NCelK=      1 NCelE2=     1 NClLst=     1 CellRange=     0.0.
 One-electron integrals computed using PRISM.
 One-electron integral symmetry used in STVInt
   1 Symmetry operations used in ECPInt.
 ECPInt:  NShTT=  192510 NPrTT=  683786 LenC2=   99454 LenP2D=  213797.
 LDataN:  DoStor=T MaxTD1= 4 Len=   56
 NBasis=  1298 RedAO= T EigKep=  2.45D-04  NBF=  1298
 NBsUse=  1298 1.00D-06 EigRej= -1.00D+00 NBFU=  1298
 Precomputing XC quadrature grid using
 IXCGrd= 4 IRadAn=           5 IRanWt=          -1 IRanGd=           0 AccXCQ= 0.00D+00.
 Generated NRdTot=       0 NPtTot=           0 NUsed=           0 NTot=          32
 NSgBfM=  1047  1047  1047  1047  1047 MxSgAt=   140 MxSgA2=   140.
 Leave Link  302 at Fri Apr 29 08:12:44 2022, MaxMem= 10066329600 cpu:              94.8 elap:               4.0
 (Enter /sw/apps/gaussian-16.0/g16/l303.exe)
 DipDrv:  MaxL=1.
 Leave Link  303 at Fri Apr 29 08:12:44 2022, MaxMem= 10066329600 cpu:               5.7 elap:               0.3
 (Enter /sw/apps/gaussian-16.0/g16/l308.exe)
 Leave Link  308 at Fri Apr 29 08:12:44 2022, MaxMem= 10066329600 cpu:               8.5 elap:               0.4
 (Enter /sw/apps/gaussian-16.0/g16/l401.exe)
 ExpMin= 3.36D-02 ExpMax= 4.95D+03 ExpMxC= 7.45D+02 IAcc=3 IRadAn=         5 AccDes= 0.00D+00
 Harris functional with IExCor= 1009 and IRadAn=       5 diagonalized for initial guess.
 HarFok:  IExCor= 1009 AccDes= 0.00D+00 IRadAn=         5 IDoV= 1 UseB2=F ITyADJ=14
 ICtDFT=  3500011 ScaDFX=  1.000000  1.000000  1.000000  1.000000
 FoFCou: FMM=F IPFlag=           0 FMFlag=      100000 FMFlg1=        2001
         NFxFlg=           0 DoJE=T BraDBF=F KetDBF=T FulRan=T
         wScrn=  0.000000 ICntrl=       500 IOpCl=  0 I1Cent=   200000004 NGrid=           0
         NMat0=    1 NMatS0=      1 NMatT0=    0 NMatD0=    1 NMtDS0=    0 NMtDT0=    0
 Petite list used in FoFCou.
 Harris En= -3006.16888752379    
 JPrj=0 DoOrth=F DoCkMO=F.
 Leave Link  401 at Fri Apr 29 08:12:50 2022, MaxMem= 10066329600 cpu:             131.3 elap:               5.5
 (Enter /sw/apps/gaussian-16.0/g16/l502.exe)
 Integral symmetry usage will be decided dynamically.
 Closed shell SCF:
 Using DIIS extrapolation, IDIIS=  1040.
 NGot= 10066329600 LenX= 10062561258 LenY= 10060699398
 Requested convergence on RMS density matrix=1.00D-08 within 128 cycles.
 Requested convergence on MAX density matrix=1.00D-06.
 Requested convergence on             energy=1.00D-06.
 No special actions if energy rises.
 Fock matrices will be formed incrementally for  20 cycles.

 Cycle   1  Pass 1  IDiag  1:
 FoFJK:  IHMeth= 1 ICntrl=       0 DoSepK=F KAlg= 0 I1Cent=           0 FoldK=F
 IRaf= 530000000 NMat=       1 IRICut=       1 DoRegI=T DoRafI=F ISym2E= 0 IDoP0=0 IntGTp=1.
 FoFCou: FMM=T IPFlag=           0 FMFlag=      100000 FMFlg1=        2001
         NFxFlg=           0 DoJE=F BraDBF=F KetDBF=F FulRan=T
         wScrn=  0.000000 ICntrl=         0 IOpCl=  0 I1Cent=           0 NGrid=           0
         NMat0=    1 NMatS0=      1 NMatT0=    0 NMatD0=    1 NMtDS0=    0 NMtDT0=    0
 Symmetry not used in FoFCou.
 FMM levels:  10  Number of levels for PrismC:   9
 E= -3003.79393683484    
 DIIS: error= 2.25D-02 at cycle   1 NSaved=   1.
 NSaved= 1 IEnMin= 1 EnMin= -3003.79393683484     IErMin= 1 ErrMin= 2.25D-02
 ErrMax= 2.25D-02  0.00D+00 EMaxC= 1.00D-01 BMatC= 1.48D+00 BMatP= 1.48D+00
 IDIUse=3 WtCom= 7.75D-01 WtEn= 2.25D-01
 Coeff-Com:  0.100D+01
 Coeff-En:   0.100D+01
 Coeff:      0.100D+01
 Gap=     0.079 Goal=   None    Shift=    0.000
 GapD=    0.079 DampG=0.500 DampE=0.500 DampFc=0.2500 IDamp=-1.
 Damping current iteration by 2.50D-01
 RMSDP=2.80D-03 MaxDP=6.66D-01              OVMax= 3.40D-01

 Cycle   2  Pass 1  IDiag  1:
 RMSU=  6.94D-04    CP:  9.89D-01
 E= -3004.35196014396     Delta-E=       -0.558023309122 Rises=F Damp=T
 DIIS: error= 1.15D-02 at cycle   2 NSaved=   2.
 NSaved= 2 IEnMin= 2 EnMin= -3004.35196014396     IErMin= 2 ErrMin= 1.15D-02
 ErrMax= 1.15D-02  0.00D+00 EMaxC= 1.00D-01 BMatC= 3.70D-01 BMatP= 1.48D+00
 IDIUse=3 WtCom= 8.85D-01 WtEn= 1.15D-01
 Coeff-Com: -0.783D+00 0.178D+01
 Coeff-En:   0.000D+00 0.100D+01
 Coeff:     -0.693D+00 0.169D+01
 Gap=     0.178 Goal=   None    Shift=    0.000
 RMSDP=1.02D-03 MaxDP=6.16D-02 DE=-5.58D-01 OVMax= 4.06D-01

 Cycle   3  Pass 1  IDiag  1:
 RMSU=  8.63D-04    CP:  9.63D-01  1.71D+00
 E= -3005.19207961274     Delta-E=       -0.840119468778 Rises=F Damp=F
 DIIS: error= 1.04D-02 at cycle   3 NSaved=   3.
 NSaved= 3 IEnMin= 3 EnMin= -3005.19207961274     IErMin= 3 ErrMin= 1.04D-02
 ErrMax= 1.04D-02  0.00D+00 EMaxC= 1.00D-01 BMatC= 1.62D-01 BMatP= 3.70D-01
 IDIUse=3 WtCom= 8.96D-01 WtEn= 1.04D-01
 Coeff-Com: -0.489D+00 0.105D+01 0.443D+00
 Coeff-En:   0.000D+00 0.000D+00 0.100D+01
 Coeff:     -0.438D+00 0.937D+00 0.501D+00
 Gap=     0.069 Goal=   None    Shift=    0.000
 RMSDP=6.18D-04 MaxDP=6.54D-02 DE=-8.40D-01 OVMax= 3.58D-01

 Cycle   4  Pass 1  IDiag  1:
 RMSU=  4.29D-04    CP:  9.68D-01  1.94D+00  5.22D-01
 E= -3005.29468210173     Delta-E=       -0.102602488994 Rises=F Damp=F
 DIIS: error= 4.54D-03 at cycle   4 NSaved=   4.
 NSaved= 4 IEnMin= 4 EnMin= -3005.29468210173     IErMin= 4 ErrMin= 4.54D-03
 ErrMax= 4.54D-03  0.00D+00 EMaxC= 1.00D-01 BMatC= 4.81D-02 BMatP= 1.62D-01
 IDIUse=3 WtCom= 9.55D-01 WtEn= 4.54D-02
 Coeff-Com: -0.138D+00 0.301D+00 0.345D+00 0.492D+00
 Coeff-En:   0.000D+00 0.000D+00 0.309D+00 0.691D+00
 Coeff:     -0.132D+00 0.287D+00 0.344D+00 0.502D+00
 Gap=     0.071 Goal=   None    Shift=    0.000
 RMSDP=3.72D-04 MaxDP=2.60D-02 DE=-1.03D-01 OVMax= 2.90D-01

 Cycle   5  Pass 1  IDiag  1:
 RMSU=  2.01D-04    CP:  9.67D-01  1.83D+00  7.14D-01  4.06D-01
 E= -3005.33229772826     Delta-E=       -0.037615626532 Rises=F Damp=F
 DIIS: error= 2.88D-03 at cycle   5 NSaved=   5.
 NSaved= 5 IEnMin= 5 EnMin= -3005.33229772826     IErMin= 5 ErrMin= 2.88D-03
 ErrMax= 2.88D-03  0.00D+00 EMaxC= 1.00D-01 BMatC= 1.43D-02 BMatP= 4.81D-02
 IDIUse=3 WtCom= 9.71D-01 WtEn= 2.88D-02
 Coeff-Com: -0.341D-01 0.777D-01 0.208D+00 0.403D+00 0.345D+00
 Coeff-En:   0.000D+00 0.000D+00 0.000D+00 0.300D+00 0.700D+00
 Coeff:     -0.332D-01 0.755D-01 0.202D+00 0.400D+00 0.355D+00
 Gap=     0.074 Goal=   None    Shift=    0.000
 RMSDP=1.83D-04 MaxDP=2.13D-02 DE=-3.76D-02 OVMax= 1.44D-01

 Cycle   6  Pass 1  IDiag  1:
 RMSU=  6.29D-05    CP:  9.67D-01  1.83D+00  6.79D-01  6.11D-01  2.86D-01
 E= -3005.35191819209     Delta-E=       -0.019620463829 Rises=F Damp=F
 DIIS: error= 6.20D-04 at cycle   6 NSaved=   6.
 NSaved= 6 IEnMin= 6 EnMin= -3005.35191819209     IErMin= 6 ErrMin= 6.20D-04
 ErrMax= 6.20D-04  0.00D+00 EMaxC= 1.00D-01 BMatC= 8.30D-04 BMatP= 1.43D-02
 IDIUse=3 WtCom= 9.94D-01 WtEn= 6.20D-03
 Coeff-Com:  0.662D-03 0.816D-03 0.657D-01 0.158D+00 0.225D+00 0.550D+00
 Coeff-En:   0.000D+00 0.000D+00 0.000D+00 0.000D+00 0.469D-01 0.953D+00
 Coeff:      0.657D-03 0.811D-03 0.653D-01 0.157D+00 0.224D+00 0.552D+00
 Gap=     0.076 Goal=   None    Shift=    0.000
 RMSDP=4.14D-05 MaxDP=4.35D-03 DE=-1.96D-02 OVMax= 2.50D-02

 Cycle   7  Pass 1  IDiag  1:
 RMSU=  2.42D-05    CP:  9.67D-01  1.83D+00  6.86D-01  5.88D-01  4.04D-01
                    CP:  6.72D-01
 E= -3005.35281563046     Delta-E=       -0.000897438373 Rises=F Damp=F
 DIIS: error= 1.97D-04 at cycle   7 NSaved=   7.
 NSaved= 7 IEnMin= 7 EnMin= -3005.35281563046     IErMin= 7 ErrMin= 1.97D-04
 ErrMax= 1.97D-04  0.00D+00 EMaxC= 1.00D-01 BMatC= 1.06D-04 BMatP= 8.30D-04
 IDIUse=3 WtCom= 9.98D-01 WtEn= 1.97D-03
 Coeff-Com:  0.392D-02-0.764D-02 0.125D-01 0.393D-01 0.851D-01 0.331D+00
 Coeff-Com:  0.536D+00
 Coeff-En:   0.000D+00 0.000D+00 0.000D+00 0.000D+00 0.000D+00 0.886D-01
 Coeff-En:   0.911D+00
 Coeff:      0.392D-02-0.762D-02 0.124D-01 0.393D-01 0.849D-01 0.331D+00
 Coeff:      0.536D+00
 Gap=     0.077 Goal=   None    Shift=    0.000
 RMSDP=1.46D-05 MaxDP=1.14D-03 DE=-8.97D-04 OVMax= 5.39D-03

 Cycle   8  Pass 1  IDiag  1:
 RMSU=  9.23D-06    CP:  9.67D-01  1.83D+00  6.87D-01  5.93D-01  3.91D-01
                    CP:  7.44D-01  5.95D-01
 E= -3005.35291029512     Delta-E=       -0.000094664654 Rises=F Damp=F
 DIIS: error= 9.45D-05 at cycle   8 NSaved=   8.
 NSaved= 8 IEnMin= 8 EnMin= -3005.35291029512     IErMin= 8 ErrMin= 9.45D-05
 ErrMax= 9.45D-05  0.00D+00 EMaxC= 1.00D-01 BMatC= 1.85D-05 BMatP= 1.06D-04
 IDIUse=1 WtCom= 1.00D+00 WtEn= 0.00D+00
 Coeff-Com:  0.197D-02-0.398D-02 0.525D-04 0.448D-02 0.254D-01 0.139D+00
 Coeff-Com:  0.349D+00 0.484D+00
 Coeff:      0.197D-02-0.398D-02 0.525D-04 0.448D-02 0.254D-01 0.139D+00
 Coeff:      0.349D+00 0.484D+00
 Gap=     0.077 Goal=   None    Shift=    0.000
 RMSDP=5.73D-06 MaxDP=5.17D-04 DE=-9.47D-05 OVMax= 1.58D-03

 Cycle   9  Pass 1  IDiag  1:
 RMSU=  2.97D-06    CP:  9.67D-01  1.83D+00  6.87D-01  5.93D-01  3.95D-01
                    CP:  7.43D-01  6.86D-01  5.38D-01
 E= -3005.35293031050     Delta-E=       -0.000020015377 Rises=F Damp=F
 DIIS: error= 3.25D-05 at cycle   9 NSaved=   9.
 NSaved= 9 IEnMin= 9 EnMin= -3005.35293031050     IErMin= 9 ErrMin= 3.25D-05
 ErrMax= 3.25D-05  0.00D+00 EMaxC= 1.00D-01 BMatC= 1.48D-06 BMatP= 1.85D-05
 IDIUse=1 WtCom= 1.00D+00 WtEn= 0.00D+00
 Coeff-Com:  0.612D-03-0.119D-02-0.129D-02-0.243D-02 0.435D-02 0.390D-01
 Coeff-Com:  0.141D+00 0.278D+00 0.542D+00
 Coeff:      0.612D-03-0.119D-02-0.129D-02-0.243D-02 0.435D-02 0.390D-01
 Coeff:      0.141D+00 0.278D+00 0.542D+00
 Gap=     0.077 Goal=   None    Shift=    0.000
 RMSDP=1.41D-06 MaxDP=2.41D-04 DE=-2.00D-05 OVMax= 3.76D-04

 Cycle  10  Pass 1  IDiag  1:
 RMSU=  9.98D-07    CP:  9.67D-01  1.83D+00  6.87D-01  5.93D-01  3.95D-01
                    CP:  7.51D-01  6.81D-01  5.96D-01  8.01D-01
 E= -3005.35293160865     Delta-E=       -0.000001298153 Rises=F Damp=F
 DIIS: error= 1.41D-05 at cycle  10 NSaved=  10.
 NSaved=10 IEnMin=10 EnMin= -3005.35293160865     IErMin=10 ErrMin= 1.41D-05
 ErrMax= 1.41D-05  0.00D+00 EMaxC= 1.00D-01 BMatC= 1.70D-07 BMatP= 1.48D-06
 IDIUse=1 WtCom= 1.00D+00 WtEn= 0.00D+00
 Coeff-Com:  0.623D-04-0.745D-04-0.715D-03-0.224D-02-0.143D-02 0.137D-03
 Coeff-Com:  0.284D-01 0.879D-01 0.297D+00 0.591D+00
 Coeff:      0.623D-04-0.745D-04-0.715D-03-0.224D-02-0.143D-02 0.137D-03
 Coeff:      0.284D-01 0.879D-01 0.297D+00 0.591D+00
 Gap=     0.077 Goal=   None    Shift=    0.000
 RMSDP=5.06D-07 MaxDP=5.82D-05 DE=-1.30D-06 OVMax= 1.61D-04

 Cycle  11  Pass 1  IDiag  1:
 RMSU=  3.59D-07    CP:  9.67D-01  1.83D+00  6.87D-01  5.93D-01  3.95D-01
                    CP:  7.51D-01  6.89D-01  6.08D-01  8.57D-01  7.74D-01
 E= -3005.35293175000     Delta-E=       -0.000000141350 Rises=F Damp=F
 DIIS: error= 4.41D-06 at cycle  11 NSaved=  11.
 NSaved=11 IEnMin=11 EnMin= -3005.35293175000     IErMin=11 ErrMin= 4.41D-06
 ErrMax= 4.41D-06  0.00D+00 EMaxC= 1.00D-01 BMatC= 2.65D-08 BMatP= 1.70D-07
 IDIUse=1 WtCom= 1.00D+00 WtEn= 0.00D+00
 Coeff-Com:  0.839D-05 0.198D-04-0.281D-03-0.107D-02-0.104D-02-0.338D-02
 Coeff-Com:  0.483D-02 0.267D-01 0.117D+00 0.343D+00 0.515D+00
 Coeff:      0.839D-05 0.198D-04-0.281D-03-0.107D-02-0.104D-02-0.338D-02
 Coeff:      0.483D-02 0.267D-01 0.117D+00 0.343D+00 0.515D+00
 Gap=     0.077 Goal=   None    Shift=    0.000
 RMSDP=2.45D-07 MaxDP=5.10D-05 DE=-1.41D-07 OVMax= 9.69D-05

 Cycle  12  Pass 1  IDiag  1:
 RMSU=  1.74D-07    CP:  9.67D-01  1.83D+00  6.87D-01  5.93D-01  3.95D-01
                    CP:  7.51D-01  6.90D-01  6.11D-01  8.63D-01  8.61D-01
                    CP:  7.04D-01
 E= -3005.35293177313     Delta-E=       -0.000000023132 Rises=F Damp=F
 DIIS: error= 1.50D-06 at cycle  12 NSaved=  12.
 NSaved=12 IEnMin=12 EnMin= -3005.35293177313     IErMin=12 ErrMin= 1.50D-06
 ErrMax= 1.50D-06  0.00D+00 EMaxC= 1.00D-01 BMatC= 5.57D-09 BMatP= 2.65D-08
 IDIUse=1 WtCom= 1.00D+00 WtEn= 0.00D+00
 Coeff-Com:  0.193D-05 0.149D-04-0.481D-04-0.292D-03-0.383D-03-0.247D-02
 Coeff-Com: -0.223D-02 0.422D-03 0.152D-01 0.105D+00 0.336D+00 0.550D+00
 Coeff:      0.193D-05 0.149D-04-0.481D-04-0.292D-03-0.383D-03-0.247D-02
 Coeff:     -0.223D-02 0.422D-03 0.152D-01 0.105D+00 0.336D+00 0.550D+00
 Gap=     0.077 Goal=   None    Shift=    0.000
 RMSDP=1.12D-07 MaxDP=7.14D-06 DE=-2.31D-08 OVMax= 6.03D-05

 Cycle  13  Pass 1  IDiag  1:
 RMSU=  6.74D-08    CP:  9.67D-01  1.83D+00  6.87D-01  5.92D-01  3.95D-01
                    CP:  7.51D-01  6.90D-01  6.13D-01  8.73D-01  8.65D-01
                    CP:  8.21D-01  6.06D-01
 E= -3005.35293177823     Delta-E=       -0.000000005097 Rises=F Damp=F
 DIIS: error= 9.36D-07 at cycle  13 NSaved=  13.
 NSaved=13 IEnMin=13 EnMin= -3005.35293177823     IErMin=13 ErrMin= 9.36D-07
 ErrMax= 9.36D-07  0.00D+00 EMaxC= 1.00D-01 BMatC= 1.24D-09 BMatP= 5.57D-09
 IDIUse=1 WtCom= 1.00D+00 WtEn= 0.00D+00
 Coeff-Com:  0.176D-05 0.408D-05 0.214D-04-0.967D-05-0.722D-04-0.131D-02
 Coeff-Com: -0.291D-02-0.573D-02-0.144D-01 0.626D-02 0.140D+00 0.382D+00
 Coeff-Com:  0.496D+00
 Coeff:      0.176D-05 0.408D-05 0.214D-04-0.967D-05-0.722D-04-0.131D-02
 Coeff:     -0.291D-02-0.573D-02-0.144D-01 0.626D-02 0.140D+00 0.382D+00
 Coeff:      0.496D+00
 Gap=     0.077 Goal=   None    Shift=    0.000
 RMSDP=5.30D-08 MaxDP=5.97D-06 DE=-5.10D-09 OVMax= 3.09D-05

 Cycle  14  Pass 1  IDiag  1:
 RMSU=  2.90D-08    CP:  9.67D-01  1.83D+00  6.87D-01  5.92D-01  3.95D-01
                    CP:  7.51D-01  6.91D-01  6.13D-01  8.75D-01  8.80D-01
                    CP:  8.15D-01  7.65D-01  5.78D-01
 E= -3005.35293177956     Delta-E=       -0.000000001330 Rises=F Damp=F
 DIIS: error= 2.72D-07 at cycle  14 NSaved=  14.
 NSaved=14 IEnMin=14 EnMin= -3005.35293177956     IErMin=14 ErrMin= 2.72D-07
 ErrMax= 2.72D-07  0.00D+00 EMaxC= 1.00D-01 BMatC= 1.98D-10 BMatP= 1.24D-09
 IDIUse=1 WtCom= 1.00D+00 WtEn= 0.00D+00
 Coeff-Com:  0.224D-05-0.143D-05 0.224D-04 0.328D-04 0.192D-04-0.536D-03
 Coeff-Com: -0.159D-02-0.386D-02-0.119D-01-0.106D-01 0.458D-01 0.178D+00
 Coeff-Com:  0.339D+00 0.466D+00
 Coeff:      0.224D-05-0.143D-05 0.224D-04 0.328D-04 0.192D-04-0.536D-03
 Coeff:     -0.159D-02-0.386D-02-0.119D-01-0.106D-01 0.458D-01 0.178D+00
 Coeff:      0.339D+00 0.466D+00
 Gap=     0.077 Goal=   None    Shift=    0.000
 RMSDP=1.84D-08 MaxDP=1.52D-06 DE=-1.33D-09 OVMax= 1.01D-05

 Cycle  15  Pass 1  IDiag  1:
 RMSU=  1.11D-08    CP:  9.67D-01  1.83D+00  6.87D-01  5.92D-01  3.95D-01
                    CP:  7.51D-01  6.91D-01  6.13D-01  8.75D-01  8.81D-01
                    CP:  8.31D-01  7.50D-01  7.00D-01  7.12D-01
 E= -3005.35293177981     Delta-E=       -0.000000000256 Rises=F Damp=F
 DIIS: error= 1.45D-07 at cycle  15 NSaved=  15.
 NSaved=15 IEnMin=15 EnMin= -3005.35293177981     IErMin=15 ErrMin= 1.45D-07
 ErrMax= 1.45D-07  0.00D+00 EMaxC= 1.00D-01 BMatC= 2.38D-11 BMatP= 1.98D-10
 IDIUse=1 WtCom= 1.00D+00 WtEn= 0.00D+00
 Coeff-Com:  0.173D-05-0.247D-05 0.959D-05 0.158D-04 0.329D-04-0.886D-04
 Coeff-Com: -0.332D-03-0.106D-02-0.388D-02-0.557D-02 0.441D-02 0.392D-01
 Coeff-Com:  0.113D+00 0.269D+00 0.585D+00
 Coeff:      0.173D-05-0.247D-05 0.959D-05 0.158D-04 0.329D-04-0.886D-04
 Coeff:     -0.332D-03-0.106D-02-0.388D-02-0.557D-02 0.441D-02 0.392D-01
 Coeff:      0.113D+00 0.269D+00 0.585D+00
 Gap=     0.077 Goal=   None    Shift=    0.000
 RMSDP=5.73D-09 MaxDP=4.44D-07 DE=-2.56D-10 OVMax= 2.39D-06

 SCF Done:  E(RPBE1PBE) =  -3005.35293178     A.U. after   15 cycles
            NFock= 15  Conv=0.57D-08     -V/T= 2.0101
 KE= 2.975438708999D+03 PE=-2.649450567224D+04 EE= 1.076212740311D+04
 Leave Link  502 at Fri Apr 29 08:17:03 2022, MaxMem= 10066329600 cpu:            6035.8 elap:             253.1
 (Enter /sw/apps/gaussian-16.0/g16/l801.exe)
 DoSCS=F DFT=T ScalE2(SS,OS)=  1.000000  1.000000
 ExpMin= 3.36D-02 ExpMax= 4.95D+03 ExpMxC= 7.45D+02 IAcc=3 IRadAn=         5 AccDes= 0.00D+00
 HarFok:  IExCor=  205 AccDes= 0.00D+00 IRadAn=         5 IDoV=-2 UseB2=F ITyADJ=14
 ICtDFT= 12500011 ScaDFX=  1.000000  1.000000  1.000000  1.000000
 GSVD:  LWork=       -5460 too small for GESVD, short by       25550 words or       25550 for optimal perf.
 Largest valence mixing into a core orbital is  1.31D-04
 Largest core mixing into a valence orbital is  5.73D-05
 Range of M.O.s used for correlation:    71  1298
 NBasis=  1298 NAE=   246 NBE=   246 NFC=    70 NFV=     0
 NROrb=   1228 NOA=   176 NOB=   176 NVA=  1052 NVB=  1052

 **** Warning!!: The smallest alpha delta epsilon is  0.76820474D-01

 Leave Link  801 at Fri Apr 29 08:17:03 2022, MaxMem= 10066329600 cpu:               6.7 elap:               0.3
 (Enter /sw/apps/gaussian-16.0/g16/l914.exe)
 RHF ground state
 Two-electron integrals replicated using symmetry.
 MDV= 10066329600 DFT=T DoStab=F Mixed=T DoRPA=T DoScal=F NonHer=T
 Making orbital integer symmetry assigments:
 Orbital symmetries:
       Occupied  (A) (A) (A) (A) (A) (A) (A) (A) (A) (A) (A) (A)
                 (A) (A) (A) (A) (A) (A) (A) (A) (A) (A) (A) (A)
                 (A) (A) (A) (A) (A) (A) (A) (A) (A) (A) (A) (A)
                 (A) (A) (A) (A) (A) (A) (A) (A) (A) (A) (A) (A)
                 (A) (A) (A) (A) (A) (A) (A) (A) (A) (A) (A) (A)
                 (A) (A) (A) (A) (A) (A) (A) (A) (A) (A) (A) (A)
                 (A) (A) (A) (A) (A) (A) (A) (A) (A) (A) (A) (A)
                 (A) (A) (A) (A) (A) (A) (A) (A) (A) (A) (A) (A)
                 (A) (A) (A) (A) (A) (A) (A) (A) (A) (A) (A) (A)
                 (A) (A) (A) (A) (A) (A) (A) (A) (A) (A) (A) (A)
                 (A) (A) (A) (A) (A) (A) (A) (A) (A) (A) (A) (A)
                 (A) (A) (A) (A) (A) (A) (A) (A) (A) (A) (A) (A)
                 (A) (A) (A) (A) (A) (A) (A) (A) (A) (A) (A) (A)
                 (A) (A) (A) (A) (A) (A) (A) (A) (A) (A) (A) (A)
                 (A) (A) (A) (A) (A) (A) (A) (A) (A) (A) (A) (A)
                 (A) (A) (A) (A) (A) (A) (A) (A) (A) (A) (A) (A)
                 (A) (A) (A) (A) (A) (A) (A) (A) (A) (A) (A) (A)
                 (A) (A) (A) (A) (A) (A) (A) (A) (A) (A) (A) (A)
                 (A) (A) (A) (A) (A) (A) (A) (A) (A) (A) (A) (A)
                 (A) (A) (A) (A) (A) (A) (A) (A) (A) (A) (A) (A)
                 (A) (A) (A) (A) (A) (A)
       Virtual   (A) (A) (A) (A) (A) (A) (A) (A) (A) (A) (A) (A)
                 (A) (A) (A) (A) (A) (A) (A) (A) (A) (A) (A) (A)
                 (A) (A) (A) (A) (A) (A) (A) (A) (A) (A) (A) (A)
                 (A) (A) (A) (A) (A) (A) (A) (A) (A) (A) (A) (A)
                 (A) (A) (A) (A) (A) (A) (A) (A) (A) (A) (A) (A)
                 (A) (A) (A) (A) (A) (A) (A) (A) (A) (A) (A) (A)
                 (A) (A) (A) (A) (A) (A) (A) (A) (A) (A) (A) (A)
                 (A) (A) (A) (A) (A) (A) (A) (A) (A) (A) (A) (A)
                 (A) (A) (A) (A) (A) (A) (A) (A) (A) (A) (A) (A)
                 (A) (A) (A) (A) (A) (A) (A) (A) (A) (A) (A) (A)
                 (A) (A) (A) (A) (A) (A) (A) (A) (A) (A) (A) (A)
                 (A) (A) (A) (A) (A) (A) (A) (A) (A) (A) (A) (A)
                 (A) (A) (A) (A) (A) (A) (A) (A) (A) (A) (A) (A)
                 (A) (A) (A) (A) (A) (A) (A) (A) (A) (A) (A) (A)
                 (A) (A) (A) (A) (A) (A) (A) (A) (A) (A) (A) (A)
                 (A) (A) (A) (A) (A) (A) (A) (A) (A) (A) (A) (A)
                 (A) (A) (A) (A) (A) (A) (A) (A) (A) (A) (A) (A)
                 (A) (A) (A) (A) (A) (A) (A) (A) (A) (A) (A) (A)
                 (A) (A) (A) (A) (A) (A) (A) (A) (A) (A) (A) (A)
                 (A) (A) (A) (A) (A) (A) (A) (A) (A) (A) (A) (A)
                 (A) (A) (A) (A) (A) (A) (A) (A) (A) (A) (A) (A)
                 (A) (A) (A) (A) (A) (A) (A) (A) (A) (A) (A) (A)
                 (A) (A) (A) (A) (A) (A) (A) (A) (A) (A) (A) (A)
                 (A) (A) (A) (A) (A) (A) (A) (A) (A) (A) (A) (A)
                 (A) (A) (A) (A) (A) (A) (A) (A) (A) (A) (A) (A)
                 (A) (A) (A) (A) (A) (A) (A) (A) (A) (A) (A) (A)
                 (A) (A) (A) (A) (A) (A) (A) (A) (A) (A) (A) (A)
                 (A) (A) (A) (A) (A) (A) (A) (A) (A) (A) (A) (A)
                 (A) (A) (A) (A) (A) (A) (A) (A) (A) (A) (A) (A)
                 (A) (A) (A) (A) (A) (A) (A) (A) (A) (A) (A) (A)
                 (A) (A) (A) (A) (A) (A) (A) (A) (A) (A) (A) (A)
                 (A) (A) (A) (A) (A) (A) (A) (A) (A) (A) (A) (A)
                 (A) (A) (A) (A) (A) (A) (A) (A) (A) (A) (A) (A)
                 (A) (A) (A) (A) (A) (A) (A) (A) (A) (A) (A) (A)
                 (A) (A) (A) (A) (A) (A) (A) (A) (A) (A) (A) (A)
                 (A) (A) (A) (A) (A) (A) (A) (A) (A) (A) (A) (A)
                 (A) (A) (A) (A) (A) (A) (A) (A) (A) (A) (A) (A)
                 (A) (A) (A) (A) (A) (A) (A) (A) (A) (A) (A) (A)
                 (A) (A) (A) (A) (A) (A) (A) (A) (A) (A) (A) (A)
                 (A) (A) (A) (A) (A) (A) (A) (A) (A) (A) (A) (A)
                 (A) (A) (A) (A) (A) (A) (A) (A) (A) (A) (A) (A)
                 (A) (A) (A) (A) (A) (A) (A) (A) (A) (A) (A) (A)
                 (A) (A) (A) (A) (A) (A) (A) (A) (A) (A) (A) (A)
                 (A) (A) (A) (A) (A) (A) (A) (A) (A) (A) (A) (A)
                 (A) (A) (A) (A) (A) (A) (A) (A) (A) (A) (A) (A)
                 (A) (A) (A) (A) (A) (A) (A) (A) (A) (A) (A) (A)
                 (A) (A) (A) (A) (A) (A) (A) (A) (A) (A) (A) (A)
                 (A) (A) (A) (A) (A) (A) (A) (A) (A) (A) (A) (A)
                 (A) (A) (A) (A) (A) (A) (A) (A) (A) (A) (A) (A)
                 (A) (A) (A) (A) (A) (A) (A) (A) (A) (A) (A) (A)
                 (A) (A) (A) (A) (A) (A) (A) (A) (A) (A) (A) (A)
                 (A) (A) (A) (A) (A) (A) (A) (A) (A) (A) (A) (A)
                 (A) (A) (A) (A) (A) (A) (A) (A) (A) (A) (A) (A)
                 (A) (A) (A) (A) (A) (A) (A) (A) (A) (A) (A) (A)
                 (A) (A) (A) (A) (A) (A) (A) (A) (A) (A) (A) (A)
                 (A) (A) (A) (A) (A) (A) (A) (A) (A) (A) (A) (A)
                 (A) (A) (A) (A) (A) (A) (A) (A) (A) (A) (A) (A)
                 (A) (A) (A) (A) (A) (A) (A) (A) (A) (A) (A) (A)
                 (A) (A) (A) (A) (A) (A) (A) (A) (A) (A) (A) (A)
                 (A) (A) (A) (A) (A) (A) (A) (A) (A) (A) (A) (A)
                 (A) (A) (A) (A) (A) (A) (A) (A) (A) (A) (A) (A)
                 (A) (A) (A) (A) (A) (A) (A) (A) (A) (A) (A) (A)
                 (A) (A) (A) (A) (A) (A) (A) (A) (A) (A) (A) (A)
                 (A) (A) (A) (A) (A) (A) (A) (A) (A) (A) (A) (A)
                 (A) (A) (A) (A) (A) (A) (A) (A) (A) (A) (A) (A)
                 (A) (A) (A) (A) (A) (A) (A) (A) (A) (A) (A) (A)
                 (A) (A) (A) (A) (A) (A) (A) (A) (A) (A) (A) (A)
                 (A) (A) (A) (A) (A) (A) (A) (A) (A) (A) (A) (A)
                 (A) (A) (A) (A) (A) (A) (A) (A) (A) (A) (A) (A)
                 (A) (A) (A) (A) (A) (A) (A) (A) (A) (A) (A) (A)
                 (A) (A) (A) (A) (A) (A) (A) (A) (A) (A) (A) (A)
                 (A) (A) (A) (A) (A) (A) (A) (A) (A) (A) (A) (A)
                 (A) (A) (A) (A) (A) (A) (A) (A) (A) (A) (A) (A)
                 (A) (A) (A) (A) (A) (A) (A) (A) (A) (A) (A) (A)
                 (A) (A) (A) (A) (A) (A) (A) (A) (A) (A) (A) (A)
                 (A) (A) (A) (A) (A) (A) (A) (A) (A) (A) (A) (A)
                 (A) (A) (A) (A) (A) (A) (A) (A) (A) (A) (A) (A)
                 (A) (A) (A) (A) (A) (A) (A) (A) (A) (A) (A) (A)
                 (A) (A) (A) (A) (A) (A) (A) (A) (A) (A) (A) (A)
                 (A) (A) (A) (A) (A) (A) (A) (A) (A) (A) (A) (A)
                 (A) (A) (A) (A) (A) (A) (A) (A) (A) (A) (A) (A)
                 (A) (A) (A) (A) (A) (A) (A) (A) (A) (A) (A) (A)
                 (A) (A) (A) (A) (A) (A) (A) (A) (A) (A) (A) (A)
                 (A) (A) (A) (A) (A) (A) (A) (A) (A) (A) (A) (A)
                 (A) (A) (A) (A) (A) (A) (A) (A) (A) (A) (A) (A)
                 (A) (A) (A) (A) (A) (A) (A) (A) (A) (A) (A) (A)
                 (A) (A) (A) (A) (A) (A) (A) (A) (A) (A) (A) (A)
                 (A) (A) (A) (A) (A) (A) (A) (A)
    20 initial guesses have been made.
 Convergence on wavefunction:    0.001000000000000
 Davidson Disk Diagonalization:  ConvIn= 1.00D-03 SkipCon=T Conv= 1.00D-03.
 Max sub-space:  2000 roots to seek:    20 dimension of matrix:       370304
 Iteration     1 Dimension    20 NMult     0 NNew     20
 CISAX will form    20 AO SS matrices at one time.
 NMat=    20 NSing=    20 JSym2X= 0.
 FoFJK:  IHMeth= 1 ICntrl=       0 DoSepK=F KAlg= 0 I1Cent=           0 FoldK=F
 IRaf= 530000000 NMat=      40 IRICut=       1 DoRegI=T DoRafI=F ISym2E= 0 IDoP0=3 IntGTp=3.
 FoFCou: FMM=T IPFlag=           0 FMFlag=      100000 FMFlg1=        2001
         NFxFlg=           0 DoJE=F BraDBF=F KetDBF=F FulRan=T
         wScrn=  0.000000 ICntrl=         0 IOpCl=  0 I1Cent=           0 NGrid=           0
         NMat0=   40 NMatS0=     20 NMatT0=    0 NMatD0=   40 NMtDS0=    0 NMtDT0=    0
 Symmetry not used in FoFCou.
 FMM levels:  10  Number of levels for PrismC:   9
 New state      3 was old state      5
 New state      4 was old state      7
 New state      5 was old state      6
 Excitation Energies [eV] at current iteration:
 Root      1 :     2.275455649089105
 Root      2 :     2.592036311753547
 Root      3 :     3.058407180437212
 Root      4 :     3.277267641835830
 Root      5 :     3.405234142399031
 Root      6 :     3.439543994472208
 Root      7 :     3.514155002721973
 Root      8 :     3.788712785653293
 Root      9 :     3.988538382465694
 Root     10 :     4.014920666470979
 Root     11 :     4.071539025943054
 Root     12 :     4.119347181528491
 Root     13 :     4.334287570750680
 Root     14 :     4.404095177658040
 Root     15 :     4.430147436153287
 Root     16 :     4.465324960582748
 Root     17 :     4.611443161953450
 Root     18 :     4.672704817043659
 Root     19 :     4.804361672659216
 Root     20 :     4.830704778382352
 Iteration     2 Dimension    30 NMult    20 NNew     10
 CISAX will form    10 AO SS matrices at one time.
 NMat=    10 NSing=    10 JSym2X= 0.
 Root      1 not converged, maximum delta is    0.057707281372904
 Root      2 not converged, maximum delta is    0.052707465862350
 Root      3 not converged, maximum delta is    0.107412922988447
 Root      4 not converged, maximum delta is    0.375336187315826
 Root      5 not converged, maximum delta is    0.427302993030829
 Excitation Energies [eV] at current iteration:
 Root      1 :     1.926888568403155   Change is   -0.348567080685950
 Root      2 :     2.323015099380161   Change is   -0.269021212373386
 Root      3 :     2.942878362561504   Change is   -0.115528817875708
 Root      4 :     3.138424409620246   Change is   -0.138843232215583
 Root      5 :     3.172362778392551   Change is   -0.232871364006480
 Iteration     3 Dimension    40 NMult    30 NNew     10
 CISAX will form    10 AO SS matrices at one time.
 NMat=    10 NSing=    10 JSym2X= 0.
 Root      1 not converged, maximum delta is    0.024488365828678
 Root      2 not converged, maximum delta is    0.022393591643921
 Root      3 not converged, maximum delta is    0.016740959923307
 Root      4 not converged, maximum delta is    0.015976482336405
 Root      5 not converged, maximum delta is    0.019972947701176
 Excitation Energies [eV] at current iteration:
 Root      1 :     1.895216192316300   Change is   -0.031672376086856
 Root      2 :     2.305821914543710   Change is   -0.017193184836451
 Root      3 :     2.932235340891632   Change is   -0.010643021669872
 Root      4 :     3.125467063351640   Change is   -0.012957346268606
 Root      5 :     3.156152320688666   Change is   -0.016210457703885
 Iteration     4 Dimension    50 NMult    40 NNew     10
 CISAX will form    10 AO SS matrices at one time.
 NMat=    10 NSing=    10 JSym2X= 0.
 Root      1 not converged, maximum delta is    0.002969109242184
 Root      2 not converged, maximum delta is    0.008053865272276
 Root      3 not converged, maximum delta is    0.004166437195768
 Root      4 not converged, maximum delta is    0.005029468774729
 Root      5 not converged, maximum delta is    0.010547560953244
 Excitation Energies [eV] at current iteration:
 Root      1 :     1.891831831843285   Change is   -0.003384360473014
 Root      2 :     2.303010838466637   Change is   -0.002811076077073
 Root      3 :     2.931165081615655   Change is   -0.001070259275977
 Root      4 :     3.123639859581448   Change is   -0.001827203770193
 Root      5 :     3.153885990723373   Change is   -0.002266329965292
 Iteration     5 Dimension    60 NMult    50 NNew     10
 CISAX will form    10 AO SS matrices at one time.
 NMat=    10 NSing=    10 JSym2X= 0.
 Root      1 not converged, maximum delta is    0.001074817132189
 Root      2 has converged.
 Root      3 has converged.
 Root      4 not converged, maximum delta is    0.003534118411764
 Root      5 not converged, maximum delta is    0.003850018942338
 Excitation Energies [eV] at current iteration:
 Root      1 :     1.891410654595935   Change is   -0.000421177247350
 Root      2 :     2.302766409593173   Change is   -0.000244428873464
 Root      3 :     2.931032933995893   Change is   -0.000132147619762
 Root      4 :     3.123388136764009   Change is   -0.000251722817439
 Root      5 :     3.153561486747895   Change is   -0.000324503975478
 Iteration     6 Dimension    66 NMult    60 NNew      6
 CISAX will form     6 AO SS matrices at one time.
 NMat=     6 NSing=     6 JSym2X= 0.
 Root      1 has converged.
 Root      2 has converged.
 Root      3 has converged.
 Root      4 has converged.
 Root      5 not converged, maximum delta is    0.001466691657253
 Excitation Energies [eV] at current iteration:
 Root      1 :     1.891372512291274   Change is   -0.000038142304661
 Root      2 :     2.302762495874433   Change is   -0.000003913718740
 Root      3 :     2.931032396170784   Change is   -0.000000537825109
 Root      4 :     3.123365002927073   Change is   -0.000023133836936
 Root      5 :     3.153519436706356   Change is   -0.000042050041540
 Iteration     7 Dimension    68 NMult    66 NNew      2
 CISAX will form     2 AO SS matrices at one time.
 NMat=     2 NSing=     2 JSym2X= 0.
 Root      1 has converged.
 Root      2 has converged.
 Root      3 has converged.
 Root      4 has converged.
 Root      5 has converged.
 Excitation Energies [eV] at current iteration:
 Root      1 :     1.891372507207668   Change is   -0.000000005083605
 Root      2 :     2.302761664590539   Change is   -0.000000831283894
 Root      3 :     2.931032310068659   Change is   -0.000000086102125
 Root      4 :     3.123364970616188   Change is   -0.000000032310885
 Root      5 :     3.153513576567134   Change is   -0.000005860139222
 Convergence achieved on expansion vectors.
 ***********************************************************************
 Excited states from <AA,BB:AA,BB> singles matrix:
 ***********************************************************************
 
 1PDM for each excited state written to RWF  633
 Ground to excited state transition densities written to RWF  633
 Ground to excited state transition electric dipole moments (Au):
       state          X           Y           Z        Dip. S.      Osc.
         1         1.1257     -2.3289      1.1432      7.9977      0.3706
         2        -0.7490     -0.8994     -0.5949      1.7238      0.0973
         3        -0.0003      0.0376     -0.0546      0.0044      0.0003
         4         0.0966      0.0769      0.0916      0.0236      0.0018
         5        -0.0571      0.0108     -0.0350      0.0046      0.0004
 Ground to excited state transition velocity dipole moments (Au):
       state          X           Y           Z        Dip. S.      Osc.
         1        -0.0756      0.1575     -0.0773      0.0365      0.3501
         2         0.0590      0.0729      0.0474      0.0110      0.0870
         3         0.0025     -0.0040      0.0043      0.0000      0.0003
         4        -0.0113     -0.0086     -0.0107      0.0003      0.0018
         5         0.0053     -0.0007      0.0010      0.0000      0.0002
 Ground to excited state transition magnetic dipole moments (Au):
       state          X           Y           Z
         1        -0.2624      0.7349      1.6757
         2         0.2987     -0.5029      0.2937
         3        -0.2616      0.4115      0.0320
         4         0.3451      0.3023     -0.7579
         5         0.3590     -0.1491     -0.0751
 Ground to excited state transition velocity quadrupole moments (Au):
       state          XX          YY          ZZ          XY          XZ          YZ
         1        -1.1374      0.4631      0.0181      1.0946     -0.5987     -0.2194
         2         0.8628      0.1128      0.0143      0.6013      0.4504     -0.0328
         3         0.0981     -0.0921      0.0037     -0.0602      0.0557     -0.0427
         4        -0.2880      0.3237     -0.1007      0.0035     -0.1849      0.0619
         5         0.0309      0.0489     -0.0652      0.1138     -0.0265      0.1274
 <0|del|b> * <b|rxdel|0> + <0|del|b> * <b|delr+rdel|0>
 Rotatory Strengths (R) in cgs (10**-40 erg-esu-cm/Gauss)
       state          XX          YY          ZZ    R(velocity)    E-M Angle
         1       -20.8477    -43.0948    125.6082     20.5553       89.02
         2      -113.2121      4.5747     65.6631    -14.3248       94.29
         3        -5.0971     -1.2306     -7.9872     -4.7717      134.37
         4        11.9557     11.0125    -12.9769      3.3304       84.10
         5         0.3783      7.3497      4.1450      3.9576       26.17
 1/2[<0|r|b>*<b|rxdel|0> + (<0|rxdel|b>*<b|r|0>)*]
 Rotatory Strengths (R) in cgs (10**-40 erg-esu-cm/Gauss)
       state          XX          YY          ZZ     R(length)
         1       208.8537   1210.2382  -1354.6341     21.4859
         2       158.2274   -319.8762    123.5385    -12.7034
         3        -0.0628    -10.9529      1.2360     -3.2599
         4       -23.5848    -16.4521     49.0883      3.0171
         5        14.4857      1.1410     -1.8580      4.5896
  1/2[<0|del|b>*<b|r|0> + (<0|r|b>*<b|del|0>)*] (Au)
       state          X           Y           Z        Dip. S.   Osc.(frdel)
         1        -0.0852     -0.3668     -0.0884      0.5403      0.3602
         2        -0.0442     -0.0656     -0.0282      0.1379      0.0920
         3        -0.0000     -0.0002     -0.0002      0.0004      0.0003
         4        -0.0011     -0.0007     -0.0010      0.0027      0.0018
         5        -0.0003     -0.0000     -0.0000      0.0003      0.0002

 Excitation energies and oscillator strengths:
 
 Excited State   1:      Singlet-A      1.8914 eV  655.52 nm  f=0.3706  <S**2>=0.000
     245 -> 248       -0.17442
     246 -> 247        0.69228
     246 <- 247       -0.10966
 This state for optimization and/or second-order correction.
 Total Energy, E(TD-HF/TD-DFT) =  -3005.28342512    
 Copying the excited state density for this state as the 1-particle RhoCI density.
 
 Excited State   2:      Singlet-A      2.3028 eV  538.42 nm  f=0.0973  <S**2>=0.000
     245 -> 247        0.63918
     246 -> 248        0.28815
 
 Excited State   3:      Singlet-A      2.9310 eV  423.01 nm  f=0.0003  <S**2>=0.000
     242 -> 247        0.16664
     243 -> 247        0.65220
     243 -> 249       -0.12348
 
 Excited State   4:      Singlet-A      3.1234 eV  396.96 nm  f=0.0018  <S**2>=0.000
     241 -> 247       -0.35350
     242 -> 247        0.57496
     243 -> 247       -0.14275
 
 Excited State   5:      Singlet-A      3.1535 eV  393.16 nm  f=0.0004  <S**2>=0.000
     241 -> 247        0.56504
     242 -> 247        0.34709
     243 -> 247       -0.10211
     246 -> 248       -0.12324
 SavETr:  write IOETrn=   770 NScale= 10 NData=  16 NLR=1 NState=    5 LETran=     100.
 Leave Link  914 at Fri Apr 29 08:30:12 2022, MaxMem= 10066329600 cpu:           18873.9 elap:             788.4
 (Enter /sw/apps/gaussian-16.0/g16/l601.exe)
 Copying SCF densities to generalized density rwf, IOpCl= 0 IROHF=0.
 Hyperfine terms turned off by default for NAtoms > 100.

 **********************************************************************

            Population analysis using the SCF density.

 **********************************************************************

 Orbital symmetries:
       Occupied  (A) (A) (A) (A) (A) (A) (A) (A) (A) (A) (A) (A)
                 (A) (A) (A) (A) (A) (A) (A) (A) (A) (A) (A) (A)
                 (A) (A) (A) (A) (A) (A) (A) (A) (A) (A) (A) (A)
                 (A) (A) (A) (A) (A) (A) (A) (A) (A) (A) (A) (A)
                 (A) (A) (A) (A) (A) (A) (A) (A) (A) (A) (A) (A)
                 (A) (A) (A) (A) (A) (A) (A) (A) (A) (A) (A) (A)
                 (A) (A) (A) (A) (A) (A) (A) (A) (A) (A) (A) (A)
                 (A) (A) (A) (A) (A) (A) (A) (A) (A) (A) (A) (A)
                 (A) (A) (A) (A) (A) (A) (A) (A) (A) (A) (A) (A)
                 (A) (A) (A) (A) (A) (A) (A) (A) (A) (A) (A) (A)
                 (A) (A) (A) (A) (A) (A) (A) (A) (A) (A) (A) (A)
                 (A) (A) (A) (A) (A) (A) (A) (A) (A) (A) (A) (A)
                 (A) (A) (A) (A) (A) (A) (A) (A) (A) (A) (A) (A)
                 (A) (A) (A) (A) (A) (A) (A) (A) (A) (A) (A) (A)
                 (A) (A) (A) (A) (A) (A) (A) (A) (A) (A) (A) (A)
                 (A) (A) (A) (A) (A) (A) (A) (A) (A) (A) (A) (A)
                 (A) (A) (A) (A) (A) (A) (A) (A) (A) (A) (A) (A)
                 (A) (A) (A) (A) (A) (A) (A) (A) (A) (A) (A) (A)
                 (A) (A) (A) (A) (A) (A) (A) (A) (A) (A) (A) (A)
                 (A) (A) (A) (A) (A) (A) (A) (A) (A) (A) (A) (A)
                 (A) (A) (A) (A) (A) (A)
       Virtual   (A) (A) (A) (A) (A) (A) (A) (A) (A) (A) (A) (A)
                 (A) (A) (A) (A) (A) (A) (A) (A) (A) (A) (A) (A)
                 (A) (A) (A) (A) (A) (A) (A) (A) (A) (A) (A) (A)
                 (A) (A) (A) (A) (A) (A) (A) (A) (A) (A) (A) (A)
                 (A) (A) (A) (A) (A) (A) (A) (A) (A) (A) (A) (A)
                 (A) (A) (A) (A) (A) (A) (A) (A) (A) (A) (A) (A)
                 (A) (A) (A) (A) (A) (A) (A) (A) (A) (A) (A) (A)
                 (A) (A) (A) (A) (A) (A) (A) (A) (A) (A) (A) (A)
                 (A) (A) (A) (A) (A) (A) (A) (A) (A) (A) (A) (A)
                 (A) (A) (A) (A) (A) (A) (A) (A) (A) (A) (A) (A)
                 (A) (A) (A) (A) (A) (A) (A) (A) (A) (A) (A) (A)
                 (A) (A) (A) (A) (A) (A) (A) (A) (A) (A) (A) (A)
                 (A) (A) (A) (A) (A) (A) (A) (A) (A) (A) (A) (A)
                 (A) (A) (A) (A) (A) (A) (A) (A) (A) (A) (A) (A)
                 (A) (A) (A) (A) (A) (A) (A) (A) (A) (A) (A) (A)
                 (A) (A) (A) (A) (A) (A) (A) (A) (A) (A) (A) (A)
                 (A) (A) (A) (A) (A) (A) (A) (A) (A) (A) (A) (A)
                 (A) (A) (A) (A) (A) (A) (A) (A) (A) (A) (A) (A)
                 (A) (A) (A) (A) (A) (A) (A) (A) (A) (A) (A) (A)
                 (A) (A) (A) (A) (A) (A) (A) (A) (A) (A) (A) (A)
                 (A) (A) (A) (A) (A) (A) (A) (A) (A) (A) (A) (A)
                 (A) (A) (A) (A) (A) (A) (A) (A) (A) (A) (A) (A)
                 (A) (A) (A) (A) (A) (A) (A) (A) (A) (A) (A) (A)
                 (A) (A) (A) (A) (A) (A) (A) (A) (A) (A) (A) (A)
                 (A) (A) (A) (A) (A) (A) (A) (A) (A) (A) (A) (A)
                 (A) (A) (A) (A) (A) (A) (A) (A) (A) (A) (A) (A)
                 (A) (A) (A) (A) (A) (A) (A) (A) (A) (A) (A) (A)
                 (A) (A) (A) (A) (A) (A) (A) (A) (A) (A) (A) (A)
                 (A) (A) (A) (A) (A) (A) (A) (A) (A) (A) (A) (A)
                 (A) (A) (A) (A) (A) (A) (A) (A) (A) (A) (A) (A)
                 (A) (A) (A) (A) (A) (A) (A) (A) (A) (A) (A) (A)
                 (A) (A) (A) (A) (A) (A) (A) (A) (A) (A) (A) (A)
                 (A) (A) (A) (A) (A) (A) (A) (A) (A) (A) (A) (A)
                 (A) (A) (A) (A) (A) (A) (A) (A) (A) (A) (A) (A)
                 (A) (A) (A) (A) (A) (A) (A) (A) (A) (A) (A) (A)
                 (A) (A) (A) (A) (A) (A) (A) (A) (A) (A) (A) (A)
                 (A) (A) (A) (A) (A) (A) (A) (A) (A) (A) (A) (A)
                 (A) (A) (A) (A) (A) (A) (A) (A) (A) (A) (A) (A)
                 (A) (A) (A) (A) (A) (A) (A) (A) (A) (A) (A) (A)
                 (A) (A) (A) (A) (A) (A) (A) (A) (A) (A) (A) (A)
                 (A) (A) (A) (A) (A) (A) (A) (A) (A) (A) (A) (A)
                 (A) (A) (A) (A) (A) (A) (A) (A) (A) (A) (A) (A)
                 (A) (A) (A) (A) (A) (A) (A) (A) (A) (A) (A) (A)
                 (A) (A) (A) (A) (A) (A) (A) (A) (A) (A) (A) (A)
                 (A) (A) (A) (A) (A) (A) (A) (A) (A) (A) (A) (A)
                 (A) (A) (A) (A) (A) (A) (A) (A) (A) (A) (A) (A)
                 (A) (A) (A) (A) (A) (A) (A) (A) (A) (A) (A) (A)
                 (A) (A) (A) (A) (A) (A) (A) (A) (A) (A) (A) (A)
                 (A) (A) (A) (A) (A) (A) (A) (A) (A) (A) (A) (A)
                 (A) (A) (A) (A) (A) (A) (A) (A) (A) (A) (A) (A)
                 (A) (A) (A) (A) (A) (A) (A) (A) (A) (A) (A) (A)
[...]
 Alpha virt. eigenvalues --    1.21742   1.22897   1.23092   1.23622   1.24350
 Alpha virt. eigenvalues --    1.24726   1.24825   1.25050   1.25443   1.25589
 Alpha virt. eigenvalues --    1.26235   1.26331   1.26912   1.27703   1.28151
 Alpha virt. eigenvalues --    1.29270   1.29661   1.30027   1.30657   1.30826
 Alpha virt. eigenvalues --    1.30848   1.31464   1.31753   1.31819   1.32500
 Alpha virt. eigenvalues --    1.33181   1.33252   1.33476   1.33951   1.34132
 Alpha virt. eigenvalues --    1.34516   1.35538   1.35598   1.35819   1.36265
 Alpha virt. eigenvalues --    1.36692   1.36814   1.37335   1.37542   1.38047
 Alpha virt. eigenvalues --    1.38241   1.38976   1.39196   1.39605   1.39677
 Alpha virt. eigenvalues --    1.39802   1.40018   1.40460   1.41434   1.41716
 Alpha virt. eigenvalues --    1.42182   1.42944   1.43603   1.43666   1.44039
 Alpha virt. eigenvalues --    1.44364   1.44823   1.45743   1.45812   1.46160
 Alpha virt. eigenvalues --    1.47487   1.47825   1.48109   1.48612   1.48693
 Alpha virt. eigenvalues --    1.49149   1.49564   1.50058   1.50202   1.50668
 Alpha virt. eigenvalues --    1.50825   1.50996   1.51548   1.52068   1.52446
 Alpha virt. eigenvalues --    1.52625   1.52850   1.52963   1.53635   1.53818
 Alpha virt. eigenvalues --    1.54051   1.54446   1.54763   1.54765   1.54923
 Alpha virt. eigenvalues --    1.55159   1.55343   1.55475   1.56220   1.56323
 Alpha virt. eigenvalues --    1.56555   1.56839   1.57107   1.57445   1.57462
 Alpha virt. eigenvalues --    1.57769   1.57936   1.58051   1.58673   1.58946
 Alpha virt. eigenvalues --    1.59157   1.60508   1.60718   1.60926   1.61082
 Alpha virt. eigenvalues --    1.61630   1.61750   1.62081   1.62404   1.63287
 Alpha virt. eigenvalues --    1.63536   1.64012   1.64156   1.64716   1.65386
 Alpha virt. eigenvalues --    1.65481   1.66143   1.66431   1.68040   1.68232
 Alpha virt. eigenvalues --    1.68461   1.69362   1.69720   1.69948   1.70101
 Alpha virt. eigenvalues --    1.70393   1.70716   1.70950   1.71292   1.71638
 Alpha virt. eigenvalues --    1.71945   1.72111   1.72240   1.72995   1.73300
 Alpha virt. eigenvalues --    1.73545   1.73826   1.74100   1.74190   1.74280
 Alpha virt. eigenvalues --    1.74558   1.74675   1.74719   1.75108   1.75206
 Alpha virt. eigenvalues --    1.75577   1.75965   1.76394   1.76501   1.76683
 Alpha virt. eigenvalues --    1.76913   1.77103   1.77353   1.77546   1.77787
 Alpha virt. eigenvalues --    1.78126   1.78185   1.78322   1.78634   1.78659
 Alpha virt. eigenvalues --    1.79057   1.79411   1.79725   1.79840   1.80008
 Alpha virt. eigenvalues --    1.80301   1.80400   1.80558   1.80749   1.80772
 Alpha virt. eigenvalues --    1.80916   1.81173   1.81374   1.81557   1.81664
 Alpha virt. eigenvalues --    1.81820   1.81941   1.82221   1.82704   1.82745
 Alpha virt. eigenvalues --    1.82935   1.83174   1.83378   1.83609   1.83673
 Alpha virt. eigenvalues --    1.83690   1.84109   1.84423   1.84513   1.84524
 Alpha virt. eigenvalues --    1.84756   1.85006   1.85064   1.85549   1.85570
 Alpha virt. eigenvalues --    1.86048   1.86269   1.86383   1.86558   1.86749
 Alpha virt. eigenvalues --    1.87199   1.87450   1.87638   1.87957   1.88193
 Alpha virt. eigenvalues --    1.88310   1.88536   1.88673   1.88989   1.89270
 Alpha virt. eigenvalues --    1.89445   1.89675   1.90096   1.90268   1.90488
 Alpha virt. eigenvalues --    1.90758   1.91017   1.91608   1.91873   1.92097
 Alpha virt. eigenvalues --    1.92611   1.92875   1.92996   1.93336   1.93760
 Alpha virt. eigenvalues --    1.94057   1.94394   1.94533   1.94613   1.94756
 Alpha virt. eigenvalues --    1.95019   1.95151   1.95353   1.95727   1.96057
 Alpha virt. eigenvalues --    1.96472   1.96566   1.96733   1.97146   1.97205
 Alpha virt. eigenvalues --    1.97559   1.98076   1.98616   1.98821   1.99438
 Alpha virt. eigenvalues --    1.99497   1.99612   2.00174   2.00542   2.00909
 Alpha virt. eigenvalues --    2.00988   2.01041   2.01199   2.01865   2.01904
 Alpha virt. eigenvalues --    2.02247   2.02366   2.02469   2.02988   2.03452
 Alpha virt. eigenvalues --    2.03665   2.03892   2.04187   2.04809   2.05013
 Alpha virt. eigenvalues --    2.05237   2.05392   2.05870   2.06131   2.06347
 Alpha virt. eigenvalues --    2.06626   2.07089   2.07395   2.07492   2.07675
 Alpha virt. eigenvalues --    2.08103   2.08276   2.08508   2.09307   2.09418
 Alpha virt. eigenvalues --    2.09794   2.09917   2.10430   2.10801   2.11090
 Alpha virt. eigenvalues --    2.11409   2.11728   2.12220   2.12371   2.12492
 Alpha virt. eigenvalues --    2.12903   2.13191   2.13306   2.13571   2.13818
 Alpha virt. eigenvalues --    2.14049   2.14423   2.14500   2.14822   2.15127
 Alpha virt. eigenvalues --    2.15253   2.15608   2.16080   2.16723   2.16899
 Alpha virt. eigenvalues --    2.17195   2.18092   2.18309   2.18378   2.19386
 Alpha virt. eigenvalues --    2.19494   2.19818   2.20269   2.20670   2.20910
 Alpha virt. eigenvalues --    2.21323   2.21966   2.22202   2.22498   2.22671
 Alpha virt. eigenvalues --    2.23185   2.24764   2.24869   2.25173   2.25373
 Alpha virt. eigenvalues --    2.25572   2.25629   2.26552   2.26771   2.27182
 Alpha virt. eigenvalues --    2.27502   2.28278   2.28672   2.28857   2.29251
 Alpha virt. eigenvalues --    2.29568   2.29720   2.30214   2.30315   2.30669
 Alpha virt. eigenvalues --    2.31239   2.31329   2.31665   2.31947   2.32338
 Alpha virt. eigenvalues --    2.32781   2.33362   2.33728   2.34110   2.34971
 Alpha virt. eigenvalues --    2.35198   2.35268   2.35957   2.36441   2.37137
 Alpha virt. eigenvalues --    2.37362   2.37741   2.38391   2.38557   2.38866
 Alpha virt. eigenvalues --    2.39251   2.39465   2.39790   2.40078   2.40187
 Alpha virt. eigenvalues --    2.40521   2.40799   2.40903   2.41658   2.41985
 Alpha virt. eigenvalues --    2.42463   2.42657   2.43527   2.43858   2.44191
 Alpha virt. eigenvalues --    2.44422   2.44679   2.45135   2.45459   2.46243
 Alpha virt. eigenvalues --    2.46446   2.46958   2.47318   2.47761   2.47873
 Alpha virt. eigenvalues --    2.48125   2.48631   2.49461   2.49763   2.50253
 Alpha virt. eigenvalues --    2.50801   2.51317   2.51511   2.51606   2.52182
 Alpha virt. eigenvalues --    2.52493   2.53062   2.53490   2.53957   2.54740
 Alpha virt. eigenvalues --    2.54931   2.55932   2.56329   2.56542   2.56615
 Alpha virt. eigenvalues --    2.57182   2.57343   2.57748   2.57919   2.58145
 Alpha virt. eigenvalues --    2.58698   2.58911   2.59260   2.59653   2.59711
 Alpha virt. eigenvalues --    2.60323   2.60563   2.61012   2.61205   2.61880
 Alpha virt. eigenvalues --    2.62174   2.62493   2.62822   2.63342   2.63652
 Alpha virt. eigenvalues --    2.63750   2.64270   2.64659   2.65425   2.65927
 Alpha virt. eigenvalues --    2.66762   2.66845   2.67198   2.67638   2.67907
 Alpha virt. eigenvalues --    2.68335   2.68458   2.69656   2.70121   2.70562
 Alpha virt. eigenvalues --    2.70954   2.72119   2.72207   2.72362   2.72769
 Alpha virt. eigenvalues --    2.72783   2.73023   2.73401   2.73461   2.73672
 Alpha virt. eigenvalues --    2.74176   2.74620   2.74831   2.75231   2.75326
 Alpha virt. eigenvalues --    2.76359   2.77002   2.77229   2.77584   2.78275
 Alpha virt. eigenvalues --    2.79284   2.79896   2.80736   2.80895   2.81656
 Alpha virt. eigenvalues --    2.82465   2.82910   2.83639   2.83993   2.84333
 Alpha virt. eigenvalues --    2.85342   2.85983   2.86352   2.86800   2.87031
 Alpha virt. eigenvalues --    2.87299   2.88098   2.88281   2.88811   2.89186
 Alpha virt. eigenvalues --    2.89366   2.89729   2.89954   2.90275   2.90377
 Alpha virt. eigenvalues --    2.90944   2.91409   2.91664   2.92064   2.92590
 Alpha virt. eigenvalues --    2.93158   2.93398   2.93834   2.94068   2.94190
 Alpha virt. eigenvalues --    2.94456   2.94760   2.94963   2.95194   2.95525
 Alpha virt. eigenvalues --    2.96009   2.96219   2.96480   2.96683   2.96982
 Alpha virt. eigenvalues --    2.97310   2.97484   2.97733   2.98507   2.98635
 Alpha virt. eigenvalues --    2.99155   2.99361   2.99919   3.00339   3.00453
 Alpha virt. eigenvalues --    3.00809   3.01237   3.01651   3.01804   3.02014
 Alpha virt. eigenvalues --    3.02286   3.02376   3.02526   3.02573   3.03193
 Alpha virt. eigenvalues --    3.03526   3.03759   3.04715   3.05095   3.05467
 Alpha virt. eigenvalues --    3.05695   3.05859   3.06394   3.07005   3.07311
 Alpha virt. eigenvalues --    3.07478   3.07929   3.08344   3.08589   3.09633
 Alpha virt. eigenvalues --    3.10177   3.10217   3.10863   3.11762   3.12033
 Alpha virt. eigenvalues --    3.12548   3.12827   3.14046   3.14125   3.16153
 Alpha virt. eigenvalues --    3.16496   3.17062   3.17343   3.18863   3.19809
 Alpha virt. eigenvalues --    3.20151   3.20191   3.21632   3.22978   3.23387
 Alpha virt. eigenvalues --    3.25590   3.30038   3.35363   3.40298   3.42398
 Alpha virt. eigenvalues --    3.42853   3.44675   3.45463   3.49847   3.51271
 Alpha virt. eigenvalues --    3.57043   3.59803   3.60431   3.64747   3.65517
 Alpha virt. eigenvalues --    3.67039   3.70134
          Condensed to atoms (all electrons):
 Mulliken charges:
               1
     1  Mg   0.974429
     2  C   -0.030417
     3  C   -0.063411
     4  C   -0.057102
     5  C   -0.061080
     6  N   -0.372679
     7  C    0.058415
     8  C   -0.103125
     9  C   -0.109028
    10  C    0.055241
    11  C    0.008061
    12  C   -0.004616
    13  C    0.057283
    14  C    0.186016
    15  O   -0.267915
    16  O   -0.370318
    17  N   -0.492606
    18  C    0.161923
    19  C   -0.158096
    20  C   -0.098958
    21  C    0.177899
    22  C    0.051570
    23  C    0.039407
    24  O   -0.222316
    25  C   -0.008348
    26  N   -0.372455
    27  C    0.060987
    28  C   -0.111894
    29  C   -0.060006
    30  C    0.063761
    31  C    0.010153
    32  C   -0.044638
    33  C   -0.071801
    34  N   -0.460155
    35  C    0.111695
    36  C   -0.188355
    37  C   -0.051687
    38  C    0.205422
    39  C    0.079212
    40  C    0.146620
    41  O   -0.226123
    42  C   -0.159430
    43  C    0.295749
    44  O   -0.229194
    45  O   -0.401366
    46  C    0.129021
    47  C    0.230934
    48  C   -0.155891
    49  C   -0.189610
    50  C    0.017071
    51  C    0.039857
    52  C   -0.039309
    53  C   -0.007098
    54  C   -0.230662
    55  C    0.022544
    56  C   -0.014385
    57  C   -0.038247
    58  C    0.004608
    59  C   -0.226134
    60  C   -0.008007
    61  C   -0.022310
    62  C   -0.041072
    63  C   -0.013403
    64  C   -0.262971
    65  C    0.000840
    66  C   -0.008331
    67  H    0.010058
    68  H   -0.018212
    69  H    0.006988
    70  H    0.044928
    71  H    0.056689
    72  H    0.054983
    73  H    0.024500
    74  H    0.055537
    75  H    0.044880
    76  H    0.047410
    77  H    0.062384
    78  H    0.056655
    79  H    0.043733
    80  H    0.060778
    81  H    0.053264
    82  H    0.052251
    83  H    0.061228
    84  H    0.079909
    85  H    0.055247
    86  H    0.052748
    87  H    0.040368
    88  H    0.033562
    89  H    0.039568
    90  H    0.039171
    91  H    0.033388
    92  H    0.049661
    93  H    0.032623
    94  H    0.032435
    95  H    0.067880
    96  H    0.072866
    97  H    0.043611
    98  H    0.067242
    99  H    0.061353
   100  H    0.053801
   101  H    0.074534
   102  H    0.035243
   103  H    0.060420
   104  H    0.023380
   105  H    0.044785
   106  H    0.065362
   107  H    0.049892
   108  H    0.028711
   109  H    0.039301
   110  H    0.018236
   111  H    0.030493
   112  H    0.004882
   113  H    0.008369
   114  H    0.040090
   115  H    0.034266
   116  H    0.040750
   117  H    0.032944
   118  H    0.016110
   119  H    0.024096
   120  H    0.027324
   121  H    0.037734
   122  H    0.020194
   123  H    0.016852
   124  H    0.023993
   125  H    0.031342
   126  H    0.034434
   127  H    0.034739
   128  H    0.033271
   129  H    0.022502
   130  H    0.021275
   131  H    0.016617
   132  H    0.029271
   133  H    0.029535
   134  H    0.038870
   135  H    0.031844
   136  H    0.034885
   137  H    0.033923
   138  H    0.036710
   139  H    0.029682
   140  H    0.035478
 Sum of Mulliken charges =  -0.00000
 Mulliken charges with hydrogens summed into heavy atoms:
               1
     1  Mg   0.974429
     2  C   -0.030417
     3  C   -0.053353
     4  C   -0.075314
     5  C   -0.054093
     6  N   -0.372679
     7  C    0.058415
     8  C   -0.058197
     9  C   -0.052339
    10  C    0.055241
    11  C    0.143081
    12  C    0.087674
    13  C    0.176322
    14  C    0.186016
    15  O   -0.267915
    16  O   -0.370318
    17  N   -0.492606
    18  C    0.161923
    19  C   -0.158096
    20  C   -0.098958
    21  C    0.177899
    22  C    0.209345
    23  C    0.039407
    24  O   -0.222316
    25  C    0.185041
    26  N   -0.372455
    27  C    0.060987
    28  C   -0.056647
    29  C   -0.007257
    30  C    0.063761
    31  C    0.123651
    32  C    0.027920
    33  C    0.042918
    34  N   -0.460155
    35  C    0.111695
    36  C   -0.188355
    37  C   -0.051687
    38  C    0.205422
    39  C    0.263569
    40  C    0.146620
    41  O   -0.226123
    42  C   -0.092187
    43  C    0.295749
    44  O   -0.229194
    45  O   -0.401366
    46  C    0.318709
    47  C    0.326597
    48  C   -0.132511
    49  C   -0.189610
    50  C    0.177110
    51  C    0.107870
    52  C    0.009420
    53  C    0.006152
    54  C   -0.190572
    55  C    0.130503
    56  C    0.025822
    57  C    0.026812
    58  C    0.041654
    59  C   -0.202140
    60  C    0.092509
    61  C    0.033463
    62  C   -0.003180
    63  C    0.045403
    64  C   -0.224101
    65  C    0.101492
    66  C    0.093540
 Electronic spatial extent (au):  <R**2>=          94850.7234
 Charge=             -0.0000 electrons
 Dipole moment (field-independent basis, Debye):
    X=             -0.2312    Y=              1.9690    Z=              2.1976  Tot=              2.9597
 Quadrupole moment (field-independent basis, Debye-Ang):
   XX=           -375.8051   YY=           -422.2679   ZZ=           -389.8237
   XY=             47.9611   XZ=              3.2483   YZ=             26.3306
 Traceless Quadrupole moment (field-independent basis, Debye-Ang):
   XX=             20.1604   YY=            -26.3023   ZZ=              6.1418
   XY=             47.9611   XZ=              3.2483   YZ=             26.3306
 Octapole moment (field-independent basis, Debye-Ang**2):
  XXX=            144.6749  YYY=           -182.8418  ZZZ=             13.0086  XYY=            -53.2395
  XXY=            227.9621  XXZ=            199.5343  XZZ=             89.1515  YZZ=            -42.4812
  YYZ=              0.5364  XYZ=             93.1699
 Hexadecapole moment (field-independent basis, Debye-Ang**3):
 XXXX=         -83585.2866 YYYY=         -36345.0427 ZZZZ=          -9400.2577 XXXY=           2355.0959
 XXXZ=            612.2184 YYYX=           1312.2770 YYYZ=           1796.1178 ZZZX=             77.7125
 ZZZY=            249.3599 XXYY=         -20012.8010 XXZZ=         -15106.4924 YYZZ=          -7398.3710
 XXYZ=            387.1138 YYXZ=           -283.7754 ZZXY=             -8.9688
 N-N= 9.751586628347D+03 E-N=-2.649450565680D+04  KE= 2.975438708999D+03
 Leave Link  601 at Fri Apr 29 08:30:14 2022, MaxMem= 10066329600 cpu:              10.7 elap:               0.5
 (Enter /sw/apps/gaussian-16.0/g16/l9999.exe)
 1\1\GINC-BP1-COMPUTE140\SP\RPBE1PBE TD-FC\def2SVP\C55H74Mg1N4O6\OF1564
 1\29-Apr-2022\0\\#p PBE1PBE/Def2SVP td=(nstates=5)\\step_201_chromopho
 re_23 TDDFT with PBE1PBE functional\\0,1\Mg,0,-8.461,40.866,42.812\C,0
 ,-7.589,37.591,42.042\C,0,-5.784,41.945,40.792\C,0,-9.695,43.869,43.04
 6\C,0,-11.675,39.59,43.987\N,0,-6.907,39.884,41.557\C,0,-6.755,38.537,
 41.485\C,0,-5.604,38.235,40.572\C,0,-4.919,39.592,40.25\C,0,-5.925,40.
 54,40.889\C,0,-3.462,39.76,40.827\C,0,-6.027,37.487,39.275\C,0,-5.15,3
 6.312,38.92\C,0,-4.292,36.637,37.727\O,0,-3.213,37.202,37.706\O,0,-4.9
 23,36.206,36.57\N,0,-7.651,42.662,42.188\C,0,-6.699,42.923,41.295\C,0,
 -6.634,44.379,41.077\C,0,-7.688,44.996,41.78\C,0,-8.431,43.822,42.378\
 C,0,-5.421,44.969,40.369\C,0,-7.953,46.523,41.729\O,0,-7.297,47.304,41
 .064\C,0,-9.097,47.106,42.456\N,0,-10.383,41.603,43.494\C,0,-10.556,42
 .948,43.538\C,0,-11.914,43.365,44.096\C,0,-12.538,42.001,44.515\C,0,-1
 1.47,40.975,43.94\C,0,-11.893,44.375,45.23\C,0,-14.003,41.785,44.045\C
 ,0,-15.101,41.309,45.026\N,0,-9.442,38.999,43.034\C,0,-10.68,38.631,43
 .569\C,0,-10.782,37.18,43.61\C,0,-9.555,36.775,43.063\C,0,-8.776,37.90
 3,42.717\C,0,-11.968,36.387,44.027\C,0,-8.919,35.576,42.642\O,0,-9.258
 ,34.394,42.674\C,0,-7.601,36.097,41.916\C,0,-6.472,35.466,42.744\O,0,-
 6.438,35.531,43.949\O,0,-5.614,34.747,41.894\C,0,-4.407,34.118,42.493\
 C,0,-4.13,36.251,35.35\C,0,-4.867,35.791,34.083\C,0,-5.903,36.37,33.41
 5\C,0,-6.42,37.74,33.707\C,0,-6.548,35.747,32.145\C,0,-5.694,35.804,30
 .864\C,0,-6.273,36.624,29.774\C,0,-5.474,37.93,29.587\C,0,-4.371,37.73
 ,28.519\C,0,-6.431,39.102,29.213\C,0,-5.803,40.515,29.397\C,0,-6.498,4
 1.479,30.349\C,0,-5.541,42.421,31.193\C,0,-5.439,42.001,32.68\C,0,-5.9
 74,43.883,31.154\C,0,-5.717,44.558,29.823\C,0,-4.426,45.345,29.936\C,0
 ,-4.657,46.878,29.624\C,0,-4.17,47.213,28.212\C,0,-3.981,47.729,30.731
 \H,0,-4.896,42.258,40.24\H,0,-10.125,44.871,43.109\H,0,-12.634,39.217,
 44.35\H,0,-4.872,37.622,41.098\H,0,-4.887,39.698,39.165\H,0,-2.733,39.
 517,40.053\H,0,-3.233,38.921,41.483\H,0,-3.293,40.674,41.396\H,0,-6.07
 1,38.19,38.443\H,0,-7.087,37.246,39.35\H,0,-5.707,35.388,38.768\H,0,-4
 .46,36.048,39.721\H,0,-4.532,44.524,40.815\H,0,-5.251,46.035,40.524\H,
 0,-5.4,44.749,39.302\H,0,-9.057,48.193,42.387\H,0,-8.891,46.838,43.492
 \H,0,-10.019,46.758,41.99\H,0,-12.479,43.886,43.324\H,0,-12.519,41.841
 ,45.593\H,0,-12.161,43.963,46.203\H,0,-12.564,45.222,45.089\H,0,-10.90
 5,44.833,45.256\H,0,-14.091,41.246,43.102\H,0,-14.438,42.737,43.741\H,
 0,-14.809,41.224,46.073\H,0,-15.507,40.388,44.608\H,0,-16.04,41.861,44
 .977\H,0,-11.615,35.499,44.551\H,0,-12.381,36.119,43.054\H,0,-12.658,3
 6.917,44.684\H,0,-7.474,35.74,40.894\H,0,-4.707,33.501,43.341\H,0,-3.8
 39,34.917,42.971\H,0,-3.923,33.504,41.734\H,0,-3.353,35.495,35.471\H,0
 ,-3.62,37.195,35.161\H,0,-4.438,34.882,33.663\H,0,-7.503,37.648,33.798
 \H,0,-6.276,38.431,32.877\H,0,-5.902,38.05,34.615\H,0,-7.549,36.132,31
 .952\H,0,-6.528,34.661,32.231\H,0,-5.609,34.799,30.45\H,0,-4.642,36.03
 ,31.043\H,0,-7.351,36.745,29.88\H,0,-6.341,36.11,28.815\H,0,-5.123,38.
 099,30.605\H,0,-4.643,37.015,27.743\H,0,-3.404,37.462,28.944\H,0,-4.33
 2,38.71,28.044\H,0,-7.295,38.952,29.861\H,0,-6.898,39.033,28.231\H,0,-
 5.978,41.084,28.484\H,0,-4.725,40.54,29.554\H,0,-7.257,41.032,30.99\H,
 0,-7.081,42.137,29.703\H,0,-4.506,42.321,30.866\H,0,-4.4,42.176,32.957
 \H,0,-5.691,40.952,32.832\H,0,-6.048,42.665,33.293\H,0,-5.567,44.372,3
 2.04\H,0,-7.062,43.925,31.207\H,0,-6.561,45.118,29.421\H,0,-5.526,43.8
 82,28.99\H,0,-3.811,44.787,29.23\H,0,-4.018,45.198,30.935\H,0,-5.713,4
 7.145,29.612\H,0,-5.054,47.233,27.575\H,0,-3.509,46.389,27.944\H,0,-3.
 695,48.191,28.134\H,0,-4.817,48.238,31.211\H,0,-3.286,48.394,30.218\H,
 0,-3.466,47.173,31.513\\Version=ES64L-G16RevA.03\State=1-A\HF=-3005.35
 29318\RMSD=5.734e-09\PG=C01 [X(C55H74Mg1N4O6)]\\@


 THIS CURIOUS WORLD WHICH WE INHABIT IS MORE WONDERFUL THAN IT IS CONVENIENT;
 MORE BEAUTIFUL THAN IT IS USEFUL;
 IT IS MORE TO BE ADMIRED THAN IT IS TO BE USED.

                                                                 -- THOREAU
 Job cpu time:       0 days  6 hours 59 minutes 42.5 seconds.
 Elapsed time:       0 days  0 hours 17 minutes 33.2 seconds.
 File lengths (MBytes):  RWF=   8929 Int=      0 D2E=      0 Chk=    390 Scr=      1
 Normal termination of Gaussian 16 at Fri Apr 29 08:30:14 2022.
