 Entering Gaussian System, Link 0=g16
 Initial command:
 /sw/apps/gaussian-16.0/g16/l1.exe "/tmp/Gau-46034.inp" -scrdir="/tmp/"
 Entering Link 1 = /sw/apps/gaussian-16.0/g16/l1.exe PID=     46035.
  
 Copyright (c) 1988,1990,1992,1993,1995,1998,2003,2009,2016,
            Gaussian, Inc.  All Rights Reserved.
  
 This is part of the Gaussian(R) 16 program.  It is based on
 the Gaussian(R) 09 system (copyright 2009, Gaussian, Inc.),
 the Gaussian(R) 03 system (copyright 2003, Gaussian, Inc.),
 the Gaussian(R) 98 system (copyright 1998, Gaussian, Inc.),
 the Gaussian(R) 94 system (copyright 1995, Gaussian, Inc.),
 the Gaussian 92(TM) system (copyright 1992, Gaussian, Inc.),
 the Gaussian 90(TM) system (copyright 1990, Gaussian, Inc.),
 the Gaussian 88(TM) system (copyright 1988, Gaussian, Inc.),
 the Gaussian 86(TM) system (copyright 1986, Carnegie Mellon
 University), and the Gaussian 82(TM) system (copyright 1983,
 Carnegie Mellon University). Gaussian is a federally registered
 trademark of Gaussian, Inc.
  
 This software contains proprietary and confidential information,
 including trade secrets, belonging to Gaussian, Inc.
  
 This software is provided under written license and may be
 used, copied, transmitted, or stored only in accord with that
 written license.
  
 The following legend is applicable only to US Government
 contracts under FAR:
  
                    RESTRICTED RIGHTS LEGEND
  
 Use, reproduction and disclosure by the US Government is
 subject to restrictions as set forth in subparagraphs (a)
 and (c) of the Commercial Computer Software - Restricted
 Rights clause in FAR 52.227-19.
  
 Gaussian, Inc.
 340 Quinnipiac St., Bldg. 40, Wallingford CT 06492
  
  
 ---------------------------------------------------------------
 Warning -- This program may not be used in any manner that
 competes with the business of Gaussian, Inc. or will provide
 assistance to any competitor of Gaussian, Inc.  The licensee
 of this program is prohibited from giving any competitor of
 Gaussian, Inc. access to this program.  By using this program,
 the user acknowledges that Gaussian, Inc. is engaged in the
 business of creating and licensing software in the field of
 computational chemistry and represents and warrants to the
 licensee that it is not a competitor of Gaussian, Inc. and that
 it will not use this program in any manner prohibited above.
 ---------------------------------------------------------------
  

 Cite this work as:
 Gaussian 16, Revision A.03,
 M. J. Frisch, G. W. Trucks, H. B. Schlegel, G. E. Scuseria, 
 M. A. Robb, J. R. Cheeseman, G. Scalmani, V. Barone, 
 G. A. Petersson, H. Nakatsuji, X. Li, M. Caricato, A. V. Marenich, 
 J. Bloino, B. G. Janesko, R. Gomperts, B. Mennucci, H. P. Hratchian, 
 J. V. Ortiz, A. F. Izmaylov, J. L. Sonnenberg, D. Williams-Young, 
 F. Ding, F. Lipparini, F. Egidi, J. Goings, B. Peng, A. Petrone, 
 T. Henderson, D. Ranasinghe, V. G. Zakrzewski, J. Gao, N. Rega, 
 G. Zheng, W. Liang, M. Hada, M. Ehara, K. Toyota, R. Fukuda, 
 J. Hasegawa, M. Ishida, T. Nakajima, Y. Honda, O. Kitao, H. Nakai, 
 T. Vreven, K. Throssell, J. A. Montgomery, Jr., J. E. Peralta, 
 F. Ogliaro, M. J. Bearpark, J. J. Heyd, E. N. Brothers, K. N. Kudin, 
 V. N. Staroverov, T. A. Keith, R. Kobayashi, J. Normand, 
 K. Raghavachari, A. P. Rendell, J. C. Burant, S. S. Iyengar, 
 J. Tomasi, M. Cossi, J. M. Millam, M. Klene, C. Adamo, R. Cammi, 
 J. W. Ochterski, R. L. Martin, K. Morokuma, O. Farkas, 
 J. B. Foresman, and D. J. Fox, Gaussian, Inc., Wallingford CT, 2016.
 
 ******************************************
 Gaussian 16:  ES64L-G16RevA.03 25-Dec-2016
                29-Apr-2022 
 ******************************************
 %nproc=24
 Will use up to   24 processors via shared memory.
 %mem=50gb
 --------------------
 #p ZINDO=(nstates=5)
 --------------------
 1/38=1,172=1/1;
 2/12=2,17=6,18=5,40=1/2;
 3/5=2,25=1,41=400000/1,2,3,8;
 4/5=3,35=1/1;
 5/5=2,35=1,38=5/2;
 8/6=1,108=5/1;
 9/41=5,42=1,49=10/14;
 6/7=2,8=2,9=2,10=2/1;
 99/5=1,9=1/99;
 Leave Link    1 at Fri Apr 29 01:16:33 2022, MaxMem=  6710886400 cpu:               0.9 elap:               0.0
 (Enter /sw/apps/gaussian-16.0/g16/l101.exe)
 ------------------------------
 step_1801_chromophore_22 ZINDO
 ------------------------------
 Symbolic Z-matrix:
 Charge =  0 Multiplicity = 1
 Mg                    8.233     47.703    26.118 
 C                     5.933     47.61     28.792 
 C                     10.682    48.442    28.375 
 C                     10.372    48.459    23.568 
 C                     5.516     47.851    23.926 
 N                     8.258     48.116    28.393 
 C                     7.229     47.969    29.287 
 C                     7.776     48.116    30.719 
 C                     9.298     48.699    30.535 
 C                     9.454     48.475    29.025 
 C                     9.529     50.236    31.005 
 C                     7.563     46.933    31.743 
 C                     8.696     46.661    32.823 
 C                     8.187     45.952    34.108 
 O                     7.504     44.956    34.209 
 O                     8.696     46.613    35.167 
 N                     10.289    48.081    25.983 
 C                     11.083    48.299    27.031 
 C                     12.502    48.325    26.511 
 C                     12.413    48.225    25.054 
 C                     10.975    48.297    24.82 
 C                     13.714    48.615    27.353 
 C                     13.471    48.13     23.985 
 O                     13.335    48.203    22.714 
 C                     14.892    48.024    24.461 
 N                     7.983     48.257    24.076 
 C                     9.042     48.461    23.284 
 C                     8.594     48.532    21.884 
 C                     7.039     48.302    21.937 
 C                     6.798     48.043    23.39 
 C                     9.087     49.782    21.18 
 C                     6.509     47.257    20.935 
 C                     6.531     47.642    19.496 
 N                     6.075     47.772    26.301 
 C                     5.167     47.712    25.292 
 C                     3.889     47.514    25.912 
 C                     4.14      47.472    27.311 
 C                     5.499     47.636    27.471 
 C                     2.625     47.452    25.185 
 C                     3.486     47.257    28.564 
 O                     2.289     46.993    28.919 
 C                     4.655     47.479    29.667 
 C                     4.691     46.269    30.438 
 O                     5.091     45.158    30.127 
 O                     4.256     46.667    31.662 
 C                     4.221     45.541    32.689 
 C                     8.198     45.988    36.415 
 C                     8.912     46.719    37.553 
 C                     8.972     46.362    38.862 
 C                     8.217     45.123    39.417 
 C                     9.375     47.32     40.009 
 C                     10.517    46.844    40.936 
 C                     11.377    47.998    41.481 
 C                     11.502    47.857    43.022 
 C                     11.814    49.272    43.622 
 C                     12.607    46.723    43.416 
 C                     12.119    45.477    44.14 
 C                     12.579    45.501    45.64 
 C                     13.887    44.7      45.868 
 C                     14.836    45.582    46.791 
 C                     13.835    43.338    46.514 
 C                     14.768    42.339    45.766 
 C                     14.172    41.452    44.683 
 C                     15.106    40.648    43.698 
 C                     15.528    41.416    42.461 
 C                     14.468    39.278    43.262 
 H                     11.441    48.769    29.088 
 H                     11.045    48.799    22.778 
 H                     4.726     47.911    23.175 
 H                     7.113     48.911    31.058 
 H                     10.154    48.115    30.873 
 H                     8.649     50.614    31.525 
 H                     9.772     50.758    30.079 
 H                     10.451    50.239    31.586 
 H                     7.38      46.       31.209 
 H                     6.639     47.056    32.308 
 H                     9.346     47.526    32.954 
 H                     9.308     45.864    32.4 
 H                     14.244    49.518    27.051 
 H                     14.403    47.771    27.315 
 H                     13.531    48.763    28.417 
 H                     15.521    47.802    23.599 
 H                     14.969    47.217    25.189 
 H                     15.187    49.008    24.824 
 H                     9.035     47.654    21.414 
 H                     6.603     49.258    21.646 
 H                     8.246     50.228    20.649 
 H                     9.856     49.488    20.466 
 H                     9.63      50.475    21.824 
 H                     5.541     46.883    21.271 
 H                     7.211     46.442    21.112 
 H                     7.39      47.217    18.977 
 H                     6.627     48.723    19.396 
 H                     5.589     47.381    19.014 
 H                     2.234     48.466    25.271 
 H                     2.018     46.665    25.631 
 H                     2.72      47.326    24.106 
 H                     4.415     48.384    30.223 
 H                     4.764     45.957    33.538 
 H                     4.675     44.605    32.364 
 H                     3.185     45.314    32.941 
 H                     8.54      44.954    36.459 
 H                     7.128     46.189    36.468 
 H                     9.315     47.702    37.308 
 H                     8.539     44.863    40.426 
 H                     8.666     44.333    38.814 
 H                     7.132     45.157    39.325 
 H                     8.505     47.326    40.665 
 H                     9.592     48.32     39.634 
 H                     11.211    46.188    40.41 
 H                     10.151    46.144    41.688 
 H                     10.903    48.94     41.205 
 H                     12.353    48.069    41.002 
 H                     10.598    47.551    43.549 
 H                     11.269    49.387    44.56 
 H                     11.647    50.103    42.936 
 H                     12.875    49.301    43.87 
 H                     13.406    47.281    43.905 
 H                     13.174    46.315    42.58 
 H                     12.609    44.614    43.691 
 H                     11.031    45.532    44.159 
 H                     11.77     45.124    46.266 
 H                     12.671    46.532    45.979 
 H                     14.433    44.619    44.928 
 H                     14.327    45.693    47.748 
 H                     15.11     46.469    46.219 
 H                     15.743    45.041    47.061 
 H                     12.797    43.008    46.512 
 H                     14.086    43.518    47.56 
 H                     15.239    41.768    46.566 
 H                     15.598    42.803    45.233 
 H                     13.509    42.097    44.107 
 H                     13.547    40.729    45.207 
 H                     16.05     40.446    44.203 
 H                     16.433    41.043    41.982 
 H                     15.935    42.363    42.815 
 H                     14.715    41.55     41.747 
 H                     14.99     38.398    43.637 
 H                     14.511    39.255    42.173 
 H                     13.408    39.267    43.516 
 
 ITRead=  0  0  0  0  0  0  0  0  0  0  0  0  0  0  0  0  0  0  0  0
 ITRead=  0  0  0  0  0  0  0  0  0  0  0  0  0  0  0  0  0  0  0  0
 ITRead=  0  0  0  0  0  0  0  0  0  0  0  0  0  0  0  0  0  0  0  0
 ITRead=  0  0  0  0  0  0  0  0  0  0  0  0  0  0  0  0  0  0  0  0
 ITRead=  0  0  0  0  0  0  0  0  0  0  0  0  0  0  0  0  0  0  0  0
 ITRead=  0  0  0  0  0  0  0  0  0  0  0  0  0  0  0  0  0  0  0  0
 ITRead=  0  0  0  0  0  0  0  0  0  0  0  0  0  0  0  0  0  0  0  0
 MicOpt= -1 -1 -1 -1 -1 -1 -1 -1 -1 -1 -1 -1 -1 -1 -1 -1 -1 -1 -1 -1
 MicOpt= -1 -1 -1 -1 -1 -1 -1 -1 -1 -1 -1 -1 -1 -1 -1 -1 -1 -1 -1 -1
 MicOpt= -1 -1 -1 -1 -1 -1 -1 -1 -1 -1 -1 -1 -1 -1 -1 -1 -1 -1 -1 -1
 MicOpt= -1 -1 -1 -1 -1 -1 -1 -1 -1 -1 -1 -1 -1 -1 -1 -1 -1 -1 -1 -1
 MicOpt= -1 -1 -1 -1 -1 -1 -1 -1 -1 -1 -1 -1 -1 -1 -1 -1 -1 -1 -1 -1
 MicOpt= -1 -1 -1 -1 -1 -1 -1 -1 -1 -1 -1 -1 -1 -1 -1 -1 -1 -1 -1 -1
 MicOpt= -1 -1 -1 -1 -1 -1 -1 -1 -1 -1 -1 -1 -1 -1 -1 -1 -1 -1 -1 -1
 NAtoms=    140 NQM=      140 NQMF=       0 NMMI=      0 NMMIF=      0
                NMic=       0 NMicF=      0.
                    Isotopes and Nuclear Properties:
 (Nuclear quadrupole moments (NQMom) in fm**2, nuclear magnetic moments (NMagM)
  in nuclear magnetons)

  Atom         1           2           3           4           5           6           7           8           9          10
 IAtWgt=          24          12          12          12          12          14          12          12          12          12
 AtmWgt=  23.9850450  12.0000000  12.0000000  12.0000000  12.0000000  14.0030740  12.0000000  12.0000000  12.0000000  12.0000000
 NucSpn=           0           0           0           0           0           2           0           0           0           0
 AtZEff=  -0.0000000  -0.0000000  -0.0000000  -0.0000000  -0.0000000  -0.0000000  -0.0000000  -0.0000000  -0.0000000  -0.0000000
 NQMom=    0.0000000   0.0000000   0.0000000   0.0000000   0.0000000   2.0440000   0.0000000   0.0000000   0.0000000   0.0000000
 NMagM=    0.0000000   0.0000000   0.0000000   0.0000000   0.0000000   0.4037610   0.0000000   0.0000000   0.0000000   0.0000000
 AtZNuc=  12.0000000   6.0000000   6.0000000   6.0000000   6.0000000   7.0000000   6.0000000   6.0000000   6.0000000   6.0000000

  Atom        11          12          13          14          15          16          17          18          19          20
 IAtWgt=          12          12          12          12          16          16          14          12          12          12
 AtmWgt=  12.0000000  12.0000000  12.0000000  12.0000000  15.9949146  15.9949146  14.0030740  12.0000000  12.0000000  12.0000000
 NucSpn=           0           0           0           0           0           0           2           0           0           0
 AtZEff=  -0.0000000  -0.0000000  -0.0000000  -0.0000000  -0.0000000  -0.0000000  -0.0000000  -0.0000000  -0.0000000  -0.0000000
 NQMom=    0.0000000   0.0000000   0.0000000   0.0000000   0.0000000   0.0000000   2.0440000   0.0000000   0.0000000   0.0000000
 NMagM=    0.0000000   0.0000000   0.0000000   0.0000000   0.0000000   0.0000000   0.4037610   0.0000000   0.0000000   0.0000000
 AtZNuc=   6.0000000   6.0000000   6.0000000   6.0000000   8.0000000   8.0000000   7.0000000   6.0000000   6.0000000   6.0000000

  Atom        21          22          23          24          25          26          27          28          29          30
 IAtWgt=          12          12          12          16          12          14          12          12          12          12
 AtmWgt=  12.0000000  12.0000000  12.0000000  15.9949146  12.0000000  14.0030740  12.0000000  12.0000000  12.0000000  12.0000000
 NucSpn=           0           0           0           0           0           2           0           0           0           0
 AtZEff=  -0.0000000  -0.0000000  -0.0000000  -0.0000000  -0.0000000  -0.0000000  -0.0000000  -0.0000000  -0.0000000  -0.0000000
 NQMom=    0.0000000   0.0000000   0.0000000   0.0000000   0.0000000   2.0440000   0.0000000   0.0000000   0.0000000   0.0000000
 NMagM=    0.0000000   0.0000000   0.0000000   0.0000000   0.0000000   0.4037610   0.0000000   0.0000000   0.0000000   0.0000000
 AtZNuc=   6.0000000   6.0000000   6.0000000   8.0000000   6.0000000   7.0000000   6.0000000   6.0000000   6.0000000   6.0000000

  Atom        31          32          33          34          35          36          37          38          39          40
 IAtWgt=          12          12          12          14          12          12          12          12          12          12
 AtmWgt=  12.0000000  12.0000000  12.0000000  14.0030740  12.0000000  12.0000000  12.0000000  12.0000000  12.0000000  12.0000000
 NucSpn=           0           0           0           2           0           0           0           0           0           0
 AtZEff=  -0.0000000  -0.0000000  -0.0000000  -0.0000000  -0.0000000  -0.0000000  -0.0000000  -0.0000000  -0.0000000  -0.0000000
 NQMom=    0.0000000   0.0000000   0.0000000   2.0440000   0.0000000   0.0000000   0.0000000   0.0000000   0.0000000   0.0000000
 NMagM=    0.0000000   0.0000000   0.0000000   0.4037610   0.0000000   0.0000000   0.0000000   0.0000000   0.0000000   0.0000000
 AtZNuc=   6.0000000   6.0000000   6.0000000   7.0000000   6.0000000   6.0000000   6.0000000   6.0000000   6.0000000   6.0000000

  Atom        41          42          43          44          45          46          47          48          49          50
 IAtWgt=          16          12          12          16          16          12          12          12          12          12
 AtmWgt=  15.9949146  12.0000000  12.0000000  15.9949146  15.9949146  12.0000000  12.0000000  12.0000000  12.0000000  12.0000000
 NucSpn=           0           0           0           0           0           0           0           0           0           0
 AtZEff=  -0.0000000  -0.0000000  -0.0000000  -0.0000000  -0.0000000  -0.0000000  -0.0000000  -0.0000000  -0.0000000  -0.0000000
 NQMom=    0.0000000   0.0000000   0.0000000   0.0000000   0.0000000   0.0000000   0.0000000   0.0000000   0.0000000   0.0000000
 NMagM=    0.0000000   0.0000000   0.0000000   0.0000000   0.0000000   0.0000000   0.0000000   0.0000000   0.0000000   0.0000000
 AtZNuc=   8.0000000   6.0000000   6.0000000   8.0000000   8.0000000   6.0000000   6.0000000   6.0000000   6.0000000   6.0000000

  Atom        51          52          53          54          55          56          57          58          59          60
 IAtWgt=          12          12          12          12          12          12          12          12          12          12
 AtmWgt=  12.0000000  12.0000000  12.0000000  12.0000000  12.0000000  12.0000000  12.0000000  12.0000000  12.0000000  12.0000000
 NucSpn=           0           0           0           0           0           0           0           0           0           0
 AtZEff=  -0.0000000  -0.0000000  -0.0000000  -0.0000000  -0.0000000  -0.0000000  -0.0000000  -0.0000000  -0.0000000  -0.0000000
 NQMom=    0.0000000   0.0000000   0.0000000   0.0000000   0.0000000   0.0000000   0.0000000   0.0000000   0.0000000   0.0000000
 NMagM=    0.0000000   0.0000000   0.0000000   0.0000000   0.0000000   0.0000000   0.0000000   0.0000000   0.0000000   0.0000000
 AtZNuc=   6.0000000   6.0000000   6.0000000   6.0000000   6.0000000   6.0000000   6.0000000   6.0000000   6.0000000   6.0000000

  Atom        61          62          63          64          65          66          67          68          69          70
 IAtWgt=          12          12          12          12          12          12           1           1           1           1
 AtmWgt=  12.0000000  12.0000000  12.0000000  12.0000000  12.0000000  12.0000000   1.0078250   1.0078250   1.0078250   1.0078250
 NucSpn=           0           0           0           0           0           0           1           1           1           1
 AtZEff=  -0.0000000  -0.0000000  -0.0000000  -0.0000000  -0.0000000  -0.0000000  -0.0000000  -0.0000000  -0.0000000  -0.0000000
 NQMom=    0.0000000   0.0000000   0.0000000   0.0000000   0.0000000   0.0000000   0.0000000   0.0000000   0.0000000   0.0000000
 NMagM=    0.0000000   0.0000000   0.0000000   0.0000000   0.0000000   0.0000000   2.7928460   2.7928460   2.7928460   2.7928460
 AtZNuc=   6.0000000   6.0000000   6.0000000   6.0000000   6.0000000   6.0000000   1.0000000   1.0000000   1.0000000   1.0000000

  Atom        71          72          73          74          75          76          77          78          79          80
 IAtWgt=           1           1           1           1           1           1           1           1           1           1
 AtmWgt=   1.0078250   1.0078250   1.0078250   1.0078250   1.0078250   1.0078250   1.0078250   1.0078250   1.0078250   1.0078250
 NucSpn=           1           1           1           1           1           1           1           1           1           1
 AtZEff=  -0.0000000  -0.0000000  -0.0000000  -0.0000000  -0.0000000  -0.0000000  -0.0000000  -0.0000000  -0.0000000  -0.0000000
 NQMom=    0.0000000   0.0000000   0.0000000   0.0000000   0.0000000   0.0000000   0.0000000   0.0000000   0.0000000   0.0000000
 NMagM=    2.7928460   2.7928460   2.7928460   2.7928460   2.7928460   2.7928460   2.7928460   2.7928460   2.7928460   2.7928460
 AtZNuc=   1.0000000   1.0000000   1.0000000   1.0000000   1.0000000   1.0000000   1.0000000   1.0000000   1.0000000   1.0000000

  Atom        81          82          83          84          85          86          87          88          89          90
 IAtWgt=           1           1           1           1           1           1           1           1           1           1
 AtmWgt=   1.0078250   1.0078250   1.0078250   1.0078250   1.0078250   1.0078250   1.0078250   1.0078250   1.0078250   1.0078250
 NucSpn=           1           1           1           1           1           1           1           1           1           1
 AtZEff=  -0.0000000  -0.0000000  -0.0000000  -0.0000000  -0.0000000  -0.0000000  -0.0000000  -0.0000000  -0.0000000  -0.0000000
 NQMom=    0.0000000   0.0000000   0.0000000   0.0000000   0.0000000   0.0000000   0.0000000   0.0000000   0.0000000   0.0000000
 NMagM=    2.7928460   2.7928460   2.7928460   2.7928460   2.7928460   2.7928460   2.7928460   2.7928460   2.7928460   2.7928460
 AtZNuc=   1.0000000   1.0000000   1.0000000   1.0000000   1.0000000   1.0000000   1.0000000   1.0000000   1.0000000   1.0000000

  Atom        91          92          93          94          95          96          97          98          99         100
 IAtWgt=           1           1           1           1           1           1           1           1           1           1
 AtmWgt=   1.0078250   1.0078250   1.0078250   1.0078250   1.0078250   1.0078250   1.0078250   1.0078250   1.0078250   1.0078250
 NucSpn=           1           1           1           1           1           1           1           1           1           1
 AtZEff=  -0.0000000  -0.0000000  -0.0000000  -0.0000000  -0.0000000  -0.0000000  -0.0000000  -0.0000000  -0.0000000  -0.0000000
 NQMom=    0.0000000   0.0000000   0.0000000   0.0000000   0.0000000   0.0000000   0.0000000   0.0000000   0.0000000   0.0000000
 NMagM=    2.7928460   2.7928460   2.7928460   2.7928460   2.7928460   2.7928460   2.7928460   2.7928460   2.7928460   2.7928460
 AtZNuc=   1.0000000   1.0000000   1.0000000   1.0000000   1.0000000   1.0000000   1.0000000   1.0000000   1.0000000   1.0000000

  Atom       101         102         103         104         105         106         107         108         109         110
 IAtWgt=           1           1           1           1           1           1           1           1           1           1
 AtmWgt=   1.0078250   1.0078250   1.0078250   1.0078250   1.0078250   1.0078250   1.0078250   1.0078250   1.0078250   1.0078250
 NucSpn=           1           1           1           1           1           1           1           1           1           1
 AtZEff=  -0.0000000  -0.0000000  -0.0000000  -0.0000000  -0.0000000  -0.0000000  -0.0000000  -0.0000000  -0.0000000  -0.0000000
 NQMom=    0.0000000   0.0000000   0.0000000   0.0000000   0.0000000   0.0000000   0.0000000   0.0000000   0.0000000   0.0000000
 NMagM=    2.7928460   2.7928460   2.7928460   2.7928460   2.7928460   2.7928460   2.7928460   2.7928460   2.7928460   2.7928460
 AtZNuc=   1.0000000   1.0000000   1.0000000   1.0000000   1.0000000   1.0000000   1.0000000   1.0000000   1.0000000   1.0000000

  Atom       111         112         113         114         115         116         117         118         119         120
 IAtWgt=           1           1           1           1           1           1           1           1           1           1
 AtmWgt=   1.0078250   1.0078250   1.0078250   1.0078250   1.0078250   1.0078250   1.0078250   1.0078250   1.0078250   1.0078250
 NucSpn=           1           1           1           1           1           1           1           1           1           1
 AtZEff=  -0.0000000  -0.0000000  -0.0000000  -0.0000000  -0.0000000  -0.0000000  -0.0000000  -0.0000000  -0.0000000  -0.0000000
 NQMom=    0.0000000   0.0000000   0.0000000   0.0000000   0.0000000   0.0000000   0.0000000   0.0000000   0.0000000   0.0000000
 NMagM=    2.7928460   2.7928460   2.7928460   2.7928460   2.7928460   2.7928460   2.7928460   2.7928460   2.7928460   2.7928460
 AtZNuc=   1.0000000   1.0000000   1.0000000   1.0000000   1.0000000   1.0000000   1.0000000   1.0000000   1.0000000   1.0000000

  Atom       121         122         123         124         125         126         127         128         129         130
 IAtWgt=           1           1           1           1           1           1           1           1           1           1
 AtmWgt=   1.0078250   1.0078250   1.0078250   1.0078250   1.0078250   1.0078250   1.0078250   1.0078250   1.0078250   1.0078250
 NucSpn=           1           1           1           1           1           1           1           1           1           1
 AtZEff=  -0.0000000  -0.0000000  -0.0000000  -0.0000000  -0.0000000  -0.0000000  -0.0000000  -0.0000000  -0.0000000  -0.0000000
 NQMom=    0.0000000   0.0000000   0.0000000   0.0000000   0.0000000   0.0000000   0.0000000   0.0000000   0.0000000   0.0000000
 NMagM=    2.7928460   2.7928460   2.7928460   2.7928460   2.7928460   2.7928460   2.7928460   2.7928460   2.7928460   2.7928460
 AtZNuc=   1.0000000   1.0000000   1.0000000   1.0000000   1.0000000   1.0000000   1.0000000   1.0000000   1.0000000   1.0000000

  Atom       131         132         133         134         135         136         137         138         139         140
 IAtWgt=           1           1           1           1           1           1           1           1           1           1
 AtmWgt=   1.0078250   1.0078250   1.0078250   1.0078250   1.0078250   1.0078250   1.0078250   1.0078250   1.0078250   1.0078250
 NucSpn=           1           1           1           1           1           1           1           1           1           1
 AtZEff=  -0.0000000  -0.0000000  -0.0000000  -0.0000000  -0.0000000  -0.0000000  -0.0000000  -0.0000000  -0.0000000  -0.0000000
 NQMom=    0.0000000   0.0000000   0.0000000   0.0000000   0.0000000   0.0000000   0.0000000   0.0000000   0.0000000   0.0000000
 NMagM=    2.7928460   2.7928460   2.7928460   2.7928460   2.7928460   2.7928460   2.7928460   2.7928460   2.7928460   2.7928460
 AtZNuc=   1.0000000   1.0000000   1.0000000   1.0000000   1.0000000   1.0000000   1.0000000   1.0000000   1.0000000   1.0000000
 Leave Link  101 at Fri Apr 29 01:16:33 2022, MaxMem=  6710886400 cpu:               3.7 elap:               0.2
 (Enter /sw/apps/gaussian-16.0/g16/l202.exe)
 Stoichiometry    C55H74MgN4O6
 Framework group  C1[X(C55H74MgN4O6)]
 Deg. of freedom   414
 Full point group                 C1      NOp   1
 Largest Abelian subgroup         C1      NOp   1
 Largest concise Abelian subgroup C1      NOp   1
                         Standard orientation:                         
 ---------------------------------------------------------------------
 Center     Atomic      Atomic             Coordinates (Angstroms)
 Number     Number       Type             X           Y           Z
 ---------------------------------------------------------------------
      1         12           0        6.249368    0.483526    0.215683
      2          6           0        4.249366   -2.402678   -0.128913
      3          6           0        3.624730    2.325639   -0.948648
      4          6           0        8.286766    3.202213   -0.111588
      5          6           0        9.033163   -1.608989    0.499795
      6          7           0        4.146586   -0.037306   -0.592935
      7          6           0        3.521585   -1.257573   -0.589990
      8          6           0        2.047581   -1.073743   -0.996143
      9          6           0        1.950762    0.462956   -1.561307
     10          6           0        3.312784    0.977350   -1.076637
     11          6           0        1.714850    0.615541   -3.160586
     12          6           0        0.916687   -1.564470   -0.009380
     13          6           0       -0.439155   -0.738479    0.049793
     14          6           0       -1.663141   -1.566471    0.528619
     15          8           0       -1.765779   -2.281478    1.501725
     16          8           0       -2.682246   -1.313548   -0.316922
     17          7           0        5.938647    2.519934   -0.164766
     18          6           0        4.782422    3.039155   -0.576857
     19          6           0        4.933788    4.542415   -0.532890
     20          6           0        6.327228    4.809920   -0.175769
     21          6           0        6.916523    3.475579   -0.182727
     22          6           0        3.883769    5.519217   -0.986022
     23          6           0        7.069587    6.094238    0.089903
     24          8           0        8.327533    6.275591    0.244655
     25          6           0        6.247807    7.351905    0.087851
     26          7           0        8.354567    0.756788    0.035005
     27          6           0        8.884922    1.982787   -0.042521
     28          6           0       10.342225    1.893276    0.141879
     29          6           0       10.633824    0.366703    0.383289
     30          6           0        9.262521   -0.229864    0.385368
     31          6           0       11.110913    2.578956   -0.971730
     32          6           0       11.536552    0.068548    1.597009
     33          6           0       12.970411    0.453028    1.471893
     34          7           0        6.617634   -1.650764    0.149338
     35          6           0        7.792360   -2.285518    0.400834
     36          6           0        7.480886   -3.681497    0.506269
     37          6           0        6.078055   -3.781842    0.296597
     38          6           0        5.620035   -2.499237    0.085603
     39          6           0        8.473954   -4.730353    0.715520
     40          6           0        5.006682   -4.728473    0.297177
     41          8           0        4.916382   -5.982967    0.513094
     42          6           0        3.706509   -3.859162   -0.134450
     43          6           0        2.750862   -4.047412    0.919655
     44          8           0        2.754575   -3.615245    2.061697
     45          8           0        1.760559   -4.757252    0.318630
     46          6           0        0.593009   -5.074580    1.245970
     47          6           0       -3.858962   -2.119433    0.085597
     48          6           0       -4.991543   -1.685174   -0.846005
     49          6           0       -6.316729   -1.957567   -0.726774
     50          6           0       -6.877014   -2.860387    0.406437
     51          6           0       -7.341689   -1.820461   -1.878485
     52          6           0       -8.589580   -0.954106   -1.591665
     53          6           0       -9.118692   -0.221171   -2.837132
     54          6           0      -10.643242   -0.481203   -2.972472
     55          6           0      -11.044360   -0.285406   -4.475913
     56          6           0      -11.489039    0.461021   -1.943367
     57          6           0      -12.277325   -0.224594   -0.837305
     58          6           0      -13.816289   -0.145225   -1.133049
     59          6           0      -14.495471    1.043846   -0.405539
     60          6           0      -15.454441    1.762779   -1.451468
     61          6           0      -15.336908    0.796577    0.821615
     62          6           0      -15.028040    1.855456    1.922238
     63          6           0      -14.004211    1.517658    2.995802
     64          6           0      -13.435517    2.641062    3.946353
     65          6           0      -12.225574    3.374668    3.402351
     66          6           0      -13.102712    2.090457    5.381663
     67          1           0        2.815564    2.896033   -1.408300
     68          1           0        8.933933    4.057494   -0.317253
     69          1           0        9.953904   -2.189114    0.585776
     70          1           0        2.026547   -1.776647   -1.828007
     71          1           0        1.315832    1.193217   -1.059689
     72          1           0        1.501643   -0.353841   -3.610614
     73          1           0        2.629262    1.092547   -3.514598
     74          1           0        0.934747    1.366997   -3.280619
     75          1           0        1.307511   -1.637682    1.006016
     76          1           0        0.626774   -2.594767   -0.215705
     77          1           0       -0.572509   -0.115966   -0.834843
     78          1           0       -0.325848   -0.064499    0.899260
     79          1           0        4.199382    6.132489   -1.829704
     80          1           0        3.602871    6.172254   -0.159500
     81          1           0        2.940287    5.085653   -1.316709
     82          1           0        6.876087    8.166171    0.448690
     83          1           0        5.393598    7.225384    0.752292
     84          1           0        6.001393    7.576967   -0.949297
     85          1           0       10.528215    2.410727    1.082049
     86          1           0       11.185766    0.042577   -0.499329
     87          1           0       11.902004    1.906544   -1.303685
     88          1           0       11.551068    3.490634   -0.568367
     89          1           0       10.484695    2.967315   -1.776007
     90          1           0       11.388804   -0.962487    1.920943
     91          1           0       11.052558    0.682389    2.356817
     92          1           0       13.179603    1.400475    1.968329
     93          1           0       13.231315    0.601307    0.424172
     94          1           0       13.615898   -0.349384    1.828669
     95          1           0        8.665561   -5.101489   -0.291464
     96          1           0        8.060291   -5.450195    1.420818
     97          1           0        9.457225   -4.377778    1.028586
     98          1           0        3.393828   -4.202090   -1.119535
     99          1           0       -0.277124   -4.744279    0.678101
    100          1           0        0.627415   -4.581671    2.217409
    101          1           0        0.567791   -6.146776    1.441136
    102          1           0       -4.165958   -1.828174    1.090075
    103          1           0       -3.611201   -3.163694   -0.104780
    104          1           0       -4.685043   -1.206660   -1.776491
    105          1           0       -7.963641   -2.802672    0.479071
    106          1           0       -6.550794   -2.300127    1.283362
    107          1           0       -6.516551   -3.888449    0.406257
    108          1           0       -7.752113   -2.824025   -1.986582
    109          1           0       -6.862539   -1.489910   -2.799824
    110          1           0       -8.373565   -0.171432   -0.864062
    111          1           0       -9.339010   -1.512797   -1.029813
    112          1           0       -8.574156   -0.586196   -3.708025
    113          1           0       -8.889605    0.843994   -2.837739
    114          1           0      -10.976920   -1.495025   -2.750196
    115          1           0      -11.784476   -1.039909   -4.746187
    116          1           0      -10.203860   -0.255706   -5.169978
    117          1           0      -11.536622    0.683007   -4.564909
    118          1           0      -12.054062    1.131581   -2.591429
    119          1           0      -10.902851    1.203542   -1.403094
    120          1           0      -12.120780    0.335632    0.083624
    121          1           0      -12.018272   -1.282134   -0.877707
    122          1           0      -14.280136   -1.093227   -0.859873
    123          1           0      -13.981680   -0.109692   -2.209027
    124          1           0      -13.747744    1.800775   -0.168389
    125          1           0      -16.222223    1.038402   -1.721726
    126          1           0      -14.821268    2.193573   -2.227702
    127          1           0      -16.029557    2.560334   -0.980961
    128          1           0      -15.137504   -0.218320    1.163036
    129          1           0      -16.364351    0.788949    0.455801
    130          1           0      -16.006478    2.099881    2.335516
    131          1           0      -14.642796    2.803524    1.546686
    132          1           0      -13.179164    1.034434    2.473152
    133          1           0      -14.476610    0.763101    3.624621
    134          1           0      -14.184449    3.426607    4.041148
    135          1           0      -12.056728    4.358386    3.839825
    136          1           0      -12.497424    3.709427    2.401447
    137          1           0      -11.321502    2.765302    3.409331
    138          1           0      -13.742585    2.479536    6.173300
    139          1           0      -12.079095    2.398014    5.595942
    140          1           0      -13.086136    1.000659    5.364274
 ---------------------------------------------------------------------
 Rotational constants (GHZ):           0.0493075           0.0077009           0.0070948
 Leave Link  202 at Fri Apr 29 01:16:33 2022, MaxMem=  6710886400 cpu:               0.2 elap:               0.0
 (Enter /sw/apps/gaussian-16.0/g16/l301.exe)
 Standard basis: VSTO-6G (5D, 7F)
 Ernie: Thresh=  0.10000D-02 Tol=  0.10000D-05 Strict=F.
 There are   338 symmetry adapted cartesian basis functions of A   symmetry.
 There are   338 symmetry adapted basis functions of A   symmetry.
   338 basis functions,  2028 primitive gaussians,   338 cartesian basis functions
   176 alpha electrons      176 beta electrons
       nuclear repulsion energy      4634.6663232528 Hartrees.
 IExCor=    0 DFT=F Ex=HF Corr=None ExCW=0 ScaHFX=  1.000000
 ScaDFX=  1.000000  1.000000  1.000000  1.000000 ScalE2=  1.000000  1.000000
 IRadAn=      5 IRanWt=     -1 IRanGd=            0 ICorTp=0 IEmpDi=  4
 Integral buffers will be    131072 words long.
 Regular integral format.
 Two-electron integral symmetry is turned off.
 Leave Link  301 at Fri Apr 29 01:16:33 2022, MaxMem=  6710886400 cpu:               1.2 elap:               0.1
 (Enter /sw/apps/gaussian-16.0/g16/l302.exe)
 Do NDO integrals.
 NPDir=0 NMtPBC=     1 NCelOv=     1 NCel=       1 NClECP=     1 NCelD=      1
         NCelK=      1 NCelE2=     1 NClLst=     1 CellRange=     0.0.
 One-electron integrals computed using PRISM.
 Generate ZINDO/S integrals.
 NDO Nuclear repulsion=  4162.690038833758 Hartrees.
 NBasis=   338 RedAO= F EigKep=  0.00D+00  NBF=   338
 NBsUse=   338 1.00D-04 EigRej=  0.00D+00 NBFU=   338
 Leave Link  302 at Fri Apr 29 01:16:34 2022, MaxMem=  6710886400 cpu:               7.6 elap:               0.3
 (Enter /sw/apps/gaussian-16.0/g16/l303.exe)
 DipDrv:  MaxL=1.
 DipDrv:  will hold  3 matrices at once.
 Leave Link  303 at Fri Apr 29 01:16:34 2022, MaxMem=  6710886400 cpu:               0.6 elap:               0.0
 (Enter /sw/apps/gaussian-16.0/g16/l308.exe)
 Leave Link  308 at Fri Apr 29 01:16:34 2022, MaxMem=  6710886400 cpu:               4.2 elap:               0.2
 (Enter /sw/apps/gaussian-16.0/g16/l401.exe)
 Simple Huckel Guess.
 JPrj=0 DoOrth=F DoCkMO=F.
 Leave Link  401 at Fri Apr 29 01:16:34 2022, MaxMem=  6710886400 cpu:               3.0 elap:               0.1
 (Enter /sw/apps/gaussian-16.0/g16/l502.exe)
 Two-electron integral symmetry not used.
 Closed shell SCF:
 Using DIIS extrapolation, IDIIS=  1040.
 Overlap will be assumed to be unity.
 NGot=  6710886400 LenX=  6710643598 LenY=  6710528913
 Requested convergence on RMS density matrix=1.00D-08 within 128 cycles.
 Requested convergence on MAX density matrix=1.00D-06.
 Requested convergence on             energy=1.00D-06.
 No special actions if energy rises.
 Fock matrices will be formed incrementally for  20 cycles.

 Cycle   1  Pass 1  IDiag  1:
 E= -472.194802454040    
 DIIS: error= 6.25D-02 at cycle   1 NSaved=   1.
 NSaved= 1 IEnMin= 1 EnMin= -472.194802454040     IErMin= 1 ErrMin= 6.25D-02
 ErrMax= 6.25D-02  0.00D+00 EMaxC= 1.00D-01 BMatC= 8.37D-01 BMatP= 8.37D-01
 IDIUse=3 WtCom= 3.75D-01 WtEn= 6.25D-01
 Coeff-Com:  0.100D+01
 Coeff-En:   0.100D+01
 Coeff:      0.100D+01
 GapD=    2.000 DampG=2.000 DampE=0.500 DampFc=1.0000 IDamp=-1.
 RMSDP=4.06D-03 MaxDP=1.86D-01              OVMax= 0.00D+00

 Cycle   2  Pass 1  IDiag  1:
 RMSU=  4.06D-03    CP:  9.95D-01
 E= -474.041974486295     Delta-E=       -1.847172032255 Rises=F Damp=F
 DIIS: error= 2.27D-02 at cycle   2 NSaved=   2.
 NSaved= 2 IEnMin= 2 EnMin= -474.041974486295     IErMin= 2 ErrMin= 2.27D-02
 ErrMax= 2.27D-02  0.00D+00 EMaxC= 1.00D-01 BMatC= 5.27D-02 BMatP= 8.37D-01
 IDIUse=3 WtCom= 7.73D-01 WtEn= 2.27D-01
 Coeff-Com: -0.681D-01 0.107D+01
 Coeff-En:   0.000D+00 0.100D+01
 Coeff:     -0.527D-01 0.105D+01
 RMSDP=1.15D-03 MaxDP=6.90D-02 DE=-1.85D+00 OVMax= 0.00D+00

 Cycle   3  Pass 1  IDiag  1:
 RMSU=  1.10D-03    CP:  9.93D-01  1.08D+00
 E= -474.145270475820     Delta-E=       -0.103295989526 Rises=F Damp=F
 DIIS: error= 1.23D-02 at cycle   3 NSaved=   3.
 NSaved= 3 IEnMin= 3 EnMin= -474.145270475820     IErMin= 3 ErrMin= 1.23D-02
 ErrMax= 1.23D-02  0.00D+00 EMaxC= 1.00D-01 BMatC= 7.64D-03 BMatP= 5.27D-02
 IDIUse=3 WtCom= 8.77D-01 WtEn= 1.23D-01
 Coeff-Com: -0.679D-01 0.243D+00 0.825D+00
 Coeff-En:   0.000D+00 0.000D+00 0.100D+01
 Coeff:     -0.595D-01 0.213D+00 0.846D+00
 RMSDP=4.06D-04 MaxDP=2.16D-02 DE=-1.03D-01 OVMax= 0.00D+00

 Cycle   4  Pass 1  IDiag  1:
 RMSU=  2.71D-04    CP:  9.93D-01  1.15D+00  9.07D-01
 E= -474.158802701729     Delta-E=       -0.013532225908 Rises=F Damp=F
 DIIS: error= 2.00D-03 at cycle   4 NSaved=   4.
 NSaved= 4 IEnMin= 4 EnMin= -474.158802701729     IErMin= 4 ErrMin= 2.00D-03
 ErrMax= 2.00D-03  0.00D+00 EMaxC= 1.00D-01 BMatC= 3.88D-04 BMatP= 7.64D-03
 IDIUse=3 WtCom= 9.80D-01 WtEn= 2.00D-02
 Coeff-Com: -0.369D-02-0.240D-01 0.774D-01 0.950D+00
 Coeff-En:   0.000D+00 0.000D+00 0.000D+00 0.100D+01
 Coeff:     -0.361D-02-0.235D-01 0.758D-01 0.951D+00
 RMSDP=1.65D-04 MaxDP=8.55D-03 DE=-1.35D-02 OVMax= 0.00D+00

 Cycle   5  Pass 1  IDiag  1:
 RMSU=  1.12D-04    CP:  9.92D-01  1.16D+00  1.02D+00  9.20D-01
 E= -474.159994413544     Delta-E=       -0.001191711815 Rises=F Damp=F
 DIIS: error= 7.08D-04 at cycle   5 NSaved=   5.
 NSaved= 5 IEnMin= 5 EnMin= -474.159994413544     IErMin= 5 ErrMin= 7.08D-04
 ErrMax= 7.08D-04  0.00D+00 EMaxC= 1.00D-01 BMatC= 9.52D-05 BMatP= 3.88D-04
 IDIUse=3 WtCom= 9.93D-01 WtEn= 7.08D-03
 Coeff-Com:  0.667D-02-0.303D-01-0.100D+00 0.254D+00 0.870D+00
 Coeff-En:   0.000D+00 0.000D+00 0.000D+00 0.000D+00 0.100D+01
 Coeff:      0.662D-02-0.301D-01-0.993D-01 0.252D+00 0.871D+00
 RMSDP=6.54D-05 MaxDP=3.44D-03 DE=-1.19D-03 OVMax= 0.00D+00

 Cycle   6  Pass 1  IDiag  1:
 RMSU=  3.55D-05    CP:  9.92D-01  1.16D+00  1.03D+00  1.11D+00  1.02D+00
 E= -474.160270262983     Delta-E=       -0.000275849438 Rises=F Damp=F
 DIIS: error= 3.38D-04 at cycle   6 NSaved=   6.
 NSaved= 6 IEnMin= 6 EnMin= -474.160270262983     IErMin= 6 ErrMin= 3.38D-04
 ErrMax= 3.38D-04  0.00D+00 EMaxC= 1.00D-01 BMatC= 8.46D-06 BMatP= 9.52D-05
 IDIUse=3 WtCom= 9.97D-01 WtEn= 3.38D-03
 Coeff-Com:  0.552D-03 0.323D-02-0.257D-01-0.721D-01 0.311D-01 0.106D+01
 Coeff-En:   0.000D+00 0.000D+00 0.000D+00 0.000D+00 0.000D+00 0.100D+01
 Coeff:      0.551D-03 0.322D-02-0.256D-01-0.718D-01 0.310D-01 0.106D+01
 RMSDP=3.88D-05 MaxDP=1.70D-03 DE=-2.76D-04 OVMax= 0.00D+00

 Cycle   7  Pass 1  IDiag  1:
 RMSU=  1.87D-05    CP:  9.92D-01  1.16D+00  1.04D+00  1.12D+00  1.27D+00
                    CP:  1.30D+00
 E= -474.160321183436     Delta-E=       -0.000050920454 Rises=F Damp=F
 DIIS: error= 1.04D-04 at cycle   7 NSaved=   7.
 NSaved= 7 IEnMin= 7 EnMin= -474.160321183436     IErMin= 7 ErrMin= 1.04D-04
 ErrMax= 1.04D-04  0.00D+00 EMaxC= 1.00D-01 BMatC= 2.54D-06 BMatP= 8.46D-06
 IDIUse=3 WtCom= 9.99D-01 WtEn= 1.04D-03
 Coeff-Com: -0.794D-03 0.438D-02 0.705D-02-0.235D-01-0.151D+00 0.177D+00
 Coeff-Com:  0.986D+00
 Coeff-En:   0.000D+00 0.000D+00 0.000D+00 0.000D+00 0.000D+00 0.000D+00
 Coeff-En:   0.100D+01
 Coeff:     -0.793D-03 0.438D-02 0.704D-02-0.235D-01-0.150D+00 0.177D+00
 Coeff:      0.986D+00
 RMSDP=2.26D-05 MaxDP=1.12D-03 DE=-5.09D-05 OVMax= 0.00D+00

 Cycle   8  Pass 1  IDiag  1:
 RMSU=  6.89D-06    CP:  9.92D-01  1.16D+00  1.05D+00  1.12D+00  1.38D+00
                    CP:  1.63D+00  1.70D+00
 E= -474.160341477022     Delta-E=       -0.000020293586 Rises=F Damp=F
 DIIS: error= 6.37D-05 at cycle   8 NSaved=   8.
 NSaved= 8 IEnMin= 8 EnMin= -474.160341477022     IErMin= 8 ErrMin= 6.37D-05
 ErrMax= 6.37D-05  0.00D+00 EMaxC= 1.00D-01 BMatC= 1.04D-06 BMatP= 2.54D-06
 IDIUse=1 WtCom= 1.00D+00 WtEn= 0.00D+00
 Coeff-Com:  0.469D-04-0.137D-02 0.275D-02 0.297D-01-0.317D-01-0.979D-01
 Coeff-Com: -0.395D+00 0.149D+01
 Coeff:      0.469D-04-0.137D-02 0.275D-02 0.297D-01-0.317D-01-0.979D-01
 Coeff:     -0.395D+00 0.149D+01
 RMSDP=2.73D-05 MaxDP=1.12D-03 DE=-2.03D-05 OVMax= 0.00D+00

 Cycle   9  Pass 1  IDiag  1:
 RMSU=  4.36D-06    CP:  9.92D-01  1.16D+00  1.05D+00  1.11D+00  1.49D+00
                    CP:  1.91D+00  2.72D+00  2.15D+00
 E= -474.160358297291     Delta-E=       -0.000016820269 Rises=F Damp=F
 DIIS: error= 4.86D-05 at cycle   9 NSaved=   9.
 NSaved= 9 IEnMin= 9 EnMin= -474.160358297291     IErMin= 9 ErrMin= 4.86D-05
 ErrMax= 4.86D-05  0.00D+00 EMaxC= 1.00D-01 BMatC= 6.64D-07 BMatP= 1.04D-06
 IDIUse=1 WtCom= 1.00D+00 WtEn= 0.00D+00
 Coeff-Com:  0.406D-03-0.183D-02-0.527D-02 0.108D-01 0.411D-01 0.893D-01
 Coeff-Com: -0.803D+00-0.596D-01 0.173D+01
 Coeff:      0.406D-03-0.183D-02-0.527D-02 0.108D-01 0.411D-01 0.893D-01
 Coeff:     -0.803D+00-0.596D-01 0.173D+01
 RMSDP=3.77D-05 MaxDP=1.52D-03 DE=-1.68D-05 OVMax= 0.00D+00

 Cycle  10  Pass 1  IDiag  1:
 RMSU=  2.26D-05    CP:  9.92D-01  1.16D+00  1.06D+00  1.10D+00  1.64D+00
                    CP:  2.27D+00  3.00D+00  3.00D+00  2.52D+00
 E= -474.160374276049     Delta-E=       -0.000015978758 Rises=F Damp=F
 DIIS: error= 3.23D-05 at cycle  10 NSaved=  10.
 NSaved=10 IEnMin=10 EnMin= -474.160374276049     IErMin=10 ErrMin= 3.23D-05
 ErrMax= 3.23D-05  0.00D+00 EMaxC= 1.00D-01 BMatC= 2.11D-07 BMatP= 6.64D-07
 IDIUse=1 WtCom= 1.00D+00 WtEn= 0.00D+00
 Coeff-Com: -0.900D-04 0.109D-02-0.121D-02-0.150D-01-0.788D-02 0.135D+00
 Coeff-Com:  0.120D+00-0.439D+00-0.587D+00 0.179D+01
 Coeff:     -0.900D-04 0.109D-02-0.121D-02-0.150D-01-0.788D-02 0.135D+00
 Coeff:      0.120D+00-0.439D+00-0.587D+00 0.179D+01
 RMSDP=3.18D-05 MaxDP=1.33D-03 DE=-1.60D-05 OVMax= 0.00D+00

 Cycle  11  Pass 1  IDiag  1:
 RMSU=  7.19D-06    CP:  9.92D-01  1.16D+00  1.06D+00  1.08D+00  1.76D+00
                    CP:  2.53D+00  3.00D+00  3.00D+00  3.00D+00  2.11D+00
 E= -474.160381277562     Delta-E=       -0.000007001513 Rises=F Damp=F
 DIIS: error= 1.39D-05 at cycle  11 NSaved=  11.
 NSaved=11 IEnMin=11 EnMin= -474.160381277562     IErMin=11 ErrMin= 1.39D-05
 ErrMax= 1.39D-05  0.00D+00 EMaxC= 1.00D-01 BMatC= 4.52D-08 BMatP= 2.11D-07
 IDIUse=1 WtCom= 1.00D+00 WtEn= 0.00D+00
 Coeff-Com: -0.946D-04 0.423D-03 0.142D-02-0.265D-02-0.136D-01-0.706D-02
 Coeff-Com:  0.138D+00 0.145D+00-0.623D+00 0.994D-03 0.136D+01
 Coeff:     -0.946D-04 0.423D-03 0.142D-02-0.265D-02-0.136D-01-0.706D-02
 Coeff:      0.138D+00 0.145D+00-0.623D+00 0.994D-03 0.136D+01
 RMSDP=1.72D-05 MaxDP=7.27D-04 DE=-7.00D-06 OVMax= 0.00D+00

 Cycle  12  Pass 1  IDiag  1:
 RMSU=  1.36D-06    CP:  9.92D-01  1.16D+00  1.06D+00  1.07D+00  1.82D+00
                    CP:  2.66D+00  3.00D+00  3.00D+00  3.00D+00  2.71D+00
                    CP:  1.76D+00
 E= -474.160382639705     Delta-E=       -0.000001362143 Rises=F Damp=F
 DIIS: error= 7.12D-06 at cycle  12 NSaved=  12.
 NSaved=12 IEnMin=12 EnMin= -474.160382639705     IErMin=12 ErrMin= 7.12D-06
 ErrMax= 7.12D-06  0.00D+00 EMaxC= 1.00D-01 BMatC= 5.56D-09 BMatP= 4.52D-08
 IDIUse=1 WtCom= 1.00D+00 WtEn= 0.00D+00
 Coeff-Com:  0.325D-04-0.289D-03 0.144D-03 0.350D-02 0.245D-02-0.213D-01
 Coeff-Com: -0.639D-01 0.133D+00 0.175D+00-0.389D+00-0.172D+00 0.133D+01
 Coeff:      0.325D-04-0.289D-03 0.144D-03 0.350D-02 0.245D-02-0.213D-01
 Coeff:     -0.639D-01 0.133D+00 0.175D+00-0.389D+00-0.172D+00 0.133D+01
 RMSDP=3.18D-06 MaxDP=1.30D-04 DE=-1.36D-06 OVMax= 0.00D+00

 Cycle  13  Pass 1  IDiag  1:
 RMSU=  6.53D-07    CP:  9.92D-01  1.16D+00  1.06D+00  1.07D+00  1.83D+00
                    CP:  2.68D+00  3.00D+00  3.00D+00  3.00D+00  2.80D+00
                    CP:  1.96D+00  1.66D+00
 E= -474.160382727438     Delta-E=       -0.000000087733 Rises=F Damp=F
 DIIS: error= 3.15D-06 at cycle  13 NSaved=  13.
 NSaved=13 IEnMin=13 EnMin= -474.160382727438     IErMin=13 ErrMin= 3.15D-06
 ErrMax= 3.15D-06  0.00D+00 EMaxC= 1.00D-01 BMatC= 8.55D-10 BMatP= 5.56D-09
 IDIUse=1 WtCom= 1.00D+00 WtEn= 0.00D+00
 Coeff-Com:  0.125D-04-0.605D-04-0.195D-03 0.534D-03 0.166D-02 0.116D-02
 Coeff-Com: -0.242D-01-0.106D-01 0.710D-01-0.216D-02-0.158D+00 0.618D-02
 Coeff-Com:  0.111D+01
 Coeff:      0.125D-04-0.605D-04-0.195D-03 0.534D-03 0.166D-02 0.116D-02
 Coeff:     -0.242D-01-0.106D-01 0.710D-01-0.216D-02-0.158D+00 0.618D-02
 Coeff:      0.111D+01
 RMSDP=1.09D-06 MaxDP=4.45D-05 DE=-8.77D-08 OVMax= 0.00D+00

 Cycle  14  Pass 1  IDiag  1:
 RMSU=  2.35D-07    CP:  9.92D-01  1.16D+00  1.06D+00  1.07D+00  1.83D+00
                    CP:  2.69D+00  3.00D+00  3.00D+00  3.00D+00  2.84D+00
                    CP:  2.02D+00  1.91D+00  1.48D+00
 E= -474.160382740434     Delta-E=       -0.000000012997 Rises=F Damp=F
 DIIS: error= 1.59D-06 at cycle  14 NSaved=  14.
 NSaved=14 IEnMin=14 EnMin= -474.160382740434     IErMin=14 ErrMin= 1.59D-06
 ErrMax= 1.59D-06  0.00D+00 EMaxC= 1.00D-01 BMatC= 3.21D-10 BMatP= 8.55D-10
 IDIUse=1 WtCom= 1.00D+00 WtEn= 0.00D+00
 Coeff-Com: -0.111D-04 0.844D-04-0.110D-04-0.833D-03-0.137D-02 0.549D-02
 Coeff-Com:  0.195D-01-0.301D-01-0.498D-01 0.863D-01 0.729D-01-0.347D+00
 Coeff-Com: -0.136D+00 0.138D+01
 Coeff:     -0.111D-04 0.844D-04-0.110D-04-0.833D-03-0.137D-02 0.549D-02
 Coeff:      0.195D-01-0.301D-01-0.498D-01 0.863D-01 0.729D-01-0.347D+00
 Coeff:     -0.136D+00 0.138D+01
 RMSDP=5.29D-07 MaxDP=2.34D-05 DE=-1.30D-08 OVMax= 0.00D+00

 Cycle  15  Pass 1  IDiag  1:
 RMSU=  1.14D-07    CP:  9.92D-01  1.16D+00  1.06D+00  1.07D+00  1.84D+00
                    CP:  2.69D+00  3.00D+00  3.00D+00  3.00D+00  2.84D+00
                    CP:  2.04D+00  2.08D+00  1.95D+00  2.07D+00
 E= -474.160382745588     Delta-E=       -0.000000005154 Rises=F Damp=F
 DIIS: error= 9.82D-07 at cycle  15 NSaved=  15.
 NSaved=15 IEnMin=15 EnMin= -474.160382745588     IErMin=15 ErrMin= 9.82D-07
 ErrMax= 9.82D-07  0.00D+00 EMaxC= 1.00D-01 BMatC= 1.12D-10 BMatP= 3.21D-10
 IDIUse=1 WtCom= 1.00D+00 WtEn= 0.00D+00
 Coeff-Com: -0.406D-05 0.177D-04 0.770D-04-0.806D-04-0.919D-03-0.225D-03
 Coeff-Com:  0.852D-02 0.105D-02-0.168D-01-0.115D-01 0.650D-01 0.962D-02
 Coeff-Com: -0.362D+00-0.402D-01 0.135D+01
 Coeff:     -0.406D-05 0.177D-04 0.770D-04-0.806D-04-0.919D-03-0.225D-03
 Coeff:      0.852D-02 0.105D-02-0.168D-01-0.115D-01 0.650D-01 0.962D-02
 Coeff:     -0.362D+00-0.402D-01 0.135D+01
 RMSDP=3.42D-07 MaxDP=1.63D-05 DE=-5.15D-09 OVMax= 0.00D+00

 Cycle  16  Pass 1  IDiag  1:
 RMSU=  5.48D-08    CP:  9.92D-01  1.16D+00  1.06D+00  1.07D+00  1.84D+00
                    CP:  2.69D+00  3.00D+00  3.00D+00  3.00D+00  2.84D+00
                    CP:  2.05D+00  2.17D+00  2.24D+00  2.99D+00  1.83D+00
 E= -474.160382747543     Delta-E=       -0.000000001955 Rises=F Damp=F
 DIIS: error= 4.92D-07 at cycle  16 NSaved=  16.
 NSaved=16 IEnMin=16 EnMin= -474.160382747543     IErMin=16 ErrMin= 4.92D-07
 ErrMax= 4.92D-07  0.00D+00 EMaxC= 1.00D-01 BMatC= 3.59D-11 BMatP= 1.12D-10
 IDIUse=1 WtCom= 1.00D+00 WtEn= 0.00D+00
 Coeff-Com:  0.525D-05-0.381D-04-0.664D-06 0.396D-03 0.411D-03-0.187D-02
 Coeff-Com: -0.882D-02 0.872D-02 0.292D-01-0.416D-01-0.296D-01 0.130D+00
 Coeff-Com:  0.906D-01-0.525D+00-0.227D+00 0.157D+01
 Coeff:      0.525D-05-0.381D-04-0.664D-06 0.396D-03 0.411D-03-0.187D-02
 Coeff:     -0.882D-02 0.872D-02 0.292D-01-0.416D-01-0.296D-01 0.130D+00
 Coeff:      0.906D-01-0.525D+00-0.227D+00 0.157D+01
 RMSDP=2.76D-07 MaxDP=1.28D-05 DE=-1.95D-09 OVMax= 0.00D+00

 Cycle  17  Pass 1  IDiag  1:
 RMSU=  1.69D-07    CP:  9.92D-01  1.16D+00  1.06D+00  1.07D+00  1.84D+00
                    CP:  2.69D+00  3.00D+00  3.00D+00  3.00D+00  2.85D+00
                    CP:  2.05D+00  2.24D+00  2.46D+00  3.00D+00  2.73D+00
                    CP:  2.06D+00
 E= -474.160382748251     Delta-E=       -0.000000000708 Rises=F Damp=F
 DIIS: error= 2.65D-07 at cycle  17 NSaved=  17.
 NSaved=17 IEnMin=17 EnMin= -474.160382748251     IErMin=17 ErrMin= 2.65D-07
 ErrMax= 2.65D-07  0.00D+00 EMaxC= 1.00D-01 BMatC= 5.37D-12 BMatP= 3.59D-11
 IDIUse=1 WtCom= 1.00D+00 WtEn= 0.00D+00
 Coeff-Com:  0.358D-06-0.719D-06-0.159D-04 0.205D-05 0.749D-04 0.269D-03
 Coeff-Com: -0.107D-02-0.125D-02 0.288D-02 0.189D-02-0.541D-02-0.156D-01
 Coeff-Com:  0.573D-01 0.558D-01-0.223D+00-0.115D+00 0.124D+01
 Coeff:      0.358D-06-0.719D-06-0.159D-04 0.205D-05 0.749D-04 0.269D-03
 Coeff:     -0.107D-02-0.125D-02 0.288D-02 0.189D-02-0.541D-02-0.156D-01
 Coeff:      0.573D-01 0.558D-01-0.223D+00-0.115D+00 0.124D+01
 RMSDP=7.68D-08 MaxDP=3.55D-06 DE=-7.08D-10 OVMax= 0.00D+00

 Cycle  18  Pass 1  IDiag  1:
 RMSU=  1.51D-08    CP:  9.92D-01  1.16D+00  1.06D+00  1.07D+00  1.84D+00
                    CP:  2.69D+00  3.00D+00  3.00D+00  3.00D+00  2.85D+00
                    CP:  2.05D+00  2.25D+00  2.51D+00  3.00D+00  3.00D+00
                    CP:  2.62D+00  1.27D+00
 E= -474.160382748377     Delta-E=       -0.000000000126 Rises=F Damp=F
 DIIS: error= 1.79D-07 at cycle  18 NSaved=  18.
 NSaved=18 IEnMin=18 EnMin= -474.160382748377     IErMin=18 ErrMin= 1.79D-07
 ErrMax= 1.79D-07  0.00D+00 EMaxC= 1.00D-01 BMatC= 1.27D-12 BMatP= 5.37D-12
 IDIUse=1 WtCom= 1.00D+00 WtEn= 0.00D+00
 Coeff-Com: -0.138D-05 0.983D-05 0.649D-06-0.981D-04-0.111D-03 0.466D-03
 Coeff-Com:  0.220D-02-0.223D-02-0.694D-02 0.896D-02 0.947D-02-0.321D-01
 Coeff-Com: -0.220D-01 0.117D+00 0.758D-01-0.397D+00-0.125D+00 0.137D+01
 Coeff:     -0.138D-05 0.983D-05 0.649D-06-0.981D-04-0.111D-03 0.466D-03
 Coeff:      0.220D-02-0.223D-02-0.694D-02 0.896D-02 0.947D-02-0.321D-01
 Coeff:     -0.220D-01 0.117D+00 0.758D-01-0.397D+00-0.125D+00 0.137D+01
 RMSDP=4.25D-08 MaxDP=1.87D-06 DE=-1.26D-10 OVMax= 0.00D+00

 Cycle  19  Pass 1  IDiag  1:
 RMSU=  1.72D-08    CP:  9.92D-01  1.16D+00  1.06D+00  1.07D+00  1.84D+00
                    CP:  2.69D+00  3.00D+00  3.00D+00  3.00D+00  2.85D+00
                    CP:  2.05D+00  2.26D+00  2.53D+00  3.00D+00  3.00D+00
                    CP:  2.94D+00  1.41D+00  2.04D+00
 E= -474.160382748375     Delta-E=        0.000000000002 Rises=F Damp=F
 DIIS: error= 8.62D-08 at cycle  19 NSaved=  19.
 NSaved=19 IEnMin=18 EnMin= -474.160382748377     IErMin=19 ErrMin= 8.62D-08
 ErrMax= 8.62D-08  0.00D+00 EMaxC= 1.00D-01 BMatC= 2.04D-13 BMatP= 1.27D-12
 IDIUse=1 WtCom= 1.00D+00 WtEn= 0.00D+00
 Coeff-Com: -0.698D-08-0.294D-06 0.377D-05 0.345D-05-0.868D-05-0.815D-04
 Coeff-Com:  0.873D-04 0.309D-03-0.826D-04-0.948D-03 0.745D-03 0.437D-02
 Coeff-Com: -0.723D-02-0.272D-01 0.475D-01 0.613D-01-0.258D+00-0.631D-01
 Coeff-Com:  0.124D+01
 Coeff:     -0.698D-08-0.294D-06 0.377D-05 0.345D-05-0.868D-05-0.815D-04
 Coeff:      0.873D-04 0.309D-03-0.826D-04-0.948D-03 0.745D-03 0.437D-02
 Coeff:     -0.723D-02-0.272D-01 0.475D-01 0.613D-01-0.258D+00-0.631D-01
 Coeff:      0.124D+01
 RMSDP=1.15D-08 MaxDP=8.39D-07 DE= 1.82D-12 OVMax= 0.00D+00

 Cycle  20  Pass 1  IDiag  1:
 RMSU=  3.53D-09    CP:  9.92D-01  1.16D+00  1.06D+00  1.07D+00  1.84D+00
                    CP:  2.69D+00  3.00D+00  3.00D+00  3.00D+00  2.85D+00
                    CP:  2.05D+00  2.26D+00  2.54D+00  3.00D+00  3.00D+00
                    CP:  3.00D+00  1.44D+00  2.52D+00  1.21D+00
 E= -474.160382748344     Delta-E=        0.000000000031 Rises=F Damp=F
 DIIS: error= 3.57D-08 at cycle  20 NSaved=  20.
 NSaved=20 IEnMin=18 EnMin= -474.160382748377     IErMin=20 ErrMin= 3.57D-08
 ErrMax= 3.57D-08  0.00D+00 EMaxC= 1.00D-01 BMatC= 3.42D-14 BMatP= 2.04D-13
 IDIUse=1 WtCom= 1.00D+00 WtEn= 0.00D+00
 Coeff-Com:  0.295D-06-0.209D-05 0.312D-07 0.201D-04 0.239D-04-0.984D-04
 Coeff-Com: -0.449D-03 0.515D-03 0.133D-02-0.178D-02-0.195D-02 0.652D-02
 Coeff-Com:  0.582D-02-0.271D-01-0.128D-01 0.807D-01 0.103D-01-0.243D+00
 Coeff-Com: -0.239D-01 0.121D+01
 Coeff:      0.295D-06-0.209D-05 0.312D-07 0.201D-04 0.239D-04-0.984D-04
 Coeff:     -0.449D-03 0.515D-03 0.133D-02-0.178D-02-0.195D-02 0.652D-02
 Coeff:      0.582D-02-0.271D-01-0.128D-01 0.807D-01 0.103D-01-0.243D+00
 Coeff:     -0.239D-01 0.121D+01
 RMSDP=4.62D-09 MaxDP=3.78D-07 DE= 3.09D-11 OVMax= 0.00D+00

 SCF Done:  E(RZINDO/S) =  -474.160382748     A.U. after   20 cycles
            NFock= 20  Conv=0.46D-08     -V/T= 0.9473
 KE=-8.999552925798D+03 PE= 2.022679836955D-07 EE= 4.362702504014D+03
 Leave Link  502 at Fri Apr 29 01:16:35 2022, MaxMem=  6710886400 cpu:              19.9 elap:               0.8
 (Enter /sw/apps/gaussian-16.0/g16/l801.exe)
 Range of M.O.s used for correlation:     1   338
 NBasis=   338 NAE=   176 NBE=   176 NFC=     0 NFV=     0
 NROrb=    338 NOA=   176 NOB=   176 NVA=   162 NVB=   162
 Leave Link  801 at Fri Apr 29 01:16:35 2022, MaxMem=  6710886400 cpu:               0.5 elap:               0.0
 (Enter /sw/apps/gaussian-16.0/g16/l914.exe)
 RHF ground state
 Two-electron integral symmetry not used.
 MDV=  6710886400 DFT=F DoStab=F Mixed=F DoRPA=F DoScal=F NonHer=F
 Making orbital integer symmetry assigments:
 Orbital symmetries:
       Occupied  (A) (A) (A) (A) (A) (A) (A) (A) (A) (A) (A) (A)
                 (A) (A) (A) (A) (A) (A) (A) (A) (A) (A) (A) (A)
                 (A) (A) (A) (A) (A) (A) (A) (A) (A) (A) (A) (A)
                 (A) (A) (A) (A) (A) (A) (A) (A) (A) (A) (A) (A)
                 (A) (A) (A) (A) (A) (A) (A) (A) (A) (A) (A) (A)
                 (A) (A) (A) (A) (A) (A) (A) (A) (A) (A) (A) (A)
                 (A) (A) (A) (A) (A) (A) (A) (A) (A) (A) (A) (A)
                 (A) (A) (A) (A) (A) (A) (A) (A) (A) (A) (A) (A)
                 (A) (A) (A) (A) (A) (A) (A) (A) (A) (A) (A) (A)
                 (A) (A) (A) (A) (A) (A) (A) (A) (A) (A) (A) (A)
                 (A) (A) (A) (A) (A) (A) (A) (A) (A) (A) (A) (A)
                 (A) (A) (A) (A) (A) (A) (A) (A) (A) (A) (A) (A)
                 (A) (A) (A) (A) (A) (A) (A) (A) (A) (A) (A) (A)
                 (A) (A) (A) (A) (A) (A) (A) (A) (A) (A) (A) (A)
                 (A) (A) (A) (A) (A) (A) (A) (A)
       Virtual   (A) (A) (A) (A) (A) (A) (A) (A) (A) (A) (A) (A)
                 (A) (A) (A) (A) (A) (A) (A) (A) (A) (A) (A) (A)
                 (A) (A) (A) (A) (A) (A) (A) (A) (A) (A) (A) (A)
                 (A) (A) (A) (A) (A) (A) (A) (A) (A) (A) (A) (A)
                 (A) (A) (A) (A) (A) (A) (A) (A) (A) (A) (A) (A)
                 (A) (A) (A) (A) (A) (A) (A) (A) (A) (A) (A) (A)
                 (A) (A) (A) (A) (A) (A) (A) (A) (A) (A) (A) (A)
                 (A) (A) (A) (A) (A) (A) (A) (A) (A) (A) (A) (A)
                 (A) (A) (A) (A) (A) (A) (A) (A) (A) (A) (A) (A)
                 (A) (A) (A) (A) (A) (A) (A) (A) (A) (A) (A) (A)
                 (A) (A) (A) (A) (A) (A) (A) (A) (A) (A) (A) (A)
                 (A) (A) (A) (A) (A) (A) (A) (A) (A) (A) (A) (A)
                 (A) (A) (A) (A) (A) (A) (A) (A) (A) (A) (A) (A)
                 (A) (A) (A) (A) (A) (A)
    20 initial guesses have been made.
 Convergence on wavefunction:    0.001000000000000
 Davidson Disk Diagonalization:  ConvIn= 1.00D-03 SkipCon=T Conv= 1.00D-03.
 Max sub-space:  2000 roots to seek:    20 dimension of matrix:        57024
 Iteration     1 Dimension    20 NMult     0 NNew     20
 CISAX will form    20 AO SS matrices at one time.
 NMat=    20 NSing=    20 JSym2X= 0.
 New state      3 was old state      5
 New state      5 was old state      3
 Excitation Energies [eV] at current iteration:
 Root      1 :     1.602824981303999
 Root      2 :     2.124416371943165
 Root      3 :     2.983498801975244
 Root      4 :     3.166852241389935
 Root      5 :     3.349611675655982
 Root      6 :     3.410666856915009
 Root      7 :     3.571716322920417
 Root      8 :     3.599795869646267
 Root      9 :     3.868054893931865
 Root     10 :     3.921409196847224
 Root     11 :     4.137851601815979
 Root     12 :     4.177969274600346
 Root     13 :     4.323069780441691
 Root     14 :     4.388785653477679
 Root     15 :     4.473000438533639
 Root     16 :     4.552562593130968
 Root     17 :     4.632596486699664
 Root     18 :     4.786851904612344
 Root     19 :     5.158666810804352
 Root     20 :     5.796096366331443
 Iteration     2 Dimension    40 NMult    20 NNew     20
 CISAX will form    20 AO SS matrices at one time.
 NMat=    20 NSing=    20 JSym2X= 0.
 Root      1 not converged, maximum delta is    0.046608306117469
 Root      2 not converged, maximum delta is    0.028536618953795
 Root      3 not converged, maximum delta is    0.345316969682831
 New state      4 was old state      5
 Root      4 not converged, maximum delta is    0.343696305396833
 New state      5 was old state      4
 Root      5 not converged, maximum delta is    0.446354313676457
 Excitation Energies [eV] at current iteration:
 Root      1 :     1.247844423330395   Change is   -0.354980557973604
 Root      2 :     1.930811278293033   Change is   -0.193605093650132
 Root      3 :     2.929712695772768   Change is   -0.053786106202476
 Root      4 :     2.975027935479921   Change is   -0.374583740176061
 Root      5 :     3.015744284885210   Change is   -0.151107956504724
 Root      6 :     3.198965978584563   Change is   -0.211700878330445
 Root      7 :     3.336785225165301   Change is   -0.263010644480966
 Root      8 :     3.371058699716146   Change is   -0.200657623204270
 Root      9 :     3.541877826717494   Change is   -0.379531370129730
 Root     10 :     3.617095303588785   Change is   -0.250959590343080
 Root     11 :     3.653404038146336   Change is   -0.899158554984633
 Root     12 :     3.790958649123791   Change is   -0.387010625476556
 Root     13 :     3.821321433554270   Change is   -0.316530168261709
 Root     14 :     4.004934894741437   Change is   -0.318134885700254
 Root     15 :     4.200049079859959   Change is   -0.272951358673679
 Root     16 :     4.250595723080241   Change is   -0.138189930397438
 Root     17 :     4.438001721713779   Change is   -0.194594764985885
 Root     18 :     4.718193415783084   Change is   -0.068658488829259
 Root     19 :     5.153388806598899   Change is   -0.005278004205453
 Root     20 :     5.552028671509208
 Iteration     3 Dimension    45 NMult    40 NNew      5
 CISAX will form     5 AO SS matrices at one time.
 NMat=     5 NSing=     5 JSym2X= 0.
 Root      1 not converged, maximum delta is    0.011342066086749
 Root      2 not converged, maximum delta is    0.017935403192271
 Root      3 not converged, maximum delta is    0.123459722820080
 Root      4 not converged, maximum delta is    0.139059665436405
 Root      5 not converged, maximum delta is    0.063184424591397
 Excitation Energies [eV] at current iteration:
 Root      1 :     1.231649999877131   Change is   -0.016194423453264
 Root      2 :     1.906276076091987   Change is   -0.024535202201047
 Root      3 :     2.911030853990530   Change is   -0.018681841782238
 Root      4 :     2.955257444295631   Change is   -0.019770491184289
 Root      5 :     3.002931491530654   Change is   -0.012812793354556
 Iteration     4 Dimension    50 NMult    45 NNew      5
 CISAX will form     5 AO SS matrices at one time.
 NMat=     5 NSing=     5 JSym2X= 0.
 Root      1 not converged, maximum delta is    0.001719835423015
 Root      2 not converged, maximum delta is    0.002188874102424
 Root      3 not converged, maximum delta is    0.008919524712440
 Root      4 not converged, maximum delta is    0.012678380515981
 Root      5 not converged, maximum delta is    0.011660089063414
 Excitation Energies [eV] at current iteration:
 Root      1 :     1.230853036784139   Change is   -0.000796963092992
 Root      2 :     1.905606765464668   Change is   -0.000669310627318
 Root      3 :     2.909507919534143   Change is   -0.001522934456387
 Root      4 :     2.952990952248592   Change is   -0.002266492047039
 Root      5 :     3.001214797787267   Change is   -0.001716693743387
 Iteration     5 Dimension    55 NMult    50 NNew      5
 CISAX will form     5 AO SS matrices at one time.
 NMat=     5 NSing=     5 JSym2X= 0.
 Root      1 has converged.
 Root      2 has converged.
 Root      3 not converged, maximum delta is    0.003275351994289
 Root      4 not converged, maximum delta is    0.009395883103246
 Root      5 not converged, maximum delta is    0.005550570401246
 Excitation Energies [eV] at current iteration:
 Root      1 :     1.230805819321698   Change is   -0.000047217462441
 Root      2 :     1.905560214950822   Change is   -0.000046550513846
 Root      3 :     2.909205332269944   Change is   -0.000302587264199
 Root      4 :     2.952229484094455   Change is   -0.000761468154137
 Root      5 :     3.000747001134200   Change is   -0.000467796653067
 Iteration     6 Dimension    58 NMult    55 NNew      3
 CISAX will form     3 AO SS matrices at one time.
 NMat=     3 NSing=     3 JSym2X= 0.
 Root      1 has converged.
 Root      2 has converged.
 Root      3 not converged, maximum delta is    0.006215873338616
 Root      4 not converged, maximum delta is    0.032433459645912
 Root      5 not converged, maximum delta is    0.030878978014138
 Excitation Energies [eV] at current iteration:
 Root      1 :     1.230805304737284   Change is   -0.000000514584415
 Root      2 :     1.905556151727978   Change is   -0.000004063222844
 Root      3 :     2.908979127762245   Change is   -0.000226204507698
 Root      4 :     2.950917484145625   Change is   -0.001311999948830
 Root      5 :     2.999689266748217   Change is   -0.001057734385983
 Iteration     7 Dimension    61 NMult    58 NNew      3
 CISAX will form     3 AO SS matrices at one time.
 NMat=     3 NSing=     3 JSym2X= 0.
 Root      1 has converged.
 Root      2 has converged.
 Root      3 not converged, maximum delta is    0.054265239474218
 Root      4 not converged, maximum delta is    0.149635246913818
 Root      5 not converged, maximum delta is    0.435661015308808
 Excitation Energies [eV] at current iteration:
 Root      1 :     1.230804755221800   Change is   -0.000000549515483
 Root      2 :     1.905551931859432   Change is   -0.000004219868546
 Root      3 :     2.907761717971256   Change is   -0.001217409790990
 Root      4 :     2.944776383394561   Change is   -0.006141100751064
 Root      5 :     2.968815465110640   Change is   -0.030873801637577
 Iteration     8 Dimension    64 NMult    61 NNew      3
 CISAX will form     3 AO SS matrices at one time.
 NMat=     3 NSing=     3 JSym2X= 0.
 Root      1 has converged.
 Root      2 has converged.
 New state      3 was old state      5
 Root      3 not converged, maximum delta is    0.446381525441247
 New state      4 was old state      3
 Root      4 not converged, maximum delta is    0.165250043497730
 New state      5 was old state      4
 Root      5 not converged, maximum delta is    0.211953249482179
 Excitation Energies [eV] at current iteration:
 Root      1 :     1.230804698971792   Change is   -0.000000056250009
 Root      2 :     1.905550528960935   Change is   -0.000001402898497
 Root      3 :     2.878079708513794   Change is   -0.090735756596846
 Root      4 :     2.911162975194040   Change is    0.003401257222784
 Root      5 :     2.949283734668560   Change is    0.004507351273999
 Iteration     9 Dimension    67 NMult    64 NNew      3
 CISAX will form     3 AO SS matrices at one time.
 NMat=     3 NSing=     3 JSym2X= 0.
 Root      1 has converged.
 Root      2 has converged.
 Root      3 not converged, maximum delta is    0.038854864639963
 Root      4 not converged, maximum delta is    0.026981483753247
 Root      5 not converged, maximum delta is    0.009766424780379
 Excitation Energies [eV] at current iteration:
 Root      1 :     1.230804645480045   Change is   -0.000000053491747
 Root      2 :     1.905550216397204   Change is   -0.000000312563731
 Root      3 :     2.866625576512389   Change is   -0.011454132001405
 Root      4 :     2.910557403698008   Change is   -0.000605571496032
 Root      5 :     2.948820476305559   Change is   -0.000463258363001
 Iteration    10 Dimension    70 NMult    67 NNew      3
 CISAX will form     3 AO SS matrices at one time.
 NMat=     3 NSing=     3 JSym2X= 0.
 Root      1 has converged.
 Root      2 has converged.
 Root      3 not converged, maximum delta is    0.009708137558568
 Root      4 not converged, maximum delta is    0.002512668303145
 Root      5 not converged, maximum delta is    0.002984262383186
 Excitation Energies [eV] at current iteration:
 Root      1 :     1.230804633773819   Change is   -0.000000011706226
 Root      2 :     1.905549981228723   Change is   -0.000000235168481
 Root      3 :     2.865132600165214   Change is   -0.001492976347175
 Root      4 :     2.910501485452609   Change is   -0.000055918245399
 Root      5 :     2.948707133027318   Change is   -0.000113343278241
 Iteration    11 Dimension    73 NMult    70 NNew      3
 CISAX will form     3 AO SS matrices at one time.
 NMat=     3 NSing=     3 JSym2X= 0.
 Root      1 has converged.
 Root      2 has converged.
 Root      3 not converged, maximum delta is    0.003372183178114
 Root      4 has converged.
 Root      5 not converged, maximum delta is    0.001832455217848
 Excitation Energies [eV] at current iteration:
 Root      1 :     1.230804625661688   Change is   -0.000000008112130
 Root      2 :     1.905549722382239   Change is   -0.000000258846485
 Root      3 :     2.864942955146270   Change is   -0.000189645018944
 Root      4 :     2.910494268042780   Change is   -0.000007217409829
 Root      5 :     2.948666281007771   Change is   -0.000040852019547
 Iteration    12 Dimension    75 NMult    73 NNew      2
 CISAX will form     2 AO SS matrices at one time.
 NMat=     2 NSing=     2 JSym2X= 0.
 Root      1 has converged.
 Root      2 has converged.
 Root      3 has converged.
 Root      4 has converged.
 Root      5 has converged.
 Excitation Energies [eV] at current iteration:
 Root      1 :     1.230804618733407   Change is   -0.000000006928282
 Root      2 :     1.905549715506318   Change is   -0.000000006875920
 Root      3 :     2.864918431226432   Change is   -0.000024523919838
 Root      4 :     2.910493168431562   Change is   -0.000001099611218
 Root      5 :     2.948652941622731   Change is   -0.000013339385040
 Convergence achieved on expansion vectors.
 ***********************************************************************
 Excited states from <AA,BB:AA,BB> singles matrix:
 ***********************************************************************
 
 1PDM for each excited state written to RWF  633
 Ground to excited state transition densities written to RWF  633
 Ground to excited state transition electric dipole moments (Au):
       state          X           Y           Z        Dip. S.      Osc.
         1         0.8800     -4.4564      0.6214     21.0198      0.6338
         2        -1.0339     -0.3679     -0.0411      1.2059      0.0563
         3        -0.1641     -0.0352      0.0521      0.0309      0.0022
         4        -0.4053     -0.3920      0.2828      0.3979      0.0284
         5         2.4620      0.4843      0.4921      6.5381      0.4723
 Ground to excited state transition velocity dipole moments (Au):
       state          X           Y           Z        Dip. S.      Osc.
         1         0.0455     -0.0539      0.0023      0.0050      0.0735
         2         0.0149      0.0095     -0.0021      0.0003      0.0030
         3         0.0042      0.0030      0.0003      0.0000      0.0002
         4         0.0206     -0.0044     -0.0105      0.0006      0.0035
         5        -0.0849     -0.0161     -0.0071      0.0075      0.0462
 Ground to excited state transition magnetic dipole moments (Au):
       state          X           Y           Z
         1        -0.0620     -0.0165     -0.5465
         2         0.1585     -0.0376     -0.4979
         3        -0.7203     -0.1677      0.1310
         4        -0.0039      0.1341      0.4804
         5        -0.1315     -0.1903     -0.1147
 Ground to excited state transition velocity quadrupole moments (Au):
       state          XX          YY          ZZ          XY          XZ          YZ
         1         0.8711      0.1141      0.0080     -0.6664      0.0541      0.0646
         2         0.2529      0.0045     -0.0038      0.0651      0.0126      0.0434
         3         0.1707     -0.0418      0.0137     -0.0371      0.0105      0.0453
         4         1.0852     -0.7597      0.0510     -0.0735     -0.0486      0.0007
         5        -1.3291     -0.2433      0.0772     -0.0909     -0.0469     -0.0143
 <0|del|b> * <b|rxdel|0> + <0|del|b> * <b|delr+rdel|0>
 Rotatory Strengths (R) in cgs (10**-40 erg-esu-cm/Gauss)
       state          XX          YY          ZZ    R(velocity)    E-M Angle
         1         8.0479      3.0902    -60.8842    -16.5821       94.70
         2         2.1418     21.1216      7.4627     10.2420       70.97
         3        -1.7039     -9.4312    -12.4451     -7.8601      154.39
         4       -16.8597    -19.5272     -1.5655    -12.6508      119.23
         5        12.2643     40.9237     44.9284     32.7055       47.78
 1/2[<0|r|b>*<b|rxdel|0> + (<0|rxdel|b>*<b|r|0>)*]
 Rotatory Strengths (R) in cgs (10**-40 erg-esu-cm/Gauss)
       state          XX          YY          ZZ     R(length)
         1        38.5555    -52.0930    240.1779     75.5468
         2       115.8629     -9.7793    -14.4809     30.5343
         3       -83.5958     -4.1800     -4.8282    -30.8680
         4        -1.1136     37.1669    -96.0600    -20.0022
         5       228.9783     65.1655     39.9093    111.3511
  1/2[<0|del|b>*<b|r|0> + (<0|r|b>*<b|del|0>)*] (Au)
       state          X           Y           Z        Dip. S.   Osc.(frdel)
         1         0.0401      0.2403      0.0014     -0.2818     -0.1879
         2        -0.0154     -0.0035      0.0001      0.0188      0.0126
         3        -0.0007     -0.0001      0.0000      0.0008      0.0005
         4        -0.0084      0.0017     -0.0030      0.0096      0.0064
         5        -0.2089     -0.0078     -0.0035      0.2202      0.1468

 Excitation energies and oscillator strengths:
 
 Excited State   1:      Singlet-A      1.2308 eV 1007.34 nm  f=0.6338  <S**2>=0.000
     175 ->178        -0.18115
     176 ->177         0.66593
 This state for optimization and/or second-order correction.
 Total Energy, E(CIS/TDA) =  -474.115151511    
 Copying the excited state density for this state as the 1-particle RhoCI density.
 
 Excited State   2:      Singlet-A      1.9055 eV  650.65 nm  f=0.0563  <S**2>=0.000
     175 ->177         0.55708
     176 ->178         0.40437
 
 Excited State   3:      Singlet-A      2.8649 eV  432.77 nm  f=0.0022  <S**2>=0.000
     167 ->177        -0.26321
     167 ->179         0.40869
     167 ->181        -0.17658
     167 ->186         0.17184
     168 ->177        -0.16538
     168 ->179         0.22217
     171 ->177        -0.13359
 
 Excited State   4:      Singlet-A      2.9105 eV  425.99 nm  f=0.0284  <S**2>=0.000
     176 ->179         0.59717
     176 ->180         0.28646
     176 ->181         0.10696
 
 Excited State   5:      Singlet-A      2.9487 eV  420.48 nm  f=0.4723  <S**2>=0.000
     170 ->177        -0.12156
     170 ->179        -0.10080
     170 ->181        -0.16056
     171 ->177         0.12551
     175 ->177        -0.25778
     176 ->178         0.40031
     176 ->179         0.17226
     176 ->180        -0.34692
 SavETr:  write IOETrn=   770 NScale= 10 NData=  16 NLR=1 NState=    5 LETran=     100.
 Leave Link  914 at Fri Apr 29 01:16:39 2022, MaxMem=  6710886400 cpu:              98.2 elap:               4.1
 (Enter /sw/apps/gaussian-16.0/g16/l601.exe)
 Copying SCF densities to generalized density rwf, IOpCl= 0 IROHF=0.

 **********************************************************************

            Population analysis using the SCF density.

 **********************************************************************

 Orbital symmetries:
       Occupied  (A) (A) (A) (A) (A) (A) (A) (A) (A) (A) (A) (A)
                 (A) (A) (A) (A) (A) (A) (A) (A) (A) (A) (A) (A)
                 (A) (A) (A) (A) (A) (A) (A) (A) (A) (A) (A) (A)
                 (A) (A) (A) (A) (A) (A) (A) (A) (A) (A) (A) (A)
                 (A) (A) (A) (A) (A) (A) (A) (A) (A) (A) (A) (A)
                 (A) (A) (A) (A) (A) (A) (A) (A) (A) (A) (A) (A)
                 (A) (A) (A) (A) (A) (A) (A) (A) (A) (A) (A) (A)
                 (A) (A) (A) (A) (A) (A) (A) (A) (A) (A) (A) (A)
                 (A) (A) (A) (A) (A) (A) (A) (A) (A) (A) (A) (A)
                 (A) (A) (A) (A) (A) (A) (A) (A) (A) (A) (A) (A)
                 (A) (A) (A) (A) (A) (A) (A) (A) (A) (A) (A) (A)
                 (A) (A) (A) (A) (A) (A) (A) (A) (A) (A) (A) (A)
                 (A) (A) (A) (A) (A) (A) (A) (A) (A) (A) (A) (A)
                 (A) (A) (A) (A) (A) (A) (A) (A) (A) (A) (A) (A)
                 (A) (A) (A) (A) (A) (A) (A) (A)
       Virtual   (A) (A) (A) (A) (A) (A) (A) (A) (A) (A) (A) (A)
                 (A) (A) (A) (A) (A) (A) (A) (A) (A) (A) (A) (A)
                 (A) (A) (A) (A) (A) (A) (A) (A) (A) (A) (A) (A)
                 (A) (A) (A) (A) (A) (A) (A) (A) (A) (A) (A) (A)
                 (A) (A) (A) (A) (A) (A) (A) (A) (A) (A) (A) (A)
                 (A) (A) (A) (A) (A) (A) (A) (A) (A) (A) (A) (A)
                 (A) (A) (A) (A) (A) (A) (A) (A) (A) (A) (A) (A)
                 (A) (A) (A) (A) (A) (A) (A) (A) (A) (A) (A) (A)
                 (A) (A) (A) (A) (A) (A) (A) (A) (A) (A) (A) (A)
                 (A) (A) (A) (A) (A) (A) (A) (A) (A) (A) (A) (A)
                 (A) (A) (A) (A) (A) (A) (A) (A) (A) (A) (A) (A)
                 (A) (A) (A) (A) (A) (A) (A) (A) (A) (A) (A) (A)
                 (A) (A) (A) (A) (A) (A) (A) (A) (A) (A) (A) (A)
                 (A) (A) (A) (A) (A) (A)
 The electronic state is 1-A.
 Alpha  occ. eigenvalues --   -1.85621  -1.83438  -1.78975  -1.75672  -1.72568
 Alpha  occ. eigenvalues --   -1.70232  -1.64883  -1.59770  -1.56422  -1.55448
 Alpha  occ. eigenvalues --   -1.54309  -1.50358  -1.49150  -1.47026  -1.45814
 Alpha  occ. eigenvalues --   -1.43650  -1.42021  -1.41386  -1.39486  -1.38865
 Alpha  occ. eigenvalues --   -1.36112  -1.34460  -1.32720  -1.31754  -1.28942
 Alpha  occ. eigenvalues --   -1.28398  -1.26098  -1.22167  -1.20993  -1.18887
 Alpha  occ. eigenvalues --   -1.17405  -1.15474  -1.15073  -1.13677  -1.13532
 Alpha  occ. eigenvalues --   -1.12492  -1.10957  -1.10723  -1.05022  -1.03472
 Alpha  occ. eigenvalues --   -1.02285  -1.01557  -0.98555  -0.96915  -0.95658
 Alpha  occ. eigenvalues --   -0.94999  -0.94223  -0.93537  -0.92849  -0.92064
 Alpha  occ. eigenvalues --   -0.91946  -0.91130  -0.89723  -0.88478  -0.87389
 Alpha  occ. eigenvalues --   -0.86622  -0.83907  -0.83258  -0.82012  -0.81051
 Alpha  occ. eigenvalues --   -0.79757  -0.78590  -0.76515  -0.76208  -0.75624
 Alpha  occ. eigenvalues --   -0.75088  -0.74477  -0.73797  -0.73644  -0.73254
 Alpha  occ. eigenvalues --   -0.73216  -0.72222  -0.71537  -0.71386  -0.70468
 Alpha  occ. eigenvalues --   -0.69691  -0.69167  -0.68679  -0.68219  -0.68019
 Alpha  occ. eigenvalues --   -0.67671  -0.67470  -0.66952  -0.66446  -0.65680
 Alpha  occ. eigenvalues --   -0.65078  -0.64765  -0.64289  -0.63966  -0.63628
 Alpha  occ. eigenvalues --   -0.63346  -0.63155  -0.62799  -0.62569  -0.62433
 Alpha  occ. eigenvalues --   -0.62097  -0.61781  -0.61244  -0.60919  -0.60691
 Alpha  occ. eigenvalues --   -0.60061  -0.59742  -0.59192  -0.58818  -0.58629
 Alpha  occ. eigenvalues --   -0.58135  -0.57616  -0.57305  -0.56941  -0.56388
 Alpha  occ. eigenvalues --   -0.56039  -0.55905  -0.55681  -0.55467  -0.54868
 Alpha  occ. eigenvalues --   -0.54521  -0.54087  -0.53640  -0.53348  -0.53169
 Alpha  occ. eigenvalues --   -0.52844  -0.52510  -0.52070  -0.51837  -0.51504
 Alpha  occ. eigenvalues --   -0.51039  -0.50839  -0.50659  -0.50585  -0.50282
 Alpha  occ. eigenvalues --   -0.50227  -0.49565  -0.49471  -0.49199  -0.49125
 Alpha  occ. eigenvalues --   -0.48601  -0.48429  -0.48015  -0.47847  -0.47462
 Alpha  occ. eigenvalues --   -0.47164  -0.46750  -0.46689  -0.46565  -0.46283
 Alpha  occ. eigenvalues --   -0.46186  -0.45891  -0.45462  -0.45293  -0.44924
 Alpha  occ. eigenvalues --   -0.44723  -0.44519  -0.44383  -0.44288  -0.43914
 Alpha  occ. eigenvalues --   -0.43439  -0.43060  -0.42875  -0.42845  -0.42644
 Alpha  occ. eigenvalues --   -0.41554  -0.41539  -0.40665  -0.38941  -0.38827
 Alpha  occ. eigenvalues --   -0.37419  -0.36461  -0.36020  -0.35127  -0.34270
 Alpha  occ. eigenvalues --   -0.33434  -0.32641  -0.32491  -0.31580  -0.26837
 Alpha  occ. eigenvalues --   -0.21883
 Alpha virt. eigenvalues --   -0.08939  -0.02135  -0.01473   0.00546   0.00727
 Alpha virt. eigenvalues --    0.02125   0.02647   0.03663   0.04019   0.04617
 Alpha virt. eigenvalues --    0.05739   0.06138   0.06904   0.07539   0.07951
 Alpha virt. eigenvalues --    0.08577   0.08781   0.09112   0.09280   0.09752
 Alpha virt. eigenvalues --    0.10134   0.10142   0.10217   0.10263   0.10670
 Alpha virt. eigenvalues --    0.11105   0.11300   0.11611   0.11766   0.12201
 Alpha virt. eigenvalues --    0.12691   0.12766   0.13306   0.13317   0.13558
 Alpha virt. eigenvalues --    0.13715   0.14175   0.14366   0.14595   0.14723
 Alpha virt. eigenvalues --    0.14853   0.15442   0.15463   0.15534   0.15629
 Alpha virt. eigenvalues --    0.15766   0.16024   0.16395   0.16559   0.17018
 Alpha virt. eigenvalues --    0.17073   0.17487   0.17735   0.17966   0.18182
 Alpha virt. eigenvalues --    0.18406   0.18614   0.18864   0.19367   0.19380
 Alpha virt. eigenvalues --    0.19810   0.19904   0.19963   0.20239   0.20753
 Alpha virt. eigenvalues --    0.21405   0.21469   0.22873   0.23105   0.23223
 Alpha virt. eigenvalues --    0.23675   0.23717   0.23853   0.24010   0.24041
 Alpha virt. eigenvalues --    0.24267   0.24444   0.24552   0.24600   0.24717
 Alpha virt. eigenvalues --    0.24773   0.24854   0.24963   0.24975   0.25041
 Alpha virt. eigenvalues --    0.25119   0.25205   0.25229   0.25233   0.25322
 Alpha virt. eigenvalues --    0.25416   0.25499   0.25540   0.25639   0.25788
 Alpha virt. eigenvalues --    0.25873   0.25895   0.25985   0.26018   0.26274
 Alpha virt. eigenvalues --    0.26318   0.26446   0.26525   0.26563   0.26599
 Alpha virt. eigenvalues --    0.26786   0.26954   0.27001   0.27141   0.27236
 Alpha virt. eigenvalues --    0.27262   0.27625   0.27653   0.27706   0.27868
 Alpha virt. eigenvalues --    0.27933   0.28234   0.28345   0.28526   0.29203
 Alpha virt. eigenvalues --    0.29237   0.29539   0.30564   0.30814   0.31716
 Alpha virt. eigenvalues --    0.31911   0.31984   0.32650   0.32948   0.33883
 Alpha virt. eigenvalues --    0.34351   0.34535   0.35379   0.35457   0.36018
 Alpha virt. eigenvalues --    0.36062   0.36857   0.36977   0.37324   0.37666
 Alpha virt. eigenvalues --    0.38141   0.38814   0.39437   0.39742   0.40154
 Alpha virt. eigenvalues --    0.40565   0.41664   0.41863   0.41928   0.42812
 Alpha virt. eigenvalues --    0.43818   0.44280   0.45465   0.46082   0.47273
 Alpha virt. eigenvalues --    0.47662   0.47856   0.49107   0.51045   0.53151
 Alpha virt. eigenvalues --    0.54172   0.57830
          Condensed to atoms (all electrons):
 Mulliken charges:
               1
     1  Mg   0.432600
     2  C   -0.041574
     3  C   -0.084740
     4  C   -0.076367
     5  C   -0.061372
     6  N   -0.303976
     7  C    0.113065
     8  C    0.012059
     9  C   -0.012222
    10  C    0.139115
    11  C   -0.053004
    12  C   -0.026215
    13  C   -0.004903
    14  C    0.471639
    15  O   -0.514965
    16  O   -0.270695
    17  N   -0.314084
    18  C    0.140457
    19  C    0.020045
    20  C   -0.047258
    21  C    0.154526
    22  C   -0.037351
    23  C    0.330585
    24  O   -0.540832
    25  C   -0.029913
    26  N   -0.280421
    27  C    0.178517
    28  C    0.002007
    29  C    0.000906
    30  C    0.096979
    31  C   -0.049491
    32  C   -0.025254
    33  C   -0.050720
    34  N   -0.314595
    35  C    0.074219
    36  C    0.033568
    37  C   -0.060430
    38  C    0.133240
    39  C   -0.037893
    40  C    0.320239
    41  O   -0.550147
    42  C    0.047960
    43  C    0.507703
    44  O   -0.536660
    45  O   -0.276461
    46  C    0.064743
    47  C    0.108492
    48  C   -0.086899
    49  C   -0.028617
    50  C   -0.053504
    51  C   -0.019814
    52  C   -0.034246
    53  C   -0.026541
    54  C   -0.017407
    55  C   -0.065224
    56  C   -0.045459
    57  C   -0.037406
    58  C   -0.037500
    59  C   -0.017639
    60  C   -0.067238
    61  C   -0.025653
    62  C   -0.031414
    63  C   -0.028386
    64  C   -0.008975
    65  C   -0.053517
    66  C   -0.061416
    67  H    0.013277
    68  H    0.048839
    69  H    0.029738
    70  H    0.026382
    71  H    0.041007
    72  H    0.037913
    73  H    0.027807
    74  H    0.023684
    75  H    0.041664
    76  H    0.031989
    77  H    0.041922
    78  H    0.038802
    79  H    0.032727
    80  H    0.031581
    81  H    0.021907
    82  H    0.036759
    83  H    0.035017
    84  H    0.044204
    85  H    0.032245
    86  H    0.025436
    87  H    0.023600
    88  H    0.018247
    89  H    0.027514
    90  H    0.022419
    91  H    0.013974
    92  H    0.023069
    93  H    0.014391
    94  H    0.020464
    95  H    0.035269
    96  H    0.042701
    97  H    0.019125
    98  H    0.059300
    99  H    0.034118
   100  H    0.059998
   101  H    0.041244
   102  H    0.063181
   103  H    0.062271
   104  H    0.030592
   105  H    0.020625
   106  H    0.019426
   107  H    0.039153
   108  H    0.024710
   109  H    0.023216
   110  H    0.009562
   111  H    0.023506
   112  H    0.014258
   113  H    0.024409
   114  H    0.026043
   115  H    0.017581
   116  H    0.023593
   117  H    0.014325
   118  H    0.017852
   119  H    0.010942
   120  H    0.031130
   121  H    0.026211
   122  H    0.010479
   123  H    0.018751
   124  H    0.019027
   125  H    0.023990
   126  H    0.020274
   127  H    0.009392
   128  H    0.014867
   129  H    0.023741
   130  H    0.010146
   131  H    0.018169
   132  H    0.017844
   133  H    0.011975
   134  H    0.017302
   135  H    0.017195
   136  H    0.005446
   137  H    0.025853
   138  H    0.024552
   139  H    0.014777
   140  H    0.021035
 Sum of Mulliken charges =  -0.00000
 Mulliken charges with hydrogens summed into heavy atoms:
               1
     1  Mg   0.432600
     2  C   -0.041574
     3  C   -0.071463
     4  C   -0.027528
     5  C   -0.031635
     6  N   -0.303976
     7  C    0.113065
     8  C    0.038441
     9  C    0.028785
    10  C    0.139115
    11  C    0.036399
    12  C    0.047439
    13  C    0.075821
    14  C    0.471639
    15  O   -0.514965
    16  O   -0.270695
    17  N   -0.314084
    18  C    0.140457
    19  C    0.020045
    20  C   -0.047258
    21  C    0.154526
    22  C    0.048864
    23  C    0.330585
    24  O   -0.540832
    25  C    0.086067
    26  N   -0.280421
    27  C    0.178517
    28  C    0.034251
    29  C    0.026342
    30  C    0.096979
    31  C    0.019870
    32  C    0.011139
    33  C    0.007203
    34  N   -0.314595
    35  C    0.074219
    36  C    0.033568
    37  C   -0.060430
    38  C    0.133240
    39  C    0.059202
    40  C    0.320239
    41  O   -0.550147
    42  C    0.107260
    43  C    0.507703
    44  O   -0.536660
    45  O   -0.276461
    46  C    0.200102
    47  C    0.233945
    48  C   -0.056307
    49  C   -0.028617
    50  C    0.025700
    51  C    0.028112
    52  C   -0.001178
    53  C    0.012126
    54  C    0.008636
    55  C   -0.009726
    56  C   -0.016665
    57  C    0.019935
    58  C   -0.008270
    59  C    0.001388
    60  C   -0.013582
    61  C    0.012955
    62  C   -0.003098
    63  C    0.001433
    64  C    0.008328
    65  C   -0.005024
    66  C   -0.001052
 Charge=              0.0000 electrons
 Dipole moment (field-independent basis, Debye):
    X=             -4.0445    Y=              8.3859    Z=             -6.3327  Tot=             11.2599
 N-N= 4.162690038834D+03 E-N= 0.000000000000D+00  KE=-8.999552925798D+03
 Leave Link  601 at Fri Apr 29 01:16:39 2022, MaxMem=  6710886400 cpu:               0.8 elap:               0.0
 (Enter /sw/apps/gaussian-16.0/g16/l9999.exe)
 1\1\GINC-BP1-COMPUTE163\SP\RZINDO CIS\STO-3G\C55H74Mg1N4O6\OF15641\29-
 Apr-2022\0\\#p ZINDO=(nstates=5)\\step_1801_chromophore_22 ZINDO\\0,1\
 Mg,0,8.233,47.703,26.118\C,0,5.933,47.61,28.792\C,0,10.682,48.442,28.3
 75\C,0,10.372,48.459,23.568\C,0,5.516,47.851,23.926\N,0,8.258,48.116,2
 8.393\C,0,7.229,47.969,29.287\C,0,7.776,48.116,30.719\C,0,9.298,48.699
 ,30.535\C,0,9.454,48.475,29.025\C,0,9.529,50.236,31.005\C,0,7.563,46.9
 33,31.743\C,0,8.696,46.661,32.823\C,0,8.187,45.952,34.108\O,0,7.504,44
 .956,34.209\O,0,8.696,46.613,35.167\N,0,10.289,48.081,25.983\C,0,11.08
 3,48.299,27.031\C,0,12.502,48.325,26.511\C,0,12.413,48.225,25.054\C,0,
 10.975,48.297,24.82\C,0,13.714,48.615,27.353\C,0,13.471,48.13,23.985\O
 ,0,13.335,48.203,22.714\C,0,14.892,48.024,24.461\N,0,7.983,48.257,24.0
 76\C,0,9.042,48.461,23.284\C,0,8.594,48.532,21.884\C,0,7.039,48.302,21
 .937\C,0,6.798,48.043,23.39\C,0,9.087,49.782,21.18\C,0,6.509,47.257,20
 .935\C,0,6.531,47.642,19.496\N,0,6.075,47.772,26.301\C,0,5.167,47.712,
 25.292\C,0,3.889,47.514,25.912\C,0,4.14,47.472,27.311\C,0,5.499,47.636
 ,27.471\C,0,2.625,47.452,25.185\C,0,3.486,47.257,28.564\O,0,2.289,46.9
 93,28.919\C,0,4.655,47.479,29.667\C,0,4.691,46.269,30.438\O,0,5.091,45
 .158,30.127\O,0,4.256,46.667,31.662\C,0,4.221,45.541,32.689\C,0,8.198,
 45.988,36.415\C,0,8.912,46.719,37.553\C,0,8.972,46.362,38.862\C,0,8.21
 7,45.123,39.417\C,0,9.375,47.32,40.009\C,0,10.517,46.844,40.936\C,0,11
 .377,47.998,41.481\C,0,11.502,47.857,43.022\C,0,11.814,49.272,43.622\C
 ,0,12.607,46.723,43.416\C,0,12.119,45.477,44.14\C,0,12.579,45.501,45.6
 4\C,0,13.887,44.7,45.868\C,0,14.836,45.582,46.791\C,0,13.835,43.338,46
 .514\C,0,14.768,42.339,45.766\C,0,14.172,41.452,44.683\C,0,15.106,40.6
 48,43.698\C,0,15.528,41.416,42.461\C,0,14.468,39.278,43.262\H,0,11.441
 ,48.769,29.088\H,0,11.045,48.799,22.778\H,0,4.726,47.911,23.175\H,0,7.
 113,48.911,31.058\H,0,10.154,48.115,30.873\H,0,8.649,50.614,31.525\H,0
 ,9.772,50.758,30.079\H,0,10.451,50.239,31.586\H,0,7.38,46.,31.209\H,0,
 6.639,47.056,32.308\H,0,9.346,47.526,32.954\H,0,9.308,45.864,32.4\H,0,
 14.244,49.518,27.051\H,0,14.403,47.771,27.315\H,0,13.531,48.763,28.417
 \H,0,15.521,47.802,23.599\H,0,14.969,47.217,25.189\H,0,15.187,49.008,2
 4.824\H,0,9.035,47.654,21.414\H,0,6.603,49.258,21.646\H,0,8.246,50.228
 ,20.649\H,0,9.856,49.488,20.466\H,0,9.63,50.475,21.824\H,0,5.541,46.88
 3,21.271\H,0,7.211,46.442,21.112\H,0,7.39,47.217,18.977\H,0,6.627,48.7
 23,19.396\H,0,5.589,47.381,19.014\H,0,2.234,48.466,25.271\H,0,2.018,46
 .665,25.631\H,0,2.72,47.326,24.106\H,0,4.415,48.384,30.223\H,0,4.764,4
 5.957,33.538\H,0,4.675,44.605,32.364\H,0,3.185,45.314,32.941\H,0,8.54,
 44.954,36.459\H,0,7.128,46.189,36.468\H,0,9.315,47.702,37.308\H,0,8.53
 9,44.863,40.426\H,0,8.666,44.333,38.814\H,0,7.132,45.157,39.325\H,0,8.
 505,47.326,40.665\H,0,9.592,48.32,39.634\H,0,11.211,46.188,40.41\H,0,1
 0.151,46.144,41.688\H,0,10.903,48.94,41.205\H,0,12.353,48.069,41.002\H
 ,0,10.598,47.551,43.549\H,0,11.269,49.387,44.56\H,0,11.647,50.103,42.9
 36\H,0,12.875,49.301,43.87\H,0,13.406,47.281,43.905\H,0,13.174,46.315,
 42.58\H,0,12.609,44.614,43.691\H,0,11.031,45.532,44.159\H,0,11.77,45.1
 24,46.266\H,0,12.671,46.532,45.979\H,0,14.433,44.619,44.928\H,0,14.327
 ,45.693,47.748\H,0,15.11,46.469,46.219\H,0,15.743,45.041,47.061\H,0,12
 .797,43.008,46.512\H,0,14.086,43.518,47.56\H,0,15.239,41.768,46.566\H,
 0,15.598,42.803,45.233\H,0,13.509,42.097,44.107\H,0,13.547,40.729,45.2
 07\H,0,16.05,40.446,44.203\H,0,16.433,41.043,41.982\H,0,15.935,42.363,
 42.815\H,0,14.715,41.55,41.747\H,0,14.99,38.398,43.637\H,0,14.511,39.2
 55,42.173\H,0,13.408,39.267,43.516\\Version=ES64L-G16RevA.03\State=1-A
 \HF=-474.1603827\RMSD=4.617e-09\PG=C01 [X(C55H74Mg1N4O6)]\\@


    UPON JULIA'S CLOTHES

 WHENAS IN SILKS MY JULIA GOES,
 THEN, THEN, METHINKS, HOW SWEETLY FLOWS
 THAT LIQUEFACTION OF HER CLOTHES.

 NEXT, WHEN I CAST MINE EYES, AND SEE
 THAT BRAVE VIBRATION, EACH WAY FREE,
 O, HOW THAT GLITTERING TAKETH ME!
     -- ROBERT HERRICK, 1648
 Job cpu time:       0 days  0 hours  2 minutes 22.2 seconds.
 Elapsed time:       0 days  0 hours  0 minutes  6.2 seconds.
 File lengths (MBytes):  RWF=   1263 Int=      0 D2E=      0 Chk=     38 Scr=      1
 Normal termination of Gaussian 16 at Fri Apr 29 01:16:39 2022.
