 Entering Gaussian System, Link 0=g16
 Initial command:
 /sw/apps/gaussian-16.0/g16/l1.exe "/tmp/Gau-205574.inp" -scrdir="/tmp/"
 Entering Link 1 = /sw/apps/gaussian-16.0/g16/l1.exe PID=    205575.
  
 Copyright (c) 1988,1990,1992,1993,1995,1998,2003,2009,2016,
            Gaussian, Inc.  All Rights Reserved.
  
 This is part of the Gaussian(R) 16 program.  It is based on
 the Gaussian(R) 09 system (copyright 2009, Gaussian, Inc.),
 the Gaussian(R) 03 system (copyright 2003, Gaussian, Inc.),
 the Gaussian(R) 98 system (copyright 1998, Gaussian, Inc.),
 the Gaussian(R) 94 system (copyright 1995, Gaussian, Inc.),
 the Gaussian 92(TM) system (copyright 1992, Gaussian, Inc.),
 the Gaussian 90(TM) system (copyright 1990, Gaussian, Inc.),
 the Gaussian 88(TM) system (copyright 1988, Gaussian, Inc.),
 the Gaussian 86(TM) system (copyright 1986, Carnegie Mellon
 University), and the Gaussian 82(TM) system (copyright 1983,
 Carnegie Mellon University). Gaussian is a federally registered
 trademark of Gaussian, Inc.
  
 This software contains proprietary and confidential information,
 including trade secrets, belonging to Gaussian, Inc.
  
 This software is provided under written license and may be
 used, copied, transmitted, or stored only in accord with that
 written license.
  
 The following legend is applicable only to US Government
 contracts under FAR:
  
                    RESTRICTED RIGHTS LEGEND
  
 Use, reproduction and disclosure by the US Government is
 subject to restrictions as set forth in subparagraphs (a)
 and (c) of the Commercial Computer Software - Restricted
 Rights clause in FAR 52.227-19.
  
 Gaussian, Inc.
 340 Quinnipiac St., Bldg. 40, Wallingford CT 06492
  
  
 ---------------------------------------------------------------
 Warning -- This program may not be used in any manner that
 competes with the business of Gaussian, Inc. or will provide
 assistance to any competitor of Gaussian, Inc.  The licensee
 of this program is prohibited from giving any competitor of
 Gaussian, Inc. access to this program.  By using this program,
 the user acknowledges that Gaussian, Inc. is engaged in the
 business of creating and licensing software in the field of
 computational chemistry and represents and warrants to the
 licensee that it is not a competitor of Gaussian, Inc. and that
 it will not use this program in any manner prohibited above.
 ---------------------------------------------------------------
  

 Cite this work as:
 Gaussian 16, Revision A.03,
 M. J. Frisch, G. W. Trucks, H. B. Schlegel, G. E. Scuseria, 
 M. A. Robb, J. R. Cheeseman, G. Scalmani, V. Barone, 
 G. A. Petersson, H. Nakatsuji, X. Li, M. Caricato, A. V. Marenich, 
 J. Bloino, B. G. Janesko, R. Gomperts, B. Mennucci, H. P. Hratchian, 
 J. V. Ortiz, A. F. Izmaylov, J. L. Sonnenberg, D. Williams-Young, 
 F. Ding, F. Lipparini, F. Egidi, J. Goings, B. Peng, A. Petrone, 
 T. Henderson, D. Ranasinghe, V. G. Zakrzewski, J. Gao, N. Rega, 
 G. Zheng, W. Liang, M. Hada, M. Ehara, K. Toyota, R. Fukuda, 
 J. Hasegawa, M. Ishida, T. Nakajima, Y. Honda, O. Kitao, H. Nakai, 
 T. Vreven, K. Throssell, J. A. Montgomery, Jr., J. E. Peralta, 
 F. Ogliaro, M. J. Bearpark, J. J. Heyd, E. N. Brothers, K. N. Kudin, 
 V. N. Staroverov, T. A. Keith, R. Kobayashi, J. Normand, 
 K. Raghavachari, A. P. Rendell, J. C. Burant, S. S. Iyengar, 
 J. Tomasi, M. Cossi, J. M. Millam, M. Klene, C. Adamo, R. Cammi, 
 J. W. Ochterski, R. L. Martin, K. Morokuma, O. Farkas, 
 J. B. Foresman, and D. J. Fox, Gaussian, Inc., Wallingford CT, 2016.
 
 ******************************************
 Gaussian 16:  ES64L-G16RevA.03 25-Dec-2016
                28-Apr-2022 
 ******************************************
 %nproc=24
 Will use up to   24 processors via shared memory.
 %mem=75GB
 --------------------------------
 #p wB97XD/Def2SVP td=(nstates=5)
 --------------------------------
 1/38=1,172=1/1;
 2/12=2,17=6,18=5,40=1/2;
 3/5=43,7=101,11=9,25=1,30=1,74=-58/1,2,3,8;
 4//1;
 5/5=2,38=5/2;
 8/6=1,10=1,108=5/1;
 9/41=5,42=1,70=2/14;
 6/7=2,8=2,9=2,10=2/1;
 99/5=1,9=1/99;
 Leave Link    1 at Thu Apr 28 07:34:33 2022, MaxMem= 10066329600 cpu:               0.8 elap:               0.0
 (Enter /sw/apps/gaussian-16.0/g16/l101.exe)
 -----------------------------------------------------
 step_1501_chromophore_21 TDDFT with wB97XD functional
 -----------------------------------------------------
 Symbolic Z-matrix:
 Charge =  0 Multiplicity = 1
 Mg                    15.896    52.959    25.079 
 C                     17.311    51.729    28.046 
 C                     13.103    53.83     26.969 
 C                     14.445    53.984    22.258 
 C                     18.546    51.721    23.227 
 N                     15.444    52.955    27.234 
 C                     16.135    52.482    28.262 
 C                     15.525    52.799    29.599 
 C                     14.11     53.22     29.179 
 C                     14.174    53.247    27.682 
 C                     12.879    52.337    29.605 
 C                     16.294    53.848    30.401 
 C                     16.521    53.572    31.942 
 C                     15.727    52.467    32.634 
 O                     16.164    51.305    32.815 
 O                     14.469    52.862    32.989 
 N                     14.081    53.868    24.664 
 C                     13.009    54.11     25.586 
 C                     11.945    54.715    24.826 
 C                     12.327    54.807    23.421 
 C                     13.611    54.177    23.415 
 C                     10.651    55.07     25.524 
 C                     11.592    55.341    22.249 
 O                     12.093    55.416    21.127 
 C                     10.217    55.855    22.367 
 N                     16.436    52.883    23.032 
 C                     15.695    53.451    22.006 
 C                     16.482    53.34     20.613 
 C                     17.835    52.877    21.058 
 C                     17.607    52.418    22.458 
 C                     15.772    52.454    19.481 
 C                     19.007    53.951    20.973 
 C                     20.13     53.702    19.891 
 N                     17.463    51.74     25.45 
 C                     18.478    51.356    24.655 
 C                     19.358    50.425    25.406 
 C                     18.954    50.575    26.777 
 C                     17.822    51.377    26.699 
 C                     20.624    49.753    24.818 
 C                     19.235    50.255    28.15 
 O                     20.163    49.568    28.607 
 C                     18.28     51.041    29.051 
 C                     17.553    50.188    30.029 
 O                     16.491    49.564    29.87 
 O                     18.503    49.777    30.93 
 C                     18.347    48.72     31.89 
 C                     13.472    51.87     33.535 
 C                     12.178    52.683    33.825 
 C                     11.106    52.348    34.603 
 C                     10.965    50.922    35.236 
 C                     10.       53.337    35.037 
 C                     10.343    54.783    35.256 
 C                     9.56      55.399    36.514 
 C                     8.303     56.324    36.097 
 C                     8.814     57.766    35.775 
 C                     7.249     56.349    37.286 
 C                     5.791     56.105    36.893 
 C                     4.805     56.301    38.054 
 C                     3.525     57.088    37.638 
 C                     3.918     58.563    37.358 
 C                     2.52      57.088    38.745 
 C                     1.195     56.209    38.382 
 C                     0.123     57.104    37.755 
 C                    -1.05      57.462    38.717 
 C                    -2.324     56.511    38.603 
 C                    -1.465     58.996    38.713 
 H                     12.304    54.139    27.646 
 H                     14.03     54.302    21.299 
 H                     19.326    51.324    22.574 
 H                     15.373    51.845    30.105 
 H                     13.897    54.231    29.528 
 H                     12.66     51.736    28.723 
 H                     12.049    52.86     30.081 
 H                     13.218    51.639    30.37 
 H                     15.861    54.84     30.277 
 H                     17.252    53.838    29.881 
 H                     16.219    54.525    32.377 
 H                     17.577    53.375    32.128 
 H                     9.881     54.757    24.819 
 H                     10.602    56.111    25.844 
 H                     10.595    54.414    26.392 
 H                     10.081    56.572    23.177 
 H                     9.433     55.097    22.384 
 H                     10.141    56.421    21.439 
 H                     16.726    54.263    20.086 
 H                     18.036    52.073    20.35 
 H                     16.41     51.882    18.808 
 H                     15.186    53.102    18.83 
 H                     15.074    51.756    19.942 
 H                     19.54     54.076    21.915 
 H                     18.576    54.945    20.845 
 H                     21.098    53.862    20.364 
 H                     20.003    54.363    19.034 
 H                     20.019    52.642    19.662 
 H                     21.34     50.574    24.822 
 H                     20.406    49.487    23.783 
 H                     20.899    48.902    25.441 
 H                     18.914    51.738    29.598 
 H                     19.016    47.896    31.641 
 H                     17.361    48.255    31.87 
 H                     18.458    49.154    32.884 
 H                     13.871    51.397    34.432 
 H                     13.169    51.086    32.841 
 H                     12.327    53.695    33.447 
 H                     11.022    51.043    36.317 
 H                     11.78     50.311    34.848 
 H                     10.007    50.552    34.87 
 H                     9.29      53.018    35.801 
 H                     9.502     53.32     34.067 
 H                     10.098    55.384    34.38 
 H                     11.4      54.859    35.51 
 H                     10.192    56.107    37.051 
 H                     9.24      54.588    37.169 
 H                     7.765     56.011    35.202 
 H                     8.232     58.248    34.99 
 H                     9.857     57.71     35.463 
 H                     8.732     58.453    36.618 
 H                     7.284     57.299    37.82 
 H                     7.549     55.545    37.958 
 H                     5.659     55.126    36.432 
 H                     5.63      56.819    36.086 
 H                     5.269     56.737    38.938 
 H                     4.645     55.298    38.452 
 H                     3.298     56.676    36.654 
 H                     3.996     59.114    38.294 
 H                     3.117     58.893    36.696 
 H                     4.764     58.63     36.674 
 H                     2.357     58.08     39.166 
 H                     3.019     56.571    39.564 
 H                     0.783     55.747    39.279 
 H                     1.27      55.369    37.691 
 H                    -0.258     56.516    36.92 
 H                     0.506     58.026    37.318 
 H                    -0.735     57.336    39.753 
 H                    -1.95      55.572    38.194 
 H                    -3.042     56.985    37.934 
 H                    -2.731     56.334    39.598 
 H                    -1.476     59.473    39.693 
 H                    -2.421     59.131    38.209 
 H                    -0.788     59.623    38.133 
 
 ITRead=  0  0  0  0  0  0  0  0  0  0  0  0  0  0  0  0  0  0  0  0
 ITRead=  0  0  0  0  0  0  0  0  0  0  0  0  0  0  0  0  0  0  0  0
 ITRead=  0  0  0  0  0  0  0  0  0  0  0  0  0  0  0  0  0  0  0  0
 ITRead=  0  0  0  0  0  0  0  0  0  0  0  0  0  0  0  0  0  0  0  0
 ITRead=  0  0  0  0  0  0  0  0  0  0  0  0  0  0  0  0  0  0  0  0
 ITRead=  0  0  0  0  0  0  0  0  0  0  0  0  0  0  0  0  0  0  0  0
 ITRead=  0  0  0  0  0  0  0  0  0  0  0  0  0  0  0  0  0  0  0  0
 MicOpt= -1 -1 -1 -1 -1 -1 -1 -1 -1 -1 -1 -1 -1 -1 -1 -1 -1 -1 -1 -1
 MicOpt= -1 -1 -1 -1 -1 -1 -1 -1 -1 -1 -1 -1 -1 -1 -1 -1 -1 -1 -1 -1
 MicOpt= -1 -1 -1 -1 -1 -1 -1 -1 -1 -1 -1 -1 -1 -1 -1 -1 -1 -1 -1 -1
 MicOpt= -1 -1 -1 -1 -1 -1 -1 -1 -1 -1 -1 -1 -1 -1 -1 -1 -1 -1 -1 -1
 MicOpt= -1 -1 -1 -1 -1 -1 -1 -1 -1 -1 -1 -1 -1 -1 -1 -1 -1 -1 -1 -1
 MicOpt= -1 -1 -1 -1 -1 -1 -1 -1 -1 -1 -1 -1 -1 -1 -1 -1 -1 -1 -1 -1
 MicOpt= -1 -1 -1 -1 -1 -1 -1 -1 -1 -1 -1 -1 -1 -1 -1 -1 -1 -1 -1 -1
 NAtoms=    140 NQM=      140 NQMF=       0 NMMI=      0 NMMIF=      0
                NMic=       0 NMicF=      0.
                    Isotopes and Nuclear Properties:
 (Nuclear quadrupole moments (NQMom) in fm**2, nuclear magnetic moments (NMagM)
  in nuclear magnetons)

  Atom         1           2           3           4           5           6           7           8           9          10
 IAtWgt=          24          12          12          12          12          14          12          12          12          12
 AtmWgt=  23.9850450  12.0000000  12.0000000  12.0000000  12.0000000  14.0030740  12.0000000  12.0000000  12.0000000  12.0000000
 NucSpn=           0           0           0           0           0           2           0           0           0           0
 AtZEff=  -0.0000000  -0.0000000  -0.0000000  -0.0000000  -0.0000000  -0.0000000  -0.0000000  -0.0000000  -0.0000000  -0.0000000
 NQMom=    0.0000000   0.0000000   0.0000000   0.0000000   0.0000000   2.0440000   0.0000000   0.0000000   0.0000000   0.0000000
 NMagM=    0.0000000   0.0000000   0.0000000   0.0000000   0.0000000   0.4037610   0.0000000   0.0000000   0.0000000   0.0000000
 AtZNuc=  12.0000000   6.0000000   6.0000000   6.0000000   6.0000000   7.0000000   6.0000000   6.0000000   6.0000000   6.0000000

  Atom        11          12          13          14          15          16          17          18          19          20
 IAtWgt=          12          12          12          12          16          16          14          12          12          12
 AtmWgt=  12.0000000  12.0000000  12.0000000  12.0000000  15.9949146  15.9949146  14.0030740  12.0000000  12.0000000  12.0000000
 NucSpn=           0           0           0           0           0           0           2           0           0           0
 AtZEff=  -0.0000000  -0.0000000  -0.0000000  -0.0000000  -0.0000000  -0.0000000  -0.0000000  -0.0000000  -0.0000000  -0.0000000
 NQMom=    0.0000000   0.0000000   0.0000000   0.0000000   0.0000000   0.0000000   2.0440000   0.0000000   0.0000000   0.0000000
 NMagM=    0.0000000   0.0000000   0.0000000   0.0000000   0.0000000   0.0000000   0.4037610   0.0000000   0.0000000   0.0000000
 AtZNuc=   6.0000000   6.0000000   6.0000000   6.0000000   8.0000000   8.0000000   7.0000000   6.0000000   6.0000000   6.0000000

  Atom        21          22          23          24          25          26          27          28          29          30
 IAtWgt=          12          12          12          16          12          14          12          12          12          12
 AtmWgt=  12.0000000  12.0000000  12.0000000  15.9949146  12.0000000  14.0030740  12.0000000  12.0000000  12.0000000  12.0000000
 NucSpn=           0           0           0           0           0           2           0           0           0           0
 AtZEff=  -0.0000000  -0.0000000  -0.0000000  -0.0000000  -0.0000000  -0.0000000  -0.0000000  -0.0000000  -0.0000000  -0.0000000
 NQMom=    0.0000000   0.0000000   0.0000000   0.0000000   0.0000000   2.0440000   0.0000000   0.0000000   0.0000000   0.0000000
 NMagM=    0.0000000   0.0000000   0.0000000   0.0000000   0.0000000   0.4037610   0.0000000   0.0000000   0.0000000   0.0000000
 AtZNuc=   6.0000000   6.0000000   6.0000000   8.0000000   6.0000000   7.0000000   6.0000000   6.0000000   6.0000000   6.0000000

  Atom        31          32          33          34          35          36          37          38          39          40
 IAtWgt=          12          12          12          14          12          12          12          12          12          12
 AtmWgt=  12.0000000  12.0000000  12.0000000  14.0030740  12.0000000  12.0000000  12.0000000  12.0000000  12.0000000  12.0000000
 NucSpn=           0           0           0           2           0           0           0           0           0           0
 AtZEff=  -0.0000000  -0.0000000  -0.0000000  -0.0000000  -0.0000000  -0.0000000  -0.0000000  -0.0000000  -0.0000000  -0.0000000
 NQMom=    0.0000000   0.0000000   0.0000000   2.0440000   0.0000000   0.0000000   0.0000000   0.0000000   0.0000000   0.0000000
 NMagM=    0.0000000   0.0000000   0.0000000   0.4037610   0.0000000   0.0000000   0.0000000   0.0000000   0.0000000   0.0000000
 AtZNuc=   6.0000000   6.0000000   6.0000000   7.0000000   6.0000000   6.0000000   6.0000000   6.0000000   6.0000000   6.0000000

  Atom        41          42          43          44          45          46          47          48          49          50
 IAtWgt=          16          12          12          16          16          12          12          12          12          12
 AtmWgt=  15.9949146  12.0000000  12.0000000  15.9949146  15.9949146  12.0000000  12.0000000  12.0000000  12.0000000  12.0000000
 NucSpn=           0           0           0           0           0           0           0           0           0           0
 AtZEff=  -0.0000000  -0.0000000  -0.0000000  -0.0000000  -0.0000000  -0.0000000  -0.0000000  -0.0000000  -0.0000000  -0.0000000
 NQMom=    0.0000000   0.0000000   0.0000000   0.0000000   0.0000000   0.0000000   0.0000000   0.0000000   0.0000000   0.0000000
 NMagM=    0.0000000   0.0000000   0.0000000   0.0000000   0.0000000   0.0000000   0.0000000   0.0000000   0.0000000   0.0000000
 AtZNuc=   8.0000000   6.0000000   6.0000000   8.0000000   8.0000000   6.0000000   6.0000000   6.0000000   6.0000000   6.0000000

  Atom        51          52          53          54          55          56          57          58          59          60
 IAtWgt=          12          12          12          12          12          12          12          12          12          12
 AtmWgt=  12.0000000  12.0000000  12.0000000  12.0000000  12.0000000  12.0000000  12.0000000  12.0000000  12.0000000  12.0000000
 NucSpn=           0           0           0           0           0           0           0           0           0           0
 AtZEff=  -0.0000000  -0.0000000  -0.0000000  -0.0000000  -0.0000000  -0.0000000  -0.0000000  -0.0000000  -0.0000000  -0.0000000
 NQMom=    0.0000000   0.0000000   0.0000000   0.0000000   0.0000000   0.0000000   0.0000000   0.0000000   0.0000000   0.0000000
 NMagM=    0.0000000   0.0000000   0.0000000   0.0000000   0.0000000   0.0000000   0.0000000   0.0000000   0.0000000   0.0000000
 AtZNuc=   6.0000000   6.0000000   6.0000000   6.0000000   6.0000000   6.0000000   6.0000000   6.0000000   6.0000000   6.0000000

  Atom        61          62          63          64          65          66          67          68          69          70
 IAtWgt=          12          12          12          12          12          12           1           1           1           1
 AtmWgt=  12.0000000  12.0000000  12.0000000  12.0000000  12.0000000  12.0000000   1.0078250   1.0078250   1.0078250   1.0078250
 NucSpn=           0           0           0           0           0           0           1           1           1           1
 AtZEff=  -0.0000000  -0.0000000  -0.0000000  -0.0000000  -0.0000000  -0.0000000  -0.0000000  -0.0000000  -0.0000000  -0.0000000
 NQMom=    0.0000000   0.0000000   0.0000000   0.0000000   0.0000000   0.0000000   0.0000000   0.0000000   0.0000000   0.0000000
 NMagM=    0.0000000   0.0000000   0.0000000   0.0000000   0.0000000   0.0000000   2.7928460   2.7928460   2.7928460   2.7928460
 AtZNuc=   6.0000000   6.0000000   6.0000000   6.0000000   6.0000000   6.0000000   1.0000000   1.0000000   1.0000000   1.0000000

  Atom        71          72          73          74          75          76          77          78          79          80
 IAtWgt=           1           1           1           1           1           1           1           1           1           1
 AtmWgt=   1.0078250   1.0078250   1.0078250   1.0078250   1.0078250   1.0078250   1.0078250   1.0078250   1.0078250   1.0078250
 NucSpn=           1           1           1           1           1           1           1           1           1           1
 AtZEff=  -0.0000000  -0.0000000  -0.0000000  -0.0000000  -0.0000000  -0.0000000  -0.0000000  -0.0000000  -0.0000000  -0.0000000
 NQMom=    0.0000000   0.0000000   0.0000000   0.0000000   0.0000000   0.0000000   0.0000000   0.0000000   0.0000000   0.0000000
 NMagM=    2.7928460   2.7928460   2.7928460   2.7928460   2.7928460   2.7928460   2.7928460   2.7928460   2.7928460   2.7928460
 AtZNuc=   1.0000000   1.0000000   1.0000000   1.0000000   1.0000000   1.0000000   1.0000000   1.0000000   1.0000000   1.0000000

  Atom        81          82          83          84          85          86          87          88          89          90
 IAtWgt=           1           1           1           1           1           1           1           1           1           1
 AtmWgt=   1.0078250   1.0078250   1.0078250   1.0078250   1.0078250   1.0078250   1.0078250   1.0078250   1.0078250   1.0078250
 NucSpn=           1           1           1           1           1           1           1           1           1           1
 AtZEff=  -0.0000000  -0.0000000  -0.0000000  -0.0000000  -0.0000000  -0.0000000  -0.0000000  -0.0000000  -0.0000000  -0.0000000
 NQMom=    0.0000000   0.0000000   0.0000000   0.0000000   0.0000000   0.0000000   0.0000000   0.0000000   0.0000000   0.0000000
 NMagM=    2.7928460   2.7928460   2.7928460   2.7928460   2.7928460   2.7928460   2.7928460   2.7928460   2.7928460   2.7928460
 AtZNuc=   1.0000000   1.0000000   1.0000000   1.0000000   1.0000000   1.0000000   1.0000000   1.0000000   1.0000000   1.0000000

  Atom        91          92          93          94          95          96          97          98          99         100
 IAtWgt=           1           1           1           1           1           1           1           1           1           1
 AtmWgt=   1.0078250   1.0078250   1.0078250   1.0078250   1.0078250   1.0078250   1.0078250   1.0078250   1.0078250   1.0078250
 NucSpn=           1           1           1           1           1           1           1           1           1           1
 AtZEff=  -0.0000000  -0.0000000  -0.0000000  -0.0000000  -0.0000000  -0.0000000  -0.0000000  -0.0000000  -0.0000000  -0.0000000
 NQMom=    0.0000000   0.0000000   0.0000000   0.0000000   0.0000000   0.0000000   0.0000000   0.0000000   0.0000000   0.0000000
 NMagM=    2.7928460   2.7928460   2.7928460   2.7928460   2.7928460   2.7928460   2.7928460   2.7928460   2.7928460   2.7928460
 AtZNuc=   1.0000000   1.0000000   1.0000000   1.0000000   1.0000000   1.0000000   1.0000000   1.0000000   1.0000000   1.0000000

  Atom       101         102         103         104         105         106         107         108         109         110
 IAtWgt=           1           1           1           1           1           1           1           1           1           1
 AtmWgt=   1.0078250   1.0078250   1.0078250   1.0078250   1.0078250   1.0078250   1.0078250   1.0078250   1.0078250   1.0078250
 NucSpn=           1           1           1           1           1           1           1           1           1           1
 AtZEff=  -0.0000000  -0.0000000  -0.0000000  -0.0000000  -0.0000000  -0.0000000  -0.0000000  -0.0000000  -0.0000000  -0.0000000
 NQMom=    0.0000000   0.0000000   0.0000000   0.0000000   0.0000000   0.0000000   0.0000000   0.0000000   0.0000000   0.0000000
 NMagM=    2.7928460   2.7928460   2.7928460   2.7928460   2.7928460   2.7928460   2.7928460   2.7928460   2.7928460   2.7928460
 AtZNuc=   1.0000000   1.0000000   1.0000000   1.0000000   1.0000000   1.0000000   1.0000000   1.0000000   1.0000000   1.0000000

  Atom       111         112         113         114         115         116         117         118         119         120
 IAtWgt=           1           1           1           1           1           1           1           1           1           1
 AtmWgt=   1.0078250   1.0078250   1.0078250   1.0078250   1.0078250   1.0078250   1.0078250   1.0078250   1.0078250   1.0078250
 NucSpn=           1           1           1           1           1           1           1           1           1           1
 AtZEff=  -0.0000000  -0.0000000  -0.0000000  -0.0000000  -0.0000000  -0.0000000  -0.0000000  -0.0000000  -0.0000000  -0.0000000
 NQMom=    0.0000000   0.0000000   0.0000000   0.0000000   0.0000000   0.0000000   0.0000000   0.0000000   0.0000000   0.0000000
 NMagM=    2.7928460   2.7928460   2.7928460   2.7928460   2.7928460   2.7928460   2.7928460   2.7928460   2.7928460   2.7928460
 AtZNuc=   1.0000000   1.0000000   1.0000000   1.0000000   1.0000000   1.0000000   1.0000000   1.0000000   1.0000000   1.0000000

  Atom       121         122         123         124         125         126         127         128         129         130
 IAtWgt=           1           1           1           1           1           1           1           1           1           1
 AtmWgt=   1.0078250   1.0078250   1.0078250   1.0078250   1.0078250   1.0078250   1.0078250   1.0078250   1.0078250   1.0078250
 NucSpn=           1           1           1           1           1           1           1           1           1           1
 AtZEff=  -0.0000000  -0.0000000  -0.0000000  -0.0000000  -0.0000000  -0.0000000  -0.0000000  -0.0000000  -0.0000000  -0.0000000
 NQMom=    0.0000000   0.0000000   0.0000000   0.0000000   0.0000000   0.0000000   0.0000000   0.0000000   0.0000000   0.0000000
 NMagM=    2.7928460   2.7928460   2.7928460   2.7928460   2.7928460   2.7928460   2.7928460   2.7928460   2.7928460   2.7928460
 AtZNuc=   1.0000000   1.0000000   1.0000000   1.0000000   1.0000000   1.0000000   1.0000000   1.0000000   1.0000000   1.0000000

  Atom       131         132         133         134         135         136         137         138         139         140
 IAtWgt=           1           1           1           1           1           1           1           1           1           1
 AtmWgt=   1.0078250   1.0078250   1.0078250   1.0078250   1.0078250   1.0078250   1.0078250   1.0078250   1.0078250   1.0078250
 NucSpn=           1           1           1           1           1           1           1           1           1           1
 AtZEff=  -0.0000000  -0.0000000  -0.0000000  -0.0000000  -0.0000000  -0.0000000  -0.0000000  -0.0000000  -0.0000000  -0.0000000
 NQMom=    0.0000000   0.0000000   0.0000000   0.0000000   0.0000000   0.0000000   0.0000000   0.0000000   0.0000000   0.0000000
 NMagM=    2.7928460   2.7928460   2.7928460   2.7928460   2.7928460   2.7928460   2.7928460   2.7928460   2.7928460   2.7928460
 AtZNuc=   1.0000000   1.0000000   1.0000000   1.0000000   1.0000000   1.0000000   1.0000000   1.0000000   1.0000000   1.0000000
 Leave Link  101 at Thu Apr 28 07:34:34 2022, MaxMem= 10066329600 cpu:               2.9 elap:               0.1
 (Enter /sw/apps/gaussian-16.0/g16/l202.exe)
 Stoichiometry    C55H74MgN4O6
 Framework group  C1[X(C55H74MgN4O6)]
 Deg. of freedom   414
 Full point group                 C1      NOp   1
 Largest Abelian subgroup         C1      NOp   1
 Largest concise Abelian subgroup C1      NOp   1
                         Standard orientation:                         
 ---------------------------------------------------------------------
 Center     Atomic      Atomic             Coordinates (Angstroms)
 Number     Number       Type             X           Y           Z
 ---------------------------------------------------------------------
      1         12           0        5.420542    1.162191    0.081004
      2          6           0        4.664131   -2.264846    0.119349
      3          6           0        1.989869    1.747368   -0.059132
      4          6           0        6.097377    4.419754   -0.129338
      5          6           0        8.805553    0.477264   -0.159053
      6          7           0        3.640421   -0.123617    0.242901
      7          6           0        3.529144   -1.443460    0.303119
      8          6           0        2.124058   -1.922559    0.540509
      9          6           0        1.326568   -0.651172    0.218873
     10          6           0        2.382809    0.392759    0.017877
     11          6           0        0.368281   -0.631086   -1.029249
     12          6           0        1.888001   -2.490163    1.939462
     13          6           0        1.060098   -3.833050    2.056164
     14          6           0        0.275607   -4.341268    0.849263
     15          8           0        0.712819   -5.200938    0.046900
     16          8           0       -0.932936   -3.722294    0.704662
     17          7           0        4.232803    2.858550    0.014856
     18          6           0        2.802651    2.904315   -0.087140
     19          6           0        2.441740    4.297714   -0.149606
     20          6           0        3.643908    5.124195   -0.137919
     21          6           0        4.684896    4.143441   -0.130223
     22          6           0        0.983644    4.675397   -0.287363
     23          6           0        3.808889    6.597028   -0.188001
     24          8           0        4.905780    7.147451   -0.091178
     25          6           0        2.653447    7.500637   -0.319107
     26          7           0        7.206390    2.288033   -0.094530
     27          6           0        7.260513    3.674196   -0.092587
     28          6           0        8.782526    4.179622   -0.079905
     29          6           0        9.528801    2.907747    0.181650
     30          6           0        8.518157    1.845143   -0.086931
     31          6           0        9.248496    5.017598   -1.364890
     32          6           0       10.172251    2.757080    1.629944
     33          6           0       11.748379    2.793926    1.721149
     34          7           0        6.532351   -0.492542   -0.242773
     35          6           0        7.867350   -0.656129   -0.269642
     36          6           0        8.176859   -2.075564   -0.577166
     37          6           0        6.929448   -2.764466   -0.390789
     38          6           0        6.014348   -1.737515   -0.194128
     39          6           0        9.609948   -2.648233   -0.712774
     40          6           0        6.263154   -4.036149   -0.317549
     41          8           0        6.752688   -5.170940   -0.438405
     42          6           0        4.810182   -3.814322    0.108231
     43          6           0        3.823112   -4.459296   -0.798589
     44          8           0        3.324053   -4.008640   -1.842787
     45          8           0        3.965934   -5.808313   -0.591277
     46          6           0        3.435552   -6.846722   -1.430077
     47          6           0       -1.785075   -3.964966   -0.516468
     48          6           0       -3.066103   -3.105004   -0.319140
     49          6           0       -4.272159   -3.197090   -0.954468
     50          6           0       -4.489085   -4.164398   -2.167441
     51          6           0       -5.557911   -2.472277   -0.494902
     52          6           0       -5.782920   -2.218479    0.968479
     53          6           0       -7.320872   -2.419162    1.380230
     54          6           0       -8.120031   -1.028592    1.573163
     55          6           0       -7.858875   -0.484760    3.015458
     56          6           0       -9.671552   -1.274061    1.332769
     57          6           0      -10.372011   -0.275111    0.410162
     58          6           0      -11.894301   -0.467524    0.345778
     59          6           0      -12.680053    0.877714    0.407032
     60          6           0      -12.537284    1.471705    1.833660
     61          6           0      -14.136068    0.652792    0.152270
     62          6           0      -14.624861    1.290671   -1.266965
     63          6           0      -15.145204    2.714576   -1.054651
     64          6           0      -16.698640    2.836981   -1.091960
     65          6           0      -17.305185    3.238387   -2.510215
     66          6           0      -17.322119    3.713069    0.078142
     67          1           0        0.902716    1.842407   -0.023407
     68          1           0        6.388934    5.470437   -0.193297
     69          1           0        9.882344    0.339078   -0.276705
     70          1           0        1.882472   -2.596161   -0.282384
     71          1           0        0.719062   -0.358839    1.076059
     72          1           0        0.945811   -0.128914   -1.804729
     73          1           0       -0.650802   -0.285868   -0.852335
     74          1           0        0.238483   -1.659012   -1.366698
     75          1           0        1.452046   -1.744336    2.603249
     76          1           0        2.914379   -2.662018    2.263926
     77          1           0        0.344518   -3.576235    2.837592
     78          1           0        1.716225   -4.642020    2.378042
     79          1           0        0.992060    5.481281   -1.021103
     80          1           0        0.504118    4.908690    0.663485
     81          1           0        0.498075    3.813657   -0.744005
     82          1           0        1.850891    7.297941    0.390473
     83          1           0        2.258758    7.613382   -1.329562
     84          1           0        3.107053    8.441927   -0.010026
     85          1           0        9.109585    4.803534    0.752538
     86          1           0       10.326587    2.964779   -0.558868
     87          1           0       10.277735    4.900581   -1.702723
     88          1           0        9.138807    6.082232   -1.160871
     89          1           0        8.599166    4.790030   -2.209586
     90          1           0        9.877954    1.836917    2.133697
     91          1           0        9.739977    3.505472    2.295699
     92          1           0       12.069742    1.978470    2.367763
     93          1           0       12.097239    3.752841    2.103612
     94          1           0       12.058185    2.577750    0.698579
     95          1           0        9.928968   -2.711443    0.326911
     96          1           0       10.218863   -1.897682   -1.218146
     97          1           0        9.565310   -3.602598   -1.237321
     98          1           0        4.729900   -4.270755    1.094232
     99          1           0        4.253488   -7.388962   -1.904941
    100          1           0        2.860462   -6.471732   -2.277116
    101          1           0        2.742822   -7.437746   -0.830471
    102          1           0       -2.011790   -5.027033   -0.606753
    103          1           0       -1.354088   -3.626074   -1.458543
    104          1           0       -2.926294   -2.496901    0.575227
    105          1           0       -5.210273   -4.917696   -1.852986
    106          1           0       -3.521056   -4.600703   -2.413709
    107          1           0       -4.830218   -3.518536   -2.976830
    108          1           0       -6.504475   -2.751330   -0.959340
    109          1           0       -5.243706   -1.506770   -0.892727
    110          1           0       -5.490647   -1.204646    1.242928
    111          1           0       -5.232031   -2.962695    1.543113
    112          1           0       -7.398166   -2.862743    2.373366
    113          1           0       -7.812637   -3.044985    0.634806
    114          1           0       -7.820045   -0.217577    0.909309
    115          1           0       -7.838382    0.604050    3.052157
    116          1           0       -6.904267   -0.872101    3.371856
    117          1           0       -8.639482   -0.753903    3.727888
    118          1           0      -10.217782   -1.278742    2.276428
    119          1           0       -9.742267   -2.257867    0.868953
    120          1           0       -9.936968   -0.280072   -0.589387
    121          1           0      -10.092533    0.689341    0.832880
    122          1           0      -12.265538   -1.177759    1.083746
    123          1           0      -12.057373   -1.079963   -0.542106
    124          1           0      -12.080157    1.536028   -0.222473
    125          1           0      -13.239303    0.989446    2.512171
    126          1           0      -12.720473    2.532506    1.660780
    127          1           0      -11.494725    1.512043    2.149102
    128          1           0      -14.753337    0.857676    1.026842
    129          1           0      -14.230128   -0.428197    0.053953
    130          1           0      -15.421859    0.689399   -1.704072
    131          1           0      -13.918979    1.391431   -2.091758
    132          1           0      -14.715894    3.279747   -1.881939
    133          1           0      -14.781758    3.195630   -0.146777
    134          1           0      -17.154551    1.867660   -0.889579
    135          1           0      -16.559921    2.928349   -3.243247
    136          1           0      -17.457002    4.317554   -2.520760
    137          1           0      -18.227633    2.683207   -2.677153
    138          1           0      -18.100169    3.218602    0.659683
    139          1           0      -17.678553    4.666941   -0.308200
    140          1           0      -16.591090    4.007790    0.830866
 ---------------------------------------------------------------------
 Rotational constants (GHZ):           0.0423799           0.0089101           0.0075798
 Leave Link  202 at Thu Apr 28 07:34:34 2022, MaxMem= 10066329600 cpu:               0.7 elap:               0.0
 (Enter /sw/apps/gaussian-16.0/g16/l301.exe)
 Standard basis: def2SVP (5D, 7F)
 Ernie: Thresh=  0.10000D-02 Tol=  0.10000D-05 Strict=F.
 There are  1364 symmetry adapted cartesian basis functions of A   symmetry.
 There are  1298 symmetry adapted basis functions of A   symmetry.
  1298 basis functions,  2180 primitive gaussians,  1364 cartesian basis functions
   246 alpha electrons      246 beta electrons
       nuclear repulsion energy      9416.7662784618 Hartrees.
 IExCor= 4639 DFT=T Ex+Corr=wB97XD ExCW=0 ScaHFX=  1.000000
 ScaDFX=  1.000000  1.000000  1.000000  1.000000 ScalE2=  1.000000  1.000000
 IRadAn=      5 IRanWt=     -1 IRanGd=            0 ICorTp=0 IEmpDi=121
 HFx  wShort=  0.000000 wLong=  0.200000 cFull=  0.222036 cShort=  0.000000 cLong=  0.777964
 DFx  wShort=  0.000000 wLong=  0.200000 cFull=  0.000000 cShort=  0.000000 cLong=  1.000000
 NAtoms=  140 NActive=  140 NUniq=  140 SFac= 1.00D+00 NAtFMM=   60 NAOKFM=T Big=T
 Integral buffers will be    131072 words long.
 Raffenetti 1 integral format.
 Two-electron integral symmetry is turned on.
 R6Disp:  Grimme-D2 Dispersion energy=       -0.1326513510 Hartrees.
 Nuclear repulsion after empirical dispersion term =     9416.6336271109 Hartrees.
 Leave Link  301 at Thu Apr 28 07:34:34 2022, MaxMem= 10066329600 cpu:               1.2 elap:               0.1
 (Enter /sw/apps/gaussian-16.0/g16/l302.exe)
 NPDir=0 NMtPBC=     1 NCelOv=     1 NCel=       1 NClECP=     1 NCelD=      1
         NCelK=      1 NCelE2=     1 NClLst=     1 CellRange=     0.0.
 One-electron integrals computed using PRISM.
 One-electron integral symmetry used in STVInt
   1 Symmetry operations used in ECPInt.
 ECPInt:  NShTT=  192510 NPrTT=  683786 LenC2=   90986 LenP2D=  200758.
 LDataN:  DoStor=T MaxTD1= 4 Len=   56
 NBasis=  1298 RedAO= T EigKep=  2.52D-04  NBF=  1298
 NBsUse=  1298 1.00D-06 EigRej= -1.00D+00 NBFU=  1298
 Precomputing XC quadrature grid using
 IXCGrd= 4 IRadAn=           5 IRanWt=          -1 IRanGd=           0 AccXCQ= 0.00D+00.
 Generated NRdTot=       0 NPtTot=           0 NUsed=           0 NTot=          32
 NSgBfM=  1042  1042  1042  1042  1042 MxSgAt=   140 MxSgA2=   138.
 Leave Link  302 at Thu Apr 28 07:34:38 2022, MaxMem= 10066329600 cpu:              94.5 elap:               4.0
 (Enter /sw/apps/gaussian-16.0/g16/l303.exe)
 DipDrv:  MaxL=1.
 Leave Link  303 at Thu Apr 28 07:34:38 2022, MaxMem= 10066329600 cpu:               6.3 elap:               0.3
 (Enter /sw/apps/gaussian-16.0/g16/l308.exe)
 Leave Link  308 at Thu Apr 28 07:34:38 2022, MaxMem= 10066329600 cpu:               9.9 elap:               0.5
 (Enter /sw/apps/gaussian-16.0/g16/l401.exe)
 ExpMin= 3.36D-02 ExpMax= 4.95D+03 ExpMxC= 7.45D+02 IAcc=3 IRadAn=         5 AccDes= 0.00D+00
 Harris functional with IExCor= 4639 and IRadAn=       5 diagonalized for initial guess.
 HarFok:  IExCor= 4639 AccDes= 0.00D+00 IRadAn=         5 IDoV= 1 UseB2=F ITyADJ=14
 ICtDFT=  3500011 ScaDFX=  1.000000  1.000000  1.000000  1.000000
 FoFCou: FMM=F IPFlag=           0 FMFlag=      100000 FMFlg1=        2001
         NFxFlg=           0 DoJE=T BraDBF=F KetDBF=T FulRan=T
         wScrn=  0.000000 ICntrl=       500 IOpCl=  0 I1Cent=   200000004 NGrid=           0
         NMat0=    1 NMatS0=      1 NMatT0=    0 NMatD0=    1 NMtDS0=    0 NMtDT0=    0
 Petite list used in FoFCou.
 Harris En= -2878.02544023808    
 JPrj=0 DoOrth=F DoCkMO=F.
 Leave Link  401 at Thu Apr 28 07:34:45 2022, MaxMem= 10066329600 cpu:             165.8 elap:               6.9
 (Enter /sw/apps/gaussian-16.0/g16/l502.exe)
 Integral symmetry usage will be decided dynamically.
 Closed shell SCF:
 Using DIIS extrapolation, IDIIS=  1040.
 NGot= 10066329600 LenX= 10062561258 LenY= 10060699398
 Requested convergence on RMS density matrix=1.00D-08 within 128 cycles.
 Requested convergence on MAX density matrix=1.00D-06.
 Requested convergence on             energy=1.00D-06.
 No special actions if energy rises.
 Fock matrices will be formed incrementally for  20 cycles.

 Cycle   1  Pass 1  IDiag  1:
 FoFJK:  IHMeth= 1 ICntrl=       0 DoSepK=T KAlg= 0 I1Cent=           0 FoldK=F
 IRaf=         1 NMat=       1 IRICut=       1 DoRegI=T DoRafI=F ISym2E= 0 IDoP0=0 IntGTp=1.
 FoFCou: FMM=T IPFlag=           0 FMFlag=      100000 FMFlg1=        2001
         NFxFlg=           0 DoJE=T BraDBF=F KetDBF=F FulRan=T
         wScrn=  0.000000 ICntrl=       500 IOpCl=  0 I1Cent=           0 NGrid=           0
         NMat0=    1 NMatS0=      1 NMatT0=    0 NMatD0=    1 NMtDS0=    0 NMtDT0=    0
 Symmetry not used in FoFCou.
 FMM levels:  10  Number of levels for PrismC:   9
 E= -3007.18157425117    
 DIIS: error= 3.73D-02 at cycle   1 NSaved=   1.
 NSaved= 1 IEnMin= 1 EnMin= -3007.18157425117     IErMin= 1 ErrMin= 3.73D-02
 ErrMax= 3.73D-02  0.00D+00 EMaxC= 1.00D-01 BMatC= 1.47D+00 BMatP= 1.47D+00
 IDIUse=3 WtCom= 6.27D-01 WtEn= 3.73D-01
 Coeff-Com:  0.100D+01
 Coeff-En:   0.100D+01
 Coeff:      0.100D+01
 Gap=     0.150 Goal=   None    Shift=    0.000
 GapD=    0.150 DampG=1.000 DampE=0.500 DampFc=0.5000 IDamp=-1.
 Damping current iteration by 5.00D-01
 RMSDP=1.51D-03 MaxDP=1.86D-01              OVMax= 1.56D-01

 Cycle   2  Pass 1  IDiag  1:
 RMSU=  7.47D-04    CP:  9.88D-01
 E= -3007.49765846892     Delta-E=       -0.316084217759 Rises=F Damp=T
 DIIS: error= 1.67D-02 at cycle   2 NSaved=   2.
 NSaved= 2 IEnMin= 2 EnMin= -3007.49765846892     IErMin= 2 ErrMin= 1.67D-02
 ErrMax= 1.67D-02  0.00D+00 EMaxC= 1.00D-01 BMatC= 2.88D-01 BMatP= 1.47D+00
 IDIUse=3 WtCom= 8.33D-01 WtEn= 1.67D-01
 Coeff-Com: -0.374D+00 0.137D+01
 Coeff-En:   0.000D+00 0.100D+01
 Coeff:     -0.311D+00 0.131D+01
 Gap=     0.169 Goal=   None    Shift=    0.000
 RMSDP=6.99D-04 MaxDP=1.05D-01 DE=-3.16D-01 OVMax= 1.30D-01

 Cycle   3  Pass 1  IDiag  1:
 RMSU=  6.33D-04    CP:  9.78D-01  1.38D+00
 E= -3007.73330087896     Delta-E=       -0.235642410038 Rises=F Damp=F
 DIIS: error= 1.25D-02 at cycle   3 NSaved=   3.
 NSaved= 3 IEnMin= 3 EnMin= -3007.73330087896     IErMin= 3 ErrMin= 1.25D-02
 ErrMax= 1.25D-02  0.00D+00 EMaxC= 1.00D-01 BMatC= 1.25D-01 BMatP= 2.88D-01
 IDIUse=3 WtCom= 8.75D-01 WtEn= 1.25D-01
 Coeff-Com: -0.309D+00 0.684D+00 0.625D+00
 Coeff-En:   0.000D+00 0.000D+00 0.100D+01
 Coeff:     -0.270D+00 0.598D+00 0.672D+00
 Gap=     0.156 Goal=   None    Shift=    0.000
 RMSDP=3.87D-04 MaxDP=4.41D-02 DE=-2.36D-01 OVMax= 7.00D-02

 Cycle   4  Pass 1  IDiag  1:
 RMSU=  2.12D-04    CP:  9.75D-01  1.64D+00  5.93D-01
 E= -3007.82399574988     Delta-E=       -0.090694870914 Rises=F Damp=F
 DIIS: error= 4.53D-03 at cycle   4 NSaved=   4.
 NSaved= 4 IEnMin= 4 EnMin= -3007.82399574988     IErMin= 4 ErrMin= 4.53D-03
 ErrMax= 4.53D-03  0.00D+00 EMaxC= 1.00D-01 BMatC= 1.90D-02 BMatP= 1.25D-01
 IDIUse=3 WtCom= 9.55D-01 WtEn= 4.53D-02
 Coeff-Com: -0.116D+00 0.233D+00 0.370D+00 0.513D+00
 Coeff-En:   0.000D+00 0.000D+00 0.974D-01 0.903D+00
 Coeff:     -0.111D+00 0.222D+00 0.358D+00 0.531D+00
 Gap=     0.155 Goal=   None    Shift=    0.000
 RMSDP=1.20D-04 MaxDP=1.53D-02 DE=-9.07D-02 OVMax= 2.09D-02

 Cycle   5  Pass 1  IDiag  1:
 RMSU=  5.97D-05    CP:  9.75D-01  1.61D+00  7.10D-01  6.71D-01
 E= -3007.83935537664     Delta-E=       -0.015359626763 Rises=F Damp=F
 DIIS: error= 6.10D-04 at cycle   5 NSaved=   5.
 NSaved= 5 IEnMin= 5 EnMin= -3007.83935537664     IErMin= 5 ErrMin= 6.10D-04
 ErrMax= 6.10D-04  0.00D+00 EMaxC= 1.00D-01 BMatC= 4.25D-04 BMatP= 1.90D-02
 IDIUse=3 WtCom= 9.94D-01 WtEn= 6.10D-03
 Coeff-Com: -0.301D-01 0.573D-01 0.122D+00 0.231D+00 0.620D+00
 Coeff-En:   0.000D+00 0.000D+00 0.000D+00 0.000D+00 0.100D+01
 Coeff:     -0.299D-01 0.569D-01 0.121D+00 0.230D+00 0.622D+00
 Gap=     0.155 Goal=   None    Shift=    0.000
 RMSDP=2.32D-05 MaxDP=3.64D-03 DE=-1.54D-02 OVMax= 3.90D-03

 Cycle   6  Pass 1  IDiag  1:
 RMSU=  2.00D-05    CP:  9.75D-01  1.62D+00  7.15D-01  7.16D-01  9.24D-01
 E= -3007.83969041226     Delta-E=       -0.000335035622 Rises=F Damp=F
 DIIS: error= 2.28D-04 at cycle   6 NSaved=   6.
 NSaved= 6 IEnMin= 6 EnMin= -3007.83969041226     IErMin= 6 ErrMin= 2.28D-04
 ErrMax= 2.28D-04  0.00D+00 EMaxC= 1.00D-01 BMatC= 6.07D-05 BMatP= 4.25D-04
 IDIUse=3 WtCom= 9.98D-01 WtEn= 2.28D-03
 Coeff-Com:  0.910D-02-0.197D-01-0.133D-01 0.368D-02 0.278D+00 0.742D+00
 Coeff-En:   0.000D+00 0.000D+00 0.000D+00 0.000D+00 0.000D+00 0.100D+01
 Coeff:      0.907D-02-0.197D-01-0.132D-01 0.367D-02 0.278D+00 0.742D+00
 Gap=     0.156 Goal=   None    Shift=    0.000
 RMSDP=1.11D-05 MaxDP=2.10D-03 DE=-3.35D-04 OVMax= 2.98D-03

 Cycle   7  Pass 1  IDiag  1:
 RMSU=  7.64D-06    CP:  9.75D-01  1.62D+00  7.20D-01  7.34D-01  1.02D+00
                    CP:  9.67D-01
 E= -3007.83975874427     Delta-E=       -0.000068332012 Rises=F Damp=F
 DIIS: error= 6.77D-05 at cycle   7 NSaved=   7.
 NSaved= 7 IEnMin= 7 EnMin= -3007.83975874427     IErMin= 7 ErrMin= 6.77D-05
 ErrMax= 6.77D-05  0.00D+00 EMaxC= 1.00D-01 BMatC= 6.52D-06 BMatP= 6.07D-05
 IDIUse=1 WtCom= 1.00D+00 WtEn= 0.00D+00
 Coeff-Com:  0.653D-02-0.133D-01-0.164D-01-0.225D-01 0.412D-01 0.294D+00
 Coeff-Com:  0.710D+00
 Coeff:      0.653D-02-0.133D-01-0.164D-01-0.225D-01 0.412D-01 0.294D+00
 Coeff:      0.710D+00
 Gap=     0.156 Goal=   None    Shift=    0.000
 RMSDP=4.87D-06 MaxDP=1.24D-03 DE=-6.83D-05 OVMax= 1.16D-03

 Cycle   8  Pass 1  IDiag  1:
 RMSU=  3.06D-06    CP:  9.75D-01  1.62D+00  7.23D-01  7.38D-01  1.05D+00
                    CP:  1.10D+00  1.05D+00
 E= -3007.83976821996     Delta-E=       -0.000009475691 Rises=F Damp=F
 DIIS: error= 2.91D-05 at cycle   8 NSaved=   8.
 NSaved= 8 IEnMin= 8 EnMin= -3007.83976821996     IErMin= 8 ErrMin= 2.91D-05
 ErrMax= 2.91D-05  0.00D+00 EMaxC= 1.00D-01 BMatC= 1.32D-06 BMatP= 6.52D-06
 IDIUse=1 WtCom= 1.00D+00 WtEn= 0.00D+00
 Coeff-Com:  0.158D-02-0.295D-02-0.535D-02-0.119D-01-0.318D-01 0.103D-01
 Coeff-Com:  0.334D+00 0.706D+00
 Coeff:      0.158D-02-0.295D-02-0.535D-02-0.119D-01-0.318D-01 0.103D-01
 Coeff:      0.334D+00 0.706D+00
 Gap=     0.156 Goal=   None    Shift=    0.000
 RMSDP=2.14D-06 MaxDP=3.85D-04 DE=-9.48D-06 OVMax= 8.54D-04

 Cycle   9  Pass 1  IDiag  1:
 RMSU=  1.31D-06    CP:  9.75D-01  1.62D+00  7.23D-01  7.40D-01  1.06D+00
                    CP:  1.14D+00  1.20D+00  1.07D+00
 E= -3007.83977074231     Delta-E=       -0.000002522343 Rises=F Damp=F
 DIIS: error= 1.30D-05 at cycle   9 NSaved=   9.
 NSaved= 9 IEnMin= 9 EnMin= -3007.83977074231     IErMin= 9 ErrMin= 1.30D-05
 ErrMax= 1.30D-05  0.00D+00 EMaxC= 1.00D-01 BMatC= 1.79D-07 BMatP= 1.32D-06
 IDIUse=1 WtCom= 1.00D+00 WtEn= 0.00D+00
 Coeff-Com: -0.445D-03 0.974D-03 0.711D-03-0.841D-03-0.184D-01-0.411D-01
 Coeff-Com:  0.148D-01 0.242D+00 0.803D+00
 Coeff:     -0.445D-03 0.974D-03 0.711D-03-0.841D-03-0.184D-01-0.411D-01
 Coeff:      0.148D-01 0.242D+00 0.803D+00
 Gap=     0.156 Goal=   None    Shift=    0.000
 RMSDP=1.26D-06 MaxDP=2.95D-04 DE=-2.52D-06 OVMax= 5.06D-04

 Cycle  10  Pass 1  IDiag  1:
 RMSU=  6.56D-07    CP:  9.75D-01  1.62D+00  7.23D-01  7.40D-01  1.06D+00
                    CP:  1.17D+00  1.26D+00  1.29D+00  1.22D+00
 E= -3007.83977138285     Delta-E=       -0.000000640544 Rises=F Damp=F
 DIIS: error= 9.95D-06 at cycle  10 NSaved=  10.
 NSaved=10 IEnMin=10 EnMin= -3007.83977138285     IErMin=10 ErrMin= 9.95D-06
 ErrMax= 9.95D-06  0.00D+00 EMaxC= 1.00D-01 BMatC= 4.39D-08 BMatP= 1.79D-07
 IDIUse=1 WtCom= 1.00D+00 WtEn= 0.00D+00
 Coeff-Com: -0.565D-03 0.111D-02 0.167D-02 0.271D-02 0.514D-03-0.183D-01
 Coeff-Com: -0.765D-01-0.907D-01 0.298D+00 0.882D+00
 Coeff:     -0.565D-03 0.111D-02 0.167D-02 0.271D-02 0.514D-03-0.183D-01
 Coeff:     -0.765D-01-0.907D-01 0.298D+00 0.882D+00
 Gap=     0.156 Goal=   None    Shift=    0.000
 RMSDP=8.04D-07 MaxDP=1.06D-04 DE=-6.41D-07 OVMax= 5.00D-04

 Cycle  11  Pass 1  IDiag  1:
 RMSU=  3.67D-07    CP:  9.75D-01  1.62D+00  7.23D-01  7.41D-01  1.07D+00
                    CP:  1.18D+00  1.30D+00  1.41D+00  1.57D+00  1.24D+00
 E= -3007.83977164660     Delta-E=       -0.000000263752 Rises=F Damp=F
 DIIS: error= 5.95D-06 at cycle  11 NSaved=  11.
 NSaved=11 IEnMin=11 EnMin= -3007.83977164660     IErMin=11 ErrMin= 5.95D-06
 ErrMax= 5.95D-06  0.00D+00 EMaxC= 1.00D-01 BMatC= 2.05D-08 BMatP= 4.39D-08
 IDIUse=1 WtCom= 1.00D+00 WtEn= 0.00D+00
 Coeff-Com: -0.185D-03 0.350D-03 0.676D-03 0.150D-02 0.343D-02-0.594D-03
 Coeff-Com: -0.384D-01-0.917D-01-0.330D-01 0.470D+00 0.688D+00
 Coeff:     -0.185D-03 0.350D-03 0.676D-03 0.150D-02 0.343D-02-0.594D-03
 Coeff:     -0.384D-01-0.917D-01-0.330D-01 0.470D+00 0.688D+00
 Gap=     0.156 Goal=   None    Shift=    0.000
 RMSDP=4.17D-07 MaxDP=5.27D-05 DE=-2.64D-07 OVMax= 2.20D-04

 Cycle  12  Pass 1  IDiag  1:
 RMSU=  1.88D-07    CP:  9.75D-01  1.62D+00  7.23D-01  7.41D-01  1.07D+00
                    CP:  1.18D+00  1.32D+00  1.48D+00  1.70D+00  1.58D+00
                    CP:  1.24D+00
 E= -3007.83977173275     Delta-E=       -0.000000086144 Rises=F Damp=F
 DIIS: error= 4.12D-06 at cycle  12 NSaved=  12.
 NSaved=12 IEnMin=12 EnMin= -3007.83977173275     IErMin=12 ErrMin= 4.12D-06
 ErrMax= 4.12D-06  0.00D+00 EMaxC= 1.00D-01 BMatC= 4.85D-09 BMatP= 2.05D-08
 IDIUse=1 WtCom= 1.00D+00 WtEn= 0.00D+00
 Coeff-Com:  0.159D-03-0.318D-03-0.407D-03-0.458D-03 0.712D-03 0.739D-02
 Coeff-Com:  0.179D-01 0.355D-02-0.147D+00-0.140D+00 0.177D+00 0.108D+01
 Coeff:      0.159D-03-0.318D-03-0.407D-03-0.458D-03 0.712D-03 0.739D-02
 Coeff:      0.179D-01 0.355D-02-0.147D+00-0.140D+00 0.177D+00 0.108D+01
 Gap=     0.156 Goal=   None    Shift=    0.000
 RMSDP=3.89D-07 MaxDP=2.61D-05 DE=-8.61D-08 OVMax= 2.63D-04

 Cycle  13  Pass 1  IDiag  1:
 RMSU=  1.13D-07    CP:  9.75D-01  1.62D+00  7.23D-01  7.41D-01  1.07D+00
                    CP:  1.18D+00  1.32D+00  1.51D+00  1.83D+00  1.85D+00
                    CP:  1.84D+00  1.58D+00
 E= -3007.83977178364     Delta-E=       -0.000000050894 Rises=F Damp=F
 DIIS: error= 2.17D-06 at cycle  13 NSaved=  13.
 NSaved=13 IEnMin=13 EnMin= -3007.83977178364     IErMin=13 ErrMin= 2.17D-06
 ErrMax= 2.17D-06  0.00D+00 EMaxC= 1.00D-01 BMatC= 1.90D-09 BMatP= 4.85D-09
 IDIUse=1 WtCom= 1.00D+00 WtEn= 0.00D+00
 Coeff-Com:  0.150D-03-0.295D-03-0.462D-03-0.779D-03-0.116D-02 0.371D-02
 Coeff-Com:  0.243D-01 0.383D-01-0.583D-01-0.233D+00-0.224D+00 0.499D+00
 Coeff-Com:  0.952D+00
 Coeff:      0.150D-03-0.295D-03-0.462D-03-0.779D-03-0.116D-02 0.371D-02
 Coeff:      0.243D-01 0.383D-01-0.583D-01-0.233D+00-0.224D+00 0.499D+00
 Coeff:      0.952D+00
 Gap=     0.156 Goal=   None    Shift=    0.000
 RMSDP=2.70D-07 MaxDP=1.79D-05 DE=-5.09D-08 OVMax= 1.77D-04

 Cycle  14  Pass 1  IDiag  1:
 RMSU=  5.86D-08    CP:  9.75D-01  1.62D+00  7.23D-01  7.41D-01  1.07D+00
                    CP:  1.18D+00  1.33D+00  1.54D+00  1.90D+00  2.05D+00
                    CP:  2.24D+00  2.24D+00  1.32D+00
 E= -3007.83977180106     Delta-E=       -0.000000017419 Rises=F Damp=F
 DIIS: error= 9.80D-07 at cycle  14 NSaved=  14.
 NSaved=14 IEnMin=14 EnMin= -3007.83977180106     IErMin=14 ErrMin= 9.80D-07
 ErrMax= 9.80D-07  0.00D+00 EMaxC= 1.00D-01 BMatC= 4.49D-10 BMatP= 1.90D-09
 IDIUse=1 WtCom= 1.00D+00 WtEn= 0.00D+00
 Coeff-Com:  0.250D-04-0.470D-04-0.907D-04-0.194D-03-0.645D-03-0.265D-03
 Coeff-Com:  0.567D-02 0.142D-01 0.108D-01-0.557D-01-0.136D+00-0.698D-01
 Coeff-Com:  0.397D+00 0.835D+00
 Coeff:      0.250D-04-0.470D-04-0.907D-04-0.194D-03-0.645D-03-0.265D-03
 Coeff:      0.567D-02 0.142D-01 0.108D-01-0.557D-01-0.136D+00-0.698D-01
 Coeff:      0.397D+00 0.835D+00
 Gap=     0.156 Goal=   None    Shift=    0.000
 RMSDP=1.09D-07 MaxDP=1.03D-05 DE=-1.74D-08 OVMax= 6.69D-05

 Cycle  15  Pass 1  IDiag  1:
 RMSU=  2.93D-08    CP:  9.75D-01  1.62D+00  7.23D-01  7.41D-01  1.07D+00
                    CP:  1.18D+00  1.33D+00  1.54D+00  1.92D+00  2.12D+00
                    CP:  2.41D+00  2.49D+00  1.69D+00  1.16D+00
 E= -3007.83977180364     Delta-E=       -0.000000002585 Rises=F Damp=F
 DIIS: error= 3.81D-07 at cycle  15 NSaved=  15.
 NSaved=15 IEnMin=15 EnMin= -3007.83977180364     IErMin=15 ErrMin= 3.81D-07
 ErrMax= 3.81D-07  0.00D+00 EMaxC= 1.00D-01 BMatC= 1.26D-10 BMatP= 4.49D-10
 IDIUse=1 WtCom= 1.00D+00 WtEn= 0.00D+00
 Coeff-Com: -0.325D-04 0.650D-04 0.934D-04 0.134D-03-0.268D-04-0.130D-02
 Coeff-Com: -0.421D-02-0.449D-02 0.213D-01 0.394D-01-0.329D-03-0.185D+00
 Coeff-Com: -0.643D-01 0.441D+00 0.757D+00
 Coeff:     -0.325D-04 0.650D-04 0.934D-04 0.134D-03-0.268D-04-0.130D-02
 Coeff:     -0.421D-02-0.449D-02 0.213D-01 0.394D-01-0.329D-03-0.185D+00
 Coeff:     -0.643D-01 0.441D+00 0.757D+00
 Gap=     0.156 Goal=   None    Shift=    0.000
 RMSDP=4.44D-08 MaxDP=3.02D-06 DE=-2.58D-09 OVMax= 2.75D-05

 Cycle  16  Pass 1  IDiag  1:
 RMSU=  1.24D-08    CP:  9.75D-01  1.62D+00  7.23D-01  7.41D-01  1.07D+00
                    CP:  1.18D+00  1.33D+00  1.54D+00  1.93D+00  2.14D+00
                    CP:  2.47D+00  2.60D+00  1.83D+00  1.42D+00  9.89D-01
 E= -3007.83977180418     Delta-E=       -0.000000000531 Rises=F Damp=F
 DIIS: error= 9.27D-08 at cycle  16 NSaved=  16.
 NSaved=16 IEnMin=16 EnMin= -3007.83977180418     IErMin=16 ErrMin= 9.27D-08
 ErrMax= 9.27D-08  0.00D+00 EMaxC= 1.00D-01 BMatC= 1.59D-11 BMatP= 1.26D-10
 IDIUse=1 WtCom= 1.00D+00 WtEn= 0.00D+00
 Coeff-Com: -0.155D-04 0.305D-04 0.493D-04 0.784D-04 0.882D-04-0.430D-03
 Coeff-Com: -0.241D-02-0.405D-02 0.725D-02 0.244D-01 0.231D-01-0.648D-01
 Coeff-Com: -0.876D-01 0.240D-01 0.275D+00 0.805D+00
 Coeff:     -0.155D-04 0.305D-04 0.493D-04 0.784D-04 0.882D-04-0.430D-03
 Coeff:     -0.241D-02-0.405D-02 0.725D-02 0.244D-01 0.231D-01-0.648D-01
 Coeff:     -0.876D-01 0.240D-01 0.275D+00 0.805D+00
 Gap=     0.156 Goal=   None    Shift=    0.000
 RMSDP=1.41D-08 MaxDP=2.10D-06 DE=-5.31D-10 OVMax= 7.25D-06

 Cycle  17  Pass 1  IDiag  1:
 RMSU=  5.04D-09    CP:  9.75D-01  1.62D+00  7.23D-01  7.41D-01  1.07D+00
                    CP:  1.18D+00  1.33D+00  1.54D+00  1.93D+00  2.14D+00
                    CP:  2.48D+00  2.62D+00  1.88D+00  1.51D+00  1.14D+00
                    CP:  1.16D+00
 E= -3007.83977180422     Delta-E=       -0.000000000045 Rises=F Damp=F
 DIIS: error= 6.20D-08 at cycle  17 NSaved=  17.
 NSaved=17 IEnMin=17 EnMin= -3007.83977180422     IErMin=17 ErrMin= 6.20D-08
 ErrMax= 6.20D-08  0.00D+00 EMaxC= 1.00D-01 BMatC= 2.77D-12 BMatP= 1.59D-11
 IDIUse=1 WtCom= 1.00D+00 WtEn= 0.00D+00
 Coeff-Com:  0.513D-06-0.125D-05 0.554D-06 0.224D-05 0.338D-04 0.847D-04
 Coeff-Com: -0.299D-04-0.704D-03-0.139D-02 0.951D-03 0.846D-02 0.889D-02
 Coeff-Com: -0.131D-01-0.676D-01-0.356D-01 0.266D+00 0.834D+00
 Coeff:      0.513D-06-0.125D-05 0.554D-06 0.224D-05 0.338D-04 0.847D-04
 Coeff:     -0.299D-04-0.704D-03-0.139D-02 0.951D-03 0.846D-02 0.889D-02
 Coeff:     -0.131D-01-0.676D-01-0.356D-01 0.266D+00 0.834D+00
 Gap=     0.156 Goal=   None    Shift=    0.000
 RMSDP=4.76D-09 MaxDP=4.03D-07 DE=-4.55D-11 OVMax= 2.76D-06

 SCF Done:  E(RwB97XD) =  -3007.83977180     A.U. after   17 cycles
            NFock= 17  Conv=0.48D-08     -V/T= 2.0111
 KE= 2.974707724381D+03 PE=-2.582589840802D+04 EE= 1.042671728472D+04
 Leave Link  502 at Thu Apr 28 07:43:09 2022, MaxMem= 10066329600 cpu:           11732.7 elap:             503.6
 (Enter /sw/apps/gaussian-16.0/g16/l801.exe)
 DoSCS=F DFT=T ScalE2(SS,OS)=  1.000000  1.000000
 ExpMin= 3.36D-02 ExpMax= 4.95D+03 ExpMxC= 7.45D+02 IAcc=3 IRadAn=         5 AccDes= 0.00D+00
 HarFok:  IExCor=  205 AccDes= 0.00D+00 IRadAn=         5 IDoV=-2 UseB2=F ITyADJ=14
 ICtDFT= 12500011 ScaDFX=  1.000000  1.000000  1.000000  1.000000
 GSVD:  LWork=       -5460 too small for GESVD, short by       25550 words or       25550 for optimal perf.
 Largest valence mixing into a core orbital is  1.86D-04
 Largest core mixing into a valence orbital is  5.89D-05
 Range of M.O.s used for correlation:    71  1298
 NBasis=  1298 NAE=   246 NBE=   246 NFC=    70 NFV=     0
 NROrb=   1228 NOA=   176 NOB=   176 NVA=  1052 NVB=  1052
 Leave Link  801 at Thu Apr 28 07:43:09 2022, MaxMem= 10066329600 cpu:               6.1 elap:               0.3
 (Enter /sw/apps/gaussian-16.0/g16/l914.exe)
 RHF ground state
 Two-electron integrals replicated using symmetry.
 MDV= 10066329600 DFT=T DoStab=F Mixed=T DoRPA=T DoScal=F NonHer=T
 Making orbital integer symmetry assigments:
 Orbital symmetries:
       Occupied  (A) (A) (A) (A) (A) (A) (A) (A) (A) (A) (A) (A)
                 (A) (A) (A) (A) (A) (A) (A) (A) (A) (A) (A) (A)
                 (A) (A) (A) (A) (A) (A) (A) (A) (A) (A) (A) (A)
                 (A) (A) (A) (A) (A) (A) (A) (A) (A) (A) (A) (A)
                 (A) (A) (A) (A) (A) (A) (A) (A) (A) (A) (A) (A)
                 (A) (A) (A) (A) (A) (A) (A) (A) (A) (A) (A) (A)
                 (A) (A) (A) (A) (A) (A) (A) (A) (A) (A) (A) (A)
                 (A) (A) (A) (A) (A) (A) (A) (A) (A) (A) (A) (A)
                 (A) (A) (A) (A) (A) (A) (A) (A) (A) (A) (A) (A)
                 (A) (A) (A) (A) (A) (A) (A) (A) (A) (A) (A) (A)
                 (A) (A) (A) (A) (A) (A) (A) (A) (A) (A) (A) (A)
                 (A) (A) (A) (A) (A) (A) (A) (A) (A) (A) (A) (A)
                 (A) (A) (A) (A) (A) (A) (A) (A) (A) (A) (A) (A)
                 (A) (A) (A) (A) (A) (A) (A) (A) (A) (A) (A) (A)
                 (A) (A) (A) (A) (A) (A) (A) (A) (A) (A) (A) (A)
                 (A) (A) (A) (A) (A) (A) (A) (A) (A) (A) (A) (A)
                 (A) (A) (A) (A) (A) (A) (A) (A) (A) (A) (A) (A)
                 (A) (A) (A) (A) (A) (A) (A) (A) (A) (A) (A) (A)
                 (A) (A) (A) (A) (A) (A) (A) (A) (A) (A) (A) (A)
                 (A) (A) (A) (A) (A) (A) (A) (A) (A) (A) (A) (A)
                 (A) (A) (A) (A) (A) (A)
       Virtual   (A) (A) (A) (A) (A) (A) (A) (A) (A) (A) (A) (A)
                 (A) (A) (A) (A) (A) (A) (A) (A) (A) (A) (A) (A)
                 (A) (A) (A) (A) (A) (A) (A) (A) (A) (A) (A) (A)
                 (A) (A) (A) (A) (A) (A) (A) (A) (A) (A) (A) (A)
                 (A) (A) (A) (A) (A) (A) (A) (A) (A) (A) (A) (A)
                 (A) (A) (A) (A) (A) (A) (A) (A) (A) (A) (A) (A)
                 (A) (A) (A) (A) (A) (A) (A) (A) (A) (A) (A) (A)
                 (A) (A) (A) (A) (A) (A) (A) (A) (A) (A) (A) (A)
                 (A) (A) (A) (A) (A) (A) (A) (A) (A) (A) (A) (A)
                 (A) (A) (A) (A) (A) (A) (A) (A) (A) (A) (A) (A)
                 (A) (A) (A) (A) (A) (A) (A) (A) (A) (A) (A) (A)
                 (A) (A) (A) (A) (A) (A) (A) (A) (A) (A) (A) (A)
                 (A) (A) (A) (A) (A) (A) (A) (A) (A) (A) (A) (A)
                 (A) (A) (A) (A) (A) (A) (A) (A) (A) (A) (A) (A)
                 (A) (A) (A) (A) (A) (A) (A) (A) (A) (A) (A) (A)
                 (A) (A) (A) (A) (A) (A) (A) (A) (A) (A) (A) (A)
                 (A) (A) (A) (A) (A) (A) (A) (A) (A) (A) (A) (A)
                 (A) (A) (A) (A) (A) (A) (A) (A) (A) (A) (A) (A)
                 (A) (A) (A) (A) (A) (A) (A) (A) (A) (A) (A) (A)
                 (A) (A) (A) (A) (A) (A) (A) (A) (A) (A) (A) (A)
                 (A) (A) (A) (A) (A) (A) (A) (A) (A) (A) (A) (A)
                 (A) (A) (A) (A) (A) (A) (A) (A) (A) (A) (A) (A)
                 (A) (A) (A) (A) (A) (A) (A) (A) (A) (A) (A) (A)
                 (A) (A) (A) (A) (A) (A) (A) (A) (A) (A) (A) (A)
                 (A) (A) (A) (A) (A) (A) (A) (A) (A) (A) (A) (A)
                 (A) (A) (A) (A) (A) (A) (A) (A) (A) (A) (A) (A)
                 (A) (A) (A) (A) (A) (A) (A) (A) (A) (A) (A) (A)
                 (A) (A) (A) (A) (A) (A) (A) (A) (A) (A) (A) (A)
                 (A) (A) (A) (A) (A) (A) (A) (A) (A) (A) (A) (A)
                 (A) (A) (A) (A) (A) (A) (A) (A) (A) (A) (A) (A)
                 (A) (A) (A) (A) (A) (A) (A) (A) (A) (A) (A) (A)
                 (A) (A) (A) (A) (A) (A) (A) (A) (A) (A) (A) (A)
                 (A) (A) (A) (A) (A) (A) (A) (A) (A) (A) (A) (A)
                 (A) (A) (A) (A) (A) (A) (A) (A) (A) (A) (A) (A)
                 (A) (A) (A) (A) (A) (A) (A) (A) (A) (A) (A) (A)
                 (A) (A) (A) (A) (A) (A) (A) (A) (A) (A) (A) (A)
                 (A) (A) (A) (A) (A) (A) (A) (A) (A) (A) (A) (A)
                 (A) (A) (A) (A) (A) (A) (A) (A) (A) (A) (A) (A)
                 (A) (A) (A) (A) (A) (A) (A) (A) (A) (A) (A) (A)
                 (A) (A) (A) (A) (A) (A) (A) (A) (A) (A) (A) (A)
                 (A) (A) (A) (A) (A) (A) (A) (A) (A) (A) (A) (A)
                 (A) (A) (A) (A) (A) (A) (A) (A) (A) (A) (A) (A)
                 (A) (A) (A) (A) (A) (A) (A) (A) (A) (A) (A) (A)
                 (A) (A) (A) (A) (A) (A) (A) (A) (A) (A) (A) (A)
                 (A) (A) (A) (A) (A) (A) (A) (A) (A) (A) (A) (A)
                 (A) (A) (A) (A) (A) (A) (A) (A) (A) (A) (A) (A)
                 (A) (A) (A) (A) (A) (A) (A) (A) (A) (A) (A) (A)
                 (A) (A) (A) (A) (A) (A) (A) (A) (A) (A) (A) (A)
                 (A) (A) (A) (A) (A) (A) (A) (A) (A) (A) (A) (A)
                 (A) (A) (A) (A) (A) (A) (A) (A) (A) (A) (A) (A)
                 (A) (A) (A) (A) (A) (A) (A) (A) (A) (A) (A) (A)
                 (A) (A) (A) (A) (A) (A) (A) (A) (A) (A) (A) (A)
                 (A) (A) (A) (A) (A) (A) (A) (A) (A) (A) (A) (A)
                 (A) (A) (A) (A) (A) (A) (A) (A) (A) (A) (A) (A)
                 (A) (A) (A) (A) (A) (A) (A) (A) (A) (A) (A) (A)
                 (A) (A) (A) (A) (A) (A) (A) (A) (A) (A) (A) (A)
                 (A) (A) (A) (A) (A) (A) (A) (A) (A) (A) (A) (A)
                 (A) (A) (A) (A) (A) (A) (A) (A) (A) (A) (A) (A)
                 (A) (A) (A) (A) (A) (A) (A) (A) (A) (A) (A) (A)
                 (A) (A) (A) (A) (A) (A) (A) (A) (A) (A) (A) (A)
                 (A) (A) (A) (A) (A) (A) (A) (A) (A) (A) (A) (A)
                 (A) (A) (A) (A) (A) (A) (A) (A) (A) (A) (A) (A)
                 (A) (A) (A) (A) (A) (A) (A) (A) (A) (A) (A) (A)
                 (A) (A) (A) (A) (A) (A) (A) (A) (A) (A) (A) (A)
                 (A) (A) (A) (A) (A) (A) (A) (A) (A) (A) (A) (A)
                 (A) (A) (A) (A) (A) (A) (A) (A) (A) (A) (A) (A)
                 (A) (A) (A) (A) (A) (A) (A) (A) (A) (A) (A) (A)
                 (A) (A) (A) (A) (A) (A) (A) (A) (A) (A) (A) (A)
                 (A) (A) (A) (A) (A) (A) (A) (A) (A) (A) (A) (A)
                 (A) (A) (A) (A) (A) (A) (A) (A) (A) (A) (A) (A)
                 (A) (A) (A) (A) (A) (A) (A) (A) (A) (A) (A) (A)
                 (A) (A) (A) (A) (A) (A) (A) (A) (A) (A) (A) (A)
                 (A) (A) (A) (A) (A) (A) (A) (A) (A) (A) (A) (A)
                 (A) (A) (A) (A) (A) (A) (A) (A) (A) (A) (A) (A)
                 (A) (A) (A) (A) (A) (A) (A) (A) (A) (A) (A) (A)
                 (A) (A) (A) (A) (A) (A) (A) (A) (A) (A) (A) (A)
                 (A) (A) (A) (A) (A) (A) (A) (A) (A) (A) (A) (A)
                 (A) (A) (A) (A) (A) (A) (A) (A) (A) (A) (A) (A)
                 (A) (A) (A) (A) (A) (A) (A) (A) (A) (A) (A) (A)
                 (A) (A) (A) (A) (A) (A) (A) (A) (A) (A) (A) (A)
                 (A) (A) (A) (A) (A) (A) (A) (A) (A) (A) (A) (A)
                 (A) (A) (A) (A) (A) (A) (A) (A) (A) (A) (A) (A)
                 (A) (A) (A) (A) (A) (A) (A) (A) (A) (A) (A) (A)
                 (A) (A) (A) (A) (A) (A) (A) (A) (A) (A) (A) (A)
                 (A) (A) (A) (A) (A) (A) (A) (A) (A) (A) (A) (A)
                 (A) (A) (A) (A) (A) (A) (A) (A) (A) (A) (A) (A)
                 (A) (A) (A) (A) (A) (A) (A) (A) (A) (A) (A) (A)
                 (A) (A) (A) (A) (A) (A) (A) (A)
    20 initial guesses have been made.
 Convergence on wavefunction:    0.001000000000000
 Davidson Disk Diagonalization:  ConvIn= 1.00D-03 SkipCon=T Conv= 1.00D-03.
 Max sub-space:  2000 roots to seek:    20 dimension of matrix:       370304
 Iteration     1 Dimension    20 NMult     0 NNew     20
 CISAX will form    20 AO SS matrices at one time.
 NMat=    20 NSing=    20 JSym2X= 0.
 FoFJK:  IHMeth= 1 ICntrl=       0 DoSepK=T KAlg= 0 I1Cent=           0 FoldK=F
 IRaf=         1 NMat=      40 IRICut=       1 DoRegI=T DoRafI=F ISym2E= 0 IDoP0=3 IntGTp=3.
 FoFCou: FMM=T IPFlag=           0 FMFlag=      100000 FMFlg1=        2001
         NFxFlg=           0 DoJE=F BraDBF=F KetDBF=F FulRan=T
         wScrn=  0.000000 ICntrl=       500 IOpCl=  0 I1Cent=           0 NGrid=           0
         NMat0=   20 NMatS0=     20 NMatT0=    0 NMatD0=   20 NMtDS0=    0 NMtDT0=    0
 Symmetry not used in FoFCou.
 FMM levels:  10  Number of levels for PrismC:   9
 New state      3 was old state      4
 New state      4 was old state      6
 New state      5 was old state      9
 Excitation Energies [eV] at current iteration:
 Root      1 :     2.132244712777620
 Root      2 :     2.545379139912514
 Root      3 :     3.643302561832039
 Root      4 :     3.892144965999840
 Root      5 :     4.161449895870381
 Root      6 :     4.245471905242679
 Root      7 :     4.279730115078661
 Root      8 :     4.475215485983949
 Root      9 :     4.560206462747468
 Root     10 :     4.680683452131304
 Root     11 :     4.787823155878527
 Root     12 :     4.889651567488182
 Root     13 :     4.983109857536308
 Root     14 :     5.064090578204844
 Root     15 :     5.121122970302249
 Root     16 :     5.214895425790719
 Root     17 :     5.320842403361219
 Root     18 :     5.823001112075664
 Root     19 :     5.850780455855720
 Root     20 :     6.797862429812225
 Iteration     2 Dimension    30 NMult    20 NNew     10
 CISAX will form    10 AO SS matrices at one time.
 NMat=    10 NSing=    10 JSym2X= 0.
 Root      1 not converged, maximum delta is    0.081456069892878
 Root      2 not converged, maximum delta is    0.071588746414271
 Root      3 not converged, maximum delta is    0.057557155618274
 Root      4 not converged, maximum delta is    0.059182113961771
 Root      5 not converged, maximum delta is    0.226625274427094
 Excitation Energies [eV] at current iteration:
 Root      1 :     1.625771215564505   Change is   -0.506473497213115
 Root      2 :     2.085670563621736   Change is   -0.459708576290778
 Root      3 :     3.277133484122497   Change is   -0.366169077709542
 Root      4 :     3.479444115014880   Change is   -0.412700850984960
 Root      5 :     3.692564668416188   Change is   -0.468885227454193
 Iteration     3 Dimension    40 NMult    30 NNew     10
 CISAX will form    10 AO SS matrices at one time.
 NMat=    10 NSing=    10 JSym2X= 0.
 Root      1 not converged, maximum delta is    0.015587765555565
 Root      2 not converged, maximum delta is    0.020421202416759
 Root      3 not converged, maximum delta is    0.007107159550806
 Root      4 not converged, maximum delta is    0.084645242035140
 Root      5 not converged, maximum delta is    0.119746698060658
 Excitation Energies [eV] at current iteration:
 Root      1 :     1.588975250900295   Change is   -0.036795964664210
 Root      2 :     2.058082313120523   Change is   -0.027588250501213
 Root      3 :     3.262493366611215   Change is   -0.014640117511282
 Root      4 :     3.457949377677896   Change is   -0.021494737336983
 Root      5 :     3.499620357961940   Change is   -0.192944310454248
 Iteration     4 Dimension    50 NMult    40 NNew     10
 CISAX will form    10 AO SS matrices at one time.
 NMat=    10 NSing=    10 JSym2X= 0.
 Root      1 not converged, maximum delta is    0.003522885628207
 Root      2 not converged, maximum delta is    0.002804596409177
 Root      3 not converged, maximum delta is    0.006564599459189
 Root      4 not converged, maximum delta is    0.064572910250198
 Root      5 not converged, maximum delta is    0.094345391203557
 Excitation Energies [eV] at current iteration:
 Root      1 :     1.584782740654344   Change is   -0.004192510245950
 Root      2 :     2.054766141061184   Change is   -0.003316172059339
 Root      3 :     3.259039493204590   Change is   -0.003453873406625
 Root      4 :     3.453122833797045   Change is   -0.004826543880852
 Root      5 :     3.477556181884884   Change is   -0.022064176077056
 Iteration     5 Dimension    60 NMult    50 NNew     10
 CISAX will form    10 AO SS matrices at one time.
 NMat=    10 NSing=    10 JSym2X= 0.
 Root      1 not converged, maximum delta is    0.001144584072025
 Root      2 has converged.
 Root      3 not converged, maximum delta is    0.002079116134785
 Root      4 not converged, maximum delta is    0.014063571668287
 Root      5 not converged, maximum delta is    0.020479073532315
 Excitation Energies [eV] at current iteration:
 Root      1 :     1.584437853365598   Change is   -0.000344887288747
 Root      2 :     2.054450856780881   Change is   -0.000315284280302
 Root      3 :     3.258665071208559   Change is   -0.000374421996031
 Root      4 :     3.452417324629078   Change is   -0.000705509167967
 Root      5 :     3.474801740151884   Change is   -0.002754441733001
 Iteration     6 Dimension    68 NMult    60 NNew      8
 CISAX will form     8 AO SS matrices at one time.
 NMat=     8 NSing=     8 JSym2X= 0.
 Root      1 has converged.
 Root      2 has converged.
 Root      3 not converged, maximum delta is    0.001254062284960
 Root      4 not converged, maximum delta is    0.004597930720820
 Root      5 not converged, maximum delta is    0.007769068761427
 Excitation Energies [eV] at current iteration:
 Root      1 :     1.584408824602055   Change is   -0.000029028763543
 Root      2 :     2.054448415891791   Change is   -0.000002440889090
 Root      3 :     3.258618630963733   Change is   -0.000046440244825
 Root      4 :     3.452285910137580   Change is   -0.000131414491498
 Root      5 :     3.474092453999856   Change is   -0.000709286152028
 Iteration     7 Dimension    74 NMult    68 NNew      6
 CISAX will form     6 AO SS matrices at one time.
 NMat=     6 NSing=     6 JSym2X= 0.
 Root      1 has converged.
 Root      2 has converged.
 Root      3 has converged.
 Root      4 not converged, maximum delta is    0.001241300319265
 Root      5 not converged, maximum delta is    0.002906986722216
 Excitation Energies [eV] at current iteration:
 Root      1 :     1.584408500203029   Change is   -0.000000324399025
 Root      2 :     2.054447837134626   Change is   -0.000000578757165
 Root      3 :     3.258610840874746   Change is   -0.000007790088987
 Root      4 :     3.452255335143765   Change is   -0.000030574993815
 Root      5 :     3.473958899102157   Change is   -0.000133554897698
 Iteration     8 Dimension    78 NMult    74 NNew      4
 CISAX will form     4 AO SS matrices at one time.
 NMat=     4 NSing=     4 JSym2X= 0.
 Root      1 has converged.
 Root      2 has converged.
 Root      3 has converged.
 Root      4 has converged.
 Root      5 not converged, maximum delta is    0.001007783266526
 Excitation Energies [eV] at current iteration:
 Root      1 :     1.584408476920278   Change is   -0.000000023282752
 Root      2 :     2.054447643532702   Change is   -0.000000193601924
 Root      3 :     3.258610428523182   Change is   -0.000000412351564
 Root      4 :     3.452243622759880   Change is   -0.000011712383884
 Root      5 :     3.473936594681178   Change is   -0.000022304420979
 Iteration     9 Dimension    80 NMult    78 NNew      2
 CISAX will form     2 AO SS matrices at one time.
 NMat=     2 NSing=     2 JSym2X= 0.
 Root      1 has converged.
 Root      2 has converged.
 Root      3 has converged.
 Root      4 has converged.
 Root      5 has converged.
 Excitation Energies [eV] at current iteration:
 Root      1 :     1.584408446156910   Change is   -0.000000030763368
 Root      2 :     2.054447593548658   Change is   -0.000000049984044
 Root      3 :     3.258610419002697   Change is   -0.000000009520486
 Root      4 :     3.452243553378061   Change is   -0.000000069381819
 Root      5 :     3.473933232219043   Change is   -0.000003362462135
 Convergence achieved on expansion vectors.
 ***********************************************************************
 Excited states from <AA,BB:AA,BB> singles matrix:
 ***********************************************************************
 
 1PDM for each excited state written to RWF  633
 Ground to excited state transition densities written to RWF  633
 Ground to excited state transition electric dipole moments (Au):
       state          X           Y           Z        Dip. S.      Osc.
         1         1.8234     -2.5196     -0.0335      9.6746      0.3755
         2         1.4341      1.2210     -0.0458      3.5496      0.1787
         3        -0.0662     -0.2128     -0.0066      0.0497      0.0040
         4        -0.0550     -0.0901      0.0459      0.0133      0.0011
         5         0.0527      0.0698      0.0475      0.0099      0.0008
 Ground to excited state transition velocity dipole moments (Au):
       state          X           Y           Z        Dip. S.      Osc.
         1        -0.1027      0.1430      0.0005      0.0310      0.3549
         2        -0.1026     -0.0883      0.0026      0.0183      0.1617
         3         0.0086      0.0243      0.0017      0.0007      0.0037
         4         0.0093      0.0102     -0.0079      0.0003      0.0013
         5        -0.0048     -0.0095     -0.0047      0.0001      0.0007
 Ground to excited state transition magnetic dipole moments (Au):
       state          X           Y           Z
         1        -0.0507     -0.0088      1.5982
         2        -0.0260      0.0306     -0.7491
         3        -0.0103     -0.0579     -0.7055
         4        -0.0324      0.3439      0.5324
         5         0.2808     -0.6284     -0.0673
 Ground to excited state transition velocity quadrupole moments (Au):
       state          XX          YY          ZZ          XY          XZ          YZ
         1        -2.0734      0.6450     -0.0230      1.1907      0.0622     -0.0933
         2        -1.9968     -0.1444      0.0068     -1.0788      0.0238      0.0258
         3        -0.0092      0.5101     -0.0108      0.3210      0.0559      0.0151
         4         0.3449     -0.0863      0.0092     -0.2869     -0.1953     -0.0244
         5        -0.0626      0.0641      0.0016     -0.1952     -0.0678      0.0243
 <0|del|b> * <b|rxdel|0> + <0|del|b> * <b|delr+rdel|0>
 Rotatory Strengths (R) in cgs (10**-40 erg-esu-cm/Gauss)
       state          XX          YY          ZZ    R(velocity)    E-M Angle
         1       -52.8985     91.0969     19.7601     19.3195       89.03
         2       -25.3292      4.1346      2.3750     -6.2732       91.13
         3       -10.0753     -4.9609     -0.7911     -5.2758       98.42
         4         9.8733    -19.5288      4.0051     -1.8835       95.77
         5        18.1332     -5.7300     14.8392      9.0808       52.25
 1/2[<0|r|b>*<b|rxdel|0> + (<0|rxdel|b>*<b|r|0>)*]
 Rotatory Strengths (R) in cgs (10**-40 erg-esu-cm/Gauss)
       state          XX          YY          ZZ     R(length)
         1        65.3732    -15.6830     37.9086     29.1996
         2        26.3317    -26.4443    -24.2449     -8.1192
         3        -0.4831     -8.7178     -3.2856     -4.1622
         4        -1.2598     21.9168    -17.2911      1.1220
         5       -10.4691     31.0316      2.2595      7.6073
  1/2[<0|del|b>*<b|r|0> + (<0|r|b>*<b|del|0>)*] (Au)
       state          X           Y           Z        Dip. S.   Osc.(frdel)
         1        -0.1873     -0.3603     -0.0000      0.5476      0.3650
         2        -0.1471     -0.1078     -0.0001      0.2550      0.1700
         3        -0.0006     -0.0052     -0.0000      0.0058      0.0038
         4        -0.0005     -0.0009     -0.0004      0.0018      0.0012
         5        -0.0003     -0.0007     -0.0002      0.0011      0.0008

 Excitation energies and oscillator strengths:
 
 Excited State   1:      Singlet-A      1.5844 eV  782.53 nm  f=0.3755  <S**2>=0.000
     245 -> 248       -0.18294
     246 -> 247        0.68410
     245 <- 248       -0.11915
 This state for optimization and/or second-order correction.
 Total Energy, E(TD-HF/TD-DFT) =  -3007.78154587    
 Copying the excited state density for this state as the 1-particle RhoCI density.
 
 Excited State   2:      Singlet-A      2.0544 eV  603.49 nm  f=0.1787  <S**2>=0.000
     245 -> 247        0.66122
     246 -> 248        0.23513
     246 <- 248        0.10107
 
 Excited State   3:      Singlet-A      3.2586 eV  380.48 nm  f=0.0040  <S**2>=0.000
     242 -> 247       -0.11732
     244 -> 247        0.67471
 
 Excited State   4:      Singlet-A      3.4522 eV  359.14 nm  f=0.0011  <S**2>=0.000
     239 -> 247        0.16235
     240 -> 247       -0.14606
     240 -> 249        0.12277
     242 -> 247        0.61235
     246 -> 248       -0.13914
 
 Excited State   5:      Singlet-A      3.4739 eV  356.90 nm  f=0.0008  <S**2>=0.000
     240 -> 247        0.46365
     240 -> 249       -0.30876
     240 -> 250       -0.15143
     241 -> 247       -0.25573
     241 -> 249        0.12569
     242 -> 247        0.18824
 SavETr:  write IOETrn=   770 NScale= 10 NData=  16 NLR=1 NState=    5 LETran=     100.
 Leave Link  914 at Thu Apr 28 08:15:03 2022, MaxMem= 10066329600 cpu:           45686.0 elap:            1913.3
 (Enter /sw/apps/gaussian-16.0/g16/l601.exe)
 Copying SCF densities to generalized density rwf, IOpCl= 0 IROHF=0.
 Hyperfine terms turned off by default for NAtoms > 100.

 **********************************************************************

            Population analysis using the SCF density.

 **********************************************************************

 Orbital symmetries:
       Occupied  (A) (A) (A) (A) (A) (A) (A) (A) (A) (A) (A) (A)
                 (A) (A) (A) (A) (A) (A) (A) (A) (A) (A) (A) (A)
                 (A) (A) (A) (A) (A) (A) (A) (A) (A) (A) (A) (A)
                 (A) (A) (A) (A) (A) (A) (A) (A) (A) (A) (A) (A)
                 (A) (A) (A) (A) (A) (A) (A) (A) (A) (A) (A) (A)
                 (A) (A) (A) (A) (A) (A) (A) (A) (A) (A) (A) (A)
                 (A) (A) (A) (A) (A) (A) (A) (A) (A) (A) (A) (A)
                 (A) (A) (A) (A) (A) (A) (A) (A) (A) (A) (A) (A)
                 (A) (A) (A) (A) (A) (A) (A) (A) (A) (A) (A) (A)
[...]
 Alpha virt. eigenvalues --    1.22117   1.22310   1.23112   1.24069   1.24442
 Alpha virt. eigenvalues --    1.24808   1.25179   1.25365   1.26114   1.26322
 Alpha virt. eigenvalues --    1.27049   1.27455   1.28279   1.28819   1.29048
 Alpha virt. eigenvalues --    1.29150   1.29542   1.30719   1.30737   1.31327
 Alpha virt. eigenvalues --    1.31957   1.32510   1.32739   1.33134   1.33592
 Alpha virt. eigenvalues --    1.33683   1.34586   1.35206   1.35500   1.36365
 Alpha virt. eigenvalues --    1.36828   1.36890   1.37309   1.37503   1.37850
 Alpha virt. eigenvalues --    1.38287   1.38818   1.39305   1.39491   1.39829
 Alpha virt. eigenvalues --    1.40028   1.40216   1.40529   1.40865   1.41068
 Alpha virt. eigenvalues --    1.42386   1.42817   1.43161   1.43259   1.43397
 Alpha virt. eigenvalues --    1.43784   1.43967   1.44311   1.44852   1.45323
 Alpha virt. eigenvalues --    1.45503   1.45830   1.45962   1.46566   1.47192
 Alpha virt. eigenvalues --    1.47240   1.48157   1.48510   1.48834   1.49672
 Alpha virt. eigenvalues --    1.49858   1.50277   1.51312   1.52106   1.52539
 Alpha virt. eigenvalues --    1.52578   1.52929   1.53289   1.53999   1.54133
 Alpha virt. eigenvalues --    1.54310   1.55333   1.55581   1.55984   1.56409
 Alpha virt. eigenvalues --    1.57147   1.57629   1.58400   1.58813   1.59295
 Alpha virt. eigenvalues --    1.59406   1.59636   1.59848   1.59958   1.60254
 Alpha virt. eigenvalues --    1.60415   1.60663   1.60863   1.60904   1.61098
 Alpha virt. eigenvalues --    1.61330   1.61655   1.61785   1.61826   1.62318
 Alpha virt. eigenvalues --    1.62488   1.62646   1.62950   1.63431   1.63459
 Alpha virt. eigenvalues --    1.63978   1.64074   1.64468   1.64572   1.64861
 Alpha virt. eigenvalues --    1.65106   1.65231   1.65473   1.65608   1.65974
 Alpha virt. eigenvalues --    1.66382   1.66828   1.67071   1.67463   1.68134
 Alpha virt. eigenvalues --    1.68427   1.69045   1.69406   1.70228   1.70885
 Alpha virt. eigenvalues --    1.70985   1.71736   1.72069   1.72696   1.73109
 Alpha virt. eigenvalues --    1.74126   1.74292   1.74739   1.74983   1.75712
 Alpha virt. eigenvalues --    1.75916   1.76095   1.76439   1.76520   1.77008
 Alpha virt. eigenvalues --    1.77395   1.77644   1.78106   1.78607   1.78779
 Alpha virt. eigenvalues --    1.78911   1.79239   1.79315   1.79790   1.79809
 Alpha virt. eigenvalues --    1.79876   1.80129   1.80519   1.80906   1.81286
 Alpha virt. eigenvalues --    1.81477   1.81761   1.81863   1.82263   1.82529
 Alpha virt. eigenvalues --    1.82851   1.82947   1.83217   1.83250   1.83426
 Alpha virt. eigenvalues --    1.83731   1.83771   1.84110   1.84381   1.84529
 Alpha virt. eigenvalues --    1.84766   1.84815   1.85127   1.85585   1.85745
 Alpha virt. eigenvalues --    1.85826   1.85946   1.86217   1.86323   1.86435
 Alpha virt. eigenvalues --    1.86692   1.86854   1.87209   1.87256   1.87506
 Alpha virt. eigenvalues --    1.87611   1.87758   1.88087   1.88507   1.88820
 Alpha virt. eigenvalues --    1.89051   1.89165   1.89689   1.89859   1.90021
 Alpha virt. eigenvalues --    1.90136   1.90487   1.90495   1.90888   1.91174
 Alpha virt. eigenvalues --    1.91344   1.91382   1.91649   1.91925   1.92044
 Alpha virt. eigenvalues --    1.92161   1.92450   1.92582   1.92687   1.92815
 Alpha virt. eigenvalues --    1.92998   1.93168   1.93426   1.93713   1.93805
 Alpha virt. eigenvalues --    1.94139   1.94214   1.94389   1.94450   1.94759
 Alpha virt. eigenvalues --    1.95057   1.95089   1.95481   1.95846   1.95997
 Alpha virt. eigenvalues --    1.96049   1.96368   1.96580   1.96831   1.97357
 Alpha virt. eigenvalues --    1.97591   1.97985   1.98214   1.98526   1.98648
 Alpha virt. eigenvalues --    1.98951   1.99173   1.99781   2.00348   2.00505
 Alpha virt. eigenvalues --    2.00859   2.01126   2.01448   2.01687   2.01946
 Alpha virt. eigenvalues --    2.02019   2.02272   2.02816   2.03093   2.03463
 Alpha virt. eigenvalues --    2.03614   2.03755   2.04033   2.04202   2.04611
 Alpha virt. eigenvalues --    2.04740   2.04946   2.05503   2.05671   2.05963
 Alpha virt. eigenvalues --    2.06246   2.06446   2.06725   2.06939   2.07481
 Alpha virt. eigenvalues --    2.07600   2.07763   2.08010   2.08091   2.08672
 Alpha virt. eigenvalues --    2.09030   2.09156   2.09983   2.10223   2.10601
 Alpha virt. eigenvalues --    2.10816   2.11010   2.11438   2.11645   2.11843
 Alpha virt. eigenvalues --    2.11884   2.12418   2.13019   2.13510   2.13640
 Alpha virt. eigenvalues --    2.13699   2.13895   2.14265   2.14465   2.14893
 Alpha virt. eigenvalues --    2.15151   2.15236   2.15405   2.15845   2.16007
 Alpha virt. eigenvalues --    2.16237   2.16349   2.16690   2.17503   2.17776
 Alpha virt. eigenvalues --    2.17920   2.18298   2.18447   2.18898   2.19074
 Alpha virt. eigenvalues --    2.19297   2.19640   2.19993   2.20344   2.20529
 Alpha virt. eigenvalues --    2.20714   2.20800   2.21004   2.21517   2.21617
 Alpha virt. eigenvalues --    2.22415   2.22525   2.22684   2.23005   2.23070
 Alpha virt. eigenvalues --    2.23464   2.24042   2.24173   2.24848   2.24979
 Alpha virt. eigenvalues --    2.25981   2.26753   2.27582   2.28019   2.28032
 Alpha virt. eigenvalues --    2.28818   2.29093   2.29803   2.30278   2.30593
 Alpha virt. eigenvalues --    2.31077   2.31802   2.32290   2.32633   2.32768
 Alpha virt. eigenvalues --    2.32831   2.33278   2.34168   2.34435   2.34649
 Alpha virt. eigenvalues --    2.35289   2.35545   2.36427   2.36502   2.37227
 Alpha virt. eigenvalues --    2.37300   2.38100   2.38253   2.38498   2.38589
 Alpha virt. eigenvalues --    2.38963   2.39286   2.39497   2.39626   2.40209
 Alpha virt. eigenvalues --    2.40455   2.40977   2.41375   2.42242   2.42528
 Alpha virt. eigenvalues --    2.42673   2.42913   2.43208   2.43526   2.43685
 Alpha virt. eigenvalues --    2.44040   2.44291   2.44395   2.44492   2.44570
 Alpha virt. eigenvalues --    2.45165   2.45468   2.45660   2.46065   2.46519
 Alpha virt. eigenvalues --    2.47092   2.47343   2.47493   2.47866   2.48153
 Alpha virt. eigenvalues --    2.49023   2.49380   2.49646   2.50024   2.50474
 Alpha virt. eigenvalues --    2.51106   2.51298   2.51480   2.51803   2.52074
 Alpha virt. eigenvalues --    2.52208   2.52590   2.52651   2.54115   2.54514
 Alpha virt. eigenvalues --    2.55031   2.55167   2.55360   2.55550   2.55639
 Alpha virt. eigenvalues --    2.56350   2.56673   2.57014   2.57728   2.58637
 Alpha virt. eigenvalues --    2.59536   2.59819   2.60669   2.60805   2.61353
 Alpha virt. eigenvalues --    2.61654   2.62206   2.62304   2.63083   2.63162
 Alpha virt. eigenvalues --    2.63513   2.64242   2.64274   2.64445   2.65049
 Alpha virt. eigenvalues --    2.65127   2.65361   2.66494   2.66940   2.67070
 Alpha virt. eigenvalues --    2.67792   2.68313   2.68405   2.68777   2.69036
 Alpha virt. eigenvalues --    2.69547   2.70093   2.70626   2.71347   2.71362
 Alpha virt. eigenvalues --    2.71597   2.71762   2.72175   2.73095   2.73159
 Alpha virt. eigenvalues --    2.73487   2.73883   2.74162   2.74295   2.75436
 Alpha virt. eigenvalues --    2.75523   2.75936   2.76137   2.76414   2.76522
 Alpha virt. eigenvalues --    2.76867   2.77215   2.77410   2.77833   2.78080
 Alpha virt. eigenvalues --    2.79108   2.79448   2.79878   2.79956   2.80143
 Alpha virt. eigenvalues --    2.80757   2.81114   2.81374   2.81989   2.82273
 Alpha virt. eigenvalues --    2.82792   2.83243   2.84032   2.84693   2.85342
 Alpha virt. eigenvalues --    2.85657   2.85838   2.86244   2.86343   2.87125
 Alpha virt. eigenvalues --    2.87748   2.88697   2.89077   2.89649   2.90411
 Alpha virt. eigenvalues --    2.90551   2.91364   2.91459   2.92120   2.92533
 Alpha virt. eigenvalues --    2.92588   2.92691   2.93900   2.94715   2.95488
 Alpha virt. eigenvalues --    2.95878   2.96736   2.97096   2.97188   2.98034
 Alpha virt. eigenvalues --    2.98255   2.98850   2.98925   2.99579   2.99587
 Alpha virt. eigenvalues --    2.99882   3.00170   3.00395   3.00524   3.00586
 Alpha virt. eigenvalues --    3.00772   3.01195   3.01341   3.01544   3.01721
 Alpha virt. eigenvalues --    3.01925   3.02463   3.02806   3.03127   3.03558
 Alpha virt. eigenvalues --    3.03678   3.04066   3.04146   3.04168   3.04444
 Alpha virt. eigenvalues --    3.04706   3.04832   3.05212   3.05401   3.05662
 Alpha virt. eigenvalues --    3.06100   3.06480   3.06953   3.07054   3.07491
 Alpha virt. eigenvalues --    3.07506   3.07864   3.08171   3.08232   3.08456
 Alpha virt. eigenvalues --    3.09106   3.09139   3.10139   3.10356   3.10753
 Alpha virt. eigenvalues --    3.11084   3.11411   3.11781   3.11958   3.12579
 Alpha virt. eigenvalues --    3.13180   3.13819   3.14275   3.14420   3.14598
 Alpha virt. eigenvalues --    3.14824   3.15110   3.15382   3.16284   3.16540
 Alpha virt. eigenvalues --    3.16627   3.18157   3.18536   3.19526   3.22224
 Alpha virt. eigenvalues --    3.23147   3.23467   3.23686   3.24016   3.25327
 Alpha virt. eigenvalues --    3.25455   3.26019   3.27464   3.27860   3.29861
 Alpha virt. eigenvalues --    3.31629   3.34014   3.45750   3.46101   3.47453
 Alpha virt. eigenvalues --    3.48199   3.49782   3.52603   3.54085   3.59161
 Alpha virt. eigenvalues --    3.60682   3.64356   3.68847   3.70789   3.72664
 Alpha virt. eigenvalues --    3.73088   3.75411
          Condensed to atoms (all electrons):
 Mulliken charges:
               1
     1  Mg   0.987829
     2  C   -0.042108
     3  C   -0.097290
     4  C   -0.070654
     5  C   -0.081831
     6  N   -0.329196
     7  C   -0.038273
     8  C   -0.051187
     9  C   -0.171401
    10  C    0.063755
    11  C    0.036224
    12  C    0.068112
    13  C    0.034251
    14  C    0.212535
    15  O   -0.291029
    16  O   -0.377677
    17  N   -0.492155
    18  C    0.189370
    19  C   -0.185553
    20  C   -0.032574
    21  C    0.162614
    22  C    0.063529
    23  C    0.031447
    24  O   -0.247133
    25  C   -0.030121
    26  N   -0.390109
    27  C    0.050387
    28  C   -0.065562
    29  C   -0.041828
    30  C    0.043495
    31  C   -0.005887
    32  C   -0.033248
    33  C   -0.048595
    34  N   -0.430478
    35  C    0.131529
    36  C   -0.205460
    37  C   -0.027947
    38  C    0.133420
    39  C    0.074855
    40  C    0.106271
    41  O   -0.214876
    42  C   -0.042679
    43  C    0.287626
    44  O   -0.270057
    45  O   -0.356788
    46  C    0.149738
    47  C    0.233932
    48  C   -0.176809
    49  C   -0.212188
    50  C    0.024777
    51  C    0.040840
    52  C   -0.021771
    53  C   -0.029041
    54  C   -0.185261
    55  C   -0.011910
    56  C    0.006597
    57  C   -0.042000
    58  C    0.012698
    59  C   -0.190588
    60  C   -0.004496
    61  C    0.061551
    62  C   -0.033146
    63  C    0.015936
    64  C   -0.219056
    65  C   -0.005671
    66  C   -0.024815
    67  H    0.004613
    68  H    0.017390
    69  H   -0.005215
    70  H    0.059960
    71  H    0.033587
    72  H    0.048096
    73  H    0.043754
    74  H    0.026240
    75  H    0.036279
    76  H    0.033880
    77  H    0.049779
    78  H    0.062800
    79  H    0.045061
    80  H    0.065057
    81  H    0.037698
    82  H    0.049826
    83  H    0.073317
    84  H    0.049929
    85  H    0.036633
    86  H    0.022595
    87  H    0.038838
    88  H    0.047935
    89  H    0.044699
    90  H    0.034921
    91  H    0.028231
    92  H    0.042656
    93  H    0.051093
    94  H    0.032467
    95  H    0.061346
    96  H    0.041376
    97  H    0.070969
    98  H    0.080924
    99  H    0.054842
   100  H    0.045038
   101  H    0.057787
   102  H    0.067800
   103  H    0.074383
   104  H    0.036138
   105  H    0.060093
   106  H    0.030622
   107  H    0.053934
   108  H    0.025189
   109  H    0.043333
   110  H    0.029411
   111  H    0.033629
   112  H    0.028554
   113  H    0.024592
   114  H    0.019371
   115  H    0.028479
   116  H    0.029222
   117  H    0.028488
   118  H    0.018472
   119  H    0.010545
   120  H    0.021920
   121  H    0.008131
   122  H    0.004272
   123  H    0.012579
   124  H    0.019067
   125  H    0.039509
   126  H    0.026388
   127  H    0.016368
   128  H    0.021683
   129  H    0.009584
   130  H    0.017334
   131  H    0.022683
   132  H    0.009412
   133  H    0.015505
   134  H    0.023853
   135  H    0.024542
   136  H    0.036325
   137  H    0.037727
   138  H    0.033950
   139  H    0.021314
   140  H    0.016323
 Sum of Mulliken charges =  -0.00000
 Mulliken charges with hydrogens summed into heavy atoms:
               1
     1  Mg   0.987829
     2  C   -0.042108
     3  C   -0.092677
     4  C   -0.053263
     5  C   -0.087046
     6  N   -0.329196
     7  C   -0.038273
     8  C    0.008773
     9  C   -0.137814
    10  C    0.063755
    11  C    0.154314
    12  C    0.138272
    13  C    0.146831
    14  C    0.212535
    15  O   -0.291029
    16  O   -0.377677
    17  N   -0.492155
    18  C    0.189370
    19  C   -0.185553
    20  C   -0.032574
    21  C    0.162614
    22  C    0.211345
    23  C    0.031447
    24  O   -0.247133
    25  C    0.142951
    26  N   -0.390109
    27  C    0.050387
    28  C   -0.028930
    29  C   -0.019233
    30  C    0.043495
    31  C    0.125585
    32  C    0.029904
    33  C    0.077622
    34  N   -0.430478
    35  C    0.131529
    36  C   -0.205460
    37  C   -0.027947
    38  C    0.133420
    39  C    0.248546
    40  C    0.106271
    41  O   -0.214876
    42  C    0.038245
    43  C    0.287626
    44  O   -0.270057
    45  O   -0.356788
    46  C    0.307405
    47  C    0.376114
    48  C   -0.140671
    49  C   -0.212188
    50  C    0.169426
    51  C    0.109362
    52  C    0.041269
    53  C    0.024105
    54  C   -0.165889
    55  C    0.074278
    56  C    0.035614
    57  C   -0.011949
    58  C    0.029549
    59  C   -0.171520
    60  C    0.077770
    61  C    0.092818
    62  C    0.006872
    63  C    0.040853
    64  C   -0.195204
    65  C    0.092924
    66  C    0.046772
 Electronic spatial extent (au):  <R**2>=         136099.8940
 Charge=             -0.0000 electrons
 Dipole moment (field-independent basis, Debye):
    X=             -4.4135    Y=              1.8767    Z=              2.2867  Tot=              5.3132
 Quadrupole moment (field-independent basis, Debye-Ang):
   XX=           -373.4428   YY=           -432.2036   ZZ=           -398.7544
   XY=             24.7027   XZ=             14.6363   YZ=             -5.4969
 Traceless Quadrupole moment (field-independent basis, Debye-Ang):
   XX=             28.0241   YY=            -30.7366   ZZ=              2.7125
   XY=             24.7027   XZ=             14.6363   YZ=             -5.4969
 Octapole moment (field-independent basis, Debye-Ang**2):
  XXX=            439.6092  YYY=           -124.8525  ZZZ=              8.9190  XYY=           -241.2945
  XXY=             88.5743  XXZ=             54.8320  XZZ=             31.0053  YZZ=            -39.7136
  YYZ=            -28.5143  XYZ=            -39.3065
 Hexadecapole moment (field-independent basis, Debye-Ang**3):
 XXXX=        -149988.6443 YYYY=         -29831.5104 ZZZZ=          -3313.3035 XXXY=           3706.4999
 XXXZ=            -61.4402 YYYX=           -308.4151 YYYZ=            172.8380 ZZZX=             32.8854
 ZZZY=             12.0367 XXYY=         -32355.8869 XXZZ=         -26480.4645 YYZZ=          -5169.8091
 XXYZ=            103.6400 YYXZ=            -10.1285 ZZXY=             33.3907
 N-N= 9.416633627111D+03 E-N=-2.582589841306D+04  KE= 2.974707724381D+03
 Leave Link  601 at Thu Apr 28 08:15:04 2022, MaxMem= 10066329600 cpu:              13.1 elap:               0.6
 (Enter /sw/apps/gaussian-16.0/g16/l9999.exe)
 1\1\GINC-BP1-COMPUTE137\SP\RwB97XD TD-FC\def2SVP\C55H74Mg1N4O6\OF15641
 \28-Apr-2022\0\\#p wB97XD/Def2SVP td=(nstates=5)\\step_1501_chromophor
 e_21 TDDFT with wB97XD functional\\0,1\Mg,0,15.896,52.959,25.079\C,0,1
 7.311,51.729,28.046\C,0,13.103,53.83,26.969\C,0,14.445,53.984,22.258\C
 ,0,18.546,51.721,23.227\N,0,15.444,52.955,27.234\C,0,16.135,52.482,28.
 262\C,0,15.525,52.799,29.599\C,0,14.11,53.22,29.179\C,0,14.174,53.247,
 27.682\C,0,12.879,52.337,29.605\C,0,16.294,53.848,30.401\C,0,16.521,53
 .572,31.942\C,0,15.727,52.467,32.634\O,0,16.164,51.305,32.815\O,0,14.4
 69,52.862,32.989\N,0,14.081,53.868,24.664\C,0,13.009,54.11,25.586\C,0,
 11.945,54.715,24.826\C,0,12.327,54.807,23.421\C,0,13.611,54.177,23.415
 \C,0,10.651,55.07,25.524\C,0,11.592,55.341,22.249\O,0,12.093,55.416,21
 .127\C,0,10.217,55.855,22.367\N,0,16.436,52.883,23.032\C,0,15.695,53.4
 51,22.006\C,0,16.482,53.34,20.613\C,0,17.835,52.877,21.058\C,0,17.607,
 52.418,22.458\C,0,15.772,52.454,19.481\C,0,19.007,53.951,20.973\C,0,20
 .13,53.702,19.891\N,0,17.463,51.74,25.45\C,0,18.478,51.356,24.655\C,0,
 19.358,50.425,25.406\C,0,18.954,50.575,26.777\C,0,17.822,51.377,26.699
 \C,0,20.624,49.753,24.818\C,0,19.235,50.255,28.15\O,0,20.163,49.568,28
 .607\C,0,18.28,51.041,29.051\C,0,17.553,50.188,30.029\O,0,16.491,49.56
 4,29.87\O,0,18.503,49.777,30.93\C,0,18.347,48.72,31.89\C,0,13.472,51.8
 7,33.535\C,0,12.178,52.683,33.825\C,0,11.106,52.348,34.603\C,0,10.965,
 50.922,35.236\C,0,10.,53.337,35.037\C,0,10.343,54.783,35.256\C,0,9.56,
 55.399,36.514\C,0,8.303,56.324,36.097\C,0,8.814,57.766,35.775\C,0,7.24
 9,56.349,37.286\C,0,5.791,56.105,36.893\C,0,4.805,56.301,38.054\C,0,3.
 525,57.088,37.638\C,0,3.918,58.563,37.358\C,0,2.52,57.088,38.745\C,0,1
 .195,56.209,38.382\C,0,0.123,57.104,37.755\C,0,-1.05,57.462,38.717\C,0
 ,-2.324,56.511,38.603\C,0,-1.465,58.996,38.713\H,0,12.304,54.139,27.64
 6\H,0,14.03,54.302,21.299\H,0,19.326,51.324,22.574\H,0,15.373,51.845,3
 0.105\H,0,13.897,54.231,29.528\H,0,12.66,51.736,28.723\H,0,12.049,52.8
 6,30.081\H,0,13.218,51.639,30.37\H,0,15.861,54.84,30.277\H,0,17.252,53
 .838,29.881\H,0,16.219,54.525,32.377\H,0,17.577,53.375,32.128\H,0,9.88
 1,54.757,24.819\H,0,10.602,56.111,25.844\H,0,10.595,54.414,26.392\H,0,
 10.081,56.572,23.177\H,0,9.433,55.097,22.384\H,0,10.141,56.421,21.439\
 H,0,16.726,54.263,20.086\H,0,18.036,52.073,20.35\H,0,16.41,51.882,18.8
 08\H,0,15.186,53.102,18.83\H,0,15.074,51.756,19.942\H,0,19.54,54.076,2
 1.915\H,0,18.576,54.945,20.845\H,0,21.098,53.862,20.364\H,0,20.003,54.
 363,19.034\H,0,20.019,52.642,19.662\H,0,21.34,50.574,24.822\H,0,20.406
 ,49.487,23.783\H,0,20.899,48.902,25.441\H,0,18.914,51.738,29.598\H,0,1
 9.016,47.896,31.641\H,0,17.361,48.255,31.87\H,0,18.458,49.154,32.884\H
 ,0,13.871,51.397,34.432\H,0,13.169,51.086,32.841\H,0,12.327,53.695,33.
 447\H,0,11.022,51.043,36.317\H,0,11.78,50.311,34.848\H,0,10.007,50.552
 ,34.87\H,0,9.29,53.018,35.801\H,0,9.502,53.32,34.067\H,0,10.098,55.384
 ,34.38\H,0,11.4,54.859,35.51\H,0,10.192,56.107,37.051\H,0,9.24,54.588,
 37.169\H,0,7.765,56.011,35.202\H,0,8.232,58.248,34.99\H,0,9.857,57.71,
 35.463\H,0,8.732,58.453,36.618\H,0,7.284,57.299,37.82\H,0,7.549,55.545
 ,37.958\H,0,5.659,55.126,36.432\H,0,5.63,56.819,36.086\H,0,5.269,56.73
 7,38.938\H,0,4.645,55.298,38.452\H,0,3.298,56.676,36.654\H,0,3.996,59.
 114,38.294\H,0,3.117,58.893,36.696\H,0,4.764,58.63,36.674\H,0,2.357,58
 .08,39.166\H,0,3.019,56.571,39.564\H,0,0.783,55.747,39.279\H,0,1.27,55
 .369,37.691\H,0,-0.258,56.516,36.92\H,0,0.506,58.026,37.318\H,0,-0.735
 ,57.336,39.753\H,0,-1.95,55.572,38.194\H,0,-3.042,56.985,37.934\H,0,-2
 .731,56.334,39.598\H,0,-1.476,59.473,39.693\H,0,-2.421,59.131,38.209\H
 ,0,-0.788,59.623,38.133\\Version=ES64L-G16RevA.03\State=1-A\HF=-3007.8
 397718\RMSD=4.759e-09\PG=C01 [X(C55H74Mg1N4O6)]\\@


 OLD AGE AND TREACHERY WILL ALWAYS PREVAIL OVER YOUTH AND SKILL.
 Job cpu time:       0 days 16 hours  2 minutes  7.9 seconds.
 Elapsed time:       0 days  0 hours 40 minutes 30.2 seconds.
 File lengths (MBytes):  RWF=   8929 Int=      0 D2E=      0 Chk=    390 Scr=      1
 Normal termination of Gaussian 16 at Thu Apr 28 08:15:05 2022.
