 Entering Gaussian System, Link 0=g16
 Initial command:
 /sw/apps/gaussian-16.0/g16/l1.exe "/tmp/Gau-135780.inp" -scrdir="/tmp/"
 Entering Link 1 = /sw/apps/gaussian-16.0/g16/l1.exe PID=    135781.
  
 Copyright (c) 1988,1990,1992,1993,1995,1998,2003,2009,2016,
            Gaussian, Inc.  All Rights Reserved.
  
 This is part of the Gaussian(R) 16 program.  It is based on
 the Gaussian(R) 09 system (copyright 2009, Gaussian, Inc.),
 the Gaussian(R) 03 system (copyright 2003, Gaussian, Inc.),
 the Gaussian(R) 98 system (copyright 1998, Gaussian, Inc.),
 the Gaussian(R) 94 system (copyright 1995, Gaussian, Inc.),
 the Gaussian 92(TM) system (copyright 1992, Gaussian, Inc.),
 the Gaussian 90(TM) system (copyright 1990, Gaussian, Inc.),
 the Gaussian 88(TM) system (copyright 1988, Gaussian, Inc.),
 the Gaussian 86(TM) system (copyright 1986, Carnegie Mellon
 University), and the Gaussian 82(TM) system (copyright 1983,
 Carnegie Mellon University). Gaussian is a federally registered
 trademark of Gaussian, Inc.
  
 This software contains proprietary and confidential information,
 including trade secrets, belonging to Gaussian, Inc.
  
 This software is provided under written license and may be
 used, copied, transmitted, or stored only in accord with that
 written license.
  
 The following legend is applicable only to US Government
 contracts under FAR:
  
                    RESTRICTED RIGHTS LEGEND
  
 Use, reproduction and disclosure by the US Government is
 subject to restrictions as set forth in subparagraphs (a)
 and (c) of the Commercial Computer Software - Restricted
 Rights clause in FAR 52.227-19.
  
 Gaussian, Inc.
 340 Quinnipiac St., Bldg. 40, Wallingford CT 06492
  
  
 ---------------------------------------------------------------
 Warning -- This program may not be used in any manner that
 competes with the business of Gaussian, Inc. or will provide
 assistance to any competitor of Gaussian, Inc.  The licensee
 of this program is prohibited from giving any competitor of
 Gaussian, Inc. access to this program.  By using this program,
 the user acknowledges that Gaussian, Inc. is engaged in the
 business of creating and licensing software in the field of
 computational chemistry and represents and warrants to the
 licensee that it is not a competitor of Gaussian, Inc. and that
 it will not use this program in any manner prohibited above.
 ---------------------------------------------------------------
  

 Cite this work as:
 Gaussian 16, Revision A.03,
 M. J. Frisch, G. W. Trucks, H. B. Schlegel, G. E. Scuseria, 
 M. A. Robb, J. R. Cheeseman, G. Scalmani, V. Barone, 
 G. A. Petersson, H. Nakatsuji, X. Li, M. Caricato, A. V. Marenich, 
 J. Bloino, B. G. Janesko, R. Gomperts, B. Mennucci, H. P. Hratchian, 
 J. V. Ortiz, A. F. Izmaylov, J. L. Sonnenberg, D. Williams-Young, 
 F. Ding, F. Lipparini, F. Egidi, J. Goings, B. Peng, A. Petrone, 
 T. Henderson, D. Ranasinghe, V. G. Zakrzewski, J. Gao, N. Rega, 
 G. Zheng, W. Liang, M. Hada, M. Ehara, K. Toyota, R. Fukuda, 
 J. Hasegawa, M. Ishida, T. Nakajima, Y. Honda, O. Kitao, H. Nakai, 
 T. Vreven, K. Throssell, J. A. Montgomery, Jr., J. E. Peralta, 
 F. Ogliaro, M. J. Bearpark, J. J. Heyd, E. N. Brothers, K. N. Kudin, 
 V. N. Staroverov, T. A. Keith, R. Kobayashi, J. Normand, 
 K. Raghavachari, A. P. Rendell, J. C. Burant, S. S. Iyengar, 
 J. Tomasi, M. Cossi, J. M. Millam, M. Klene, C. Adamo, R. Cammi, 
 J. W. Ochterski, R. L. Martin, K. Morokuma, O. Farkas, 
 J. B. Foresman, and D. J. Fox, Gaussian, Inc., Wallingford CT, 2016.
 
 ******************************************
 Gaussian 16:  ES64L-G16RevA.03 25-Dec-2016
                27-Apr-2022 
 ******************************************
 %nproc=24
 Will use up to   24 processors via shared memory.
 %mem=75GB
 -----------------------------------
 #p cam-b3lyp/Def2SVP td=(nstates=5)
 -----------------------------------
 1/38=1,172=1/1;
 2/12=2,17=6,18=5,40=1/2;
 3/5=43,7=101,11=9,25=1,30=1,74=-40/1,2,3,8;
 4//1;
 5/5=2,38=5/2;
 8/6=1,10=1,108=5/1;
 9/41=5,42=1,70=2/14;
 6/7=2,8=2,9=2,10=2/1;
 99/5=1,9=1/99;
 Leave Link    1 at Wed Apr 27 08:50:53 2022, MaxMem= 10066329600 cpu:               0.9 elap:               0.0
 (Enter /sw/apps/gaussian-16.0/g16/l101.exe)
 -------------------------------------------------------
 step_1151_chromophore_1 TDDFT with cam-b3lyp functional
 -------------------------------------------------------
 Symbolic Z-matrix:
 Charge =  0 Multiplicity = 1
 Mg                   -1.385     17.17     26.733 
 C                    -1.754     14.854    29.314 
 C                    -2.285     19.639    28.702 
 C                    -1.392     19.183    23.965 
 C                    -1.371     14.447    24.459 
 N                    -1.839     17.274    28.743 
 C                    -1.91      16.235    29.675 
 C                    -2.425     16.682    31.032 
 C                    -2.951     18.095    30.681 
 C                    -2.24      18.423    29.304 
 C                    -4.447     18.12     30.413 
 C                    -1.187     16.766    31.963 
 C                    -1.582     16.687    33.473 
 C                    -0.419     16.355    34.417 
 O                     0.776     16.37     34.059 
 O                    -0.831     16.073    35.711 
 N                    -1.602     19.161    26.42 
 C                    -1.996     20.053    27.358 
 C                    -2.197     21.37     26.764 
 C                    -1.878     21.289    25.373 
 C                    -1.573     19.821    25.234 
 C                    -2.617     22.524    27.625 
 C                    -1.98      22.338    24.233 
 O                    -1.732     22.031    22.981 
 C                    -2.381     23.771    24.683 
 N                    -1.392     16.835    24.545 
 C                    -1.324     17.847    23.666 
 C                    -1.489     17.337    22.225 
 C                    -1.096     15.896    22.421 
 C                    -1.325     15.719    23.868 
 C                    -2.822     17.67     21.511 
 C                     0.273     15.602    21.852 
 C                     1.492     15.559    22.855 
 N                    -1.456     15.078    26.755 
 C                    -1.499     14.097    25.807 
 C                    -1.44      12.788    26.414 
 C                    -1.544     13.078    27.754 
 C                    -1.586     14.446    27.968 
 C                    -1.348     11.37     25.845 
 C                    -1.638     12.442    29.101 
 O                    -1.628     11.252    29.45 
 C                    -1.963     13.64     30.124 
 C                    -1.105     13.366    31.291 
 O                     0.118     13.302    31.311 
 O                    -1.902     13.022    32.335 
 C                    -1.339     12.552    33.55 
 C                     0.273     16.006    36.656 
 C                    -0.21      16.761    37.793 
 C                    -0.254     16.544    39.136 
 C                    -0.163     15.2      39.687 
 C                    -0.688     17.586    40.068 
 C                     0.507     18.287    40.796 
 C                     1.247     19.317    39.865 
 C                     1.001     20.762    40.352 
 C                     0.265     21.526    39.204 
 C                     2.331     21.659    40.57 
 C                     2.45      21.766    42.063 
 C                     3.886     21.411    42.631 
 C                     4.242     22.       44.023 
 C                     5.726     22.323    44.198 
 C                     3.696     21.143    45.172 
 C                     3.062     21.943    46.313 
 C                     1.6       22.413    46.185 
 C                     0.803     21.167    46.477 
 C                    -0.301     21.021    45.403 
 C                     0.191     21.219    47.946 
 H                    -2.63      20.469    29.323 
 H                    -1.48      19.802    23.07 
 H                    -1.2       13.613    23.774 
 H                    -3.227     16.062    31.432 
 H                    -2.835     18.753    31.543 
 H                    -4.899     17.157    30.648 
 H                    -4.749     18.323    29.385 
 H                    -5.052     18.834    30.972 
 H                    -0.703     17.678    31.612 
 H                    -0.378     16.05     31.824 
 H                    -2.361     15.936    33.603 
 H                    -2.006     17.639    33.793 
 H                    -1.872     23.319    27.626 
 H                    -2.796     22.212    28.655 
 H                    -3.573     22.957    27.332 
 H                    -3.443     23.779    24.929 
 H                    -2.149     24.481    23.89 
 H                    -1.74      24.082    25.508 
 H                    -0.757     17.95     21.698 
 H                    -1.76      15.275    21.819 
 H                    -3.41      16.979    20.907 
 H                    -2.587     18.431    20.766 
 H                    -3.46      18.154    22.25 
 H                     0.5       16.284    21.032 
 H                     0.258     14.677    21.274 
 H                     2.386     16.015    22.429 
 H                     1.794     14.545    23.115 
 H                     1.177     16.077    23.761 
 H                    -1.074     11.333    24.791 
 H                    -2.377     11.032    25.969 
 H                    -0.713     10.737    26.466 
 H                    -2.997     13.556    30.458 
 H                    -2.006     12.817    34.37 
 H                    -0.354     12.997    33.693 
 H                    -1.257     11.468    33.474 
 H                     1.187     16.523    36.363 
 H                     0.421     14.95     36.882 
 H                    -0.462     17.775    37.483 
 H                    -0.166     14.489    38.86 
 H                    -0.941     15.07     40.439 
 H                     0.781     14.954    40.173 
 H                    -1.483     17.21     40.712 
 H                    -1.085     18.388    39.446 
 H                     1.23      17.535    41.112 
 H                     0.095     18.765    41.685 
 H                     0.901     19.234    38.834 
 H                     2.311     19.083    39.847 
 H                     0.317     20.856    41.195 
 H                     1.047     21.713    38.468 
 H                    -0.081     22.506    39.535 
 H                    -0.564     20.95     38.792 
 H                     2.211     22.631    40.092 
 H                     3.265     21.251    40.183 
 H                     1.751     21.092    42.557 
 H                     2.225     22.768    42.427 
 H                     4.594     21.784    41.891 
 H                     3.835     20.324    42.703 
 H                     3.695     22.93     44.177 
 H                     5.913     23.367    43.947 
 H                     6.299     21.735    43.482 
 H                     6.007     22.196    45.243 
 H                     4.557     20.617    45.583 
 H                     2.95      20.451    44.78 
 H                     3.621     22.798    46.692 
 H                     3.112     21.211    47.12 
 H                     1.244     22.739    45.207 
 H                     1.429     23.268    46.839 
 H                     1.31      20.203    46.488 
 H                    -1.214     20.463    45.61 
 H                     0.133     20.465    44.572 
 H                    -0.591     21.997    45.014 
 H                     0.311     20.287    48.497 
 H                    -0.824     21.594    48.073 
 H                     0.723     21.885    48.625 
 
 ITRead=  0  0  0  0  0  0  0  0  0  0  0  0  0  0  0  0  0  0  0  0
 ITRead=  0  0  0  0  0  0  0  0  0  0  0  0  0  0  0  0  0  0  0  0
 ITRead=  0  0  0  0  0  0  0  0  0  0  0  0  0  0  0  0  0  0  0  0
 ITRead=  0  0  0  0  0  0  0  0  0  0  0  0  0  0  0  0  0  0  0  0
 ITRead=  0  0  0  0  0  0  0  0  0  0  0  0  0  0  0  0  0  0  0  0
 ITRead=  0  0  0  0  0  0  0  0  0  0  0  0  0  0  0  0  0  0  0  0
 ITRead=  0  0  0  0  0  0  0  0  0  0  0  0  0  0  0  0  0  0  0  0
 MicOpt= -1 -1 -1 -1 -1 -1 -1 -1 -1 -1 -1 -1 -1 -1 -1 -1 -1 -1 -1 -1
 MicOpt= -1 -1 -1 -1 -1 -1 -1 -1 -1 -1 -1 -1 -1 -1 -1 -1 -1 -1 -1 -1
 MicOpt= -1 -1 -1 -1 -1 -1 -1 -1 -1 -1 -1 -1 -1 -1 -1 -1 -1 -1 -1 -1
 MicOpt= -1 -1 -1 -1 -1 -1 -1 -1 -1 -1 -1 -1 -1 -1 -1 -1 -1 -1 -1 -1
 MicOpt= -1 -1 -1 -1 -1 -1 -1 -1 -1 -1 -1 -1 -1 -1 -1 -1 -1 -1 -1 -1
 MicOpt= -1 -1 -1 -1 -1 -1 -1 -1 -1 -1 -1 -1 -1 -1 -1 -1 -1 -1 -1 -1
 MicOpt= -1 -1 -1 -1 -1 -1 -1 -1 -1 -1 -1 -1 -1 -1 -1 -1 -1 -1 -1 -1
 NAtoms=    140 NQM=      140 NQMF=       0 NMMI=      0 NMMIF=      0
                NMic=       0 NMicF=      0.
                    Isotopes and Nuclear Properties:
 (Nuclear quadrupole moments (NQMom) in fm**2, nuclear magnetic moments (NMagM)
  in nuclear magnetons)

  Atom         1           2           3           4           5           6           7           8           9          10
 IAtWgt=          24          12          12          12          12          14          12          12          12          12
 AtmWgt=  23.9850450  12.0000000  12.0000000  12.0000000  12.0000000  14.0030740  12.0000000  12.0000000  12.0000000  12.0000000
 NucSpn=           0           0           0           0           0           2           0           0           0           0
 AtZEff=  -0.0000000  -0.0000000  -0.0000000  -0.0000000  -0.0000000  -0.0000000  -0.0000000  -0.0000000  -0.0000000  -0.0000000
 NQMom=    0.0000000   0.0000000   0.0000000   0.0000000   0.0000000   2.0440000   0.0000000   0.0000000   0.0000000   0.0000000
 NMagM=    0.0000000   0.0000000   0.0000000   0.0000000   0.0000000   0.4037610   0.0000000   0.0000000   0.0000000   0.0000000
 AtZNuc=  12.0000000   6.0000000   6.0000000   6.0000000   6.0000000   7.0000000   6.0000000   6.0000000   6.0000000   6.0000000

  Atom        11          12          13          14          15          16          17          18          19          20
 IAtWgt=          12          12          12          12          16          16          14          12          12          12
 AtmWgt=  12.0000000  12.0000000  12.0000000  12.0000000  15.9949146  15.9949146  14.0030740  12.0000000  12.0000000  12.0000000
 NucSpn=           0           0           0           0           0           0           2           0           0           0
 AtZEff=  -0.0000000  -0.0000000  -0.0000000  -0.0000000  -0.0000000  -0.0000000  -0.0000000  -0.0000000  -0.0000000  -0.0000000
 NQMom=    0.0000000   0.0000000   0.0000000   0.0000000   0.0000000   0.0000000   2.0440000   0.0000000   0.0000000   0.0000000
 NMagM=    0.0000000   0.0000000   0.0000000   0.0000000   0.0000000   0.0000000   0.4037610   0.0000000   0.0000000   0.0000000
 AtZNuc=   6.0000000   6.0000000   6.0000000   6.0000000   8.0000000   8.0000000   7.0000000   6.0000000   6.0000000   6.0000000

  Atom        21          22          23          24          25          26          27          28          29          30
 IAtWgt=          12          12          12          16          12          14          12          12          12          12
 AtmWgt=  12.0000000  12.0000000  12.0000000  15.9949146  12.0000000  14.0030740  12.0000000  12.0000000  12.0000000  12.0000000
 NucSpn=           0           0           0           0           0           2           0           0           0           0
 AtZEff=  -0.0000000  -0.0000000  -0.0000000  -0.0000000  -0.0000000  -0.0000000  -0.0000000  -0.0000000  -0.0000000  -0.0000000
 NQMom=    0.0000000   0.0000000   0.0000000   0.0000000   0.0000000   2.0440000   0.0000000   0.0000000   0.0000000   0.0000000
 NMagM=    0.0000000   0.0000000   0.0000000   0.0000000   0.0000000   0.4037610   0.0000000   0.0000000   0.0000000   0.0000000
 AtZNuc=   6.0000000   6.0000000   6.0000000   8.0000000   6.0000000   7.0000000   6.0000000   6.0000000   6.0000000   6.0000000

  Atom        31          32          33          34          35          36          37          38          39          40
 IAtWgt=          12          12          12          14          12          12          12          12          12          12
 AtmWgt=  12.0000000  12.0000000  12.0000000  14.0030740  12.0000000  12.0000000  12.0000000  12.0000000  12.0000000  12.0000000
 NucSpn=           0           0           0           2           0           0           0           0           0           0
 AtZEff=  -0.0000000  -0.0000000  -0.0000000  -0.0000000  -0.0000000  -0.0000000  -0.0000000  -0.0000000  -0.0000000  -0.0000000
 NQMom=    0.0000000   0.0000000   0.0000000   2.0440000   0.0000000   0.0000000   0.0000000   0.0000000   0.0000000   0.0000000
 NMagM=    0.0000000   0.0000000   0.0000000   0.4037610   0.0000000   0.0000000   0.0000000   0.0000000   0.0000000   0.0000000
 AtZNuc=   6.0000000   6.0000000   6.0000000   7.0000000   6.0000000   6.0000000   6.0000000   6.0000000   6.0000000   6.0000000

  Atom        41          42          43          44          45          46          47          48          49          50
 IAtWgt=          16          12          12          16          16          12          12          12          12          12
 AtmWgt=  15.9949146  12.0000000  12.0000000  15.9949146  15.9949146  12.0000000  12.0000000  12.0000000  12.0000000  12.0000000
 NucSpn=           0           0           0           0           0           0           0           0           0           0
 AtZEff=  -0.0000000  -0.0000000  -0.0000000  -0.0000000  -0.0000000  -0.0000000  -0.0000000  -0.0000000  -0.0000000  -0.0000000
 NQMom=    0.0000000   0.0000000   0.0000000   0.0000000   0.0000000   0.0000000   0.0000000   0.0000000   0.0000000   0.0000000
 NMagM=    0.0000000   0.0000000   0.0000000   0.0000000   0.0000000   0.0000000   0.0000000   0.0000000   0.0000000   0.0000000
 AtZNuc=   8.0000000   6.0000000   6.0000000   8.0000000   8.0000000   6.0000000   6.0000000   6.0000000   6.0000000   6.0000000

  Atom        51          52          53          54          55          56          57          58          59          60
 IAtWgt=          12          12          12          12          12          12          12          12          12          12
 AtmWgt=  12.0000000  12.0000000  12.0000000  12.0000000  12.0000000  12.0000000  12.0000000  12.0000000  12.0000000  12.0000000
 NucSpn=           0           0           0           0           0           0           0           0           0           0
 AtZEff=  -0.0000000  -0.0000000  -0.0000000  -0.0000000  -0.0000000  -0.0000000  -0.0000000  -0.0000000  -0.0000000  -0.0000000
 NQMom=    0.0000000   0.0000000   0.0000000   0.0000000   0.0000000   0.0000000   0.0000000   0.0000000   0.0000000   0.0000000
 NMagM=    0.0000000   0.0000000   0.0000000   0.0000000   0.0000000   0.0000000   0.0000000   0.0000000   0.0000000   0.0000000
 AtZNuc=   6.0000000   6.0000000   6.0000000   6.0000000   6.0000000   6.0000000   6.0000000   6.0000000   6.0000000   6.0000000

  Atom        61          62          63          64          65          66          67          68          69          70
 IAtWgt=          12          12          12          12          12          12           1           1           1           1
 AtmWgt=  12.0000000  12.0000000  12.0000000  12.0000000  12.0000000  12.0000000   1.0078250   1.0078250   1.0078250   1.0078250
 NucSpn=           0           0           0           0           0           0           1           1           1           1
 AtZEff=  -0.0000000  -0.0000000  -0.0000000  -0.0000000  -0.0000000  -0.0000000  -0.0000000  -0.0000000  -0.0000000  -0.0000000
 NQMom=    0.0000000   0.0000000   0.0000000   0.0000000   0.0000000   0.0000000   0.0000000   0.0000000   0.0000000   0.0000000
 NMagM=    0.0000000   0.0000000   0.0000000   0.0000000   0.0000000   0.0000000   2.7928460   2.7928460   2.7928460   2.7928460
 AtZNuc=   6.0000000   6.0000000   6.0000000   6.0000000   6.0000000   6.0000000   1.0000000   1.0000000   1.0000000   1.0000000

  Atom        71          72          73          74          75          76          77          78          79          80
 IAtWgt=           1           1           1           1           1           1           1           1           1           1
 AtmWgt=   1.0078250   1.0078250   1.0078250   1.0078250   1.0078250   1.0078250   1.0078250   1.0078250   1.0078250   1.0078250
 NucSpn=           1           1           1           1           1           1           1           1           1           1
 AtZEff=  -0.0000000  -0.0000000  -0.0000000  -0.0000000  -0.0000000  -0.0000000  -0.0000000  -0.0000000  -0.0000000  -0.0000000
 NQMom=    0.0000000   0.0000000   0.0000000   0.0000000   0.0000000   0.0000000   0.0000000   0.0000000   0.0000000   0.0000000
 NMagM=    2.7928460   2.7928460   2.7928460   2.7928460   2.7928460   2.7928460   2.7928460   2.7928460   2.7928460   2.7928460
 AtZNuc=   1.0000000   1.0000000   1.0000000   1.0000000   1.0000000   1.0000000   1.0000000   1.0000000   1.0000000   1.0000000

  Atom        81          82          83          84          85          86          87          88          89          90
 IAtWgt=           1           1           1           1           1           1           1           1           1           1
 AtmWgt=   1.0078250   1.0078250   1.0078250   1.0078250   1.0078250   1.0078250   1.0078250   1.0078250   1.0078250   1.0078250
 NucSpn=           1           1           1           1           1           1           1           1           1           1
 AtZEff=  -0.0000000  -0.0000000  -0.0000000  -0.0000000  -0.0000000  -0.0000000  -0.0000000  -0.0000000  -0.0000000  -0.0000000
 NQMom=    0.0000000   0.0000000   0.0000000   0.0000000   0.0000000   0.0000000   0.0000000   0.0000000   0.0000000   0.0000000
 NMagM=    2.7928460   2.7928460   2.7928460   2.7928460   2.7928460   2.7928460   2.7928460   2.7928460   2.7928460   2.7928460
 AtZNuc=   1.0000000   1.0000000   1.0000000   1.0000000   1.0000000   1.0000000   1.0000000   1.0000000   1.0000000   1.0000000

  Atom        91          92          93          94          95          96          97          98          99         100
 IAtWgt=           1           1           1           1           1           1           1           1           1           1
 AtmWgt=   1.0078250   1.0078250   1.0078250   1.0078250   1.0078250   1.0078250   1.0078250   1.0078250   1.0078250   1.0078250
 NucSpn=           1           1           1           1           1           1           1           1           1           1
 AtZEff=  -0.0000000  -0.0000000  -0.0000000  -0.0000000  -0.0000000  -0.0000000  -0.0000000  -0.0000000  -0.0000000  -0.0000000
 NQMom=    0.0000000   0.0000000   0.0000000   0.0000000   0.0000000   0.0000000   0.0000000   0.0000000   0.0000000   0.0000000
 NMagM=    2.7928460   2.7928460   2.7928460   2.7928460   2.7928460   2.7928460   2.7928460   2.7928460   2.7928460   2.7928460
 AtZNuc=   1.0000000   1.0000000   1.0000000   1.0000000   1.0000000   1.0000000   1.0000000   1.0000000   1.0000000   1.0000000

  Atom       101         102         103         104         105         106         107         108         109         110
 IAtWgt=           1           1           1           1           1           1           1           1           1           1
 AtmWgt=   1.0078250   1.0078250   1.0078250   1.0078250   1.0078250   1.0078250   1.0078250   1.0078250   1.0078250   1.0078250
 NucSpn=           1           1           1           1           1           1           1           1           1           1
 AtZEff=  -0.0000000  -0.0000000  -0.0000000  -0.0000000  -0.0000000  -0.0000000  -0.0000000  -0.0000000  -0.0000000  -0.0000000
 NQMom=    0.0000000   0.0000000   0.0000000   0.0000000   0.0000000   0.0000000   0.0000000   0.0000000   0.0000000   0.0000000
 NMagM=    2.7928460   2.7928460   2.7928460   2.7928460   2.7928460   2.7928460   2.7928460   2.7928460   2.7928460   2.7928460
 AtZNuc=   1.0000000   1.0000000   1.0000000   1.0000000   1.0000000   1.0000000   1.0000000   1.0000000   1.0000000   1.0000000

  Atom       111         112         113         114         115         116         117         118         119         120
 IAtWgt=           1           1           1           1           1           1           1           1           1           1
 AtmWgt=   1.0078250   1.0078250   1.0078250   1.0078250   1.0078250   1.0078250   1.0078250   1.0078250   1.0078250   1.0078250
 NucSpn=           1           1           1           1           1           1           1           1           1           1
 AtZEff=  -0.0000000  -0.0000000  -0.0000000  -0.0000000  -0.0000000  -0.0000000  -0.0000000  -0.0000000  -0.0000000  -0.0000000
 NQMom=    0.0000000   0.0000000   0.0000000   0.0000000   0.0000000   0.0000000   0.0000000   0.0000000   0.0000000   0.0000000
 NMagM=    2.7928460   2.7928460   2.7928460   2.7928460   2.7928460   2.7928460   2.7928460   2.7928460   2.7928460   2.7928460
 AtZNuc=   1.0000000   1.0000000   1.0000000   1.0000000   1.0000000   1.0000000   1.0000000   1.0000000   1.0000000   1.0000000

  Atom       121         122         123         124         125         126         127         128         129         130
 IAtWgt=           1           1           1           1           1           1           1           1           1           1
 AtmWgt=   1.0078250   1.0078250   1.0078250   1.0078250   1.0078250   1.0078250   1.0078250   1.0078250   1.0078250   1.0078250
 NucSpn=           1           1           1           1           1           1           1           1           1           1
 AtZEff=  -0.0000000  -0.0000000  -0.0000000  -0.0000000  -0.0000000  -0.0000000  -0.0000000  -0.0000000  -0.0000000  -0.0000000
 NQMom=    0.0000000   0.0000000   0.0000000   0.0000000   0.0000000   0.0000000   0.0000000   0.0000000   0.0000000   0.0000000
 NMagM=    2.7928460   2.7928460   2.7928460   2.7928460   2.7928460   2.7928460   2.7928460   2.7928460   2.7928460   2.7928460
 AtZNuc=   1.0000000   1.0000000   1.0000000   1.0000000   1.0000000   1.0000000   1.0000000   1.0000000   1.0000000   1.0000000

  Atom       131         132         133         134         135         136         137         138         139         140
 IAtWgt=           1           1           1           1           1           1           1           1           1           1
 AtmWgt=   1.0078250   1.0078250   1.0078250   1.0078250   1.0078250   1.0078250   1.0078250   1.0078250   1.0078250   1.0078250
 NucSpn=           1           1           1           1           1           1           1           1           1           1
 AtZEff=  -0.0000000  -0.0000000  -0.0000000  -0.0000000  -0.0000000  -0.0000000  -0.0000000  -0.0000000  -0.0000000  -0.0000000
 NQMom=    0.0000000   0.0000000   0.0000000   0.0000000   0.0000000   0.0000000   0.0000000   0.0000000   0.0000000   0.0000000
 NMagM=    2.7928460   2.7928460   2.7928460   2.7928460   2.7928460   2.7928460   2.7928460   2.7928460   2.7928460   2.7928460
 AtZNuc=   1.0000000   1.0000000   1.0000000   1.0000000   1.0000000   1.0000000   1.0000000   1.0000000   1.0000000   1.0000000
 Leave Link  101 at Wed Apr 27 08:50:53 2022, MaxMem= 10066329600 cpu:               4.1 elap:               0.2
 (Enter /sw/apps/gaussian-16.0/g16/l202.exe)
 Stoichiometry    C55H74MgN4O6
 Framework group  C1[X(C55H74MgN4O6)]
 Deg. of freedom   414
 Full point group                 C1      NOp   1
 Largest Abelian subgroup         C1      NOp   1
 Largest concise Abelian subgroup C1      NOp   1
                         Standard orientation:                         
 ---------------------------------------------------------------------
 Center     Atomic      Atomic             Coordinates (Angstroms)
 Number     Number       Type             X           Y           Z
 ---------------------------------------------------------------------
      1         12           0        5.764724    0.510683    0.172914
      2          6           0        3.778479   -2.287661   -0.448120
      3          6           0        3.549283    2.499368   -1.212682
      4          6           0        8.055263    3.035628    0.476439
      5          6           0        8.478389   -1.699081    0.755121
      6          7           0        3.882979    0.192688   -0.611272
      7          6           0        3.193532   -1.013876   -0.759774
      8          6           0        1.887716   -0.867574   -1.521299
      9          6           0        2.049153    0.566171   -2.082333
     10          6           0        3.192043    1.190014   -1.180193
     11          6           0        2.565210    0.587750   -3.511908
     12          6           0        0.755663   -0.925010   -0.462234
     13          6           0       -0.618550   -1.319772   -1.093160
     14          6           0       -1.670625   -1.789914   -0.080226
     15          8           0       -1.536972   -1.658317    1.153157
     16          8           0       -2.794487   -2.340787   -0.677868
     17          7           0        5.725027    2.514365   -0.131751
     18          6           0        4.717784    3.184833   -0.737292
     19          6           0        5.075338    4.585564   -0.931804
     20          6           0        6.378461    4.796973   -0.383733
     21          6           0        6.739498    3.399180    0.044283
     22          6           0        4.097014    5.526971   -1.569041
     23          6           0        7.297195    6.048450   -0.371990
     24          8           0        8.521631    6.008076    0.099586
     25          6           0        6.659264    7.346048   -0.943020
     26          7           0        7.943213    0.620750    0.549332
     27          6           0        8.587147    1.790151    0.688112
     28          6           0       10.105201    1.573279    0.798946
     29          6           0       10.122108    0.138141    1.256591
     30          6           0        8.798380   -0.333664    0.806343
     31          6           0       10.964705    1.991896   -0.419080
     32          6           0       10.488067    0.016075    2.717937
     33          6           0        9.314039   -0.180837    3.755580
     34          7           0        6.155201   -1.544478    0.249259
     35          6           0        7.265615   -2.316602    0.432886
     36          6           0        6.918844   -3.717476    0.484988
     37          6           0        5.587440   -3.705926    0.141847
     38          6           0        5.126994   -2.411110   -0.032580
     39          6           0        7.722962   -4.988237    0.770485
     40          6           0        4.424266   -4.601955   -0.126293
     41          8           0        4.312557   -5.836498   -0.088551
     42          6           0        3.264436   -3.646330   -0.699822
     43          6           0        2.039313   -4.115897   -0.027728
     44          8           0        1.818043   -4.136302    1.176783
     45          8           0        1.236172   -4.691950   -0.958646
     46          6           0        0.053757   -5.374173   -0.570627
     47          6           0       -3.887775   -2.553925    0.257880
     48          6           0       -5.045492   -2.060810   -0.458091
     49          6           0       -6.293531   -2.543946   -0.706388
     50          6           0       -6.585137   -3.966656   -0.611102
     51          6           0       -7.316603   -1.726939   -1.361039
     52          6           0       -8.362819   -1.141294   -0.355125
     53          6           0       -7.789774    0.081562    0.452034
     54          6           0       -8.492875    1.389358    0.026561
     55          6           0       -7.400993    2.339443   -0.563716
     56          6           0       -9.107548    2.274156    1.235008
     57          6           0      -10.590853    2.084334    1.099238
     58          6           0      -11.323177    1.677320    2.444149
     59          6           0      -12.842430    1.988573    2.523615
     60          6           0      -13.332981    2.325862    3.931737
     61          6           0      -13.693027    0.898753    1.859130
     62          6           0      -14.836753    1.429410    0.990723
     63          6           0      -14.546808    1.859885   -0.460260
     64          6           0      -14.451454    0.551413   -1.203091
     65          6           0      -13.192914    0.581866   -2.102401
     66          6           0      -15.773069    0.284906   -2.050154
     67          1           0        2.851475    3.174492   -1.713518
     68          1           0        8.816980    3.817586    0.492513
     69          1           0        9.269247   -2.371882    1.095569
     70          1           0        1.760149   -1.585015   -2.331613
     71          1           0        1.070670    1.042066   -2.156888
     72          1           0        2.601188   -0.419198   -3.926226
     73          1           0        3.572263    0.980992   -3.654740
     74          1           0        1.994956    1.151895   -4.250049
     75          1           0        0.835856    0.056456    0.006268
     76          1           0        0.884909   -1.567532    0.407777
     77          1           0       -0.464356   -2.110507   -1.827125
     78          1           0       -1.035084   -0.467902   -1.631024
     79          1           0        3.813847    6.333253   -0.893189
     80          1           0        3.193065    5.008424   -1.891950
     81          1           0        4.464781    5.973413   -2.492465
     82          1           0        6.606108    7.264434   -2.028809
     83          1           0        7.249056    8.208765   -0.635390
     84          1           0        5.690812    7.509498   -0.470144
     85          1           0       10.369028    2.306660    1.561750
     86          1           0       10.938368   -0.374341    0.746665
     87          1           0       11.782948    1.414160   -0.848895
     88          1           0       11.497876    2.895041   -0.120033
     89          1           0       10.270273    2.293567   -1.202777
     90          1           0       11.110158    0.856600    3.027087
     91          1           0       11.225518   -0.774284    2.864339
     92          1           0        9.481910    0.384736    4.672419
     93          1           0        9.203566   -1.214204    4.082609
     94          1           0        8.395255    0.132883    3.259798
     95          1           0        8.700068   -4.802961    1.215790
     96          1           0        7.847902   -5.382898   -0.238026
     97          1           0        7.132776   -5.708325    1.338559
     98          1           0        3.138940   -3.834581   -1.765927
     99          1           0       -0.672033   -5.304226   -1.380473
    100          1           0       -0.341789   -4.929908    0.343087
    101          1           0        0.319703   -6.417084   -0.399847
    102          1           0       -3.863511   -1.954519    1.168186
    103          1           0       -3.930424   -3.627424    0.441992
    104          1           0       -4.895481   -1.015536   -0.727718
    105          1           0       -5.650131   -4.497175   -0.427327
    106          1           0       -7.150417   -4.273991   -1.490699
    107          1           0       -7.172907   -4.269141    0.255430
    108          1           0       -7.727639   -2.254117   -2.222009
    109          1           0       -6.799386   -0.832198   -1.706902
    110          1           0       -8.651112   -1.913457    0.358135
    111          1           0       -9.240563   -0.866998   -0.940681
    112          1           0       -6.717530    0.193747    0.286887
    113          1           0       -7.914050   -0.103676    1.518532
    114          1           0       -9.205264    1.286645   -0.791542
    115          1           0       -6.862746    2.699528    0.313107
    116          1           0       -7.847154    3.219472   -1.028654
    117          1           0       -6.747943    1.826715   -1.270397
    118          1           0       -8.810370    3.316958    1.125841
    119          1           0       -8.819442    1.987573    2.246667
    120          1           0      -10.816941    1.299092    0.378688
    121          1           0      -11.094276    2.983866    0.746348
    122          1           0      -10.803610    2.217501    3.235507
    123          1           0      -11.176317    0.596795    2.459991
    124          1           0      -13.072890    2.847506    1.893578
    125          1           0      -13.322559    3.405292    4.082169
    126          1           0      -12.629531    1.915310    4.655155
    127          1           0      -14.367283    2.002825    4.045674
    128          1           0      -14.140380    0.334032    2.676372
    129          1           0      -13.051690    0.271594    1.239128
    130          1           0      -15.463899    2.211677    1.417212
    131          1           0      -15.485252    0.553016    0.959806
    132          1           0      -13.602068    2.361486   -0.673237
    133          1           0      -15.311732    2.559455   -0.797121
    134          1           0      -14.366868   -0.375371   -0.637068
    135          1           0      -13.126463   -0.040414   -2.994664
    136          1           0      -12.360156    0.220421   -1.499139
    137          1           0      -12.952692    1.604325   -2.393719
    138          1           0      -16.148390   -0.733359   -1.955840
    139          1           0      -15.789566    0.588201   -3.096442
    140          1           0      -16.649174    0.821025   -1.685959
 ---------------------------------------------------------------------
 Rotational constants (GHZ):           0.0517382           0.0087826           0.0078971
 Leave Link  202 at Wed Apr 27 08:50:53 2022, MaxMem= 10066329600 cpu:               1.5 elap:               0.1
 (Enter /sw/apps/gaussian-16.0/g16/l301.exe)
 Standard basis: def2SVP (5D, 7F)
 Ernie: Thresh=  0.10000D-02 Tol=  0.10000D-05 Strict=F.
 There are  1364 symmetry adapted cartesian basis functions of A   symmetry.
 There are  1298 symmetry adapted basis functions of A   symmetry.
  1298 basis functions,  2180 primitive gaussians,  1364 cartesian basis functions
   246 alpha electrons      246 beta electrons
       nuclear repulsion energy      9502.3825826005 Hartrees.
 IExCor=20419 DFT=T Ex+Corr=CAM-B3LYP ExCW=0 ScaHFX=  1.000000
 ScaDFX=  1.000000  1.000000  1.000000  0.810000 ScalE2=  1.000000  1.000000
 IRadAn=      5 IRanWt=     -1 IRanGd=            0 ICorTp=0 IEmpDi=  4
 HFx  wShort=  0.000000 wLong=  0.330000 cFull=  0.190000 cShort=  0.000000 cLong=  0.460000
 DFx  wShort=  0.000000 wLong=  0.330000 cFull=  0.190000 cShort=  0.000000 cLong=  0.460000
 NAtoms=  140 NActive=  140 NUniq=  140 SFac= 1.00D+00 NAtFMM=   60 NAOKFM=T Big=T
 Integral buffers will be    131072 words long.
 Raffenetti 1 integral format.
 Two-electron integral symmetry is turned on.
 Leave Link  301 at Wed Apr 27 08:50:53 2022, MaxMem= 10066329600 cpu:               2.0 elap:               0.1
 (Enter /sw/apps/gaussian-16.0/g16/l302.exe)
 NPDir=0 NMtPBC=     1 NCelOv=     1 NCel=       1 NClECP=     1 NCelD=      1
         NCelK=      1 NCelE2=     1 NClLst=     1 CellRange=     0.0.
 One-electron integrals computed using PRISM.
 One-electron integral symmetry used in STVInt
   1 Symmetry operations used in ECPInt.
 ECPInt:  NShTT=  192510 NPrTT=  683786 LenC2=   92124 LenP2D=  204466.
 LDataN:  DoStor=T MaxTD1= 4 Len=   56
 NBasis=  1298 RedAO= T EigKep=  2.95D-04  NBF=  1298
 NBsUse=  1298 1.00D-06 EigRej= -1.00D+00 NBFU=  1298
 Precomputing XC quadrature grid using
 IXCGrd= 4 IRadAn=           5 IRanWt=          -1 IRanGd=           0 AccXCQ= 0.00D+00.
 Generated NRdTot=       0 NPtTot=           0 NUsed=           0 NTot=          32
 NSgBfM=  1006   999  1000  1005  1006 MxSgAt=   140 MxSgA2=   140.
 Leave Link  302 at Wed Apr 27 08:50:57 2022, MaxMem= 10066329600 cpu:              81.8 elap:               3.4
 (Enter /sw/apps/gaussian-16.0/g16/l303.exe)
 DipDrv:  MaxL=1.
 Leave Link  303 at Wed Apr 27 08:50:57 2022, MaxMem= 10066329600 cpu:               6.6 elap:               0.3
 (Enter /sw/apps/gaussian-16.0/g16/l308.exe)
 Leave Link  308 at Wed Apr 27 08:50:58 2022, MaxMem= 10066329600 cpu:               8.7 elap:               0.4
 (Enter /sw/apps/gaussian-16.0/g16/l401.exe)
 ExpMin= 3.36D-02 ExpMax= 4.95D+03 ExpMxC= 7.45D+02 IAcc=3 IRadAn=         5 AccDes= 0.00D+00
 Harris functional with IExCor=20419 and IRadAn=       5 diagonalized for initial guess.
 HarFok:  IExCor=20419 AccDes= 0.00D+00 IRadAn=         5 IDoV= 1 UseB2=F ITyADJ=14
 ICtDFT=  3500011 ScaDFX=  1.000000  1.000000  1.000000  1.000000
 FoFCou: FMM=F IPFlag=           0 FMFlag=      100000 FMFlg1=        2001
         NFxFlg=           0 DoJE=T BraDBF=F KetDBF=T FulRan=T
         wScrn=  0.000000 ICntrl=       500 IOpCl=  0 I1Cent=   200000004 NGrid=           0
         NMat0=    1 NMatS0=      1 NMatT0=    0 NMatD0=    1 NMtDS0=    0 NMtDT0=    0
 Petite list used in FoFCou.
 Harris En= -2890.85199265173    
 JPrj=0 DoOrth=F DoCkMO=F.
 Leave Link  401 at Wed Apr 27 08:51:03 2022, MaxMem= 10066329600 cpu:             137.4 elap:               5.8
 (Enter /sw/apps/gaussian-16.0/g16/l502.exe)
 Integral symmetry usage will be decided dynamically.
 Closed shell SCF:
 Using DIIS extrapolation, IDIIS=  1040.
 NGot= 10066329600 LenX= 10062561258 LenY= 10060699398
 Requested convergence on RMS density matrix=1.00D-08 within 128 cycles.
 Requested convergence on MAX density matrix=1.00D-06.
 Requested convergence on             energy=1.00D-06.
 No special actions if energy rises.
 Fock matrices will be formed incrementally for  20 cycles.

 Cycle   1  Pass 1  IDiag  1:
 FoFJK:  IHMeth= 1 ICntrl=       0 DoSepK=T KAlg= 0 I1Cent=           0 FoldK=F
 IRaf=         1 NMat=       1 IRICut=       1 DoRegI=T DoRafI=F ISym2E= 0 IDoP0=0 IntGTp=1.
 FoFCou: FMM=T IPFlag=           0 FMFlag=      100000 FMFlg1=        2001
         NFxFlg=           0 DoJE=T BraDBF=F KetDBF=F FulRan=T
         wScrn=  0.000000 ICntrl=       500 IOpCl=  0 I1Cent=           0 NGrid=           0
         NMat0=    1 NMatS0=      1 NMatT0=    0 NMatD0=    1 NMtDS0=    0 NMtDT0=    0
 Symmetry not used in FoFCou.
 FMM levels:  10  Number of levels for PrismC:   9
 E= -3006.49792417625    
 DIIS: error= 2.32D-02 at cycle   1 NSaved=   1.
 NSaved= 1 IEnMin= 1 EnMin= -3006.49792417625     IErMin= 1 ErrMin= 2.32D-02
 ErrMax= 2.32D-02  0.00D+00 EMaxC= 1.00D-01 BMatC= 1.27D+00 BMatP= 1.27D+00
 IDIUse=3 WtCom= 7.68D-01 WtEn= 2.32D-01
 Coeff-Com:  0.100D+01
 Coeff-En:   0.100D+01
 Coeff:      0.100D+01
 Gap=     0.124 Goal=   None    Shift=    0.000
 GapD=    0.124 DampG=1.000 DampE=0.500 DampFc=0.5000 IDamp=-1.
 Damping current iteration by 5.00D-01
 RMSDP=1.53D-03 MaxDP=1.67D-01              OVMax= 1.93D-01

 Cycle   2  Pass 1  IDiag  1:
 RMSU=  7.53D-04    CP:  9.85D-01
 E= -3006.81424660969     Delta-E=       -0.316322433438 Rises=F Damp=T
 DIIS: error= 1.22D-02 at cycle   2 NSaved=   2.
 NSaved= 2 IEnMin= 2 EnMin= -3006.81424660969     IErMin= 2 ErrMin= 1.22D-02
 ErrMax= 1.22D-02  0.00D+00 EMaxC= 1.00D-01 BMatC= 2.29D-01 BMatP= 1.27D+00
 IDIUse=3 WtCom= 8.78D-01 WtEn= 1.22D-01
 Coeff-Com: -0.242D+00 0.124D+01
 Coeff-En:   0.000D+00 0.100D+01
 Coeff:     -0.212D+00 0.121D+01
 Gap=     0.139 Goal=   None    Shift=    0.000
 RMSDP=7.13D-04 MaxDP=1.05D-01 DE=-3.16D-01 OVMax= 1.97D-01

 Cycle   3  Pass 1  IDiag  1:
 RMSU=  6.84D-04    CP:  9.73D-01  1.23D+00
 E= -3007.05520607467     Delta-E=       -0.240959464978 Rises=F Damp=F
 DIIS: error= 1.47D-02 at cycle   3 NSaved=   3.
 NSaved= 3 IEnMin= 3 EnMin= -3007.05520607467     IErMin= 2 ErrMin= 1.22D-02
 ErrMax= 1.47D-02  0.00D+00 EMaxC= 1.00D-01 BMatC= 1.33D-01 BMatP= 2.29D-01
 IDIUse=3 WtCom= 8.53D-01 WtEn= 1.47D-01
 Coeff-Com: -0.262D+00 0.642D+00 0.620D+00
 Coeff-En:   0.000D+00 0.000D+00 0.100D+01
 Coeff:     -0.223D+00 0.547D+00 0.676D+00
 Gap=     0.128 Goal=   None    Shift=    0.000
 RMSDP=4.75D-04 MaxDP=4.89D-02 DE=-2.41D-01 OVMax= 1.33D-01

 Cycle   4  Pass 1  IDiag  1:
 RMSU=  2.83D-04    CP:  9.71D-01  1.51D+00  5.38D-01
 E= -3007.13784706692     Delta-E=       -0.082640992247 Rises=F Damp=F
 DIIS: error= 6.91D-03 at cycle   4 NSaved=   4.
 NSaved= 4 IEnMin= 4 EnMin= -3007.13784706692     IErMin= 4 ErrMin= 6.91D-03
 ErrMax= 6.91D-03  0.00D+00 EMaxC= 1.00D-01 BMatC= 3.85D-02 BMatP= 1.33D-01
 IDIUse=3 WtCom= 9.31D-01 WtEn= 6.91D-02
 Coeff-Com: -0.111D+00 0.227D+00 0.417D+00 0.466D+00
 Coeff-En:   0.000D+00 0.000D+00 0.246D+00 0.754D+00
 Coeff:     -0.103D+00 0.211D+00 0.405D+00 0.486D+00
 Gap=     0.125 Goal=   None    Shift=    0.000
 RMSDP=1.97D-04 MaxDP=2.19D-02 DE=-8.26D-02 OVMax= 5.81D-02

 Cycle   5  Pass 1  IDiag  1:
 RMSU=  7.11D-05    CP:  9.71D-01  1.47D+00  7.14D-01  5.22D-01
 E= -3007.17162215126     Delta-E=       -0.033775084339 Rises=F Damp=F
 DIIS: error= 7.59D-04 at cycle   5 NSaved=   5.
 NSaved= 5 IEnMin= 5 EnMin= -3007.17162215126     IErMin= 5 ErrMin= 7.59D-04
 ErrMax= 7.59D-04  0.00D+00 EMaxC= 1.00D-01 BMatC= 7.09D-04 BMatP= 3.85D-02
 IDIUse=3 WtCom= 9.92D-01 WtEn= 7.59D-03
 Coeff-Com: -0.376D-01 0.736D-01 0.167D+00 0.234D+00 0.563D+00
 Coeff-En:   0.000D+00 0.000D+00 0.000D+00 0.000D+00 0.100D+01
 Coeff:     -0.373D-01 0.730D-01 0.166D+00 0.232D+00 0.566D+00
 Gap=     0.125 Goal=   None    Shift=    0.000
 RMSDP=3.60D-05 MaxDP=3.46D-03 DE=-3.38D-02 OVMax= 1.64D-02

 Cycle   6  Pass 1  IDiag  1:
 RMSU=  2.76D-05    CP:  9.70D-01  1.47D+00  7.09D-01  5.79D-01  7.82D-01
 E= -3007.17223355897     Delta-E=       -0.000611407713 Rises=F Damp=F
 DIIS: error= 2.49D-04 at cycle   6 NSaved=   6.
 NSaved= 6 IEnMin= 6 EnMin= -3007.17223355897     IErMin= 6 ErrMin= 2.49D-04
 ErrMax= 2.49D-04  0.00D+00 EMaxC= 1.00D-01 BMatC= 1.12D-04 BMatP= 7.09D-04
 IDIUse=3 WtCom= 9.98D-01 WtEn= 2.49D-03
 Coeff-Com:  0.241D-02-0.670D-02 0.663D-02 0.276D-01 0.306D+00 0.664D+00
 Coeff-En:   0.000D+00 0.000D+00 0.000D+00 0.000D+00 0.989D-01 0.901D+00
 Coeff:      0.241D-02-0.668D-02 0.661D-02 0.275D-01 0.306D+00 0.664D+00
 Gap=     0.125 Goal=   None    Shift=    0.000
 RMSDP=1.50D-05 MaxDP=1.01D-03 DE=-6.11D-04 OVMax= 5.80D-03

 Cycle   7  Pass 1  IDiag  1:
 RMSU=  1.04D-05    CP:  9.70D-01  1.47D+00  7.15D-01  5.80D-01  8.81D-01
                    CP:  7.58D-01
 E= -3007.17235829728     Delta-E=       -0.000124738310 Rises=F Damp=F
 DIIS: error= 7.29D-05 at cycle   7 NSaved=   7.
 NSaved= 7 IEnMin= 7 EnMin= -3007.17235829728     IErMin= 7 ErrMin= 7.29D-05
 ErrMax= 7.29D-05  0.00D+00 EMaxC= 1.00D-01 BMatC= 1.13D-05 BMatP= 1.12D-04
 IDIUse=1 WtCom= 1.00D+00 WtEn= 0.00D+00
 Coeff-Com:  0.442D-02-0.949D-02-0.108D-01-0.869D-02 0.976D-01 0.309D+00
 Coeff-Com:  0.618D+00
 Coeff:      0.442D-02-0.949D-02-0.108D-01-0.869D-02 0.976D-01 0.309D+00
 Coeff:      0.618D+00
 Gap=     0.125 Goal=   None    Shift=    0.000
 RMSDP=6.78D-06 MaxDP=1.19D-03 DE=-1.25D-04 OVMax= 4.31D-03

 Cycle   8  Pass 1  IDiag  1:
 RMSU=  4.80D-06    CP:  9.70D-01  1.47D+00  7.16D-01  5.85D-01  8.92D-01
                    CP:  9.13D-01  8.75D-01
 E= -3007.17237461955     Delta-E=       -0.000016322267 Rises=F Damp=F
 DIIS: error= 4.42D-05 at cycle   8 NSaved=   8.
 NSaved= 8 IEnMin= 8 EnMin= -3007.17237461955     IErMin= 8 ErrMin= 4.42D-05
 ErrMax= 4.42D-05  0.00D+00 EMaxC= 1.00D-01 BMatC= 4.27D-06 BMatP= 1.13D-05
 IDIUse=1 WtCom= 1.00D+00 WtEn= 0.00D+00
 Coeff-Com:  0.227D-02-0.444D-02-0.846D-02-0.132D-01-0.120D-01 0.164D-01
 Coeff-Com:  0.397D+00 0.622D+00
 Coeff:      0.227D-02-0.444D-02-0.846D-02-0.132D-01-0.120D-01 0.164D-01
 Coeff:      0.397D+00 0.622D+00
 Gap=     0.125 Goal=   None    Shift=    0.000
 RMSDP=3.41D-06 MaxDP=2.48D-04 DE=-1.63D-05 OVMax= 1.56D-03

 Cycle   9  Pass 1  IDiag  1:
 RMSU=  2.08D-06    CP:  9.70D-01  1.47D+00  7.17D-01  5.85D-01  9.11D-01
                    CP:  9.33D-01  1.09D+00  1.02D+00
 E= -3007.17238233156     Delta-E=       -0.000007712011 Rises=F Damp=F
 DIIS: error= 2.38D-05 at cycle   9 NSaved=   9.
 NSaved= 9 IEnMin= 9 EnMin= -3007.17238233156     IErMin= 9 ErrMin= 2.38D-05
 ErrMax= 2.38D-05  0.00D+00 EMaxC= 1.00D-01 BMatC= 5.70D-07 BMatP= 4.27D-06
 IDIUse=1 WtCom= 1.00D+00 WtEn= 0.00D+00
 Coeff-Com:  0.322D-03-0.487D-03-0.206D-02-0.501D-02-0.201D-01-0.564D-01
 Coeff-Com:  0.115D+00 0.236D+00 0.732D+00
 Coeff:      0.322D-03-0.487D-03-0.206D-02-0.501D-02-0.201D-01-0.564D-01
 Coeff:      0.115D+00 0.236D+00 0.732D+00
 Gap=     0.125 Goal=   None    Shift=    0.000
 RMSDP=2.05D-06 MaxDP=2.05D-04 DE=-7.71D-06 OVMax= 1.39D-03

 Cycle  10  Pass 1  IDiag  1:
 RMSU=  1.10D-06    CP:  9.70D-01  1.47D+00  7.17D-01  5.85D-01  9.16D-01
                    CP:  9.54D-01  1.18D+00  1.27D+00  1.23D+00
 E= -3007.17238434965     Delta-E=       -0.000002018098 Rises=F Damp=F
 DIIS: error= 1.84D-05 at cycle  10 NSaved=  10.
 NSaved=10 IEnMin=10 EnMin= -3007.17238434965     IErMin=10 ErrMin= 1.84D-05
 ErrMax= 1.84D-05  0.00D+00 EMaxC= 1.00D-01 BMatC= 3.17D-07 BMatP= 5.70D-07
 IDIUse=1 WtCom= 1.00D+00 WtEn= 0.00D+00
 Coeff-Com: -0.751D-03 0.154D-02 0.241D-02 0.255D-02-0.377D-02-0.468D-01
 Coeff-Com: -0.706D-01-0.178D+00 0.429D+00 0.864D+00
 Coeff:     -0.751D-03 0.154D-02 0.241D-02 0.255D-02-0.377D-02-0.468D-01
 Coeff:     -0.706D-01-0.178D+00 0.429D+00 0.864D+00
 Gap=     0.126 Goal=   None    Shift=    0.000
 RMSDP=1.98D-06 MaxDP=1.64D-04 DE=-2.02D-06 OVMax= 1.11D-03

 Cycle  11  Pass 1  IDiag  1:
 RMSU=  6.26D-07    CP:  9.70D-01  1.47D+00  7.17D-01  5.86D-01  9.21D-01
                    CP:  9.72D-01  1.27D+00  1.47D+00  1.73D+00  1.39D+00
 E= -3007.17238568963     Delta-E=       -0.000001339979 Rises=F Damp=F
 DIIS: error= 6.95D-06 at cycle  11 NSaved=  11.
 NSaved=11 IEnMin=11 EnMin= -3007.17238568963     IErMin=11 ErrMin= 6.95D-06
 ErrMax= 6.95D-06  0.00D+00 EMaxC= 1.00D-01 BMatC= 8.32D-08 BMatP= 3.17D-07
 IDIUse=1 WtCom= 1.00D+00 WtEn= 0.00D+00
 Coeff-Com: -0.449D-03 0.872D-03 0.180D-02 0.275D-02 0.588D-02-0.935D-02
 Coeff-Com: -0.533D-01-0.192D+00 0.138D-01 0.413D+00 0.817D+00
 Coeff:     -0.449D-03 0.872D-03 0.180D-02 0.275D-02 0.588D-02-0.935D-02
 Coeff:     -0.533D-01-0.192D+00 0.138D-01 0.413D+00 0.817D+00
 Gap=     0.126 Goal=   None    Shift=    0.000
 RMSDP=1.17D-06 MaxDP=8.36D-05 DE=-1.34D-06 OVMax= 7.44D-04

 Cycle  12  Pass 1  IDiag  1:
 RMSU=  3.19D-07    CP:  9.70D-01  1.47D+00  7.17D-01  5.86D-01  9.23D-01
                    CP:  9.77D-01  1.32D+00  1.58D+00  2.02D+00  1.83D+00
                    CP:  1.25D+00
 E= -3007.17238609476     Delta-E=       -0.000000405127 Rises=F Damp=F
 DIIS: error= 4.08D-06 at cycle  12 NSaved=  12.
 NSaved=12 IEnMin=12 EnMin= -3007.17238609476     IErMin=12 ErrMin= 4.08D-06
 ErrMax= 4.08D-06  0.00D+00 EMaxC= 1.00D-01 BMatC= 2.06D-08 BMatP= 8.32D-08
 IDIUse=1 WtCom= 1.00D+00 WtEn= 0.00D+00
 Coeff-Com:  0.251D-05-0.247D-04 0.168D-03 0.555D-03 0.416D-02 0.694D-02
 Coeff-Com:  0.535D-02-0.492D-01-0.936D-01-0.758D-01 0.340D+00 0.861D+00
 Coeff:      0.251D-05-0.247D-04 0.168D-03 0.555D-03 0.416D-02 0.694D-02
 Coeff:      0.535D-02-0.492D-01-0.936D-01-0.758D-01 0.340D+00 0.861D+00
 Gap=     0.126 Goal=   None    Shift=    0.000
 RMSDP=6.15D-07 MaxDP=4.45D-05 DE=-4.05D-07 OVMax= 3.96D-04

 Cycle  13  Pass 1  IDiag  1:
 RMSU=  1.90D-07    CP:  9.70D-01  1.47D+00  7.17D-01  5.86D-01  9.24D-01
                    CP:  9.79D-01  1.34D+00  1.64D+00  2.18D+00  2.07D+00
                    CP:  1.61D+00  1.22D+00
 E= -3007.17238619339     Delta-E=       -0.000000098633 Rises=F Damp=F
 DIIS: error= 1.57D-06 at cycle  13 NSaved=  13.
 NSaved=13 IEnMin=13 EnMin= -3007.17238619339     IErMin=13 ErrMin= 1.57D-06
 ErrMax= 1.57D-06  0.00D+00 EMaxC= 1.00D-01 BMatC= 7.28D-09 BMatP= 2.06D-08
 IDIUse=1 WtCom= 1.00D+00 WtEn= 0.00D+00
 Coeff-Com:  0.141D-03-0.286D-03-0.453D-03-0.496D-03 0.830D-03 0.654D-02
 Coeff-Com:  0.223D-01 0.234D-01-0.559D-01-0.182D+00-0.614D-01 0.519D+00
 Coeff-Com:  0.728D+00
 Coeff:      0.141D-03-0.286D-03-0.453D-03-0.496D-03 0.830D-03 0.654D-02
 Coeff:      0.223D-01 0.234D-01-0.559D-01-0.182D+00-0.614D-01 0.519D+00
 Coeff:      0.728D+00
 Gap=     0.126 Goal=   None    Shift=    0.000
 RMSDP=3.33D-07 MaxDP=2.30D-05 DE=-9.86D-08 OVMax= 2.06D-04

 Cycle  14  Pass 1  IDiag  1:
 RMSU=  8.24D-08    CP:  9.70D-01  1.47D+00  7.17D-01  5.86D-01  9.24D-01
                    CP:  9.80D-01  1.35D+00  1.66D+00  2.25D+00  2.21D+00
                    CP:  1.80D+00  1.58D+00  1.03D+00
 E= -3007.17238621764     Delta-E=       -0.000000024247 Rises=F Damp=F
 DIIS: error= 8.03D-07 at cycle  14 NSaved=  14.
 NSaved=14 IEnMin=14 EnMin= -3007.17238621764     IErMin=14 ErrMin= 8.03D-07
 ErrMax= 8.03D-07  0.00D+00 EMaxC= 1.00D-01 BMatC= 9.45D-10 BMatP= 7.28D-09
 IDIUse=1 WtCom= 1.00D+00 WtEn= 0.00D+00
 Coeff-Com:  0.696D-04-0.137D-03-0.261D-03-0.362D-03-0.428D-03 0.139D-02
 Coeff-Com:  0.109D-01 0.193D-01-0.302D-02-0.703D-01-0.957D-01 0.830D-01
 Coeff-Com:  0.348D+00 0.707D+00
 Coeff:      0.696D-04-0.137D-03-0.261D-03-0.362D-03-0.428D-03 0.139D-02
 Coeff:      0.109D-01 0.193D-01-0.302D-02-0.703D-01-0.957D-01 0.830D-01
 Coeff:      0.348D+00 0.707D+00
 Gap=     0.126 Goal=   None    Shift=    0.000
 RMSDP=8.83D-08 MaxDP=9.22D-06 DE=-2.42D-08 OVMax= 5.41D-05

 Cycle  15  Pass 1  IDiag  1:
 RMSU=  4.09D-08    CP:  9.70D-01  1.47D+00  7.17D-01  5.86D-01  9.24D-01
                    CP:  9.80D-01  1.35D+00  1.67D+00  2.26D+00  2.24D+00
                    CP:  1.86D+00  1.67D+00  1.23D+00  1.11D+00
 E= -3007.17238622066     Delta-E=       -0.000000003023 Rises=F Damp=F
 DIIS: error= 3.40D-07 at cycle  15 NSaved=  15.
 NSaved=15 IEnMin=15 EnMin= -3007.17238622066     IErMin=15 ErrMin= 3.40D-07
 ErrMax= 3.40D-07  0.00D+00 EMaxC= 1.00D-01 BMatC= 1.76D-10 BMatP= 9.45D-10
 IDIUse=1 WtCom= 1.00D+00 WtEn= 0.00D+00
 Coeff-Com:  0.419D-06 0.870D-06-0.152D-04-0.461D-04-0.316D-03-0.752D-03
 Coeff-Com:  0.206D-03 0.180D-02 0.965D-02 0.406D-02-0.236D-01-0.625D-01
 Coeff-Com: -0.132D-03 0.268D+00 0.803D+00
 Coeff:      0.419D-06 0.870D-06-0.152D-04-0.461D-04-0.316D-03-0.752D-03
 Coeff:      0.206D-03 0.180D-02 0.965D-02 0.406D-02-0.236D-01-0.625D-01
 Coeff:     -0.132D-03 0.268D+00 0.803D+00
 Gap=     0.126 Goal=   None    Shift=    0.000
 RMSDP=4.77D-08 MaxDP=3.61D-06 DE=-3.02D-09 OVMax= 3.10D-05

 Cycle  16  Pass 1  IDiag  1:
 RMSU=  2.34D-08    CP:  9.70D-01  1.47D+00  7.17D-01  5.86D-01  9.24D-01
                    CP:  9.80D-01  1.35D+00  1.67D+00  2.27D+00  2.25D+00
                    CP:  1.88D+00  1.73D+00  1.30D+00  1.37D+00  1.25D+00
 E= -3007.17238622160     Delta-E=       -0.000000000933 Rises=F Damp=F
 DIIS: error= 2.34D-07 at cycle  16 NSaved=  16.
 NSaved=16 IEnMin=16 EnMin= -3007.17238622160     IErMin=16 ErrMin= 2.34D-07
 ErrMax= 2.34D-07  0.00D+00 EMaxC= 1.00D-01 BMatC= 7.83D-11 BMatP= 1.76D-10
 IDIUse=1 WtCom= 1.00D+00 WtEn= 0.00D+00
 Coeff-Com: -0.214D-04 0.432D-04 0.732D-04 0.858D-04-0.357D-04-0.833D-03
 Coeff-Com: -0.313D-02-0.529D-02 0.719D-02 0.231D-01 0.170D-01-0.620D-01
 Coeff-Com: -0.108D+00-0.933D-01 0.442D+00 0.783D+00
 Coeff:     -0.214D-04 0.432D-04 0.732D-04 0.858D-04-0.357D-04-0.833D-03
 Coeff:     -0.313D-02-0.529D-02 0.719D-02 0.231D-01 0.170D-01-0.620D-01
 Coeff:     -0.108D+00-0.933D-01 0.442D+00 0.783D+00
 Gap=     0.126 Goal=   None    Shift=    0.000
 RMSDP=3.28D-08 MaxDP=2.43D-06 DE=-9.33D-10 OVMax= 2.04D-05

 Cycle  17  Pass 1  IDiag  1:
 RMSU=  1.19D-08    CP:  9.70D-01  1.47D+00  7.17D-01  5.86D-01  9.24D-01
                    CP:  9.80D-01  1.35D+00  1.67D+00  2.27D+00  2.25D+00
                    CP:  1.89D+00  1.75D+00  1.37D+00  1.54D+00  1.67D+00
                    CP:  1.29D+00
 E= -3007.17238622201     Delta-E=       -0.000000000411 Rises=F Damp=F
 DIIS: error= 1.15D-07 at cycle  17 NSaved=  17.
 NSaved=17 IEnMin=17 EnMin= -3007.17238622201     IErMin=17 ErrMin= 1.15D-07
 ErrMax= 1.15D-07  0.00D+00 EMaxC= 1.00D-01 BMatC= 1.60D-11 BMatP= 7.83D-11
 IDIUse=1 WtCom= 1.00D+00 WtEn= 0.00D+00
 Coeff-Com: -0.104D-04 0.202D-04 0.400D-04 0.551D-04 0.938D-04-0.145D-03
 Coeff-Com: -0.144D-02-0.333D-02 0.819D-03 0.888D-02 0.169D-01-0.677D-02
 Coeff-Com: -0.468D-01-0.131D+00-0.143D-01 0.331D+00 0.847D+00
 Coeff:     -0.104D-04 0.202D-04 0.400D-04 0.551D-04 0.938D-04-0.145D-03
 Coeff:     -0.144D-02-0.333D-02 0.819D-03 0.888D-02 0.169D-01-0.677D-02
 Coeff:     -0.468D-01-0.131D+00-0.143D-01 0.331D+00 0.847D+00
 Gap=     0.126 Goal=   None    Shift=    0.000
 RMSDP=1.84D-08 MaxDP=1.24D-06 DE=-4.11D-10 OVMax= 1.22D-05

 Cycle  18  Pass 1  IDiag  1:
 RMSU=  6.17D-09    CP:  9.70D-01  1.47D+00  7.17D-01  5.86D-01  9.24D-01
                    CP:  9.80D-01  1.35D+00  1.67D+00  2.27D+00  2.25D+00
                    CP:  1.89D+00  1.76D+00  1.39D+00  1.65D+00  1.91D+00
                    CP:  1.72D+00  1.26D+00
 E= -3007.17238622205     Delta-E=       -0.000000000042 Rises=F Damp=F
 DIIS: error= 6.28D-08 at cycle  18 NSaved=  18.
 NSaved=18 IEnMin=18 EnMin= -3007.17238622205     IErMin=18 ErrMin= 6.28D-08
 ErrMax= 6.28D-08  0.00D+00 EMaxC= 1.00D-01 BMatC= 6.84D-12 BMatP= 1.60D-11
 IDIUse=1 WtCom= 1.00D+00 WtEn= 0.00D+00
 Coeff-Com:  0.171D-05-0.380D-05-0.352D-05 0.136D-06 0.655D-04 0.219D-03
 Coeff-Com:  0.275D-03 0.480D-04-0.187D-02-0.354D-02 0.280D-02 0.159D-01
 Coeff-Com:  0.114D-01-0.444D-01-0.158D+00-0.122D+00 0.468D+00 0.831D+00
 Coeff:      0.171D-05-0.380D-05-0.352D-05 0.136D-06 0.655D-04 0.219D-03
 Coeff:      0.275D-03 0.480D-04-0.187D-02-0.354D-02 0.280D-02 0.159D-01
 Coeff:      0.114D-01-0.444D-01-0.158D+00-0.122D+00 0.468D+00 0.831D+00
 Gap=     0.126 Goal=   None    Shift=    0.000
 RMSDP=1.33D-08 MaxDP=9.22D-07 DE=-4.18D-11 OVMax= 8.10D-06

 Cycle  19  Pass 1  IDiag  1:
 RMSU=  3.08D-09    CP:  9.70D-01  1.47D+00  7.17D-01  5.86D-01  9.24D-01
                    CP:  9.80D-01  1.35D+00  1.67D+00  2.27D+00  2.26D+00
                    CP:  1.90D+00  1.77D+00  1.40D+00  1.71D+00  2.08D+00
                    CP:  1.97D+00  1.68D+00  1.05D+00
 E= -3007.17238622182     Delta-E=        0.000000000226 Rises=F Damp=F
 DIIS: error= 3.81D-08 at cycle  19 NSaved=  19.
 NSaved=19 IEnMin=18 EnMin= -3007.17238622205     IErMin=19 ErrMin= 3.81D-08
 ErrMax= 3.81D-08  0.00D+00 EMaxC= 1.00D-01 BMatC= 1.39D-12 BMatP= 6.84D-12
 IDIUse=1 WtCom= 1.00D+00 WtEn= 0.00D+00
 Coeff-Com:  0.302D-05-0.612D-05-0.101D-04-0.111D-04 0.179D-04 0.150D-03
 Coeff-Com:  0.464D-03 0.734D-03-0.121D-02-0.409D-02-0.199D-02 0.107D-01
 Coeff-Com:  0.172D-01 0.588D-02-0.764D-01-0.140D+00 0.666D-01 0.450D+00
 Coeff-Com:  0.672D+00
 Coeff:      0.302D-05-0.612D-05-0.101D-04-0.111D-04 0.179D-04 0.150D-03
 Coeff:      0.464D-03 0.734D-03-0.121D-02-0.409D-02-0.199D-02 0.107D-01
 Coeff:      0.172D-01 0.588D-02-0.764D-01-0.140D+00 0.666D-01 0.450D+00
 Coeff:      0.672D+00
 Gap=     0.126 Goal=   None    Shift=    0.000
 RMSDP=3.76D-09 MaxDP=5.29D-07 DE= 2.26D-10 OVMax= 2.21D-06

 SCF Done:  E(RCAM-B3LYP) =  -3007.17238622     A.U. after   19 cycles
            NFock= 19  Conv=0.38D-08     -V/T= 2.0105
 KE= 2.975961673282D+03 PE=-2.599685946771D+04 EE= 1.051134282561D+04
 Leave Link  502 at Wed Apr 27 08:57:45 2022, MaxMem= 10066329600 cpu:            9213.3 elap:             401.9
 (Enter /sw/apps/gaussian-16.0/g16/l801.exe)
 DoSCS=F DFT=T ScalE2(SS,OS)=  1.000000  1.000000
 ExpMin= 3.36D-02 ExpMax= 4.95D+03 ExpMxC= 7.45D+02 IAcc=3 IRadAn=         5 AccDes= 0.00D+00
 HarFok:  IExCor=  205 AccDes= 0.00D+00 IRadAn=         5 IDoV=-2 UseB2=F ITyADJ=14
 ICtDFT= 12500011 ScaDFX=  1.000000  1.000000  1.000000  1.000000
 GSVD:  LWork=       -5460 too small for GESVD, short by       25550 words or       25550 for optimal perf.
 Largest valence mixing into a core orbital is  1.83D-04
 Largest core mixing into a valence orbital is  4.82D-05
 Range of M.O.s used for correlation:    71  1298
 NBasis=  1298 NAE=   246 NBE=   246 NFC=    70 NFV=     0
 NROrb=   1228 NOA=   176 NOB=   176 NVA=  1052 NVB=  1052
 Leave Link  801 at Wed Apr 27 08:57:46 2022, MaxMem= 10066329600 cpu:               7.7 elap:               0.4
 (Enter /sw/apps/gaussian-16.0/g16/l914.exe)
 RHF ground state
 Two-electron integrals replicated using symmetry.
 MDV= 10066329600 DFT=T DoStab=F Mixed=T DoRPA=T DoScal=F NonHer=T
 Making orbital integer symmetry assigments:
 Orbital symmetries:
       Occupied  (A) (A) (A) (A) (A) (A) (A) (A) (A) (A) (A) (A)
                 (A) (A) (A) (A) (A) (A) (A) (A) (A) (A) (A) (A)
                 (A) (A) (A) (A) (A) (A) (A) (A) (A) (A) (A) (A)
                 (A) (A) (A) (A) (A) (A) (A) (A) (A) (A) (A) (A)
                 (A) (A) (A) (A) (A) (A) (A) (A) (A) (A) (A) (A)
                 (A) (A) (A) (A) (A) (A) (A) (A) (A) (A) (A) (A)
                 (A) (A) (A) (A) (A) (A) (A) (A) (A) (A) (A) (A)
                 (A) (A) (A) (A) (A) (A) (A) (A) (A) (A) (A) (A)
                 (A) (A) (A) (A) (A) (A) (A) (A) (A) (A) (A) (A)
                 (A) (A) (A) (A) (A) (A) (A) (A) (A) (A) (A) (A)
                 (A) (A) (A) (A) (A) (A) (A) (A) (A) (A) (A) (A)
                 (A) (A) (A) (A) (A) (A) (A) (A) (A) (A) (A) (A)
                 (A) (A) (A) (A) (A) (A) (A) (A) (A) (A) (A) (A)
                 (A) (A) (A) (A) (A) (A) (A) (A) (A) (A) (A) (A)
                 (A) (A) (A) (A) (A) (A) (A) (A) (A) (A) (A) (A)
                 (A) (A) (A) (A) (A) (A) (A) (A) (A) (A) (A) (A)
                 (A) (A) (A) (A) (A) (A) (A) (A) (A) (A) (A) (A)
                 (A) (A) (A) (A) (A) (A) (A) (A) (A) (A) (A) (A)
                 (A) (A) (A) (A) (A) (A) (A) (A) (A) (A) (A) (A)
                 (A) (A) (A) (A) (A) (A) (A) (A) (A) (A) (A) (A)
                 (A) (A) (A) (A) (A) (A)
       Virtual   (A) (A) (A) (A) (A) (A) (A) (A) (A) (A) (A) (A)
                 (A) (A) (A) (A) (A) (A) (A) (A) (A) (A) (A) (A)
                 (A) (A) (A) (A) (A) (A) (A) (A) (A) (A) (A) (A)
                 (A) (A) (A) (A) (A) (A) (A) (A) (A) (A) (A) (A)
                 (A) (A) (A) (A) (A) (A) (A) (A) (A) (A) (A) (A)
                 (A) (A) (A) (A) (A) (A) (A) (A) (A) (A) (A) (A)
                 (A) (A) (A) (A) (A) (A) (A) (A) (A) (A) (A) (A)
                 (A) (A) (A) (A) (A) (A) (A) (A) (A) (A) (A) (A)
                 (A) (A) (A) (A) (A) (A) (A) (A) (A) (A) (A) (A)
                 (A) (A) (A) (A) (A) (A) (A) (A) (A) (A) (A) (A)
                 (A) (A) (A) (A) (A) (A) (A) (A) (A) (A) (A) (A)
                 (A) (A) (A) (A) (A) (A) (A) (A) (A) (A) (A) (A)
                 (A) (A) (A) (A) (A) (A) (A) (A) (A) (A) (A) (A)
                 (A) (A) (A) (A) (A) (A) (A) (A) (A) (A) (A) (A)
                 (A) (A) (A) (A) (A) (A) (A) (A) (A) (A) (A) (A)
                 (A) (A) (A) (A) (A) (A) (A) (A) (A) (A) (A) (A)
                 (A) (A) (A) (A) (A) (A) (A) (A) (A) (A) (A) (A)
                 (A) (A) (A) (A) (A) (A) (A) (A) (A) (A) (A) (A)
                 (A) (A) (A) (A) (A) (A) (A) (A) (A) (A) (A) (A)
                 (A) (A) (A) (A) (A) (A) (A) (A) (A) (A) (A) (A)
                 (A) (A) (A) (A) (A) (A) (A) (A) (A) (A) (A) (A)
                 (A) (A) (A) (A) (A) (A) (A) (A) (A) (A) (A) (A)
                 (A) (A) (A) (A) (A) (A) (A) (A) (A) (A) (A) (A)
                 (A) (A) (A) (A) (A) (A) (A) (A) (A) (A) (A) (A)
                 (A) (A) (A) (A) (A) (A) (A) (A) (A) (A) (A) (A)
                 (A) (A) (A) (A) (A) (A) (A) (A) (A) (A) (A) (A)
                 (A) (A) (A) (A) (A) (A) (A) (A) (A) (A) (A) (A)
                 (A) (A) (A) (A) (A) (A) (A) (A) (A) (A) (A) (A)
                 (A) (A) (A) (A) (A) (A) (A) (A) (A) (A) (A) (A)
                 (A) (A) (A) (A) (A) (A) (A) (A) (A) (A) (A) (A)
                 (A) (A) (A) (A) (A) (A) (A) (A) (A) (A) (A) (A)
                 (A) (A) (A) (A) (A) (A) (A) (A) (A) (A) (A) (A)
                 (A) (A) (A) (A) (A) (A) (A) (A) (A) (A) (A) (A)
                 (A) (A) (A) (A) (A) (A) (A) (A) (A) (A) (A) (A)
                 (A) (A) (A) (A) (A) (A) (A) (A) (A) (A) (A) (A)
                 (A) (A) (A) (A) (A) (A) (A) (A) (A) (A) (A) (A)
                 (A) (A) (A) (A) (A) (A) (A) (A) (A) (A) (A) (A)
                 (A) (A) (A) (A) (A) (A) (A) (A) (A) (A) (A) (A)
                 (A) (A) (A) (A) (A) (A) (A) (A) (A) (A) (A) (A)
                 (A) (A) (A) (A) (A) (A) (A) (A) (A) (A) (A) (A)
                 (A) (A) (A) (A) (A) (A) (A) (A) (A) (A) (A) (A)
                 (A) (A) (A) (A) (A) (A) (A) (A) (A) (A) (A) (A)
                 (A) (A) (A) (A) (A) (A) (A) (A) (A) (A) (A) (A)
                 (A) (A) (A) (A) (A) (A) (A) (A) (A) (A) (A) (A)
                 (A) (A) (A) (A) (A) (A) (A) (A) (A) (A) (A) (A)
                 (A) (A) (A) (A) (A) (A) (A) (A) (A) (A) (A) (A)
                 (A) (A) (A) (A) (A) (A) (A) (A) (A) (A) (A) (A)
                 (A) (A) (A) (A) (A) (A) (A) (A) (A) (A) (A) (A)
                 (A) (A) (A) (A) (A) (A) (A) (A) (A) (A) (A) (A)
                 (A) (A) (A) (A) (A) (A) (A) (A) (A) (A) (A) (A)
                 (A) (A) (A) (A) (A) (A) (A) (A) (A) (A) (A) (A)
                 (A) (A) (A) (A) (A) (A) (A) (A) (A) (A) (A) (A)
                 (A) (A) (A) (A) (A) (A) (A) (A) (A) (A) (A) (A)
                 (A) (A) (A) (A) (A) (A) (A) (A) (A) (A) (A) (A)
                 (A) (A) (A) (A) (A) (A) (A) (A) (A) (A) (A) (A)
                 (A) (A) (A) (A) (A) (A) (A) (A) (A) (A) (A) (A)
                 (A) (A) (A) (A) (A) (A) (A) (A) (A) (A) (A) (A)
                 (A) (A) (A) (A) (A) (A) (A) (A) (A) (A) (A) (A)
                 (A) (A) (A) (A) (A) (A) (A) (A) (A) (A) (A) (A)
                 (A) (A) (A) (A) (A) (A) (A) (A) (A) (A) (A) (A)
                 (A) (A) (A) (A) (A) (A) (A) (A) (A) (A) (A) (A)
                 (A) (A) (A) (A) (A) (A) (A) (A) (A) (A) (A) (A)
                 (A) (A) (A) (A) (A) (A) (A) (A) (A) (A) (A) (A)
                 (A) (A) (A) (A) (A) (A) (A) (A) (A) (A) (A) (A)
                 (A) (A) (A) (A) (A) (A) (A) (A) (A) (A) (A) (A)
                 (A) (A) (A) (A) (A) (A) (A) (A) (A) (A) (A) (A)
                 (A) (A) (A) (A) (A) (A) (A) (A) (A) (A) (A) (A)
                 (A) (A) (A) (A) (A) (A) (A) (A) (A) (A) (A) (A)
                 (A) (A) (A) (A) (A) (A) (A) (A) (A) (A) (A) (A)
                 (A) (A) (A) (A) (A) (A) (A) (A) (A) (A) (A) (A)
                 (A) (A) (A) (A) (A) (A) (A) (A) (A) (A) (A) (A)
                 (A) (A) (A) (A) (A) (A) (A) (A) (A) (A) (A) (A)
                 (A) (A) (A) (A) (A) (A) (A) (A) (A) (A) (A) (A)
                 (A) (A) (A) (A) (A) (A) (A) (A) (A) (A) (A) (A)
                 (A) (A) (A) (A) (A) (A) (A) (A) (A) (A) (A) (A)
                 (A) (A) (A) (A) (A) (A) (A) (A) (A) (A) (A) (A)
                 (A) (A) (A) (A) (A) (A) (A) (A) (A) (A) (A) (A)
                 (A) (A) (A) (A) (A) (A) (A) (A) (A) (A) (A) (A)
                 (A) (A) (A) (A) (A) (A) (A) (A) (A) (A) (A) (A)
                 (A) (A) (A) (A) (A) (A) (A) (A) (A) (A) (A) (A)
                 (A) (A) (A) (A) (A) (A) (A) (A) (A) (A) (A) (A)
                 (A) (A) (A) (A) (A) (A) (A) (A) (A) (A) (A) (A)
                 (A) (A) (A) (A) (A) (A) (A) (A) (A) (A) (A) (A)
                 (A) (A) (A) (A) (A) (A) (A) (A) (A) (A) (A) (A)
                 (A) (A) (A) (A) (A) (A) (A) (A) (A) (A) (A) (A)
                 (A) (A) (A) (A) (A) (A) (A) (A) (A) (A) (A) (A)
                 (A) (A) (A) (A) (A) (A) (A) (A) (A) (A) (A) (A)
                 (A) (A) (A) (A) (A) (A) (A) (A)
    20 initial guesses have been made.
 Convergence on wavefunction:    0.001000000000000
 Davidson Disk Diagonalization:  ConvIn= 1.00D-03 SkipCon=T Conv= 1.00D-03.
 Max sub-space:  2000 roots to seek:    20 dimension of matrix:       370304
 Iteration     1 Dimension    20 NMult     0 NNew     20
 CISAX will form    20 AO SS matrices at one time.
 NMat=    20 NSing=    20 JSym2X= 0.
 FoFJK:  IHMeth= 1 ICntrl=       0 DoSepK=T KAlg= 0 I1Cent=           0 FoldK=F
 IRaf=         1 NMat=      40 IRICut=       1 DoRegI=T DoRafI=F ISym2E= 0 IDoP0=3 IntGTp=3.
 FoFCou: FMM=T IPFlag=           0 FMFlag=      100000 FMFlg1=        2001
         NFxFlg=           0 DoJE=F BraDBF=F KetDBF=F FulRan=T
         wScrn=  0.000000 ICntrl=       500 IOpCl=  0 I1Cent=           0 NGrid=           0
         NMat0=   20 NMatS0=     20 NMatT0=    0 NMatD0=   20 NMtDS0=    0 NMtDT0=    0
 Symmetry not used in FoFCou.
 FMM levels:  10  Number of levels for PrismC:   9
 New state      3 was old state      6
 New state      4 was old state      3
 New state      5 was old state      7
 Excitation Energies [eV] at current iteration:
 Root      1 :     2.227346279045912
 Root      2 :     2.646816120545941
 Root      3 :     3.779352699303827
 Root      4 :     4.010182675811506
 Root      5 :     4.126762712125813
 Root      6 :     4.173851594637097
 Root      7 :     4.356354228582491
 Root      8 :     4.369554377920226
 Root      9 :     4.411085699979250
 Root     10 :     4.487883638694155
 Root     11 :     4.653117901817216
 Root     12 :     4.780064510797097
 Root     13 :     4.856665182708377
 Root     14 :     4.915479529760903
 Root     15 :     4.990954035391242
 Root     16 :     5.146699758816235
 Root     17 :     5.311029356023821
 Root     18 :     5.403362979219535
 Root     19 :     5.777817924275877
 Root     20 :     6.233493790991185
 Iteration     2 Dimension    30 NMult    20 NNew     10
 CISAX will form    10 AO SS matrices at one time.
 NMat=    10 NSing=    10 JSym2X= 0.
 Root      1 not converged, maximum delta is    0.072399218430404
 Root      2 not converged, maximum delta is    0.060707594539297
 Root      3 not converged, maximum delta is    0.047162587541644
 Root      4 not converged, maximum delta is    0.080598617545676
 Root      5 not converged, maximum delta is    0.072678314935420
 Excitation Energies [eV] at current iteration:
 Root      1 :     1.763898252165788   Change is   -0.463448026880125
 Root      2 :     2.272903643907100   Change is   -0.373912476638841
 Root      3 :     3.440623213427890   Change is   -0.338729485875937
 Root      4 :     3.602736431518177   Change is   -0.407446244293328
 Root      5 :     3.795512985361114   Change is   -0.331249726764699
 Iteration     3 Dimension    40 NMult    30 NNew     10
 CISAX will form    10 AO SS matrices at one time.
 NMat=    10 NSing=    10 JSym2X= 0.
 Root      1 not converged, maximum delta is    0.015419560034962
 Root      2 not converged, maximum delta is    0.012274103776108
 Root      3 not converged, maximum delta is    0.041605122038190
 Root      4 not converged, maximum delta is    0.071388993758203
 Root      5 not converged, maximum delta is    0.083065556231004
 Excitation Energies [eV] at current iteration:
 Root      1 :     1.730369454209927   Change is   -0.033528797955861
 Root      2 :     2.252494213144031   Change is   -0.020409430763068
 Root      3 :     3.423176687181955   Change is   -0.017446526245936
 Root      4 :     3.552179353053983   Change is   -0.050557078464194
 Root      5 :     3.758659577497707   Change is   -0.036853407863407
 Iteration     4 Dimension    50 NMult    40 NNew     10
 CISAX will form    10 AO SS matrices at one time.
 NMat=    10 NSing=    10 JSym2X= 0.
 Root      1 not converged, maximum delta is    0.003469052463462
 Root      2 not converged, maximum delta is    0.003671626839521
 Root      3 not converged, maximum delta is    0.014209688333061
 Root      4 not converged, maximum delta is    0.048642249106658
 Root      5 not converged, maximum delta is    0.365460643215879
 Excitation Energies [eV] at current iteration:
 Root      1 :     1.726243450830485   Change is   -0.004126003379442
 Root      2 :     2.249489302719829   Change is   -0.003004910424202
 Root      3 :     3.418805170532094   Change is   -0.004371516649861
 Root      4 :     3.538008805172771   Change is   -0.014170547881213
 Root      5 :     3.628474177019017   Change is   -0.130185400478691
 Iteration     5 Dimension    60 NMult    50 NNew     10
 CISAX will form    10 AO SS matrices at one time.
 NMat=    10 NSing=    10 JSym2X= 0.
 Root      1 has converged.
 Root      2 has converged.
 Root      3 not converged, maximum delta is    0.005938268213476
 Root      4 not converged, maximum delta is    0.046729504338644
 Root      5 not converged, maximum delta is    0.066571887590336
 Excitation Energies [eV] at current iteration:
 Root      1 :     1.725871944586452   Change is   -0.000371506244033
 Root      2 :     2.249301470204768   Change is   -0.000187832515060
 Root      3 :     3.418139191256433   Change is   -0.000665979275661
 Root      4 :     3.535293150123372   Change is   -0.002715655049399
 Root      5 :     3.587769832017200   Change is   -0.040704345001816
 Iteration     6 Dimension    66 NMult    60 NNew      6
 CISAX will form     6 AO SS matrices at one time.
 NMat=     6 NSing=     6 JSym2X= 0.
 Root      1 has converged.
 Root      2 has converged.
 Root      3 has converged.
 Root      4 not converged, maximum delta is    0.006736735819309
 Root      5 not converged, maximum delta is    0.008615162618186
 Excitation Energies [eV] at current iteration:
 Root      1 :     1.725871749977286   Change is   -0.000000194609165
 Root      2 :     2.249299567093322   Change is   -0.000001903111447
 Root      3 :     3.418061798390008   Change is   -0.000077392866425
 Root      4 :     3.534823615148009   Change is   -0.000469534975363
 Root      5 :     3.583953255986559   Change is   -0.003816576030641
 Iteration     7 Dimension    70 NMult    66 NNew      4
 CISAX will form     4 AO SS matrices at one time.
 NMat=     4 NSing=     4 JSym2X= 0.
 Root      1 has converged.
 Root      2 has converged.
 Root      3 has converged.
 Root      4 not converged, maximum delta is    0.004759564754692
 Root      5 not converged, maximum delta is    0.006986722293813
 Excitation Energies [eV] at current iteration:
 Root      1 :     1.725871560975250   Change is   -0.000000189002036
 Root      2 :     2.249298379794806   Change is   -0.000001187298515
 Root      3 :     3.418052178652774   Change is   -0.000009619737234
 Root      4 :     3.534675739997742   Change is   -0.000147875150267
 Root      5 :     3.583328532327719   Change is   -0.000624723658840
 Iteration     8 Dimension    74 NMult    70 NNew      4
 CISAX will form     4 AO SS matrices at one time.
 NMat=     4 NSing=     4 JSym2X= 0.
 Root      1 has converged.
 Root      2 has converged.
 Root      3 not converged, maximum delta is    0.003811547720379
 Root      4 not converged, maximum delta is    0.129049968649472
 Root      5 not converged, maximum delta is    0.398425028332525
 Excitation Energies [eV] at current iteration:
 Root      1 :     1.725870394305092   Change is   -0.000001166670159
 Root      2 :     2.249297974561861   Change is   -0.000000405232945
 Root      3 :     3.418034242674756   Change is   -0.000017935978018
 Root      4 :     3.532504992793782   Change is   -0.002170747203959
 Root      5 :     3.551618024568058   Change is   -0.031710507759661
 Iteration     9 Dimension    80 NMult    74 NNew      6
 CISAX will form     6 AO SS matrices at one time.
 NMat=     6 NSing=     6 JSym2X= 0.
 Root      1 has converged.
 Root      2 has converged.
 Root      3 not converged, maximum delta is    0.004312347683447
 New state      4 was old state      5
 Root      4 not converged, maximum delta is    0.213641140106008
 New state      5 was old state      4
 Root      5 not converged, maximum delta is    0.181574493290377
 Excitation Energies [eV] at current iteration:
 Root      1 :     1.725869764660434   Change is   -0.000000629644657
 Root      2 :     2.249296834761471   Change is   -0.000001139800390
 Root      3 :     3.418012062330827   Change is   -0.000022180343929
 Root      4 :     3.483754592397480   Change is   -0.067863432170578
 Root      5 :     3.535439590965085   Change is    0.002934598171303
 Iteration    10 Dimension    86 NMult    80 NNew      6
 CISAX will form     6 AO SS matrices at one time.
 NMat=     6 NSing=     6 JSym2X= 0.
 Root      1 has converged.
 Root      2 has converged.
 Root      3 has converged.
 Root      4 not converged, maximum delta is    0.008746111320764
 Root      5 not converged, maximum delta is    0.005000632051208
 Excitation Energies [eV] at current iteration:
 Root      1 :     1.725869602394933   Change is   -0.000000162265502
 Root      2 :     2.249295953363038   Change is   -0.000000881398433
 Root      3 :     3.418007819256617   Change is   -0.000004243074210
 Root      4 :     3.477340162399452   Change is   -0.006414429998027
 Root      5 :     3.535356210695088   Change is   -0.000083380269998
 Iteration    11 Dimension    90 NMult    86 NNew      4
 CISAX will form     4 AO SS matrices at one time.
 NMat=     4 NSing=     4 JSym2X= 0.
 Root      1 has converged.
 Root      2 has converged.
 Root      3 has converged.
 Root      4 not converged, maximum delta is    0.003010404899710
 Root      5 has converged.
 Excitation Energies [eV] at current iteration:
 Root      1 :     1.725868921929642   Change is   -0.000000680465290
 Root      2 :     2.249295211217579   Change is   -0.000000742145458
 Root      3 :     3.418007300579545   Change is   -0.000000518677072
 Root      4 :     3.476490746735539   Change is   -0.000849415663914
 Root      5 :     3.535346268830874   Change is   -0.000009941864214
 Iteration    12 Dimension    92 NMult    90 NNew      2
 CISAX will form     2 AO SS matrices at one time.
 NMat=     2 NSing=     2 JSym2X= 0.
 Root      1 has converged.
 Root      2 has converged.
 Root      3 has converged.
 Root      4 has converged.
 Root      5 has converged.
 Excitation Energies [eV] at current iteration:
 Root      1 :     1.725868642479812   Change is   -0.000000279449831
 Root      2 :     2.249295181728142   Change is   -0.000000029489437
 Root      3 :     3.418007245770266   Change is   -0.000000054809280
 Root      4 :     3.476392616394099   Change is   -0.000098130341440
 Root      5 :     3.535345143883477   Change is   -0.000001124947397
 Convergence achieved on expansion vectors.
 ***********************************************************************
 Excited states from <AA,BB:AA,BB> singles matrix:
 ***********************************************************************
 
 1PDM for each excited state written to RWF  633
 Ground to excited state transition densities written to RWF  633
 Ground to excited state transition electric dipole moments (Au):
       state          X           Y           Z        Dip. S.      Osc.
         1        -0.1220      3.0310     -0.4378      9.3933      0.3972
         2         1.4085      0.3550      0.4033      2.2726      0.1252
         3         0.5288      0.1630      0.1736      0.3364      0.0282
         4        -0.1425      0.0461     -0.0228      0.0230      0.0020
         5        -2.1084     -0.1991     -0.6503      4.9080      0.4251
 Ground to excited state transition velocity dipole moments (Au):
       state          X           Y           Z        Dip. S.      Osc.
         1         0.0076     -0.1868      0.0282      0.0358      0.3759
         2        -0.1102     -0.0281     -0.0319      0.0140      0.1125
         3        -0.0624     -0.0205     -0.0207      0.0047      0.0251
         4         0.0156     -0.0037      0.0036      0.0003      0.0014
         5         0.2672      0.0233      0.0835      0.0789      0.4049
 Ground to excited state transition magnetic dipole moments (Au):
       state          X           Y           Z
         1         0.0677     -0.2869     -2.3116
         2        -0.0130      0.3677     -0.4621
         3        -0.1702      0.2081      0.4327
         4        -0.8465     -0.0689     -0.1839
         5         0.0112     -1.1588      0.8408
[...]
 Alpha virt. eigenvalues --    1.20554   1.20985   1.21493   1.21568   1.22545
 Alpha virt. eigenvalues --    1.23155   1.23489   1.24041   1.24152   1.24758
 Alpha virt. eigenvalues --    1.25236   1.26446   1.26647   1.26822   1.27232
 Alpha virt. eigenvalues --    1.27561   1.27678   1.28114   1.28809   1.29084
 Alpha virt. eigenvalues --    1.29727   1.30720   1.30915   1.31242   1.31650
 Alpha virt. eigenvalues --    1.31806   1.32493   1.33011   1.33364   1.33606
 Alpha virt. eigenvalues --    1.34494   1.34857   1.36047   1.36276   1.36620
 Alpha virt. eigenvalues --    1.36963   1.37071   1.38000   1.38117   1.38912
 Alpha virt. eigenvalues --    1.39388   1.39974   1.40142   1.41001   1.41278
 Alpha virt. eigenvalues --    1.41324   1.41739   1.42071   1.42588   1.42978
 Alpha virt. eigenvalues --    1.43266   1.43374   1.43645   1.44117   1.44711
 Alpha virt. eigenvalues --    1.44795   1.45409   1.46300   1.46327   1.46503
 Alpha virt. eigenvalues --    1.46668   1.47107   1.47359   1.47984   1.47993
 Alpha virt. eigenvalues --    1.48332   1.49346   1.49511   1.50697   1.50775
 Alpha virt. eigenvalues --    1.51116   1.51441   1.51728   1.51823   1.52761
 Alpha virt. eigenvalues --    1.52803   1.53192   1.53644   1.54193   1.54664
 Alpha virt. eigenvalues --    1.55976   1.56077   1.56282   1.56574   1.57489
 Alpha virt. eigenvalues --    1.57969   1.58183   1.58435   1.58765   1.59002
 Alpha virt. eigenvalues --    1.59132   1.59425   1.59595   1.60091   1.60130
 Alpha virt. eigenvalues --    1.60513   1.60899   1.61097   1.61261   1.61504
 Alpha virt. eigenvalues --    1.61598   1.61744   1.61992   1.62089   1.62585
 Alpha virt. eigenvalues --    1.62809   1.63140   1.63453   1.63530   1.63782
 Alpha virt. eigenvalues --    1.64072   1.64598   1.64902   1.65208   1.65576
 Alpha virt. eigenvalues --    1.65679   1.66071   1.66158   1.66346   1.66540
 Alpha virt. eigenvalues --    1.66803   1.67275   1.67774   1.68533   1.68809
 Alpha virt. eigenvalues --    1.69036   1.69858   1.70303   1.70849   1.71845
 Alpha virt. eigenvalues --    1.72295   1.72763   1.72960   1.73463   1.73607
 Alpha virt. eigenvalues --    1.74406   1.74704   1.75193   1.75962   1.76098
 Alpha virt. eigenvalues --    1.76196   1.76633   1.77159   1.77279   1.77450
 Alpha virt. eigenvalues --    1.77743   1.78002   1.78400   1.78549   1.78754
 Alpha virt. eigenvalues --    1.78968   1.79265   1.79463   1.79805   1.80078
 Alpha virt. eigenvalues --    1.80372   1.80651   1.80768   1.81185   1.81494
 Alpha virt. eigenvalues --    1.81714   1.81873   1.82037   1.82154   1.82403
 Alpha virt. eigenvalues --    1.82848   1.82883   1.83082   1.83119   1.83242
 Alpha virt. eigenvalues --    1.83342   1.83775   1.83949   1.84070   1.84375
 Alpha virt. eigenvalues --    1.84532   1.84809   1.85278   1.85348   1.85584
 Alpha virt. eigenvalues --    1.85859   1.85945   1.85969   1.86253   1.86601
 Alpha virt. eigenvalues --    1.86740   1.86871   1.87179   1.87268   1.87626
 Alpha virt. eigenvalues --    1.87734   1.87873   1.88250   1.88526   1.88747
 Alpha virt. eigenvalues --    1.88894   1.89261   1.89458   1.89776   1.89818
 Alpha virt. eigenvalues --    1.90013   1.90271   1.90462   1.90636   1.90879
 Alpha virt. eigenvalues --    1.91111   1.91249   1.91289   1.92091   1.92283
 Alpha virt. eigenvalues --    1.92490   1.92961   1.93163   1.93670   1.93854
 Alpha virt. eigenvalues --    1.93974   1.94151   1.94185   1.94410   1.94450
 Alpha virt. eigenvalues --    1.94732   1.95029   1.95340   1.95538   1.95702
 Alpha virt. eigenvalues --    1.95878   1.96155   1.96430   1.96644   1.96815
 Alpha virt. eigenvalues --    1.97059   1.97294   1.97918   1.98220   1.98383
 Alpha virt. eigenvalues --    1.98735   1.98795   1.98967   1.99518   1.99667
 Alpha virt. eigenvalues --    1.99763   2.00049   2.00376   2.00466   2.00749
 Alpha virt. eigenvalues --    2.00890   2.01061   2.01388   2.01525   2.01893
 Alpha virt. eigenvalues --    2.02303   2.02458   2.02625   2.02918   2.03213
 Alpha virt. eigenvalues --    2.03473   2.03740   2.04109   2.04250   2.04833
 Alpha virt. eigenvalues --    2.05221   2.05295   2.05978   2.06148   2.06321
 Alpha virt. eigenvalues --    2.06356   2.06691   2.06893   2.07432   2.07667
 Alpha virt. eigenvalues --    2.07850   2.07948   2.08406   2.08755   2.09006
 Alpha virt. eigenvalues --    2.09419   2.09660   2.10002   2.10087   2.10400
 Alpha virt. eigenvalues --    2.10745   2.11106   2.11437   2.11772   2.12143
 Alpha virt. eigenvalues --    2.12540   2.12579   2.13049   2.13246   2.13757
 Alpha virt. eigenvalues --    2.14243   2.14507   2.14938   2.15198   2.15302
 Alpha virt. eigenvalues --    2.15416   2.15900   2.16099   2.16345   2.16631
 Alpha virt. eigenvalues --    2.16780   2.17286   2.17979   2.17996   2.18244
 Alpha virt. eigenvalues --    2.18324   2.18978   2.19035   2.19182   2.19402
 Alpha virt. eigenvalues --    2.19677   2.20677   2.20788   2.21093   2.21501
 Alpha virt. eigenvalues --    2.22130   2.22156   2.22377   2.22820   2.22977
 Alpha virt. eigenvalues --    2.23307   2.23569   2.23775   2.24274   2.24693
 Alpha virt. eigenvalues --    2.24826   2.25507   2.25639   2.25949   2.26556
 Alpha virt. eigenvalues --    2.26724   2.27300   2.28011   2.28384   2.28646
 Alpha virt. eigenvalues --    2.29474   2.29776   2.29926   2.30092   2.30576
 Alpha virt. eigenvalues --    2.30961   2.31658   2.31844   2.32447   2.32905
 Alpha virt. eigenvalues --    2.33187   2.34379   2.34500   2.34960   2.35351
 Alpha virt. eigenvalues --    2.35732   2.35982   2.36326   2.37237   2.37722
 Alpha virt. eigenvalues --    2.38125   2.38515   2.38646   2.38706   2.38884
 Alpha virt. eigenvalues --    2.39688   2.39861   2.40350   2.41182   2.41209
 Alpha virt. eigenvalues --    2.41635   2.41873   2.41993   2.42619   2.42737
 Alpha virt. eigenvalues --    2.43469   2.43946   2.44015   2.44468   2.44516
 Alpha virt. eigenvalues --    2.44672   2.44973   2.45192   2.45339   2.45740
 Alpha virt. eigenvalues --    2.45927   2.46263   2.46344   2.47280   2.47434
 Alpha virt. eigenvalues --    2.47703   2.48137   2.48263   2.48844   2.50027
 Alpha virt. eigenvalues --    2.50158   2.50331   2.50917   2.51378   2.51492
 Alpha virt. eigenvalues --    2.52000   2.52556   2.52833   2.53677   2.54214
 Alpha virt. eigenvalues --    2.54906   2.55277   2.55697   2.55810   2.55955
 Alpha virt. eigenvalues --    2.56338   2.57125   2.57184   2.58071   2.58118
 Alpha virt. eigenvalues --    2.58789   2.58884   2.59072   2.60118   2.60496
 Alpha virt. eigenvalues --    2.60749   2.62006   2.62351   2.63013   2.63221
 Alpha virt. eigenvalues --    2.63524   2.64149   2.64268   2.64728   2.64946
 Alpha virt. eigenvalues --    2.65358   2.65773   2.66736   2.66771   2.67144
 Alpha virt. eigenvalues --    2.67220   2.67964   2.68263   2.68802   2.69411
 Alpha virt. eigenvalues --    2.69694   2.69780   2.70050   2.70446   2.70651
 Alpha virt. eigenvalues --    2.71278   2.71501   2.72041   2.72707   2.72890
 Alpha virt. eigenvalues --    2.73177   2.73407   2.73608   2.73902   2.74181
 Alpha virt. eigenvalues --    2.74352   2.75659   2.75836   2.76642   2.76770
 Alpha virt. eigenvalues --    2.77018   2.77110   2.77171   2.78233   2.78311
 Alpha virt. eigenvalues --    2.78486   2.78673   2.78921   2.79516   2.79804
 Alpha virt. eigenvalues --    2.80260   2.80642   2.80685   2.81039   2.81313
 Alpha virt. eigenvalues --    2.82238   2.82745   2.82915   2.83310   2.84140
 Alpha virt. eigenvalues --    2.84758   2.84786   2.85621   2.85855   2.87164
 Alpha virt. eigenvalues --    2.87254   2.87652   2.88435   2.89029   2.89663
 Alpha virt. eigenvalues --    2.89746   2.89984   2.91062   2.91200   2.92475
 Alpha virt. eigenvalues --    2.92699   2.93511   2.93877   2.94122   2.94252
 Alpha virt. eigenvalues --    2.94285   2.95559   2.96306   2.96526   2.96639
 Alpha virt. eigenvalues --    2.96907   2.96927   2.97489   2.97910   2.98167
 Alpha virt. eigenvalues --    2.98477   2.98965   2.99341   2.99542   2.99816
 Alpha virt. eigenvalues --    3.00224   3.00496   3.00695   3.00873   3.01137
 Alpha virt. eigenvalues --    3.01675   3.01952   3.02209   3.02513   3.02798
 Alpha virt. eigenvalues --    3.02855   3.03209   3.03525   3.03925   3.04126
 Alpha virt. eigenvalues --    3.04511   3.04873   3.05701   3.05905   3.06062
 Alpha virt. eigenvalues --    3.06440   3.07097   3.07232   3.07617   3.07695
 Alpha virt. eigenvalues --    3.08206   3.08276   3.08809   3.09062   3.09558
 Alpha virt. eigenvalues --    3.09637   3.10487   3.10983   3.11042   3.11167
 Alpha virt. eigenvalues --    3.11536   3.12064   3.12381   3.12634   3.12736
 Alpha virt. eigenvalues --    3.13173   3.13440   3.13620   3.13828   3.14523
 Alpha virt. eigenvalues --    3.15449   3.16061   3.16398   3.16615   3.18060
 Alpha virt. eigenvalues --    3.18630   3.19037   3.19104   3.20564   3.21064
 Alpha virt. eigenvalues --    3.21199   3.21621   3.21898   3.23737   3.24744
 Alpha virt. eigenvalues --    3.25516   3.27140   3.27688   3.28884   3.30299
 Alpha virt. eigenvalues --    3.33746   3.34619   3.35299   3.43453   3.45725
 Alpha virt. eigenvalues --    3.50140   3.50414   3.54147   3.55278   3.59184
 Alpha virt. eigenvalues --    3.60253   3.61697   3.64809   3.67175   3.69399
 Alpha virt. eigenvalues --    3.70203   3.75878
          Condensed to atoms (all electrons):
 Mulliken charges:
               1
     1  Mg   0.856437
     2  C   -0.007341
     3  C   -0.074484
     4  C   -0.064613
     5  C   -0.085254
     6  N   -0.333148
     7  C    0.022764
     8  C   -0.040534
     9  C   -0.046825
    10  C    0.079394
    11  C    0.058303
    12  C    0.025501
    13  C    0.067484
    14  C    0.187244
    15  O   -0.251290
    16  O   -0.340699
    17  N   -0.362062
    18  C    0.123780
    19  C   -0.133275
    20  C   -0.050725
    21  C    0.103091
    22  C    0.107111
    23  C    0.062925
    24  O   -0.269370
    25  C    0.041095
    26  N   -0.196376
    27  C   -0.006034
    28  C   -0.049045
    29  C    0.036186
    30  C    0.001591
    31  C    0.073169
    32  C    0.020975
    33  C    0.008320
    34  N   -0.354970
    35  C    0.116792
    36  C   -0.191405
    37  C    0.020122
    38  C    0.106737
    39  C    0.129992
    40  C    0.082317
    41  O   -0.184862
    42  C   -0.007139
    43  C    0.174866
    44  O   -0.216494
    45  O   -0.319676
    46  C    0.163568
    47  C    0.311795
    48  C   -0.123060
    49  C   -0.190291
    50  C    0.111366
    51  C    0.079719
    52  C    0.019213
    53  C    0.090018
    54  C   -0.167240
    55  C    0.021419
    56  C    0.082409
    57  C   -0.018922
    58  C    0.029893
    59  C   -0.127103
    60  C    0.073010
    61  C    0.077023
    62  C   -0.016967
    63  C    0.100987
    64  C   -0.158219
    65  C    0.033399
    66  C    0.030451
    67  H   -0.043627
    68  H   -0.004516
    69  H   -0.037038
    70  H    0.009882
    71  H   -0.000900
    72  H    0.001863
    73  H    0.024533
    74  H    0.010538
    75  H    0.010139
    76  H    0.051147
    77  H    0.029952
    78  H    0.032597
    79  H    0.033475
    80  H    0.002953
    81  H    0.019444
    82  H    0.052874
    83  H    0.031441
    84  H    0.034927
    85  H    0.010257
    86  H   -0.007816
    87  H    0.018544
    88  H    0.011874
    89  H    0.020136
    90  H   -0.001445
    91  H   -0.007419
    92  H    0.015460
    93  H    0.016573
    94  H    0.029687
    95  H    0.016280
    96  H    0.036279
    97  H    0.047233
    98  H    0.044386
    99  H    0.033996
   100  H    0.047494
   101  H    0.041498
   102  H    0.055064
   103  H    0.009716
   104  H   -0.017139
   105  H   -0.001660
   106  H    0.015398
   107  H    0.012422
   108  H    0.004506
   109  H   -0.013321
   110  H   -0.006660
   111  H    0.007131
   112  H   -0.008157
   113  H   -0.006646
   114  H    0.013474
   115  H    0.009273
   116  H    0.005037
   117  H    0.003686
   118  H   -0.003808
   119  H   -0.000827
   120  H    0.003687
   121  H   -0.006950
   122  H   -0.006628
   123  H   -0.002044
   124  H   -0.014585
   125  H    0.002315
   126  H    0.008644
   127  H    0.004103
   128  H   -0.010535
   129  H   -0.014262
   130  H   -0.016259
   131  H   -0.005940
   132  H   -0.008594
   133  H    0.000438
   134  H    0.011908
   135  H    0.001740
   136  H    0.000518
   137  H    0.007552
   138  H   -0.001831
   139  H    0.006309
   140  H   -0.012822
 Sum of Mulliken charges =  -0.00000
 Mulliken charges with hydrogens summed into heavy atoms:
               1
     1  Mg   0.856437
     2  C   -0.007341
     3  C   -0.118111
     4  C   -0.069129
     5  C   -0.122292
     6  N   -0.333148
     7  C    0.022764
     8  C   -0.030652
     9  C   -0.047725
    10  C    0.079394
    11  C    0.095238
    12  C    0.086787
    13  C    0.130033
    14  C    0.187244
    15  O   -0.251290
    16  O   -0.340699
    17  N   -0.362062
    18  C    0.123780
    19  C   -0.133275
    20  C   -0.050725
    21  C    0.103091
    22  C    0.162984
    23  C    0.062925
    24  O   -0.269370
    25  C    0.160337
    26  N   -0.196376
    27  C   -0.006034
    28  C   -0.038788
    29  C    0.028369
    30  C    0.001591
    31  C    0.123723
    32  C    0.012111
    33  C    0.070040
    34  N   -0.354970
    35  C    0.116792
    36  C   -0.191405
    37  C    0.020122
    38  C    0.106737
    39  C    0.229784
    40  C    0.082317
    41  O   -0.184862
    42  C    0.037246
    43  C    0.174866
    44  O   -0.216494
    45  O   -0.319676
    46  C    0.286555
    47  C    0.376576
    48  C   -0.140199
    49  C   -0.190291
    50  C    0.137526
    51  C    0.070904
    52  C    0.019684
    53  C    0.075215
    54  C   -0.153766
    55  C    0.039414
    56  C    0.077774
    57  C   -0.022185
    58  C    0.021222
    59  C   -0.141688
    60  C    0.088072
    61  C    0.052227
    62  C   -0.039166
    63  C    0.092831
    64  C   -0.146311
    65  C    0.043208
    66  C    0.022107
 Electronic spatial extent (au):  <R**2>=         131708.3675
 Charge=              0.0000 electrons
 Dipole moment (field-independent basis, Debye):
    X=             -2.7238    Y=              2.3832    Z=             -4.1433  Tot=              5.5015
 Quadrupole moment (field-independent basis, Debye-Ang):
   XX=           -376.8082   YY=           -416.8230   ZZ=           -404.8487
   XY=             -3.2120   XZ=              0.5637   YZ=             -2.0536
 Traceless Quadrupole moment (field-independent basis, Debye-Ang):
   XX=             22.6851   YY=            -17.3297   ZZ=             -5.3554
   XY=             -3.2120   XZ=              0.5637   YZ=             -2.0536
 Octapole moment (field-independent basis, Debye-Ang**2):
  XXX=            128.7667  YYY=             99.4760  ZZZ=            -17.4868  XYY=           -209.9118
  XXY=           -295.1819  XXZ=             58.1879  XZZ=             77.0217  YZZ=              8.5970
  YYZ=            -75.6819  XYZ=            -46.3443
 Hexadecapole moment (field-independent basis, Debye-Ang**3):
 XXXX=        -151494.0185 YYYY=         -21697.6441 ZZZZ=          -5284.2085 XXXY=          -3119.6443
 XXXZ=            968.0630 YYYX=            471.9807 YYYZ=           -287.7328 ZZZX=            124.3195
 ZZZY=            -14.9306 XXYY=         -30855.9611 XXZZ=         -27102.8694 YYZZ=          -4469.7532
 XXYZ=           -492.1056 YYXZ=           -315.1481 ZZXY=            111.6241
 N-N= 9.502382582601D+03 E-N=-2.599685945342D+04  KE= 2.975961673282D+03
 Leave Link  601 at Wed Apr 27 09:20:43 2022, MaxMem= 10066329600 cpu:              10.4 elap:               0.5
 (Enter /sw/apps/gaussian-16.0/g16/l9999.exe)
 1\1\GINC-BP1-COMPUTE196\SP\RCAM-B3LYP TD-FC\def2SVP\C55H74Mg1N4O6\OF15
 641\27-Apr-2022\0\\#p cam-b3lyp/Def2SVP td=(nstates=5)\\step_1151_chro
 mophore_1 TDDFT with cam-b3lyp functional\\0,1\Mg,0,-1.385,17.17,26.73
 3\C,0,-1.754,14.854,29.314\C,0,-2.285,19.639,28.702\C,0,-1.392,19.183,
 23.965\C,0,-1.371,14.447,24.459\N,0,-1.839,17.274,28.743\C,0,-1.91,16.
 235,29.675\C,0,-2.425,16.682,31.032\C,0,-2.951,18.095,30.681\C,0,-2.24
 ,18.423,29.304\C,0,-4.447,18.12,30.413\C,0,-1.187,16.766,31.963\C,0,-1
 .582,16.687,33.473\C,0,-0.419,16.355,34.417\O,0,0.776,16.37,34.059\O,0
 ,-0.831,16.073,35.711\N,0,-1.602,19.161,26.42\C,0,-1.996,20.053,27.358
 \C,0,-2.197,21.37,26.764\C,0,-1.878,21.289,25.373\C,0,-1.573,19.821,25
 .234\C,0,-2.617,22.524,27.625\C,0,-1.98,22.338,24.233\O,0,-1.732,22.03
 1,22.981\C,0,-2.381,23.771,24.683\N,0,-1.392,16.835,24.545\C,0,-1.324,
 17.847,23.666\C,0,-1.489,17.337,22.225\C,0,-1.096,15.896,22.421\C,0,-1
 .325,15.719,23.868\C,0,-2.822,17.67,21.511\C,0,0.273,15.602,21.852\C,0
 ,1.492,15.559,22.855\N,0,-1.456,15.078,26.755\C,0,-1.499,14.097,25.807
 \C,0,-1.44,12.788,26.414\C,0,-1.544,13.078,27.754\C,0,-1.586,14.446,27
 .968\C,0,-1.348,11.37,25.845\C,0,-1.638,12.442,29.101\O,0,-1.628,11.25
 2,29.45\C,0,-1.963,13.64,30.124\C,0,-1.105,13.366,31.291\O,0,0.118,13.
 302,31.311\O,0,-1.902,13.022,32.335\C,0,-1.339,12.552,33.55\C,0,0.273,
 16.006,36.656\C,0,-0.21,16.761,37.793\C,0,-0.254,16.544,39.136\C,0,-0.
 163,15.2,39.687\C,0,-0.688,17.586,40.068\C,0,0.507,18.287,40.796\C,0,1
 .247,19.317,39.865\C,0,1.001,20.762,40.352\C,0,0.265,21.526,39.204\C,0
 ,2.331,21.659,40.57\C,0,2.45,21.766,42.063\C,0,3.886,21.411,42.631\C,0
 ,4.242,22.,44.023\C,0,5.726,22.323,44.198\C,0,3.696,21.143,45.172\C,0,
 3.062,21.943,46.313\C,0,1.6,22.413,46.185\C,0,0.803,21.167,46.477\C,0,
 -0.301,21.021,45.403\C,0,0.191,21.219,47.946\H,0,-2.63,20.469,29.323\H
 ,0,-1.48,19.802,23.07\H,0,-1.2,13.613,23.774\H,0,-3.227,16.062,31.432\
 H,0,-2.835,18.753,31.543\H,0,-4.899,17.157,30.648\H,0,-4.749,18.323,29
 .385\H,0,-5.052,18.834,30.972\H,0,-0.703,17.678,31.612\H,0,-0.378,16.0
 5,31.824\H,0,-2.361,15.936,33.603\H,0,-2.006,17.639,33.793\H,0,-1.872,
 23.319,27.626\H,0,-2.796,22.212,28.655\H,0,-3.573,22.957,27.332\H,0,-3
 .443,23.779,24.929\H,0,-2.149,24.481,23.89\H,0,-1.74,24.082,25.508\H,0
 ,-0.757,17.95,21.698\H,0,-1.76,15.275,21.819\H,0,-3.41,16.979,20.907\H
 ,0,-2.587,18.431,20.766\H,0,-3.46,18.154,22.25\H,0,0.5,16.284,21.032\H
 ,0,0.258,14.677,21.274\H,0,2.386,16.015,22.429\H,0,1.794,14.545,23.115
 \H,0,1.177,16.077,23.761\H,0,-1.074,11.333,24.791\H,0,-2.377,11.032,25
 .969\H,0,-0.713,10.737,26.466\H,0,-2.997,13.556,30.458\H,0,-2.006,12.8
 17,34.37\H,0,-0.354,12.997,33.693\H,0,-1.257,11.468,33.474\H,0,1.187,1
 6.523,36.363\H,0,0.421,14.95,36.882\H,0,-0.462,17.775,37.483\H,0,-0.16
 6,14.489,38.86\H,0,-0.941,15.07,40.439\H,0,0.781,14.954,40.173\H,0,-1.
 483,17.21,40.712\H,0,-1.085,18.388,39.446\H,0,1.23,17.535,41.112\H,0,0
 .095,18.765,41.685\H,0,0.901,19.234,38.834\H,0,2.311,19.083,39.847\H,0
 ,0.317,20.856,41.195\H,0,1.047,21.713,38.468\H,0,-0.081,22.506,39.535\
 H,0,-0.564,20.95,38.792\H,0,2.211,22.631,40.092\H,0,3.265,21.251,40.18
 3\H,0,1.751,21.092,42.557\H,0,2.225,22.768,42.427\H,0,4.594,21.784,41.
 891\H,0,3.835,20.324,42.703\H,0,3.695,22.93,44.177\H,0,5.913,23.367,43
 .947\H,0,6.299,21.735,43.482\H,0,6.007,22.196,45.243\H,0,4.557,20.617,
 45.583\H,0,2.95,20.451,44.78\H,0,3.621,22.798,46.692\H,0,3.112,21.211,
 47.12\H,0,1.244,22.739,45.207\H,0,1.429,23.268,46.839\H,0,1.31,20.203,
 46.488\H,0,-1.214,20.463,45.61\H,0,0.133,20.465,44.572\H,0,-0.591,21.9
 97,45.014\H,0,0.311,20.287,48.497\H,0,-0.824,21.594,48.073\H,0,0.723,2
 1.885,48.625\\Version=ES64L-G16RevA.03\State=1-A\HF=-3007.1723862\RMSD
 =3.758e-09\PG=C01 [X(C55H74Mg1N4O6)]\\@


    WHAT WE HAVE LEARNED
 IS LIKE A HANDFUL OF EARTH;
  WHAT WE HAVE YET TO LEARN
   IS LIKE THE WHOLE WORLD.

         -- AVVAYIAR
 Job cpu time:       0 days 11 hours 43 minutes 10.6 seconds.
 Elapsed time:       0 days  0 hours 29 minutes 49.9 seconds.
 File lengths (MBytes):  RWF=   8929 Int=      0 D2E=      0 Chk=    390 Scr=      1
 Normal termination of Gaussian 16 at Wed Apr 27 09:20:43 2022.
