 Entering Gaussian System, Link 0=g16
 Initial command:
 /sw/apps/gaussian-16.0/g16/l1.exe "/tmp/Gau-247619.inp" -scrdir="/tmp/"
 Entering Link 1 = /sw/apps/gaussian-16.0/g16/l1.exe PID=    247620.
  
 Copyright (c) 1988,1990,1992,1993,1995,1998,2003,2009,2016,
            Gaussian, Inc.  All Rights Reserved.
  
 This is part of the Gaussian(R) 16 program.  It is based on
 the Gaussian(R) 09 system (copyright 2009, Gaussian, Inc.),
 the Gaussian(R) 03 system (copyright 2003, Gaussian, Inc.),
 the Gaussian(R) 98 system (copyright 1998, Gaussian, Inc.),
 the Gaussian(R) 94 system (copyright 1995, Gaussian, Inc.),
 the Gaussian 92(TM) system (copyright 1992, Gaussian, Inc.),
 the Gaussian 90(TM) system (copyright 1990, Gaussian, Inc.),
 the Gaussian 88(TM) system (copyright 1988, Gaussian, Inc.),
 the Gaussian 86(TM) system (copyright 1986, Carnegie Mellon
 University), and the Gaussian 82(TM) system (copyright 1983,
 Carnegie Mellon University). Gaussian is a federally registered
 trademark of Gaussian, Inc.
  
 This software contains proprietary and confidential information,
 including trade secrets, belonging to Gaussian, Inc.
  
 This software is provided under written license and may be
 used, copied, transmitted, or stored only in accord with that
 written license.
  
 The following legend is applicable only to US Government
 contracts under FAR:
  
                    RESTRICTED RIGHTS LEGEND
  
 Use, reproduction and disclosure by the US Government is
 subject to restrictions as set forth in subparagraphs (a)
 and (c) of the Commercial Computer Software - Restricted
 Rights clause in FAR 52.227-19.
  
 Gaussian, Inc.
 340 Quinnipiac St., Bldg. 40, Wallingford CT 06492
  
  
 ---------------------------------------------------------------
 Warning -- This program may not be used in any manner that
 competes with the business of Gaussian, Inc. or will provide
 assistance to any competitor of Gaussian, Inc.  The licensee
 of this program is prohibited from giving any competitor of
 Gaussian, Inc. access to this program.  By using this program,
 the user acknowledges that Gaussian, Inc. is engaged in the
 business of creating and licensing software in the field of
 computational chemistry and represents and warrants to the
 licensee that it is not a competitor of Gaussian, Inc. and that
 it will not use this program in any manner prohibited above.
 ---------------------------------------------------------------
  

 Cite this work as:
 Gaussian 16, Revision A.03,
 M. J. Frisch, G. W. Trucks, H. B. Schlegel, G. E. Scuseria, 
 M. A. Robb, J. R. Cheeseman, G. Scalmani, V. Barone, 
 G. A. Petersson, H. Nakatsuji, X. Li, M. Caricato, A. V. Marenich, 
 J. Bloino, B. G. Janesko, R. Gomperts, B. Mennucci, H. P. Hratchian, 
 J. V. Ortiz, A. F. Izmaylov, J. L. Sonnenberg, D. Williams-Young, 
 F. Ding, F. Lipparini, F. Egidi, J. Goings, B. Peng, A. Petrone, 
 T. Henderson, D. Ranasinghe, V. G. Zakrzewski, J. Gao, N. Rega, 
 G. Zheng, W. Liang, M. Hada, M. Ehara, K. Toyota, R. Fukuda, 
 J. Hasegawa, M. Ishida, T. Nakajima, Y. Honda, O. Kitao, H. Nakai, 
 T. Vreven, K. Throssell, J. A. Montgomery, Jr., J. E. Peralta, 
 F. Ogliaro, M. J. Bearpark, J. J. Heyd, E. N. Brothers, K. N. Kudin, 
 V. N. Staroverov, T. A. Keith, R. Kobayashi, J. Normand, 
 K. Raghavachari, A. P. Rendell, J. C. Burant, S. S. Iyengar, 
 J. Tomasi, M. Cossi, J. M. Millam, M. Klene, C. Adamo, R. Cammi, 
 J. W. Ochterski, R. L. Martin, K. Morokuma, O. Farkas, 
 J. B. Foresman, and D. J. Fox, Gaussian, Inc., Wallingford CT, 2016.
 
 ******************************************
 Gaussian 16:  ES64L-G16RevA.03 25-Dec-2016
                 5-May-2022 
 ******************************************
 %nproc=24
 Will use up to   24 processors via shared memory.
 %mem=75GB
 ------------------------------
 #p blyp/Def2SVP td=(nstates=5)
 ------------------------------
 1/38=1,172=1/1;
 2/12=2,17=6,18=5,40=1/2;
 3/5=43,7=101,11=9,25=1,30=1,74=402/1,2,3,8;
 4//1;
 5/5=2,38=5/2;
 8/6=1,10=1,108=5/1;
 9/41=5,42=1,70=2/14;
 6/7=2,8=2,9=2,10=2/1;
 99/5=1,9=1/99;
 Leave Link    1 at Thu May  5 11:17:29 2022, MaxMem= 10066329600 cpu:               1.8 elap:               0.1
 (Enter /sw/apps/gaussian-16.0/g16/l101.exe)
 -------------------------------------------------
 step_801_chromophore_9 TDDFT with blyp functional
 -------------------------------------------------
 Symbolic Z-matrix:
 Charge =  0 Multiplicity = 1
 Mg                    35.957    1.378     29.603 
 C                     33.793    2.115     32.222 
 C                     38.586    1.307     31.828 
 C                     38.065    0.732     27.104 
 C                     33.369    1.992     27.474 
 N                     36.126    1.545     31.835 
 C                     35.082    1.846     32.705 
 C                     35.617    2.031     34.053 
 C                     37.158    2.07      33.858 
 C                     37.34     1.641     32.399 
 C                     37.845    3.35      34.213 
 C                     35.099    0.92      35.05 
 C                     34.823    1.355     36.507 
 C                     35.57     2.422     37.251 
 O                     35.398    3.637     37.127 
 O                     36.713    1.937     37.886 
 N                     38.038    0.927     29.478 
 C                     38.893    0.871     30.554 
 C                     40.251    0.37      30.066 
 C                     40.129    0.3       28.63 
 C                     38.692    0.598     28.359 
 C                     41.443    0.204     31.005 
 C                     41.257   -0.056     27.606 
 O                     41.12     0.004     26.409 
 C                     42.62    -0.507     28.203 
 N                     35.703    1.195     27.618 
 C                     36.719    1.005     26.748 
 C                     36.253    0.942     25.274 
 C                     34.725    1.203     25.422 
 C                     34.57     1.482     26.972 
 C                     36.979    1.907     24.274 
 C                     33.887    0.063     24.817 
 C                     33.171   -0.974     25.699 
 N                     34.007    2.001     29.752 
 C                     33.052    2.206     28.78 
 C                     31.732    2.481     29.348 
 C                     32.031    2.497     30.725 
 C                     33.355    2.228     30.887 
 C                     30.529    2.63      28.642 
 C                     31.453    2.732     32.034 
 O                     30.31     3.118     32.26 
 C                     32.551    2.508     33.04 
 C                     32.722    3.703     33.933 
 O                     33.073    4.765     33.52 
 O                     32.23     3.432     35.208 
 C                     32.172    4.605     36.092 
 C                     37.541    2.971     38.573 
 C                     38.672    2.33      39.387 
 C                     38.638    2.004     40.769 
 C                     37.373    2.189     41.562 
 C                     39.904    1.695     41.628 
 C                     40.295    0.229     41.62 
 C                     40.962   -0.203     42.925 
 C                     42.218   -1.024     42.835 
 C                     42.117   -2.434     43.492 
 C                     43.464   -0.297     43.418 
 C                     43.966    0.772     42.487 
 C                     44.211    2.14      43.213 
 C                     45.659    2.728     43.088 
 C                     46.662    2.        44.086 
 C                     45.729    4.277     43.375 
 C                     45.922    5.139     42.047 
 C                     44.876    6.272     41.962 
 C                     45.451    7.663     42.319 
 C                     44.538    8.587     43.124 
 C                     45.999    8.433     41.069 
 H                     39.357    1.24      32.598 
 H                     38.848    0.563     26.361 
 H                     32.541    2.124     26.774 
 H                     35.166    2.926     34.482 
 H                     37.587    1.335     34.539 
 H                     38.576    3.215     35.01 
 H                     37.261    4.145     34.675 
 H                     38.338    3.736     33.321 
 H                     35.715    0.022     35.003 
 H                     34.108    0.628     34.704 
 H                     34.952    0.414     37.042 
 H                     33.811    1.759     36.495 
 H                     42.121    0.911     30.528 
 H                     41.881   -0.791     30.927 
 H                     41.137    0.614     31.968 
 H                     43.12     0.38      28.592 
 H                     43.255   -0.926     27.423 
 H                     42.546   -1.235     29.011 
 H                     36.323   -0.084     24.914 
 H                     34.431    2.135     24.94 
 H                     37.925    2.295     24.651 
 H                     36.457    2.846     24.092 
 H                     37.211    1.296     23.402 
 H                     34.524   -0.423     24.079 
 H                     33.051    0.626     24.4 
 H                     32.121   -0.83      25.443 
 H                     33.411   -0.881     26.758 
 H                     33.328   -2.035     25.509 
 H                     30.392    1.843     27.9 
 H                     30.418    3.535     28.044 
 H                     29.795    2.546     29.443 
 H                     32.226    1.778     33.781 
 H                     31.188    4.659     36.558 
 H                     32.333    5.527     35.533 
 H                     32.971    4.553     36.831 
 H                     37.008    3.649     39.239 
 H                     38.       3.646     37.85 
 H                     39.633    2.21      38.888 
 H                     37.196    1.22      42.028 
 H                     36.486    2.451     40.984 
 H                     37.538    2.945     42.33 
 H                     39.75     2.168     42.598 
 H                     40.749    2.245     41.216 
 H                     41.084    0.082     40.882 
 H                     39.408   -0.334     41.331 
 H                     40.211   -0.731     43.512 
 H                     41.294    0.678     43.475 
 H                     42.406   -1.214     41.778 
 H                     42.084   -3.233     42.752 
 H                     41.23    -2.494     44.124 
 H                     43.008   -2.674     44.072 
 H                     44.325   -0.887     43.734 
 H                     43.186    0.081     44.402 
 H                     43.351    0.984     41.612 
 H                     44.858    0.405     41.979 
 H                     43.936    2.071     44.265 
 H                     43.652    2.895     42.66 
 H                     46.052    2.475     42.103 
 H                     47.525    1.65      43.521 
 H                     46.141    1.335     44.775 
 H                     47.12     2.718     44.766 
 H                     46.643    4.548     43.905 
 H                     44.815    4.505     43.922 
 H                     45.677    4.443     41.246 
 H                     46.925    5.537     41.895 
 H                     43.964    5.97      42.477 
 H                     44.484    6.239     40.946 
 H                     46.31     7.508     42.972 
 H                     43.669    8.026     43.467 
 H                     44.086    9.425     42.594 
 H                     45.112    8.859     44.01 
 H                     46.88     8.921     41.485 
 H                     45.258    9.045     40.555 
 H                     46.36     7.657     40.394 
 
 ITRead=  0  0  0  0  0  0  0  0  0  0  0  0  0  0  0  0  0  0  0  0
 ITRead=  0  0  0  0  0  0  0  0  0  0  0  0  0  0  0  0  0  0  0  0
 ITRead=  0  0  0  0  0  0  0  0  0  0  0  0  0  0  0  0  0  0  0  0
 ITRead=  0  0  0  0  0  0  0  0  0  0  0  0  0  0  0  0  0  0  0  0
 ITRead=  0  0  0  0  0  0  0  0  0  0  0  0  0  0  0  0  0  0  0  0
 ITRead=  0  0  0  0  0  0  0  0  0  0  0  0  0  0  0  0  0  0  0  0
 ITRead=  0  0  0  0  0  0  0  0  0  0  0  0  0  0  0  0  0  0  0  0
 MicOpt= -1 -1 -1 -1 -1 -1 -1 -1 -1 -1 -1 -1 -1 -1 -1 -1 -1 -1 -1 -1
 MicOpt= -1 -1 -1 -1 -1 -1 -1 -1 -1 -1 -1 -1 -1 -1 -1 -1 -1 -1 -1 -1
 MicOpt= -1 -1 -1 -1 -1 -1 -1 -1 -1 -1 -1 -1 -1 -1 -1 -1 -1 -1 -1 -1
 MicOpt= -1 -1 -1 -1 -1 -1 -1 -1 -1 -1 -1 -1 -1 -1 -1 -1 -1 -1 -1 -1
 MicOpt= -1 -1 -1 -1 -1 -1 -1 -1 -1 -1 -1 -1 -1 -1 -1 -1 -1 -1 -1 -1
 MicOpt= -1 -1 -1 -1 -1 -1 -1 -1 -1 -1 -1 -1 -1 -1 -1 -1 -1 -1 -1 -1
 MicOpt= -1 -1 -1 -1 -1 -1 -1 -1 -1 -1 -1 -1 -1 -1 -1 -1 -1 -1 -1 -1
 NAtoms=    140 NQM=      140 NQMF=       0 NMMI=      0 NMMIF=      0
                NMic=       0 NMicF=      0.
                    Isotopes and Nuclear Properties:
 (Nuclear quadrupole moments (NQMom) in fm**2, nuclear magnetic moments (NMagM)
  in nuclear magnetons)

  Atom         1           2           3           4           5           6           7           8           9          10
 IAtWgt=          24          12          12          12          12          14          12          12          12          12
 AtmWgt=  23.9850450  12.0000000  12.0000000  12.0000000  12.0000000  14.0030740  12.0000000  12.0000000  12.0000000  12.0000000
 NucSpn=           0           0           0           0           0           2           0           0           0           0
 AtZEff=  -0.0000000  -0.0000000  -0.0000000  -0.0000000  -0.0000000  -0.0000000  -0.0000000  -0.0000000  -0.0000000  -0.0000000
 NQMom=    0.0000000   0.0000000   0.0000000   0.0000000   0.0000000   2.0440000   0.0000000   0.0000000   0.0000000   0.0000000
 NMagM=    0.0000000   0.0000000   0.0000000   0.0000000   0.0000000   0.4037610   0.0000000   0.0000000   0.0000000   0.0000000
 AtZNuc=  12.0000000   6.0000000   6.0000000   6.0000000   6.0000000   7.0000000   6.0000000   6.0000000   6.0000000   6.0000000

  Atom        11          12          13          14          15          16          17          18          19          20
 IAtWgt=          12          12          12          12          16          16          14          12          12          12
 AtmWgt=  12.0000000  12.0000000  12.0000000  12.0000000  15.9949146  15.9949146  14.0030740  12.0000000  12.0000000  12.0000000
 NucSpn=           0           0           0           0           0           0           2           0           0           0
 AtZEff=  -0.0000000  -0.0000000  -0.0000000  -0.0000000  -0.0000000  -0.0000000  -0.0000000  -0.0000000  -0.0000000  -0.0000000
 NQMom=    0.0000000   0.0000000   0.0000000   0.0000000   0.0000000   0.0000000   2.0440000   0.0000000   0.0000000   0.0000000
 NMagM=    0.0000000   0.0000000   0.0000000   0.0000000   0.0000000   0.0000000   0.4037610   0.0000000   0.0000000   0.0000000
 AtZNuc=   6.0000000   6.0000000   6.0000000   6.0000000   8.0000000   8.0000000   7.0000000   6.0000000   6.0000000   6.0000000

  Atom        21          22          23          24          25          26          27          28          29          30
 IAtWgt=          12          12          12          16          12          14          12          12          12          12
 AtmWgt=  12.0000000  12.0000000  12.0000000  15.9949146  12.0000000  14.0030740  12.0000000  12.0000000  12.0000000  12.0000000
 NucSpn=           0           0           0           0           0           2           0           0           0           0
 AtZEff=  -0.0000000  -0.0000000  -0.0000000  -0.0000000  -0.0000000  -0.0000000  -0.0000000  -0.0000000  -0.0000000  -0.0000000
 NQMom=    0.0000000   0.0000000   0.0000000   0.0000000   0.0000000   2.0440000   0.0000000   0.0000000   0.0000000   0.0000000
 NMagM=    0.0000000   0.0000000   0.0000000   0.0000000   0.0000000   0.4037610   0.0000000   0.0000000   0.0000000   0.0000000
 AtZNuc=   6.0000000   6.0000000   6.0000000   8.0000000   6.0000000   7.0000000   6.0000000   6.0000000   6.0000000   6.0000000

  Atom        31          32          33          34          35          36          37          38          39          40
 IAtWgt=          12          12          12          14          12          12          12          12          12          12
 AtmWgt=  12.0000000  12.0000000  12.0000000  14.0030740  12.0000000  12.0000000  12.0000000  12.0000000  12.0000000  12.0000000
 NucSpn=           0           0           0           2           0           0           0           0           0           0
 AtZEff=  -0.0000000  -0.0000000  -0.0000000  -0.0000000  -0.0000000  -0.0000000  -0.0000000  -0.0000000  -0.0000000  -0.0000000
 NQMom=    0.0000000   0.0000000   0.0000000   2.0440000   0.0000000   0.0000000   0.0000000   0.0000000   0.0000000   0.0000000
 NMagM=    0.0000000   0.0000000   0.0000000   0.4037610   0.0000000   0.0000000   0.0000000   0.0000000   0.0000000   0.0000000
 AtZNuc=   6.0000000   6.0000000   6.0000000   7.0000000   6.0000000   6.0000000   6.0000000   6.0000000   6.0000000   6.0000000

  Atom        41          42          43          44          45          46          47          48          49          50
 IAtWgt=          16          12          12          16          16          12          12          12          12          12
 AtmWgt=  15.9949146  12.0000000  12.0000000  15.9949146  15.9949146  12.0000000  12.0000000  12.0000000  12.0000000  12.0000000
 NucSpn=           0           0           0           0           0           0           0           0           0           0
 AtZEff=  -0.0000000  -0.0000000  -0.0000000  -0.0000000  -0.0000000  -0.0000000  -0.0000000  -0.0000000  -0.0000000  -0.0000000
 NQMom=    0.0000000   0.0000000   0.0000000   0.0000000   0.0000000   0.0000000   0.0000000   0.0000000   0.0000000   0.0000000
 NMagM=    0.0000000   0.0000000   0.0000000   0.0000000   0.0000000   0.0000000   0.0000000   0.0000000   0.0000000   0.0000000
 AtZNuc=   8.0000000   6.0000000   6.0000000   8.0000000   8.0000000   6.0000000   6.0000000   6.0000000   6.0000000   6.0000000

  Atom        51          52          53          54          55          56          57          58          59          60
 IAtWgt=          12          12          12          12          12          12          12          12          12          12
 AtmWgt=  12.0000000  12.0000000  12.0000000  12.0000000  12.0000000  12.0000000  12.0000000  12.0000000  12.0000000  12.0000000
 NucSpn=           0           0           0           0           0           0           0           0           0           0
 AtZEff=  -0.0000000  -0.0000000  -0.0000000  -0.0000000  -0.0000000  -0.0000000  -0.0000000  -0.0000000  -0.0000000  -0.0000000
 NQMom=    0.0000000   0.0000000   0.0000000   0.0000000   0.0000000   0.0000000   0.0000000   0.0000000   0.0000000   0.0000000
 NMagM=    0.0000000   0.0000000   0.0000000   0.0000000   0.0000000   0.0000000   0.0000000   0.0000000   0.0000000   0.0000000
 AtZNuc=   6.0000000   6.0000000   6.0000000   6.0000000   6.0000000   6.0000000   6.0000000   6.0000000   6.0000000   6.0000000

  Atom        61          62          63          64          65          66          67          68          69          70
 IAtWgt=          12          12          12          12          12          12           1           1           1           1
 AtmWgt=  12.0000000  12.0000000  12.0000000  12.0000000  12.0000000  12.0000000   1.0078250   1.0078250   1.0078250   1.0078250
 NucSpn=           0           0           0           0           0           0           1           1           1           1
 AtZEff=  -0.0000000  -0.0000000  -0.0000000  -0.0000000  -0.0000000  -0.0000000  -0.0000000  -0.0000000  -0.0000000  -0.0000000
 NQMom=    0.0000000   0.0000000   0.0000000   0.0000000   0.0000000   0.0000000   0.0000000   0.0000000   0.0000000   0.0000000
 NMagM=    0.0000000   0.0000000   0.0000000   0.0000000   0.0000000   0.0000000   2.7928460   2.7928460   2.7928460   2.7928460
 AtZNuc=   6.0000000   6.0000000   6.0000000   6.0000000   6.0000000   6.0000000   1.0000000   1.0000000   1.0000000   1.0000000

  Atom        71          72          73          74          75          76          77          78          79          80
 IAtWgt=           1           1           1           1           1           1           1           1           1           1
 AtmWgt=   1.0078250   1.0078250   1.0078250   1.0078250   1.0078250   1.0078250   1.0078250   1.0078250   1.0078250   1.0078250
 NucSpn=           1           1           1           1           1           1           1           1           1           1
 AtZEff=  -0.0000000  -0.0000000  -0.0000000  -0.0000000  -0.0000000  -0.0000000  -0.0000000  -0.0000000  -0.0000000  -0.0000000
 NQMom=    0.0000000   0.0000000   0.0000000   0.0000000   0.0000000   0.0000000   0.0000000   0.0000000   0.0000000   0.0000000
 NMagM=    2.7928460   2.7928460   2.7928460   2.7928460   2.7928460   2.7928460   2.7928460   2.7928460   2.7928460   2.7928460
 AtZNuc=   1.0000000   1.0000000   1.0000000   1.0000000   1.0000000   1.0000000   1.0000000   1.0000000   1.0000000   1.0000000

  Atom        81          82          83          84          85          86          87          88          89          90
 IAtWgt=           1           1           1           1           1           1           1           1           1           1
 AtmWgt=   1.0078250   1.0078250   1.0078250   1.0078250   1.0078250   1.0078250   1.0078250   1.0078250   1.0078250   1.0078250
 NucSpn=           1           1           1           1           1           1           1           1           1           1
 AtZEff=  -0.0000000  -0.0000000  -0.0000000  -0.0000000  -0.0000000  -0.0000000  -0.0000000  -0.0000000  -0.0000000  -0.0000000
 NQMom=    0.0000000   0.0000000   0.0000000   0.0000000   0.0000000   0.0000000   0.0000000   0.0000000   0.0000000   0.0000000
 NMagM=    2.7928460   2.7928460   2.7928460   2.7928460   2.7928460   2.7928460   2.7928460   2.7928460   2.7928460   2.7928460
 AtZNuc=   1.0000000   1.0000000   1.0000000   1.0000000   1.0000000   1.0000000   1.0000000   1.0000000   1.0000000   1.0000000

  Atom        91          92          93          94          95          96          97          98          99         100
 IAtWgt=           1           1           1           1           1           1           1           1           1           1
 AtmWgt=   1.0078250   1.0078250   1.0078250   1.0078250   1.0078250   1.0078250   1.0078250   1.0078250   1.0078250   1.0078250
 NucSpn=           1           1           1           1           1           1           1           1           1           1
 AtZEff=  -0.0000000  -0.0000000  -0.0000000  -0.0000000  -0.0000000  -0.0000000  -0.0000000  -0.0000000  -0.0000000  -0.0000000
 NQMom=    0.0000000   0.0000000   0.0000000   0.0000000   0.0000000   0.0000000   0.0000000   0.0000000   0.0000000   0.0000000
 NMagM=    2.7928460   2.7928460   2.7928460   2.7928460   2.7928460   2.7928460   2.7928460   2.7928460   2.7928460   2.7928460
 AtZNuc=   1.0000000   1.0000000   1.0000000   1.0000000   1.0000000   1.0000000   1.0000000   1.0000000   1.0000000   1.0000000

  Atom       101         102         103         104         105         106         107         108         109         110
 IAtWgt=           1           1           1           1           1           1           1           1           1           1
 AtmWgt=   1.0078250   1.0078250   1.0078250   1.0078250   1.0078250   1.0078250   1.0078250   1.0078250   1.0078250   1.0078250
 NucSpn=           1           1           1           1           1           1           1           1           1           1
 AtZEff=  -0.0000000  -0.0000000  -0.0000000  -0.0000000  -0.0000000  -0.0000000  -0.0000000  -0.0000000  -0.0000000  -0.0000000
 NQMom=    0.0000000   0.0000000   0.0000000   0.0000000   0.0000000   0.0000000   0.0000000   0.0000000   0.0000000   0.0000000
 NMagM=    2.7928460   2.7928460   2.7928460   2.7928460   2.7928460   2.7928460   2.7928460   2.7928460   2.7928460   2.7928460
 AtZNuc=   1.0000000   1.0000000   1.0000000   1.0000000   1.0000000   1.0000000   1.0000000   1.0000000   1.0000000   1.0000000

  Atom       111         112         113         114         115         116         117         118         119         120
 IAtWgt=           1           1           1           1           1           1           1           1           1           1
 AtmWgt=   1.0078250   1.0078250   1.0078250   1.0078250   1.0078250   1.0078250   1.0078250   1.0078250   1.0078250   1.0078250
 NucSpn=           1           1           1           1           1           1           1           1           1           1
 AtZEff=  -0.0000000  -0.0000000  -0.0000000  -0.0000000  -0.0000000  -0.0000000  -0.0000000  -0.0000000  -0.0000000  -0.0000000
 NQMom=    0.0000000   0.0000000   0.0000000   0.0000000   0.0000000   0.0000000   0.0000000   0.0000000   0.0000000   0.0000000
 NMagM=    2.7928460   2.7928460   2.7928460   2.7928460   2.7928460   2.7928460   2.7928460   2.7928460   2.7928460   2.7928460
 AtZNuc=   1.0000000   1.0000000   1.0000000   1.0000000   1.0000000   1.0000000   1.0000000   1.0000000   1.0000000   1.0000000

  Atom       121         122         123         124         125         126         127         128         129         130
 IAtWgt=           1           1           1           1           1           1           1           1           1           1
 AtmWgt=   1.0078250   1.0078250   1.0078250   1.0078250   1.0078250   1.0078250   1.0078250   1.0078250   1.0078250   1.0078250
 NucSpn=           1           1           1           1           1           1           1           1           1           1
 AtZEff=  -0.0000000  -0.0000000  -0.0000000  -0.0000000  -0.0000000  -0.0000000  -0.0000000  -0.0000000  -0.0000000  -0.0000000
 NQMom=    0.0000000   0.0000000   0.0000000   0.0000000   0.0000000   0.0000000   0.0000000   0.0000000   0.0000000   0.0000000
 NMagM=    2.7928460   2.7928460   2.7928460   2.7928460   2.7928460   2.7928460   2.7928460   2.7928460   2.7928460   2.7928460
 AtZNuc=   1.0000000   1.0000000   1.0000000   1.0000000   1.0000000   1.0000000   1.0000000   1.0000000   1.0000000   1.0000000

  Atom       131         132         133         134         135         136         137         138         139         140
 IAtWgt=           1           1           1           1           1           1           1           1           1           1
 AtmWgt=   1.0078250   1.0078250   1.0078250   1.0078250   1.0078250   1.0078250   1.0078250   1.0078250   1.0078250   1.0078250
 NucSpn=           1           1           1           1           1           1           1           1           1           1
 AtZEff=  -0.0000000  -0.0000000  -0.0000000  -0.0000000  -0.0000000  -0.0000000  -0.0000000  -0.0000000  -0.0000000  -0.0000000
 NQMom=    0.0000000   0.0000000   0.0000000   0.0000000   0.0000000   0.0000000   0.0000000   0.0000000   0.0000000   0.0000000
 NMagM=    2.7928460   2.7928460   2.7928460   2.7928460   2.7928460   2.7928460   2.7928460   2.7928460   2.7928460   2.7928460
 AtZNuc=   1.0000000   1.0000000   1.0000000   1.0000000   1.0000000   1.0000000   1.0000000   1.0000000   1.0000000   1.0000000
 Leave Link  101 at Thu May  5 11:17:29 2022, MaxMem= 10066329600 cpu:               3.5 elap:               0.2
 (Enter /sw/apps/gaussian-16.0/g16/l202.exe)
 Stoichiometry    C55H74MgN4O6
 Framework group  C1[X(C55H74MgN4O6)]
 Deg. of freedom   414
 Full point group                 C1      NOp   1
 Largest Abelian subgroup         C1      NOp   1
 Largest concise Abelian subgroup C1      NOp   1
                         Standard orientation:                         
 ---------------------------------------------------------------------
 Center     Atomic      Atomic             Coordinates (Angstroms)
 Number     Number       Type             X           Y           Z
 ---------------------------------------------------------------------
      1         12           0       -5.217661    0.778759   -0.029712
      2          6           0       -4.016831   -2.483537   -0.003990
      3          6           0       -1.980701    1.942488   -0.217140
      4          6           0       -6.335666    3.917986    0.006301
      5          6           0       -8.297460   -0.495577    0.676186
      6          7           0       -3.209976   -0.201423   -0.245855
      7          6           0       -2.971871   -1.572516   -0.216757
      8          6           0       -1.529359   -1.810651   -0.219167
      9          6           0       -0.903163   -0.408353    0.016770
     10          6           0       -2.097810    0.539739   -0.123895
     11          6           0       -0.120729   -0.228851    1.278503
     12          6           0       -1.054787   -2.539383   -1.538403
     13          6           0        0.090644   -3.567724   -1.401458
     14          6           0        1.214423   -3.489087   -0.411019
     15          8           0        1.142007   -3.795372    0.781513
     16          8           0        2.292772   -2.737854   -0.877614
     17          7           0       -4.304331    2.696025   -0.228472
     18          6           0       -2.954217    2.907746   -0.384366
     19          6           0       -2.725654    4.395597   -0.643915
     20          6           0       -4.020387    5.008109   -0.469629
     21          6           0       -4.957302    3.861740   -0.281898
     22          6           0       -1.330953    4.981735   -0.847370
     23          6           0       -4.352401    6.536275   -0.516226
     24          8           0       -5.437888    6.995273   -0.258900
     25          6           0       -3.190483    7.487528   -0.919514
     26          7           0       -7.059691    1.568313    0.117805
     27          6           0       -7.301034    2.895397    0.194337
     28          6           0       -8.803552    3.231982    0.345837
     29          6           0       -9.433218    1.809379    0.413138
     30          6           0       -8.162095    0.866917    0.393711
     31          6           0       -9.188819    4.166005    1.544783
     32          6           0      -10.492261    1.598274   -0.683096
     33          6           0      -10.209757    0.743674   -1.930413
     34          7           0       -6.026278   -1.069789    0.346907
     35          6           0       -7.323942   -1.444770    0.619470
     36          6           0       -7.487381   -2.898435    0.647698
     37          6           0       -6.157798   -3.321329    0.449817
     38          6           0       -5.368825   -2.223137    0.297907
     39          6           0       -8.690597   -3.605067    0.791872
     40          6           0       -5.313202   -4.498321    0.385493
     41          8           0       -5.666778   -5.653595    0.601936
     42          6           0       -3.915238   -4.014641    0.103420
     43          6           0       -2.946328   -4.523329    1.131604
     44          8           0       -3.012957   -4.214321    2.281251
     45          8           0       -2.137295   -5.518541    0.587407
     46          6           0       -1.295465   -6.214064    1.571439
     47          6           0        3.406073   -2.556235    0.099261
     48          6           0        4.615426   -1.874665   -0.553093
     49          6           0        5.744667   -2.521868   -1.121685
     50          6           0        5.792370   -4.022594   -1.215747
     51          6           0        7.094689   -1.807488   -1.442965
     52          6           0        7.141474   -1.204260   -2.834377
     53          6           0        8.553194   -1.196848   -3.418783
     54          6           0        9.037176    0.067024   -4.073051
     55          6           0        9.405177   -0.085303   -5.580141
     56          6           0       10.244990    0.711682   -3.333770
     57          6           0        9.814348    1.402045   -2.069067
     58          6           0       10.695924    1.006912   -0.834070
     59          6           0       11.389115    2.196015   -0.083342
     60          6           0       12.681266    2.694057   -0.867115
     61          6           0       11.824628    1.834015    1.388376
     62          6           0       10.876404    2.493070    2.488555
     63          6           0       10.381757    1.437407    3.501437
     64          6           0       11.119669    1.500304    4.859555
     65          6           0       11.431616    0.159733    5.523579
     66          6           0       10.410496    2.440479    5.893407
     67          1           0       -0.935778    2.234569   -0.338200
     68          1           0       -6.585795    4.980367    0.056110
     69          1           0       -9.305330   -0.882355    0.842342
     70          1           0       -1.304687   -2.567789    0.532320
     71          1           0       -0.175974   -0.243041   -0.778148
     72          1           0        0.919965    0.028231    1.081877
     73          1           0        0.054038   -1.097412    1.912209
     74          1           0       -0.590954    0.558631    1.867120
     75          1           0       -0.869361   -1.828258   -2.343379
     76          1           0       -1.886395   -3.161714   -1.867330
     77          1           0        0.519129   -3.549250   -2.403659
     78          1           0       -0.397166   -4.497927   -1.111168
     79          1           0       -1.320309    5.665303    0.000972
     80          1           0       -1.272774    5.573896   -1.760559
     81          1           0       -0.624891    4.174476   -0.650101
     82          1           0       -2.514018    7.562233   -0.068101
     83          1           0       -3.572913    8.487219   -1.123357
     84          1           0       -2.611664    7.160485   -1.783421
     85          1           0       -9.177436    3.654241   -0.586410
     86          1           0       -9.901826    1.625888    1.379638
     87          1           0       -8.344197    4.717361    1.957347
     88          1           0       -9.517437    3.639822    2.440590
     89          1           0       -9.875193    4.902037    1.126840
     90          1           0      -10.844526    2.591239   -0.959753
     91          1           0      -11.219679    0.987779   -0.146521
     92          1           0      -10.951196   -0.052167   -1.855063
     93          1           0       -9.174016    0.412371   -2.002587
     94          1           0      -10.397556    1.163133   -2.917964
     95          1           0       -9.472490   -3.215418    0.139553
     96          1           0       -9.167224   -3.570785    1.771975
     97          1           0       -8.391184   -4.608201    0.489407
     98          1           0       -3.522251   -4.522475   -0.777075
     99          1           0       -1.396057   -7.291181    1.437174
    100          1           0       -1.597905   -5.970085    2.590011
    101          1           0       -0.261164   -5.885639    1.473536
    102          1           0        3.769316   -3.460076    0.587578
    103          1           0        3.091530   -1.933002    0.936923
    104          1           0        4.669493   -0.789008   -0.479955
    105          1           0        6.002570   -4.226105   -2.265435
    106          1           0        4.871394   -4.543052   -0.950375
    107          1           0        6.607680   -4.395490   -0.595422
    108          1           0        7.890813   -2.500017   -1.169224
    109          1           0        7.230577   -0.984919   -0.742120
    110          1           0        6.900881   -0.143205   -2.763300
    111          1           0        6.384648   -1.716698   -3.427572
    112          1           0        8.616936   -2.029040   -4.119317
    113          1           0        9.280453   -1.343195   -2.619683
    114          1           0        8.212500    0.779841   -4.050839
    115          1           0        8.677019    0.394209   -6.233551
    116          1           0        9.484481   -1.140402   -5.845226
    117          1           0       10.332106    0.433595   -5.823923
    118          1           0       10.896324    1.397893   -3.876132
    119          1           0       10.980104   -0.076192   -3.168584
    120          1           0        8.774164    1.268122   -1.770949
    121          1           0        9.800738    2.478095   -2.243272
    122          1           0       11.445925    0.269359   -1.117981
    123          1           0       10.013418    0.664402   -0.056132
    124          1           0       10.724498    3.059747   -0.113892
    125          1           0       12.605875    3.770236   -1.017608
    126          1           0       12.936065    2.032815   -1.695500
    127          1           0       13.567648    2.620986   -0.237293
    128          1           0       12.771731    2.304324    1.655850
    129          1           0       11.846366    0.745310    1.417323
    130          1           0        9.997988    2.803051    1.924340
    131          1           0       11.299818    3.350485    3.011122
    132          1           0       10.324248    0.462241    3.017786
    133          1           0        9.310909    1.607160    3.608570
    134          1           0       12.101003    1.940720    4.682547
    135          1           0       11.223470   -0.647483    4.821719
    136          1           0       10.831792   -0.117883    6.389945
    137          1           0       12.508571    0.165505    5.692669
    138          1           0       11.265121    2.899162    6.389981
    139          1           0        9.653828    1.949631    6.505243
    140          1           0        9.941749    3.219870    5.292617
 ---------------------------------------------------------------------
 Rotational constants (GHZ):           0.0394204           0.0107729           0.0095252
 Leave Link  202 at Thu May  5 11:17:29 2022, MaxMem= 10066329600 cpu:               0.5 elap:               0.0
 (Enter /sw/apps/gaussian-16.0/g16/l301.exe)
 Standard basis: def2SVP (5D, 7F)
 Ernie: Thresh=  0.10000D-02 Tol=  0.10000D-05 Strict=F.
 There are  1364 symmetry adapted cartesian basis functions of A   symmetry.
 There are  1298 symmetry adapted basis functions of A   symmetry.
  1298 basis functions,  2180 primitive gaussians,  1364 cartesian basis functions
   246 alpha electrons      246 beta electrons
       nuclear repulsion energy      9588.9200780949 Hartrees.
 IExCor=  402 DFT=T Ex=B Corr=LYP ExCW=0 ScaHFX=  0.000000
 ScaDFX=  1.000000  1.000000  1.000000  1.000000 ScalE2=  1.000000  1.000000
 IRadAn=      5 IRanWt=     -1 IRanGd=            0 ICorTp=0 IEmpDi=  4
 NAtoms=  140 NActive=  140 NUniq=  140 SFac= 1.00D+00 NAtFMM=   60 NAOKFM=T Big=T
 Integral buffers will be    131072 words long.
 Regular integral format.
 Two-electron integral symmetry is turned on.
 Leave Link  301 at Thu May  5 11:17:29 2022, MaxMem= 10066329600 cpu:               1.3 elap:               0.1
 (Enter /sw/apps/gaussian-16.0/g16/l302.exe)
 NPDir=0 NMtPBC=     1 NCelOv=     1 NCel=       1 NClECP=     1 NCelD=      1
         NCelK=      1 NCelE2=     1 NClLst=     1 CellRange=     0.0.
 One-electron integrals computed using PRISM.
 One-electron integral symmetry used in STVInt
   1 Symmetry operations used in ECPInt.
 ECPInt:  NShTT=  192510 NPrTT=  683786 LenC2=   94323 LenP2D=  206551.
 LDataN:  DoStor=T MaxTD1= 4 Len=   56
 NBasis=  1298 RedAO= T EigKep=  2.69D-04  NBF=  1298
 NBsUse=  1298 1.00D-06 EigRej= -1.00D+00 NBFU=  1298
 Precomputing XC quadrature grid using
 IXCGrd= 4 IRadAn=           5 IRanWt=          -1 IRanGd=           0 AccXCQ= 0.00D+00.
 Generated NRdTot=       0 NPtTot=           0 NUsed=           0 NTot=          32
 NSgBfM=  1083  1079  1079  1080  1083 MxSgAt=   140 MxSgA2=   140.
 Leave Link  302 at Thu May  5 11:17:33 2022, MaxMem= 10066329600 cpu:             100.8 elap:               4.2
 (Enter /sw/apps/gaussian-16.0/g16/l303.exe)
 DipDrv:  MaxL=1.
 Leave Link  303 at Thu May  5 11:17:34 2022, MaxMem= 10066329600 cpu:               7.8 elap:               0.4
 (Enter /sw/apps/gaussian-16.0/g16/l308.exe)
 Leave Link  308 at Thu May  5 11:17:34 2022, MaxMem= 10066329600 cpu:               8.3 elap:               0.4
 (Enter /sw/apps/gaussian-16.0/g16/l401.exe)
 ExpMin= 3.36D-02 ExpMax= 4.95D+03 ExpMxC= 7.45D+02 IAcc=3 IRadAn=         5 AccDes= 0.00D+00
 Harris functional with IExCor=  402 and IRadAn=       5 diagonalized for initial guess.
 HarFok:  IExCor=  402 AccDes= 0.00D+00 IRadAn=         5 IDoV= 1 UseB2=F ITyADJ=14
 ICtDFT=  3500011 ScaDFX=  1.000000  1.000000  1.000000  1.000000
 FoFCou: FMM=F IPFlag=           0 FMFlag=      100000 FMFlg1=        2001
         NFxFlg=           0 DoJE=T BraDBF=F KetDBF=T FulRan=T
         wScrn=  0.000000 ICntrl=       500 IOpCl=  0 I1Cent=   200000004 NGrid=           0
         NMat0=    1 NMatS0=      1 NMatT0=    0 NMatD0=    1 NMtDS0=    0 NMtDT0=    0
 Petite list used in FoFCou.
 Harris En= -3008.76458409600    
 JPrj=0 DoOrth=F DoCkMO=F.
 Leave Link  401 at Thu May  5 11:17:41 2022, MaxMem= 10066329600 cpu:             166.6 elap:               7.0
 (Enter /sw/apps/gaussian-16.0/g16/l502.exe)
 Integral symmetry usage will be decided dynamically.
 Closed shell SCF:
 Using DIIS extrapolation, IDIIS=  1040.
 NGot= 10066329600 LenX= 10062561258 LenY= 10060699398
 Requested convergence on RMS density matrix=1.00D-08 within 128 cycles.
 Requested convergence on MAX density matrix=1.00D-06.
 Requested convergence on             energy=1.00D-06.
 No special actions if energy rises.
 Fock matrices will be formed incrementally for  20 cycles.

 Cycle   1  Pass 1  IDiag  1:
 FoFJK:  IHMeth= 1 ICntrl=     500 DoSepK=F KAlg= 0 I1Cent=           0 FoldK=F
 IRaf= 510000000 NMat=       1 IRICut=       1 DoRegI=T DoRafI=F ISym2E= 0 IDoP0=0 IntGTp=1.
 FoFCou: FMM=T IPFlag=           0 FMFlag=      100000 FMFlg1=        2001
         NFxFlg=           0 DoJE=T BraDBF=F KetDBF=F FulRan=T
         wScrn=  0.000000 ICntrl=       500 IOpCl=  0 I1Cent=           0 NGrid=           0
         NMat0=    1 NMatS0=      1 NMatT0=    0 NMatD0=    1 NMtDS0=    0 NMtDT0=    0
 Symmetry not used in FoFCou.
 FMM levels:  10  Number of levels for PrismC:   9
 E= -3005.64101656469    
 DIIS: error= 2.93D-02 at cycle   1 NSaved=   1.
 NSaved= 1 IEnMin= 1 EnMin= -3005.64101656469     IErMin= 1 ErrMin= 2.93D-02
 ErrMax= 2.93D-02  0.00D+00 EMaxC= 1.00D-01 BMatC= 1.56D+00 BMatP= 1.56D+00
 IDIUse=3 WtCom= 7.07D-01 WtEn= 2.93D-01
 Coeff-Com:  0.100D+01
 Coeff-En:   0.100D+01
 Coeff:      0.100D+01
 Gap=     0.025 Goal=   None    Shift=    0.000
 GapD=    0.025 DampG=0.250 DampE=0.500 DampFc=0.2500 IDamp=-1.
 Damping current iteration by 2.50D-01
 RMSDP=3.76D-03 MaxDP=3.87D-01              OVMax= 8.31D-01

 Cycle   2  Pass 1  IDiag  1:
 RMSU=  9.35D-04    CP:  9.89D-01
 E= -3006.14095281329     Delta-E=       -0.499936248600 Rises=F Damp=T
 DIIS: error= 1.06D-02 at cycle   2 NSaved=   2.
 NSaved= 2 IEnMin= 2 EnMin= -3006.14095281329     IErMin= 2 ErrMin= 1.06D-02
 ErrMax= 1.06D-02  0.00D+00 EMaxC= 1.00D-01 BMatC= 2.61D-01 BMatP= 1.56D+00
 IDIUse=3 WtCom= 8.94D-01 WtEn= 1.06D-01
 Coeff-Com: -0.294D+00 0.129D+01
 Coeff-En:   0.968D-01 0.903D+00
 Coeff:     -0.252D+00 0.125D+01
 Gap=     0.053 Goal=   None    Shift=    0.000
 RMSDP=1.74D-03 MaxDP=2.87D-01 DE=-5.00D-01 OVMax= 6.89D-01

 Cycle   3  Pass 1  IDiag  1:
 RMSU=  1.71D-03    CP:  9.65D-01  1.22D+00
 E= -3003.98246250597     Delta-E=        2.158490307320 Rises=F Damp=F
 DIIS: error= 4.64D-02 at cycle   3 NSaved=   3.
 NSaved= 3 IEnMin= 2 EnMin= -3006.14095281329     IErMin= 2 ErrMin= 1.06D-02
 ErrMax= 4.64D-02  0.00D+00 EMaxC= 1.00D-01 BMatC= 2.05D+00 BMatP= 2.61D-01
 IDIUse=2 WtCom= 0.00D+00 WtEn= 1.00D+00
 Coeff-En:   0.000D+00 0.779D+00 0.221D+00
 Coeff:      0.000D+00 0.779D+00 0.221D+00
 Gap=    -0.085 Goal=   None    Shift=    0.000
 RMSDP=2.19D-03 MaxDP=3.84D-01 DE= 2.16D+00 OVMax= 8.75D-01

 Cycle   4  Pass 1  IDiag  1:
 RMSU=  1.20D-03    CP:  9.63D-01  1.93D+00  2.03D-03
 E= -3004.36282997820     Delta-E=       -0.380367472237 Rises=F Damp=F
 DIIS: error= 3.47D-02 at cycle   4 NSaved=   4.
 NSaved= 4 IEnMin= 2 EnMin= -3006.14095281329     IErMin= 2 ErrMin= 1.06D-02
 ErrMax= 3.47D-02  0.00D+00 EMaxC= 1.00D-01 BMatC= 1.48D+00 BMatP= 2.61D-01
 IDIUse=2 WtCom= 0.00D+00 WtEn= 1.00D+00
 EnCoef did     2 forward-backward iterations
 Coeff-En:   0.180D+00 0.837D-04 0.382D+00 0.437D+00
 Coeff:      0.180D+00 0.837D-04 0.382D+00 0.437D+00
 Gap=    -0.164 Goal=   None    Shift=    0.000
 RMSDP=2.04D-03 MaxDP=2.90D-01 DE=-3.80D-01 OVMax= 9.76D-01

 Cycle   5  Pass 1  IDiag  1:
 RMSU=  1.42D-03    CP:  9.73D-01  1.15D+00  1.47D-01 -3.12D-02
 E= -3005.05477427384     Delta-E=       -0.691944295633 Rises=F Damp=F
 DIIS: error= 5.64D-02 at cycle   5 NSaved=   5.
 NSaved= 5 IEnMin= 2 EnMin= -3006.14095281329     IErMin= 2 ErrMin= 1.06D-02
 ErrMax= 5.64D-02  0.00D+00 EMaxC= 1.00D-01 BMatC= 1.41D+00 BMatP= 2.61D-01
 IDIUse=2 WtCom= 0.00D+00 WtEn= 1.00D+00
 EnCoef did     4 forward-backward iterations
 Coeff-En:   0.119D+00 0.677D-04 0.310D+00 0.388D+00 0.183D+00
 Coeff:      0.119D+00 0.677D-04 0.310D+00 0.388D+00 0.183D+00
 Gap=     0.047 Goal=   None    Shift=    0.000
 RMSDP=1.28D-03 MaxDP=3.70D-01 DE=-6.92D-01 OVMax= 5.86D-01

 Cycle   6  Pass 1  IDiag  1:
 RMSU=  6.56D-04    CP:  9.77D-01  9.45D-01  2.38D-01  8.12D-02  2.49D-01
 E= -3007.16605133880     Delta-E=       -2.111277064963 Rises=F Damp=F
 DIIS: error= 2.14D-02 at cycle   6 NSaved=   6.
 NSaved= 6 IEnMin= 6 EnMin= -3007.16605133880     IErMin= 2 ErrMin= 1.06D-02
 ErrMax= 2.14D-02  0.00D+00 EMaxC= 1.00D-01 BMatC= 1.94D-01 BMatP= 2.61D-01
 IDIUse=3 WtCom= 7.86D-01 WtEn= 2.14D-01
 EnCoef did     2 forward-backward iterations
 Coeff-Com: -0.107D+00 0.423D+00 0.130D+00 0.124D+00 0.839D-01 0.345D+00
 Coeff-En:   0.000D+00 0.000D+00 0.000D+00 0.673D-01 0.105D+00 0.827D+00
 Coeff:     -0.837D-01 0.333D+00 0.102D+00 0.112D+00 0.885D-01 0.448D+00
 Gap=     0.036 Goal=   None    Shift=    0.000
 RMSDP=8.13D-04 MaxDP=1.43D-01 DE=-2.11D+00 OVMax= 3.87D-01

 Cycle   7  Pass 1  IDiag  1:
 RMSU=  6.56D-04    CP:  9.73D-01  1.22D+00  2.06D-01  2.65D-01  1.25D-01
                    CP:  5.68D-01
 E= -3007.14144894312     Delta-E=        0.024602395682 Rises=F Damp=F
 DIIS: error= 1.16D-02 at cycle   7 NSaved=   7.
 NSaved= 7 IEnMin= 6 EnMin= -3007.16605133880     IErMin= 2 ErrMin= 1.06D-02
 ErrMax= 1.16D-02  0.00D+00 EMaxC= 1.00D-01 BMatC= 2.07D-01 BMatP= 1.94D-01
 IDIUse=3 WtCom= 8.84D-01 WtEn= 1.16D-01
 EnCoef did     3 forward-backward iterations
 Coeff-Com: -0.182D+00 0.380D+00 0.172D-01-0.187D-01 0.438D-01 0.407D+00
 Coeff-Com:  0.353D+00
 Coeff-En:   0.000D+00 0.000D+00 0.000D+00 0.000D+00 0.251D-01 0.520D+00
 Coeff-En:   0.454D+00
 Coeff:     -0.161D+00 0.336D+00 0.152D-01-0.166D-01 0.416D-01 0.420D+00
 Coeff:      0.365D+00
 Gap=     0.038 Goal=   None    Shift=    0.000
 RMSDP=6.53D-04 MaxDP=1.12D-01 DE= 2.46D-02 OVMax= 4.12D-01

 Cycle   8  Pass 1  IDiag  1:
 RMSU=  3.54D-04    CP:  9.76D-01  1.14D+00  2.18D-01  5.87D-02  2.76D-01
                    CP:  8.98D-01  4.31D-01
 E= -3007.33048363110     Delta-E=       -0.189034687985 Rises=F Damp=F
 DIIS: error= 3.89D-03 at cycle   8 NSaved=   8.
 NSaved= 8 IEnMin= 8 EnMin= -3007.33048363110     IErMin= 8 ErrMin= 3.89D-03
 ErrMax= 3.89D-03  0.00D+00 EMaxC= 1.00D-01 BMatC= 2.38D-02 BMatP= 1.94D-01
 IDIUse=3 WtCom= 9.61D-01 WtEn= 3.89D-02
 Coeff-Com: -0.119D+00 0.233D+00-0.138D-02-0.149D-01 0.233D-01 0.262D+00
 Coeff-Com:  0.276D+00 0.340D+00
 Coeff-En:   0.000D+00 0.000D+00 0.000D+00 0.000D+00 0.000D+00 0.000D+00
 Coeff-En:   0.182D+00 0.818D+00
 Coeff:     -0.114D+00 0.224D+00-0.133D-02-0.144D-01 0.224D-01 0.252D+00
 Coeff:      0.272D+00 0.359D+00
 Gap=     0.040 Goal=   None    Shift=    0.000
 RMSDP=3.04D-04 MaxDP=3.64D-02 DE=-1.89D-01 OVMax= 2.19D-01

 Cycle   9  Pass 1  IDiag  1:
 RMSU=  1.55D-04    CP:  9.76D-01  1.16D+00  1.87D-01  1.19D-01  2.46D-01
                    CP:  8.54D-01  5.65D-01  3.70D-01
 E= -3007.35377787083     Delta-E=       -0.023294239729 Rises=F Damp=F
 DIIS: error= 2.19D-03 at cycle   9 NSaved=   9.
 NSaved= 9 IEnMin= 9 EnMin= -3007.35377787083     IErMin= 9 ErrMin= 2.19D-03
 ErrMax= 2.19D-03  0.00D+00 EMaxC= 1.00D-01 BMatC= 8.71D-03 BMatP= 2.38D-02
 IDIUse=3 WtCom= 9.78D-01 WtEn= 2.19D-02
 Coeff-Com: -0.494D-01 0.102D+00-0.319D-02-0.470D-02 0.519D-02 0.782D-01
 Coeff-Com:  0.121D+00 0.350D+00 0.401D+00
 Coeff-En:   0.000D+00 0.000D+00 0.000D+00 0.000D+00 0.000D+00 0.000D+00
 Coeff-En:   0.000D+00 0.316D+00 0.684D+00
 Coeff:     -0.483D-01 0.999D-01-0.312D-02-0.459D-02 0.508D-02 0.765D-01
 Coeff:      0.118D+00 0.349D+00 0.408D+00
 Gap=     0.043 Goal=   None    Shift=    0.000
 RMSDP=1.45D-04 MaxDP=1.31D-02 DE=-2.33D-02 OVMax= 8.64D-02

 Cycle  10  Pass 1  IDiag  1:
 RMSU=  6.41D-05    CP:  9.76D-01  1.16D+00  1.96D-01  1.04D-01  2.43D-01
                    CP:  8.70D-01  5.45D-01  6.20D-01  4.21D-01
 E= -3007.36320982264     Delta-E=       -0.009431951810 Rises=F Damp=F
 DIIS: error= 7.66D-04 at cycle  10 NSaved=  10.
 NSaved=10 IEnMin=10 EnMin= -3007.36320982264     IErMin=10 ErrMin= 7.66D-04
 ErrMax= 7.66D-04  0.00D+00 EMaxC= 1.00D-01 BMatC= 1.67D-03 BMatP= 8.71D-03
 IDIUse=3 WtCom= 9.92D-01 WtEn= 7.66D-03
 Coeff-Com: -0.168D-01 0.393D-01-0.314D-02 0.119D-02-0.126D-02 0.354D-02
 Coeff-Com:  0.329D-01 0.224D+00 0.343D+00 0.378D+00
 Coeff-En:   0.000D+00 0.000D+00 0.000D+00 0.000D+00 0.000D+00 0.000D+00
 Coeff-En:   0.000D+00 0.000D+00 0.172D+00 0.828D+00
 Coeff:     -0.166D-01 0.390D-01-0.312D-02 0.118D-02-0.125D-02 0.351D-02
 Coeff:      0.327D-01 0.222D+00 0.342D+00 0.381D+00
 Gap=     0.043 Goal=   None    Shift=    0.000
 RMSDP=6.31D-05 MaxDP=7.28D-03 DE=-9.43D-03 OVMax= 3.71D-02

 Cycle  11  Pass 1  IDiag  1:
 RMSU=  2.71D-05    CP:  9.76D-01  1.16D+00  1.91D-01  1.01D-01  2.51D-01
                    CP:  8.68D-01  5.61D-01  6.33D-01  6.44D-01  3.62D-01
 E= -3007.36474964310     Delta-E=       -0.001539820461 Rises=F Damp=F
 DIIS: error= 5.33D-04 at cycle  11 NSaved=  11.
 NSaved=11 IEnMin=11 EnMin= -3007.36474964310     IErMin=11 ErrMin= 5.33D-04
 ErrMax= 5.33D-04  0.00D+00 EMaxC= 1.00D-01 BMatC= 3.53D-04 BMatP= 1.67D-03
 IDIUse=3 WtCom= 9.95D-01 WtEn= 5.33D-03
 Coeff-Com: -0.785D-02 0.188D-01-0.261D-02 0.280D-02-0.173D-02-0.208D-02
 Coeff-Com:  0.851D-02 0.122D+00 0.196D+00 0.296D+00 0.371D+00
 Coeff-En:   0.000D+00 0.000D+00 0.000D+00 0.000D+00 0.000D+00 0.000D+00
 Coeff-En:   0.000D+00 0.000D+00 0.000D+00 0.212D+00 0.788D+00
 Coeff:     -0.781D-02 0.187D-01-0.259D-02 0.279D-02-0.172D-02-0.207D-02
 Coeff:      0.847D-02 0.122D+00 0.194D+00 0.295D+00 0.373D+00
 Gap=     0.043 Goal=   None    Shift=    0.000
 RMSDP=2.91D-05 MaxDP=3.25D-03 DE=-1.54D-03 OVMax= 1.94D-02

 Cycle  12  Pass 1  IDiag  1:
 RMSU=  1.56D-05    CP:  9.76D-01  1.16D+00  1.90D-01  1.06D-01  2.49D-01
                    CP:  8.70D-01  5.59D-01  6.30D-01  5.93D-01  5.69D-01
                    CP:  3.44D-01
 E= -3007.36513609158     Delta-E=       -0.000386448477 Rises=F Damp=F
 DIIS: error= 2.57D-04 at cycle  12 NSaved=  12.
 NSaved=12 IEnMin=12 EnMin= -3007.36513609158     IErMin=12 ErrMin= 2.57D-04
 ErrMax= 2.57D-04  0.00D+00 EMaxC= 1.00D-01 BMatC= 8.83D-05 BMatP= 3.53D-04
 IDIUse=3 WtCom= 9.97D-01 WtEn= 2.57D-03
 Coeff-Com: -0.419D-02 0.900D-02-0.141D-02 0.147D-02-0.104D-02 0.211D-02
 Coeff-Com: -0.280D-02 0.262D-01 0.351D-01 0.102D+00 0.328D+00 0.505D+00
 Coeff-En:   0.000D+00 0.000D+00 0.000D+00 0.000D+00 0.000D+00 0.000D+00
 Coeff-En:   0.000D+00 0.000D+00 0.000D+00 0.000D+00 0.193D+00 0.807D+00
 Coeff:     -0.418D-02 0.898D-02-0.140D-02 0.147D-02-0.103D-02 0.210D-02
 Coeff:     -0.279D-02 0.262D-01 0.350D-01 0.102D+00 0.327D+00 0.506D+00
 Gap=     0.043 Goal=   None    Shift=    0.000
 RMSDP=1.32D-05 MaxDP=2.41D-03 DE=-3.86D-04 OVMax= 5.89D-03

 Cycle  13  Pass 1  IDiag  1:
 RMSU=  9.08D-06    CP:  9.76D-01  1.16D+00  1.90D-01  1.05D-01  2.51D-01
                    CP:  8.75D-01  5.59D-01  6.32D-01  6.11D-01  5.35D-01
                    CP:  5.72D-01  7.13D-01
 E= -3007.36521322109     Delta-E=       -0.000077129509 Rises=F Damp=F
 DIIS: error= 1.00D-04 at cycle  13 NSaved=  13.
 NSaved=13 IEnMin=13 EnMin= -3007.36521322109     IErMin=13 ErrMin= 1.00D-04
 ErrMax= 1.00D-04  0.00D+00 EMaxC= 1.00D-01 BMatC= 2.16D-05 BMatP= 8.83D-05
 IDIUse=3 WtCom= 9.99D-01 WtEn= 1.00D-03
 Coeff-Com: -0.233D-02 0.405D-02-0.627D-03 0.586D-03-0.187D-03 0.422D-02
 Coeff-Com: -0.415D-02-0.843D-02-0.274D-01-0.152D-02 0.167D+00 0.376D+00
 Coeff-Com:  0.493D+00
 Coeff-En:   0.000D+00 0.000D+00 0.000D+00 0.000D+00 0.000D+00 0.000D+00
 Coeff-En:   0.000D+00 0.000D+00 0.000D+00 0.000D+00 0.000D+00 0.111D+00
 Coeff-En:   0.889D+00
 Coeff:     -0.233D-02 0.404D-02-0.626D-03 0.586D-03-0.186D-03 0.422D-02
 Coeff:     -0.415D-02-0.842D-02-0.274D-01-0.152D-02 0.167D+00 0.376D+00
 Coeff:      0.493D+00
 Gap=     0.043 Goal=   None    Shift=    0.000
 RMSDP=6.24D-06 MaxDP=8.03D-04 DE=-7.71D-05 OVMax= 2.57D-03

 Cycle  14  Pass 1  IDiag  1:
 RMSU=  4.24D-06    CP:  9.76D-01  1.16D+00  1.89D-01  1.05D-01  2.52D-01
                    CP:  8.76D-01  5.58D-01  6.34D-01  6.12D-01  5.41D-01
                    CP:  5.90D-01  9.15D-01  7.13D-01
 E= -3007.36523125721     Delta-E=       -0.000018036118 Rises=F Damp=F
 DIIS: error= 4.91D-05 at cycle  14 NSaved=  14.
 NSaved=14 IEnMin=14 EnMin= -3007.36523125721     IErMin=14 ErrMin= 4.91D-05
 ErrMax= 4.91D-05  0.00D+00 EMaxC= 1.00D-01 BMatC= 5.57D-06 BMatP= 2.16D-05
 IDIUse=1 WtCom= 1.00D+00 WtEn= 0.00D+00
 Coeff-Com: -0.130D-02 0.221D-02-0.185D-03 0.119D-03 0.728D-04 0.188D-02
 Coeff-Com: -0.271D-02-0.721D-02-0.238D-01-0.157D-01 0.612D-01 0.150D+00
 Coeff-Com:  0.360D+00 0.476D+00
 Coeff:     -0.130D-02 0.221D-02-0.185D-03 0.119D-03 0.728D-04 0.188D-02
 Coeff:     -0.271D-02-0.721D-02-0.238D-01-0.157D-01 0.612D-01 0.150D+00
 Coeff:      0.360D+00 0.476D+00
 Gap=     0.043 Goal=   None    Shift=    0.000
 RMSDP=3.11D-06 MaxDP=3.55D-04 DE=-1.80D-05 OVMax= 1.28D-03

 Cycle  15  Pass 1  IDiag  1:
 RMSU=  1.83D-06    CP:  9.76D-01  1.16D+00  1.89D-01  1.05D-01  2.52D-01
                    CP:  8.76D-01  5.58D-01  6.36D-01  6.11D-01  5.43D-01
                    CP:  6.16D-01  8.68D-01  8.30D-01  5.94D-01
 E= -3007.36523598731     Delta-E=       -0.000004730102 Rises=F Damp=F
 DIIS: error= 3.92D-05 at cycle  15 NSaved=  15.
 NSaved=15 IEnMin=15 EnMin= -3007.36523598731     IErMin=15 ErrMin= 3.92D-05
 ErrMax= 3.92D-05  0.00D+00 EMaxC= 1.00D-01 BMatC= 1.61D-06 BMatP= 5.57D-06
 IDIUse=1 WtCom= 1.00D+00 WtEn= 0.00D+00
 Coeff-Com: -0.641D-03 0.121D-02-0.251D-04-0.265D-04 0.531D-04 0.801D-04
 Coeff-Com: -0.148D-02-0.269D-02-0.124D-01-0.105D-01 0.144D-01 0.322D-01
 Coeff-Com:  0.181D+00 0.388D+00 0.411D+00
 Coeff:     -0.641D-03 0.121D-02-0.251D-04-0.265D-04 0.531D-04 0.801D-04
 Coeff:     -0.148D-02-0.269D-02-0.124D-01-0.105D-01 0.144D-01 0.322D-01
 Coeff:      0.181D+00 0.388D+00 0.411D+00
 Gap=     0.043 Goal=   None    Shift=    0.000
 RMSDP=1.48D-06 MaxDP=2.06D-04 DE=-4.73D-06 OVMax= 5.79D-04

 Cycle  16  Pass 1  IDiag  1:
 RMSU=  6.59D-07    CP:  9.76D-01  1.16D+00  1.89D-01  1.05D-01  2.52D-01
                    CP:  8.76D-01  5.58D-01  6.38D-01  6.12D-01  5.44D-01
                    CP:  6.14D-01  8.84D-01  8.13D-01  6.82D-01  4.64D-01
 E= -3007.36523753874     Delta-E=       -0.000001551427 Rises=F Damp=F
 DIIS: error= 8.44D-06 at cycle  16 NSaved=  16.
 NSaved=16 IEnMin=16 EnMin= -3007.36523753874     IErMin=16 ErrMin= 8.44D-06
 ErrMax= 8.44D-06  0.00D+00 EMaxC= 1.00D-01 BMatC= 1.64D-07 BMatP= 1.61D-06
 IDIUse=1 WtCom= 1.00D+00 WtEn= 0.00D+00
 Coeff-Com: -0.269D-03 0.540D-03-0.358D-05-0.167D-04 0.437D-04-0.288D-03
 Coeff-Com: -0.727D-03-0.816D-03-0.579D-02-0.570D-02 0.183D-02 0.375D-03
 Coeff-Com:  0.789D-01 0.205D+00 0.282D+00 0.445D+00
 Coeff:     -0.269D-03 0.540D-03-0.358D-05-0.167D-04 0.437D-04-0.288D-03
 Coeff:     -0.727D-03-0.816D-03-0.579D-02-0.570D-02 0.183D-02 0.375D-03
 Coeff:      0.789D-01 0.205D+00 0.282D+00 0.445D+00
 Gap=     0.043 Goal=   None    Shift=    0.000
 RMSDP=4.93D-07 MaxDP=6.38D-05 DE=-1.55D-06 OVMax= 1.14D-04

 Cycle  17  Pass 1  IDiag  1:
 RMSU=  2.81D-07    CP:  9.76D-01  1.16D+00  1.89D-01  1.05D-01  2.52D-01
                    CP:  8.76D-01  5.58D-01  6.38D-01  6.11D-01  5.44D-01
                    CP:  6.16D-01  8.85D-01  8.20D-01  6.74D-01  5.29D-01
                    CP:  5.06D-01
 E= -3007.36523767985     Delta-E=       -0.000000141115 Rises=F Damp=F
 DIIS: error= 3.19D-06 at cycle  17 NSaved=  17.
 NSaved=17 IEnMin=17 EnMin= -3007.36523767985     IErMin=17 ErrMin= 3.19D-06
 ErrMax= 3.19D-06  0.00D+00 EMaxC= 1.00D-01 BMatC= 2.71D-08 BMatP= 1.64D-07
 IDIUse=1 WtCom= 1.00D+00 WtEn= 0.00D+00
 Coeff-Com: -0.515D-04 0.116D-03-0.341D-05-0.245D-05 0.201D-04-0.223D-03
 Coeff-Com: -0.177D-03-0.580D-04-0.164D-02-0.210D-02-0.168D-02-0.735D-02
 Coeff-Com:  0.149D-01 0.497D-01 0.955D-01 0.312D+00 0.541D+00
 Coeff:     -0.515D-04 0.116D-03-0.341D-05-0.245D-05 0.201D-04-0.223D-03
 Coeff:     -0.177D-03-0.580D-04-0.164D-02-0.210D-02-0.168D-02-0.735D-02
 Coeff:      0.149D-01 0.497D-01 0.955D-01 0.312D+00 0.541D+00
 Gap=     0.043 Goal=   None    Shift=    0.000
 RMSDP=2.22D-07 MaxDP=2.75D-05 DE=-1.41D-07 OVMax= 6.61D-05

 Cycle  18  Pass 1  IDiag  1:
 RMSU=  1.15D-07    CP:  9.76D-01  1.16D+00  1.89D-01  1.05D-01  2.52D-01
                    CP:  8.76D-01  5.58D-01  6.38D-01  6.12D-01  5.44D-01
                    CP:  6.17D-01  8.86D-01  8.27D-01  6.82D-01  5.13D-01
                    CP:  5.81D-01  5.75D-01
 E= -3007.36523770431     Delta-E=       -0.000000024458 Rises=F Damp=F
 DIIS: error= 1.48D-06 at cycle  18 NSaved=  18.
 NSaved=18 IEnMin=18 EnMin= -3007.36523770431     IErMin=18 ErrMin= 1.48D-06
 ErrMax= 1.48D-06  0.00D+00 EMaxC= 1.00D-01 BMatC= 4.10D-09 BMatP= 2.71D-08
 IDIUse=1 WtCom= 1.00D+00 WtEn= 0.00D+00
 Coeff-Com: -0.157D-05 0.122D-04-0.210D-05 0.217D-05 0.696D-05-0.115D-03
 Coeff-Com: -0.302D-04 0.482D-06-0.567D-03-0.922D-03-0.146D-02-0.528D-02
 Coeff-Com:  0.991D-03 0.795D-02 0.294D-01 0.157D+00 0.369D+00 0.444D+00
 Coeff:     -0.157D-05 0.122D-04-0.210D-05 0.217D-05 0.696D-05-0.115D-03
 Coeff:     -0.302D-04 0.482D-06-0.567D-03-0.922D-03-0.146D-02-0.528D-02
 Coeff:      0.991D-03 0.795D-02 0.294D-01 0.157D+00 0.369D+00 0.444D+00
 Gap=     0.043 Goal=   None    Shift=    0.000
 RMSDP=8.17D-08 MaxDP=1.00D-05 DE=-2.45D-08 OVMax= 2.15D-05

 Cycle  19  Pass 1  IDiag  1:
 RMSU=  4.48D-08    CP:  9.76D-01  1.16D+00  1.89D-01  1.05D-01  2.52D-01
                    CP:  8.76D-01  5.58D-01  6.38D-01  6.12D-01  5.44D-01
                    CP:  6.17D-01  8.87D-01  8.28D-01  6.83D-01  5.22D-01
                    CP:  5.95D-01  6.38D-01  5.74D-01
 E= -3007.36523770822     Delta-E=       -0.000000003907 Rises=F Damp=F
 DIIS: error= 6.36D-07 at cycle  19 NSaved=  19.
 NSaved=19 IEnMin=19 EnMin= -3007.36523770822     IErMin=19 ErrMin= 6.36D-07
 ErrMax= 6.36D-07  0.00D+00 EMaxC= 1.00D-01 BMatC= 6.17D-10 BMatP= 4.10D-09
 IDIUse=1 WtCom= 1.00D+00 WtEn= 0.00D+00
 Coeff-Com:  0.297D-05-0.175D-05-0.731D-06 0.470D-06 0.186D-05-0.429D-04
 Coeff-Com:  0.975D-05-0.116D-04-0.205D-03-0.374D-03-0.795D-03-0.261D-02
 Coeff-Com: -0.112D-02-0.148D-02 0.661D-02 0.611D-01 0.170D+00 0.314D+00
 Coeff-Com:  0.455D+00
 Coeff:      0.297D-05-0.175D-05-0.731D-06 0.470D-06 0.186D-05-0.429D-04
 Coeff:      0.975D-05-0.116D-04-0.205D-03-0.374D-03-0.795D-03-0.261D-02
 Coeff:     -0.112D-02-0.148D-02 0.661D-02 0.611D-01 0.170D+00 0.314D+00
 Coeff:      0.455D+00
 Gap=     0.043 Goal=   None    Shift=    0.000
 RMSDP=2.94D-08 MaxDP=5.49D-06 DE=-3.91D-09 OVMax= 1.22D-05

 Cycle  20  Pass 1  IDiag  1:
 RMSU=  1.69D-08    CP:  9.76D-01  1.16D+00  1.89D-01  1.05D-01  2.52D-01
                    CP:  8.76D-01  5.58D-01  6.38D-01  6.12D-01  5.44D-01
                    CP:  6.18D-01  8.87D-01  8.28D-01  6.83D-01  5.23D-01
                    CP:  6.00D-01  6.41D-01  6.00D-01  5.16D-01
 E= -3007.36523770865     Delta-E=       -0.000000000437 Rises=F Damp=F
 DIIS: error= 3.08D-07 at cycle  20 NSaved=  20.
 NSaved=20 IEnMin=20 EnMin= -3007.36523770865     IErMin=20 ErrMin= 3.08D-07
 ErrMax= 3.08D-07  0.00D+00 EMaxC= 1.00D-01 BMatC= 1.24D-10 BMatP= 6.17D-10
 IDIUse=1 WtCom= 1.00D+00 WtEn= 0.00D+00
 Coeff-Com:  0.166D-05-0.142D-05-0.483D-06 0.856D-07 0.764D-06-0.174D-04
 Coeff-Com:  0.112D-04-0.113D-04-0.927D-04-0.169D-03-0.398D-03-0.127D-02
 Coeff-Com: -0.794D-03-0.185D-02 0.162D-02 0.261D-01 0.802D-01 0.180D+00
 Coeff-Com:  0.341D+00 0.376D+00
 Coeff:      0.166D-05-0.142D-05-0.483D-06 0.856D-07 0.764D-06-0.174D-04
 Coeff:      0.112D-04-0.113D-04-0.927D-04-0.169D-03-0.398D-03-0.127D-02
 Coeff:     -0.794D-03-0.185D-02 0.162D-02 0.261D-01 0.802D-01 0.180D+00
 Coeff:      0.341D+00 0.376D+00
 Gap=     0.043 Goal=   None    Shift=    0.000
 RMSDP=1.10D-08 MaxDP=2.27D-06 DE=-4.37D-10 OVMax= 5.10D-06

 Cycle  21  Pass 1  IDiag  1:
 Restarting incremental Fock formation.
 E= -3007.36523770870     Delta-E=       -0.000000000051 Rises=F Damp=F
 DIIS: error= 1.27D-07 at cycle  21 NSaved=  20.
 NSaved=20 IEnMin=20 EnMin= -3007.36523770870     IErMin=20 ErrMin= 1.27D-07
 ErrMax= 1.27D-07  0.00D+00 EMaxC= 1.00D-01 BMatC= 1.35D-11 BMatP= 1.24D-10
 IDIUse=1 WtCom= 1.00D+00 WtEn= 0.00D+00
 Coeff-Com:  0.116D-05-0.128D-05 0.175D-07 0.219D-06-0.696D-05 0.672D-05
 Coeff-Com: -0.860D-05-0.355D-04-0.633D-04-0.176D-03-0.533D-03-0.440D-03
 Coeff-Com: -0.119D-02 0.757D-04 0.900D-02 0.312D-01 0.819D-01 0.175D+00
 Coeff-Com:  0.269D+00 0.437D+00
 Coeff:      0.116D-05-0.128D-05 0.175D-07 0.219D-06-0.696D-05 0.672D-05
 Coeff:     -0.860D-05-0.355D-04-0.633D-04-0.176D-03-0.533D-03-0.440D-03
 Coeff:     -0.119D-02 0.757D-04 0.900D-02 0.312D-01 0.819D-01 0.175D+00
 Coeff:      0.269D+00 0.437D+00
 Gap=     0.043 Goal=   None    Shift=    0.000
 RMSDP=4.21D-09 MaxDP=5.39D-07 DE=-5.09D-11 OVMax= 1.19D-06

 SCF Done:  E(RB-LYP) =  -3007.36523771     A.U. after   21 cycles
            NFock= 21  Conv=0.42D-08     -V/T= 2.0097
 KE= 2.978328019786D+03 PE=-2.617370409797D+04 EE= 1.059909076238D+04
 Leave Link  502 at Thu May  5 11:22:40 2022, MaxMem= 10066329600 cpu:            7160.0 elap:             299.2
 (Enter /sw/apps/gaussian-16.0/g16/l801.exe)
 DoSCS=F DFT=T ScalE2(SS,OS)=  1.000000  1.000000
 ExpMin= 3.36D-02 ExpMax= 4.95D+03 ExpMxC= 7.45D+02 IAcc=3 IRadAn=         5 AccDes= 0.00D+00
 HarFok:  IExCor=  205 AccDes= 0.00D+00 IRadAn=         5 IDoV=-2 UseB2=F ITyADJ=14
 ICtDFT= 12500011 ScaDFX=  1.000000  1.000000  1.000000  1.000000
 GSVD:  LWork=       -5460 too small for GESVD, short by       25550 words or       25550 for optimal perf.
 Largest valence mixing into a core orbital is  1.63D-04
 Largest core mixing into a valence orbital is  4.73D-05
 Range of M.O.s used for correlation:    71  1298
 NBasis=  1298 NAE=   246 NBE=   246 NFC=    70 NFV=     0
 NROrb=   1228 NOA=   176 NOB=   176 NVA=  1052 NVB=  1052

 **** Warning!!: The smallest alpha delta epsilon is  0.43422775D-01

 Leave Link  801 at Thu May  5 11:22:41 2022, MaxMem= 10066329600 cpu:               8.8 elap:               0.4
 (Enter /sw/apps/gaussian-16.0/g16/l914.exe)
 RHF ground state
 Two-electron integrals replicated using symmetry.
 MDV= 10066329600 DFT=T DoStab=F Mixed=F DoRPA=T DoScal=T NonHer=F
 Making orbital integer symmetry assigments:
 Orbital symmetries:
       Occupied  (A) (A) (A) (A) (A) (A) (A) (A) (A) (A) (A) (A)
                 (A) (A) (A) (A) (A) (A) (A) (A) (A) (A) (A) (A)
                 (A) (A) (A) (A) (A) (A) (A) (A) (A) (A) (A) (A)
                 (A) (A) (A) (A) (A) (A) (A) (A) (A) (A) (A) (A)
                 (A) (A) (A) (A) (A) (A) (A) (A) (A) (A) (A) (A)
                 (A) (A) (A) (A) (A) (A) (A) (A) (A) (A) (A) (A)
                 (A) (A) (A) (A) (A) (A) (A) (A) (A) (A) (A) (A)
                 (A) (A) (A) (A) (A) (A) (A) (A) (A) (A) (A) (A)
                 (A) (A) (A) (A) (A) (A) (A) (A) (A) (A) (A) (A)
                 (A) (A) (A) (A) (A) (A) (A) (A) (A) (A) (A) (A)
                 (A) (A) (A) (A) (A) (A) (A) (A) (A) (A) (A) (A)
                 (A) (A) (A) (A) (A) (A) (A) (A) (A) (A) (A) (A)
                 (A) (A) (A) (A) (A) (A) (A) (A) (A) (A) (A) (A)
                 (A) (A) (A) (A) (A) (A) (A) (A) (A) (A) (A) (A)
                 (A) (A) (A) (A) (A) (A) (A) (A) (A) (A) (A) (A)
                 (A) (A) (A) (A) (A) (A) (A) (A) (A) (A) (A) (A)
                 (A) (A) (A) (A) (A) (A) (A) (A) (A) (A) (A) (A)
                 (A) (A) (A) (A) (A) (A) (A) (A) (A) (A) (A) (A)
                 (A) (A) (A) (A) (A) (A) (A) (A) (A) (A) (A) (A)
                 (A) (A) (A) (A) (A) (A) (A) (A) (A) (A) (A) (A)
                 (A) (A) (A) (A) (A) (A)
       Virtual   (A) (A) (A) (A) (A) (A) (A) (A) (A) (A) (A) (A)
                 (A) (A) (A) (A) (A) (A) (A) (A) (A) (A) (A) (A)
                 (A) (A) (A) (A) (A) (A) (A) (A) (A) (A) (A) (A)
                 (A) (A) (A) (A) (A) (A) (A) (A) (A) (A) (A) (A)
                 (A) (A) (A) (A) (A) (A) (A) (A) (A) (A) (A) (A)
                 (A) (A) (A) (A) (A) (A) (A) (A) (A) (A) (A) (A)
                 (A) (A) (A) (A) (A) (A) (A) (A) (A) (A) (A) (A)
                 (A) (A) (A) (A) (A) (A) (A) (A) (A) (A) (A) (A)
                 (A) (A) (A) (A) (A) (A) (A) (A) (A) (A) (A) (A)
                 (A) (A) (A) (A) (A) (A) (A) (A) (A) (A) (A) (A)
                 (A) (A) (A) (A) (A) (A) (A) (A) (A) (A) (A) (A)
                 (A) (A) (A) (A) (A) (A) (A) (A) (A) (A) (A) (A)
                 (A) (A) (A) (A) (A) (A) (A) (A) (A) (A) (A) (A)
                 (A) (A) (A) (A) (A) (A) (A) (A) (A) (A) (A) (A)
                 (A) (A) (A) (A) (A) (A) (A) (A) (A) (A) (A) (A)
                 (A) (A) (A) (A) (A) (A) (A) (A) (A) (A) (A) (A)
                 (A) (A) (A) (A) (A) (A) (A) (A) (A) (A) (A) (A)
                 (A) (A) (A) (A) (A) (A) (A) (A) (A) (A) (A) (A)
                 (A) (A) (A) (A) (A) (A) (A) (A) (A) (A) (A) (A)
                 (A) (A) (A) (A) (A) (A) (A) (A) (A) (A) (A) (A)
                 (A) (A) (A) (A) (A) (A) (A) (A) (A) (A) (A) (A)
                 (A) (A) (A) (A) (A) (A) (A) (A) (A) (A) (A) (A)
                 (A) (A) (A) (A) (A) (A) (A) (A) (A) (A) (A) (A)
                 (A) (A) (A) (A) (A) (A) (A) (A) (A) (A) (A) (A)
                 (A) (A) (A) (A) (A) (A) (A) (A) (A) (A) (A) (A)
                 (A) (A) (A) (A) (A) (A) (A) (A) (A) (A) (A) (A)
                 (A) (A) (A) (A) (A) (A) (A) (A) (A) (A) (A) (A)
                 (A) (A) (A) (A) (A) (A) (A) (A) (A) (A) (A) (A)
                 (A) (A) (A) (A) (A) (A) (A) (A) (A) (A) (A) (A)
                 (A) (A) (A) (A) (A) (A) (A) (A) (A) (A) (A) (A)
                 (A) (A) (A) (A) (A) (A) (A) (A) (A) (A) (A) (A)
                 (A) (A) (A) (A) (A) (A) (A) (A) (A) (A) (A) (A)
                 (A) (A) (A) (A) (A) (A) (A) (A) (A) (A) (A) (A)
                 (A) (A) (A) (A) (A) (A) (A) (A) (A) (A) (A) (A)
                 (A) (A) (A) (A) (A) (A) (A) (A) (A) (A) (A) (A)
                 (A) (A) (A) (A) (A) (A) (A) (A) (A) (A) (A) (A)
                 (A) (A) (A) (A) (A) (A) (A) (A) (A) (A) (A) (A)
                 (A) (A) (A) (A) (A) (A) (A) (A) (A) (A) (A) (A)
                 (A) (A) (A) (A) (A) (A) (A) (A) (A) (A) (A) (A)
                 (A) (A) (A) (A) (A) (A) (A) (A) (A) (A) (A) (A)
                 (A) (A) (A) (A) (A) (A) (A) (A) (A) (A) (A) (A)
                 (A) (A) (A) (A) (A) (A) (A) (A) (A) (A) (A) (A)
                 (A) (A) (A) (A) (A) (A) (A) (A) (A) (A) (A) (A)
                 (A) (A) (A) (A) (A) (A) (A) (A) (A) (A) (A) (A)
                 (A) (A) (A) (A) (A) (A) (A) (A) (A) (A) (A) (A)
                 (A) (A) (A) (A) (A) (A) (A) (A) (A) (A) (A) (A)
                 (A) (A) (A) (A) (A) (A) (A) (A) (A) (A) (A) (A)
                 (A) (A) (A) (A) (A) (A) (A) (A) (A) (A) (A) (A)
                 (A) (A) (A) (A) (A) (A) (A) (A) (A) (A) (A) (A)
                 (A) (A) (A) (A) (A) (A) (A) (A) (A) (A) (A) (A)
                 (A) (A) (A) (A) (A) (A) (A) (A) (A) (A) (A) (A)
                 (A) (A) (A) (A) (A) (A) (A) (A) (A) (A) (A) (A)
                 (A) (A) (A) (A) (A) (A) (A) (A) (A) (A) (A) (A)
                 (A) (A) (A) (A) (A) (A) (A) (A) (A) (A) (A) (A)
                 (A) (A) (A) (A) (A) (A) (A) (A) (A) (A) (A) (A)
                 (A) (A) (A) (A) (A) (A) (A) (A) (A) (A) (A) (A)
                 (A) (A) (A) (A) (A) (A) (A) (A) (A) (A) (A) (A)
                 (A) (A) (A) (A) (A) (A) (A) (A) (A) (A) (A) (A)
                 (A) (A) (A) (A) (A) (A) (A) (A) (A) (A) (A) (A)
                 (A) (A) (A) (A) (A) (A) (A) (A) (A) (A) (A) (A)
                 (A) (A) (A) (A) (A) (A) (A) (A) (A) (A) (A) (A)
                 (A) (A) (A) (A) (A) (A) (A) (A) (A) (A) (A) (A)
                 (A) (A) (A) (A) (A) (A) (A) (A) (A) (A) (A) (A)
                 (A) (A) (A) (A) (A) (A) (A) (A) (A) (A) (A) (A)
                 (A) (A) (A) (A) (A) (A) (A) (A) (A) (A) (A) (A)
                 (A) (A) (A) (A) (A) (A) (A) (A) (A) (A) (A) (A)
                 (A) (A) (A) (A) (A) (A) (A) (A) (A) (A) (A) (A)
                 (A) (A) (A) (A) (A) (A) (A) (A) (A) (A) (A) (A)
                 (A) (A) (A) (A) (A) (A) (A) (A) (A) (A) (A) (A)
                 (A) (A) (A) (A) (A) (A) (A) (A) (A) (A) (A) (A)
                 (A) (A) (A) (A) (A) (A) (A) (A) (A) (A) (A) (A)
                 (A) (A) (A) (A) (A) (A) (A) (A) (A) (A) (A) (A)
                 (A) (A) (A) (A) (A) (A) (A) (A) (A) (A) (A) (A)
                 (A) (A) (A) (A) (A) (A) (A) (A) (A) (A) (A) (A)
                 (A) (A) (A) (A) (A) (A) (A) (A) (A) (A) (A) (A)
                 (A) (A) (A) (A) (A) (A) (A) (A) (A) (A) (A) (A)
                 (A) (A) (A) (A) (A) (A) (A) (A) (A) (A) (A) (A)
                 (A) (A) (A) (A) (A) (A) (A) (A) (A) (A) (A) (A)
                 (A) (A) (A) (A) (A) (A) (A) (A) (A) (A) (A) (A)
                 (A) (A) (A) (A) (A) (A) (A) (A) (A) (A) (A) (A)
                 (A) (A) (A) (A) (A) (A) (A) (A) (A) (A) (A) (A)
                 (A) (A) (A) (A) (A) (A) (A) (A) (A) (A) (A) (A)
                 (A) (A) (A) (A) (A) (A) (A) (A) (A) (A) (A) (A)
                 (A) (A) (A) (A) (A) (A) (A) (A) (A) (A) (A) (A)
                 (A) (A) (A) (A) (A) (A) (A) (A) (A) (A) (A) (A)
                 (A) (A) (A) (A) (A) (A) (A) (A) (A) (A) (A) (A)
                 (A) (A) (A) (A) (A) (A) (A) (A) (A) (A) (A) (A)
                 (A) (A) (A) (A) (A) (A) (A) (A)
    20 initial guesses have been made.
 Convergence on wavefunction:    0.001000000000000
 Davidson Disk Diagonalization:  ConvIn= 1.00D-03 SkipCon=T Conv= 1.00D-03.
 Max sub-space:  2000 roots to seek:    20 dimension of matrix:       370304
 Iteration     1 Dimension    20 NMult     0 NNew     20
 CISAX will form    20 AO SS matrices at one time.
 NMat=    20 NSing=    20 JSym2X= 0.
 FoFJK:  IHMeth= 1 ICntrl=     500 DoSepK=F KAlg= 0 I1Cent=           0 FoldK=F
 IRaf= 510000000 NMat=      20 IRICut=       1 DoRegI=T DoRafI=F ISym2E= 0 IDoP0=0 IntGTp=1.
 FoFCou: FMM=T IPFlag=           0 FMFlag=      100000 FMFlg1=        2001
         NFxFlg=           0 DoJE=F BraDBF=F KetDBF=F FulRan=T
         wScrn=  0.000000 ICntrl=       500 IOpCl=  0 I1Cent=           0 NGrid=           0
         NMat0=   20 NMatS0=     20 NMatT0=    0 NMatD0=   20 NMtDS0=    0 NMtDT0=    0
 Symmetry not used in FoFCou.
 FMM levels:  10  Number of levels for PrismC:   9
 New state      1 was old state      3
 New state      2 was old state      1
 New state      3 was old state      2
 New state      4 was old state      5
 New state      5 was old state      8
 Excitation Energies [eV] at current iteration:
 Root      1 :     2.065129626862193
 Root      2 :     2.141382566221423
 Root      3 :     2.308855348472771
 Root      4 :     2.381405020758940
 Root      5 :     2.564103323814378
 Root      6 :     2.866632055904094
 Root      7 :     2.884900693082795
 Root      8 :     2.965896344365088
 Root      9 :     3.040372802630381
 Root     10 :     3.103255253982493
 Root     11 :     3.155715050558884
 Root     12 :     3.170357523280483
 Root     13 :     3.216182344773914
 Root     14 :     3.307437978260352
 Root     15 :     3.361382404623217
 Root     16 :     3.414619174162284
 Root     17 :     3.500832322573403
 Root     18 :     4.002412736420350
 Root     19 :     4.034011336139118
 Root     20 :     4.383735663568637
 Iteration     2 Dimension    40 NMult    20 NNew     20
 CISAX will form    20 AO SS matrices at one time.
 NMat=    20 NSing=    20 JSym2X= 0.
 New state      1 was old state      2
 Root      1 not converged, maximum delta is    0.087582121850521
 New state      2 was old state      1
 Root      2 not converged, maximum delta is    0.080562681897888
 Root      3 not converged, maximum delta is    0.079412774174155
 Root      4 not converged, maximum delta is    0.049305504805983
 Root      5 not converged, maximum delta is    0.037118305598180
 Excitation Energies [eV] at current iteration:
 Root      1 :     1.891173205158590   Change is   -0.250209361062834
 Root      2 :     2.058420645708742   Change is   -0.006708981153450
 Root      3 :     2.085283462236651   Change is   -0.223571886236121
 Root      4 :     2.374042222417796   Change is   -0.007362798341144
 Root      5 :     2.562386353786412   Change is   -0.001716970027966
 Root      6 :     2.696751534436741   Change is   -0.188149158646054
 Root      7 :     2.743752274122790   Change is   -0.222144070242298
 Root      8 :     2.836816723982818   Change is   -0.029815331921275
 Root      9 :     2.882582123368618   Change is   -0.424855854891734
 Root     10 :     2.955211808055738   Change is   -0.148043445926755
 Root     11 :     3.026506564529382   Change is   -0.013866238100998
 Root     12 :     3.033170584732928   Change is   -0.122544465825956
 Root     13 :     3.065012913398715   Change is   -0.435819409174689
 Root     14 :     3.166568440523852   Change is   -0.003789082756630
 Root     15 :     3.182970493227352   Change is   -0.033211851546562
 Root     16 :     3.257628344305748   Change is   -0.776382991833370
 Root     17 :     3.348053691205405   Change is   -0.013328713417812
 Root     18 :     3.411714452648087   Change is   -0.002904721514197
 Root     19 :     3.511287000487043   Change is   -0.491125735933307
 Root     20 :     3.866187104481640   Change is   -0.517548559086997
 Iteration     3 Dimension    45 NMult    40 NNew      5
 CISAX will form     5 AO SS matrices at one time.
 NMat=     5 NSing=     5 JSym2X= 0.
 Root      1 not converged, maximum delta is    0.018988370715570
 Root      2 not converged, maximum delta is    0.141776836248061
 Root      3 not converged, maximum delta is    0.159281208263392
 Root      4 not converged, maximum delta is    0.003169278009548
 Root      5 not converged, maximum delta is    0.008100927083138
 Excitation Energies [eV] at current iteration:
 Root      1 :     1.847145882682325   Change is   -0.044027322476264
 Root      2 :     2.056003302060455   Change is   -0.002417343648287
 Root      3 :     2.060167858661105   Change is   -0.025115603575545
 Root      4 :     2.372343290484328   Change is   -0.001698931933468
 Root      5 :     2.562061996611043   Change is   -0.000324357175369
 Iteration     4 Dimension    50 NMult    45 NNew      5
 CISAX will form     5 AO SS matrices at one time.
 NMat=     5 NSing=     5 JSym2X= 0.
 Root      1 not converged, maximum delta is    0.009397237488819
 New state      2 was old state      3
 Root      2 not converged, maximum delta is    0.333077015965628
 New state      3 was old state      2
 Root      3 not converged, maximum delta is    0.296493826268067
 Root      4 not converged, maximum delta is    0.003382107825168
 Root      5 not converged, maximum delta is    0.003783322830323
 Excitation Energies [eV] at current iteration:
 Root      1 :     1.830869387183900   Change is   -0.016276495498425
 Root      2 :     2.048879409135670   Change is   -0.011288449525436
 Root      3 :     2.055584583413341   Change is   -0.000418718647114
 Root      4 :     2.371478926612706   Change is   -0.000864363871622
 Root      5 :     2.561928464861960   Change is   -0.000133531749083
 Iteration     5 Dimension    55 NMult    50 NNew      5
 CISAX will form     5 AO SS matrices at one time.
 NMat=     5 NSing=     5 JSym2X= 0.
 Root      1 not converged, maximum delta is    0.002436640998518
 Root      2 not converged, maximum delta is    0.031030830071733
 Root      3 not converged, maximum delta is    0.027767924263446
 Root      4 not converged, maximum delta is    0.002740779597061
 Root      5 not converged, maximum delta is    0.001946061696449
 Excitation Energies [eV] at current iteration:
 Root      1 :     1.825801468965664   Change is   -0.005067918218236
 Root      2 :     2.045285306856228   Change is   -0.003594102279442
 Root      3 :     2.055130942126344   Change is   -0.000453641286997
 Root      4 :     2.371096280619987   Change is   -0.000382645992719
 Root      5 :     2.561871020685355   Change is   -0.000057444176606
 Iteration     6 Dimension    60 NMult    55 NNew      5
 CISAX will form     5 AO SS matrices at one time.
 NMat=     5 NSing=     5 JSym2X= 0.
 Root      1 not converged, maximum delta is    0.001354537548534
 Root      2 not converged, maximum delta is    0.008934454099542
 Root      3 not converged, maximum delta is    0.008159692376509
 Root      4 not converged, maximum delta is    0.002045328484990
 Root      5 has converged.
 Excitation Energies [eV] at current iteration:
 Root      1 :     1.823537519363376   Change is   -0.002263949602289
 Root      2 :     2.043910511371881   Change is   -0.001374795484347
 Root      3 :     2.054890169437266   Change is   -0.000240772689078
 Root      4 :     2.370898241427821   Change is   -0.000198039192166
 Root      5 :     2.561849910105862   Change is   -0.000021110579493
 Iteration     7 Dimension    64 NMult    60 NNew      4
 CISAX will form     4 AO SS matrices at one time.
 NMat=     4 NSing=     4 JSym2X= 0.
 Root      1 has converged.
 Root      2 not converged, maximum delta is    0.003028685036772
 Root      3 not converged, maximum delta is    0.002810858884505
 Root      4 not converged, maximum delta is    0.001050548433952
 Root      5 has converged.
 Excitation Energies [eV] at current iteration:
 Root      1 :     1.822616450057432   Change is   -0.000921069305944
 Root      2 :     2.043419523860063   Change is   -0.000490987511818
 Root      3 :     2.054787907465947   Change is   -0.000102261971318
 Root      4 :     2.370818951392845   Change is   -0.000079290034976
 Root      5 :     2.561849743073919   Change is   -0.000000167031943
 Iteration     8 Dimension    67 NMult    64 NNew      3
 CISAX will form     3 AO SS matrices at one time.
 NMat=     3 NSing=     3 JSym2X= 0.
 Root      1 has converged.
 Root      2 not converged, maximum delta is    0.001456255119316
 Root      3 not converged, maximum delta is    0.001340672800981
 Root      4 has converged.
 Root      5 has converged.
 Excitation Energies [eV] at current iteration:
 Root      1 :     1.822612719057234   Change is   -0.000003731000197
 Root      2 :     2.043228010049221   Change is   -0.000191513810842
 Root      3 :     2.054747814061819   Change is   -0.000040093404129
 Root      4 :     2.370790549707395   Change is   -0.000028401685451
 Root      5 :     2.561849721774409   Change is   -0.000000021299510
 Iteration     9 Dimension    69 NMult    67 NNew      2
 CISAX will form     2 AO SS matrices at one time.
 NMat=     2 NSing=     2 JSym2X= 0.
 Root      1 has converged.
 Root      2 has converged.
 Root      3 has converged.
 Root      4 has converged.
 Root      5 has converged.
 Excitation Energies [eV] at current iteration:
[...]
 Alpha virt. eigenvalues --    1.06567   1.06736   1.07212   1.08362   1.08716
 Alpha virt. eigenvalues --    1.08848   1.09113   1.09662   1.10339   1.10627
 Alpha virt. eigenvalues --    1.10888   1.11508   1.11953   1.12636   1.12804
 Alpha virt. eigenvalues --    1.13182   1.13873   1.14485   1.14851   1.15198
 Alpha virt. eigenvalues --    1.15513   1.16060   1.16236   1.16462   1.16975
 Alpha virt. eigenvalues --    1.17608   1.18249   1.18562   1.18942   1.19339
 Alpha virt. eigenvalues --    1.19676   1.20311   1.20431   1.21235   1.21445
 Alpha virt. eigenvalues --    1.22439   1.22945   1.23017   1.23540   1.24363
 Alpha virt. eigenvalues --    1.24589   1.24824   1.25562   1.26195   1.26273
 Alpha virt. eigenvalues --    1.26481   1.26744   1.27486   1.27868   1.27955
 Alpha virt. eigenvalues --    1.28419   1.28819   1.29929   1.30163   1.30369
 Alpha virt. eigenvalues --    1.30747   1.31592   1.32289   1.32362   1.32610
 Alpha virt. eigenvalues --    1.32926   1.33623   1.34142   1.34246   1.34332
 Alpha virt. eigenvalues --    1.34786   1.35037   1.35908   1.36239   1.36463
 Alpha virt. eigenvalues --    1.36689   1.37303   1.37675   1.38256   1.38661
 Alpha virt. eigenvalues --    1.38690   1.39332   1.39672   1.39788   1.40301
 Alpha virt. eigenvalues --    1.40680   1.40783   1.41309   1.41940   1.42397
 Alpha virt. eigenvalues --    1.42936   1.43179   1.43251   1.43859   1.44238
 Alpha virt. eigenvalues --    1.44577   1.45450   1.45526   1.45677   1.46260
 Alpha virt. eigenvalues --    1.46334   1.46574   1.46876   1.46977   1.47369
 Alpha virt. eigenvalues --    1.47869   1.47993   1.48213   1.48711   1.48751
 Alpha virt. eigenvalues --    1.49044   1.49168   1.49601   1.49645   1.49837
 Alpha virt. eigenvalues --    1.49883   1.50071   1.50226   1.50739   1.51175
 Alpha virt. eigenvalues --    1.51271   1.51643   1.51689   1.51760   1.52393
 Alpha virt. eigenvalues --    1.52686   1.52808   1.53402   1.53855   1.54469
 Alpha virt. eigenvalues --    1.55044   1.55567   1.55914   1.56230   1.56577
 Alpha virt. eigenvalues --    1.57361   1.58262   1.58423   1.58511   1.58994
 Alpha virt. eigenvalues --    1.59135   1.59427   1.60114   1.60911   1.61029
 Alpha virt. eigenvalues --    1.61172   1.61253   1.62188   1.62560   1.63016
 Alpha virt. eigenvalues --    1.63427   1.63675   1.63848   1.63978   1.64266
 Alpha virt. eigenvalues --    1.64480   1.64746   1.64824   1.65110   1.65649
 Alpha virt. eigenvalues --    1.66145   1.66158   1.66310   1.66455   1.66746
 Alpha virt. eigenvalues --    1.66758   1.67255   1.67670   1.67760   1.68006
 Alpha virt. eigenvalues --    1.68491   1.68690   1.69032   1.69307   1.69397
 Alpha virt. eigenvalues --    1.69528   1.69649   1.69834   1.69949   1.69994
 Alpha virt. eigenvalues --    1.70609   1.70786   1.70977   1.71035   1.71407
 Alpha virt. eigenvalues --    1.71591   1.71824   1.72041   1.72327   1.72649
 Alpha virt. eigenvalues --    1.72725   1.72786   1.73249   1.73432   1.73554
 Alpha virt. eigenvalues --    1.73597   1.73685   1.73910   1.74020   1.74312
 Alpha virt. eigenvalues --    1.74455   1.74516   1.74818   1.74947   1.75544
 Alpha virt. eigenvalues --    1.75624   1.75682   1.76080   1.76162   1.76363
 Alpha virt. eigenvalues --    1.76467   1.76678   1.76778   1.77128   1.77381
 Alpha virt. eigenvalues --    1.77390   1.77525   1.77790   1.78095   1.78343
 Alpha virt. eigenvalues --    1.78535   1.79019   1.79194   1.79432   1.79614
 Alpha virt. eigenvalues --    1.80116   1.80229   1.80328   1.80565   1.80851
 Alpha virt. eigenvalues --    1.80955   1.81255   1.81763   1.81895   1.82127
 Alpha virt. eigenvalues --    1.82347   1.82568   1.82815   1.83098   1.83439
 Alpha virt. eigenvalues --    1.83527   1.83945   1.84242   1.84310   1.84726
 Alpha virt. eigenvalues --    1.84795   1.85156   1.85236   1.85495   1.85878
 Alpha virt. eigenvalues --    1.85975   1.86331   1.86586   1.87093   1.87202
 Alpha virt. eigenvalues --    1.87483   1.87596   1.87721   1.88186   1.88396
 Alpha virt. eigenvalues --    1.88585   1.88862   1.89159   1.89327   1.89759
 Alpha virt. eigenvalues --    1.90093   1.90338   1.90383   1.90554   1.91397
 Alpha virt. eigenvalues --    1.91781   1.92009   1.92274   1.92648   1.92866
 Alpha virt. eigenvalues --    1.93320   1.93535   1.93665   1.93824   1.94400
 Alpha virt. eigenvalues --    1.94636   1.94687   1.95504   1.95843   1.95971
 Alpha virt. eigenvalues --    1.96249   1.96501   1.96748   1.96990   1.97263
 Alpha virt. eigenvalues --    1.97608   1.97846   1.98542   1.98628   1.98874
 Alpha virt. eigenvalues --    1.98983   1.99208   1.99477   1.99916   2.00402
 Alpha virt. eigenvalues --    2.00868   2.01171   2.01422   2.01516   2.01828
 Alpha virt. eigenvalues --    2.02041   2.02558   2.02884   2.03311   2.03505
 Alpha virt. eigenvalues --    2.03706   2.03949   2.04100   2.04629   2.04776
 Alpha virt. eigenvalues --    2.04828   2.05274   2.05317   2.05419   2.05809
 Alpha virt. eigenvalues --    2.06182   2.06400   2.06841   2.07844   2.07984
 Alpha virt. eigenvalues --    2.08139   2.08440   2.08569   2.08630   2.09411
 Alpha virt. eigenvalues --    2.09784   2.10208   2.10717   2.10926   2.11559
 Alpha virt. eigenvalues --    2.11864   2.11904   2.12732   2.13039   2.13916
 Alpha virt. eigenvalues --    2.14225   2.14403   2.14705   2.15405   2.15512
 Alpha virt. eigenvalues --    2.16306   2.16820   2.17653   2.17841   2.17941
 Alpha virt. eigenvalues --    2.18447   2.19445   2.19644   2.19745   2.19970
 Alpha virt. eigenvalues --    2.20152   2.20601   2.20792   2.21100   2.21412
 Alpha virt. eigenvalues --    2.21724   2.21829   2.22319   2.22511   2.22834
 Alpha virt. eigenvalues --    2.22948   2.23501   2.24133   2.24285   2.24406
 Alpha virt. eigenvalues --    2.24606   2.25375   2.25908   2.26021   2.26754
 Alpha virt. eigenvalues --    2.27067   2.27408   2.27610   2.27788   2.27945
 Alpha virt. eigenvalues --    2.28089   2.28661   2.28780   2.29454   2.29645
 Alpha virt. eigenvalues --    2.30546   2.30963   2.31357   2.31455   2.31749
 Alpha virt. eigenvalues --    2.32224   2.32689   2.32788   2.33111   2.33378
 Alpha virt. eigenvalues --    2.33608   2.33658   2.34207   2.34603   2.35243
 Alpha virt. eigenvalues --    2.35357   2.36009   2.36139   2.36580   2.36842
 Alpha virt. eigenvalues --    2.37386   2.37440   2.37461   2.37992   2.38649
 Alpha virt. eigenvalues --    2.38969   2.39476   2.39827   2.40108   2.40584
 Alpha virt. eigenvalues --    2.41038   2.41100   2.41695   2.41921   2.43050
 Alpha virt. eigenvalues --    2.43322   2.43447   2.43959   2.44285   2.44967
 Alpha virt. eigenvalues --    2.45411   2.46545   2.46927   2.47250   2.47567
 Alpha virt. eigenvalues --    2.47849   2.48314   2.49144   2.49239   2.49382
 Alpha virt. eigenvalues --    2.49869   2.50428   2.50777   2.50950   2.51232
 Alpha virt. eigenvalues --    2.51528   2.52542   2.52716   2.52909   2.53713
 Alpha virt. eigenvalues --    2.54244   2.54604   2.54878   2.55168   2.55839
 Alpha virt. eigenvalues --    2.56379   2.56552   2.56967   2.57448   2.57546
 Alpha virt. eigenvalues --    2.57717   2.58065   2.58819   2.58900   2.59572
 Alpha virt. eigenvalues --    2.60151   2.60226   2.61143   2.61423   2.61489
 Alpha virt. eigenvalues --    2.62412   2.62848   2.63204   2.63420   2.63687
 Alpha virt. eigenvalues --    2.64260   2.64420   2.64793   2.65351   2.65630
 Alpha virt. eigenvalues --    2.66452   2.66486   2.66841   2.67278   2.67638
 Alpha virt. eigenvalues --    2.67980   2.68333   2.69281   2.69306   2.69599
 Alpha virt. eigenvalues --    2.69918   2.70241   2.70761   2.71690   2.71977
 Alpha virt. eigenvalues --    2.72511   2.72780   2.73151   2.73424   2.73732
 Alpha virt. eigenvalues --    2.75145   2.75561   2.75744   2.76644   2.77207
 Alpha virt. eigenvalues --    2.77508   2.78389   2.79155   2.79717   2.80197
 Alpha virt. eigenvalues --    2.80576   2.80686   2.80764   2.81079   2.82065
 Alpha virt. eigenvalues --    2.82155   2.82296   2.82618   2.83112   2.83351
 Alpha virt. eigenvalues --    2.83828   2.83960   2.84433   2.84530   2.84597
 Alpha virt. eigenvalues --    2.85124   2.85695   2.85879   2.86036   2.86183
 Alpha virt. eigenvalues --    2.86388   2.86727   2.86859   2.86879   2.87628
 Alpha virt. eigenvalues --    2.87730   2.87866   2.88355   2.88684   2.88939
 Alpha virt. eigenvalues --    2.89194   2.89409   2.89707   2.89964   2.90363
 Alpha virt. eigenvalues --    2.90582   2.90794   2.90970   2.91290   2.91802
 Alpha virt. eigenvalues --    2.91947   2.92496   2.92762   2.92838   2.93052
 Alpha virt. eigenvalues --    2.93311   2.93485   2.93899   2.94550   2.94647
 Alpha virt. eigenvalues --    2.94897   2.95485   2.95696   2.96146   2.96533
 Alpha virt. eigenvalues --    2.97315   2.97864   2.98101   2.98911   2.99109
 Alpha virt. eigenvalues --    2.99336   2.99899   3.00455   3.00478   3.02077
 Alpha virt. eigenvalues --    3.03531   3.03893   3.04262   3.04618   3.05901
 Alpha virt. eigenvalues --    3.06362   3.07730   3.07839   3.08079   3.08193
 Alpha virt. eigenvalues --    3.10208   3.10515   3.10874   3.13125   3.15685
 Alpha virt. eigenvalues --    3.16096   3.18579   3.27628   3.29366   3.30017
 Alpha virt. eigenvalues --    3.32894   3.35936   3.40447   3.41297   3.44318
 Alpha virt. eigenvalues --    3.47432   3.48357   3.52212   3.53699   3.54719
 Alpha virt. eigenvalues --    3.57094   3.61169
          Condensed to atoms (all electrons):
 Mulliken charges:
               1
     1  Mg   0.698452
     2  C    0.041764
     3  C   -0.061931
     4  C   -0.045222
     5  C   -0.113819
     6  N   -0.210002
     7  C   -0.080794
     8  C   -0.005847
     9  C    0.046791
    10  C   -0.005756
    11  C    0.124703
    12  C    0.105356
    13  C    0.149240
    14  C    0.084052
    15  O   -0.210513
    16  O   -0.282132
    17  N   -0.254527
    18  C    0.148270
    19  C   -0.176457
    20  C   -0.002534
    21  C    0.038458
    22  C    0.201356
    23  C   -0.045654
    24  O   -0.131086
    25  C    0.104041
    26  N   -0.236521
    27  C    0.070098
    28  C    0.023689
    29  C    0.010567
    30  C    0.035756
    31  C    0.133104
    32  C    0.086744
    33  C    0.062373
    34  N   -0.248341
    35  C    0.147732
    36  C   -0.163147
    37  C    0.091447
    38  C    0.077504
    39  C    0.168763
    40  C   -0.062119
    41  O   -0.134067
    42  C    0.079065
    43  C    0.078284
    44  O   -0.144005
    45  O   -0.289046
    46  C    0.193400
    47  C    0.304712
    48  C   -0.087022
    49  C   -0.174188
    50  C    0.142512
    51  C    0.108240
    52  C    0.098743
    53  C    0.143391
    54  C   -0.097207
    55  C    0.113106
    56  C    0.085845
    57  C    0.093766
    58  C    0.093668
    59  C   -0.118380
    60  C    0.099909
    61  C    0.117689
    62  C    0.047315
    63  C    0.106174
    64  C   -0.095819
    65  C    0.114173
    66  C    0.113249
    67  H   -0.063068
    68  H   -0.051035
    69  H   -0.077221
    70  H   -0.001284
    71  H   -0.030961
    72  H   -0.023981
    73  H    0.005234
    74  H   -0.010359
    75  H   -0.019227
    76  H   -0.017690
    77  H   -0.007332
    78  H    0.009904
    79  H    0.002043
    80  H    0.017071
    81  H   -0.007219
    82  H    0.010011
    83  H   -0.005753
    84  H    0.003544
    85  H   -0.017089
    86  H   -0.032383
    87  H   -0.009778
    88  H   -0.011701
    89  H   -0.001637
    90  H   -0.014730
    91  H   -0.024221
    92  H   -0.011266
    93  H    0.011073
    94  H   -0.018752
    95  H   -0.012434
    96  H    0.001368
    97  H    0.012978
    98  H   -0.013401
    99  H    0.015168
   100  H    0.018990
   101  H    0.022886
   102  H   -0.000305
   103  H   -0.008949
   104  H   -0.038812
   105  H   -0.005060
   106  H   -0.002802
   107  H    0.004678
   108  H   -0.020974
   109  H   -0.026065
   110  H   -0.027891
   111  H   -0.018159
   112  H   -0.031655
   113  H   -0.035403
   114  H   -0.036445
   115  H   -0.020248
   116  H   -0.019577
   117  H   -0.025429
   118  H   -0.032043
   119  H   -0.037305
   120  H   -0.039198
   121  H   -0.033182
   122  H   -0.017354
   123  H   -0.034951
   124  H   -0.032521
   125  H   -0.013333
   126  H   -0.017199
   127  H   -0.034218
   128  H   -0.026470
   129  H   -0.022912
   130  H   -0.038322
   131  H   -0.019041
   132  H   -0.049404
   133  H   -0.052823
   134  H   -0.037242
   135  H   -0.034403
   136  H   -0.014376
   137  H   -0.014639
   138  H   -0.014285
   139  H    0.000475
   140  H   -0.027273
 Sum of Mulliken charges =  -0.00000
 Mulliken charges with hydrogens summed into heavy atoms:
               1
     1  Mg   0.698452
     2  C    0.041764
     3  C   -0.124999
     4  C   -0.096257
     5  C   -0.191040
     6  N   -0.210002
     7  C   -0.080794
     8  C   -0.007130
     9  C    0.015830
    10  C   -0.005756
    11  C    0.095597
    12  C    0.068439
    13  C    0.151812
    14  C    0.084052
    15  O   -0.210513
    16  O   -0.282132
    17  N   -0.254527
    18  C    0.148270
    19  C   -0.176457
    20  C   -0.002534
    21  C    0.038458
    22  C    0.213251
    23  C   -0.045654
    24  O   -0.131086
    25  C    0.111843
    26  N   -0.236521
    27  C    0.070098
    28  C    0.006599
    29  C   -0.021816
    30  C    0.035756
    31  C    0.109988
    32  C    0.047793
    33  C    0.043427
    34  N   -0.248341
    35  C    0.147732
    36  C   -0.163147
    37  C    0.091447
    38  C    0.077504
    39  C    0.170675
    40  C   -0.062119
    41  O   -0.134067
    42  C    0.065664
    43  C    0.078284
    44  O   -0.144005
    45  O   -0.289046
    46  C    0.250444
    47  C    0.295457
    48  C   -0.125834
    49  C   -0.174188
    50  C    0.139328
    51  C    0.061201
    52  C    0.052694
    53  C    0.076333
    54  C   -0.133652
    55  C    0.047852
    56  C    0.016496
    57  C    0.021386
    58  C    0.041363
    59  C   -0.150902
    60  C    0.035160
    61  C    0.068308
    62  C   -0.010048
    63  C    0.003947
    64  C   -0.133061
    65  C    0.050757
    66  C    0.072166
 Electronic spatial extent (au):  <R**2>=         113214.6995
 Charge=             -0.0000 electrons
 Dipole moment (field-independent basis, Debye):
    X=              4.6086    Y=              2.6394    Z=             -3.0890  Tot=              6.1439
 Quadrupole moment (field-independent basis, Debye-Ang):
   XX=           -376.2447   YY=           -432.9387   ZZ=           -410.4810
   XY=            -11.8775   XZ=              3.6550   YZ=              8.4482
 Traceless Quadrupole moment (field-independent basis, Debye-Ang):
   XX=             30.3101   YY=            -26.3839   ZZ=             -3.9262
   XY=            -11.8775   XZ=              3.6550   YZ=              8.4482
 Octapole moment (field-independent basis, Debye-Ang**2):
  XXX=           -238.0079  YYY=            -52.6473  ZZZ=            -12.0832  XYY=            313.8314
  XXY=              2.0816  XXZ=             -6.9999  XZZ=            -47.1557  YZZ=             -7.0832
  YYZ=            -46.9011  XYZ=            -14.2712
 Hexadecapole moment (field-independent basis, Debye-Ang**3):
 XXXX=        -116903.9796 YYYY=         -26257.9856 ZZZZ=         -10434.4797 XXXY=            -43.1510
 XXXZ=            -59.6246 YYYX=              9.2020 YYYZ=           -188.0325 ZZZX=           -105.5582
 ZZZY=            -82.1189 XXYY=         -26275.4514 XXZZ=         -22388.0652 YYZZ=          -5862.6302
 XXYZ=            346.4708 YYXZ=            123.7314 ZZXY=           -100.6775
 N-N= 9.588920078095D+03 E-N=-2.617370408604D+04  KE= 2.978328019786D+03
 Leave Link  601 at Thu May  5 11:34:03 2022, MaxMem= 10066329600 cpu:              16.7 elap:               0.8
 (Enter /sw/apps/gaussian-16.0/g16/l9999.exe)
 1\1\GINC-BP1-COMPUTE181\SP\RBLYP TD-FC\def2SVP\C55H74Mg1N4O6\OF15641\0
 5-May-2022\0\\#p blyp/Def2SVP td=(nstates=5)\\step_801_chromophore_9 T
 DDFT with blyp functional\\0,1\Mg,0,35.957,1.378,29.603\C,0,33.793,2.1
 15,32.222\C,0,38.586,1.307,31.828\C,0,38.065,0.732,27.104\C,0,33.369,1
 .992,27.474\N,0,36.126,1.545,31.835\C,0,35.082,1.846,32.705\C,0,35.617
 ,2.031,34.053\C,0,37.158,2.07,33.858\C,0,37.34,1.641,32.399\C,0,37.845
 ,3.35,34.213\C,0,35.099,0.92,35.05\C,0,34.823,1.355,36.507\C,0,35.57,2
 .422,37.251\O,0,35.398,3.637,37.127\O,0,36.713,1.937,37.886\N,0,38.038
 ,0.927,29.478\C,0,38.893,0.871,30.554\C,0,40.251,0.37,30.066\C,0,40.12
 9,0.3,28.63\C,0,38.692,0.598,28.359\C,0,41.443,0.204,31.005\C,0,41.257
 ,-0.056,27.606\O,0,41.12,0.004,26.409\C,0,42.62,-0.507,28.203\N,0,35.7
 03,1.195,27.618\C,0,36.719,1.005,26.748\C,0,36.253,0.942,25.274\C,0,34
 .725,1.203,25.422\C,0,34.57,1.482,26.972\C,0,36.979,1.907,24.274\C,0,3
 3.887,0.063,24.817\C,0,33.171,-0.974,25.699\N,0,34.007,2.001,29.752\C,
 0,33.052,2.206,28.78\C,0,31.732,2.481,29.348\C,0,32.031,2.497,30.725\C
 ,0,33.355,2.228,30.887\C,0,30.529,2.63,28.642\C,0,31.453,2.732,32.034\
 O,0,30.31,3.118,32.26\C,0,32.551,2.508,33.04\C,0,32.722,3.703,33.933\O
 ,0,33.073,4.765,33.52\O,0,32.23,3.432,35.208\C,0,32.172,4.605,36.092\C
 ,0,37.541,2.971,38.573\C,0,38.672,2.33,39.387\C,0,38.638,2.004,40.769\
 C,0,37.373,2.189,41.562\C,0,39.904,1.695,41.628\C,0,40.295,0.229,41.62
 \C,0,40.962,-0.203,42.925\C,0,42.218,-1.024,42.835\C,0,42.117,-2.434,4
 3.492\C,0,43.464,-0.297,43.418\C,0,43.966,0.772,42.487\C,0,44.211,2.14
 ,43.213\C,0,45.659,2.728,43.088\C,0,46.662,2.,44.086\C,0,45.729,4.277,
 43.375\C,0,45.922,5.139,42.047\C,0,44.876,6.272,41.962\C,0,45.451,7.66
 3,42.319\C,0,44.538,8.587,43.124\C,0,45.999,8.433,41.069\H,0,39.357,1.
 24,32.598\H,0,38.848,0.563,26.361\H,0,32.541,2.124,26.774\H,0,35.166,2
 .926,34.482\H,0,37.587,1.335,34.539\H,0,38.576,3.215,35.01\H,0,37.261,
 4.145,34.675\H,0,38.338,3.736,33.321\H,0,35.715,0.022,35.003\H,0,34.10
 8,0.628,34.704\H,0,34.952,0.414,37.042\H,0,33.811,1.759,36.495\H,0,42.
 121,0.911,30.528\H,0,41.881,-0.791,30.927\H,0,41.137,0.614,31.968\H,0,
 43.12,0.38,28.592\H,0,43.255,-0.926,27.423\H,0,42.546,-1.235,29.011\H,
 0,36.323,-0.084,24.914\H,0,34.431,2.135,24.94\H,0,37.925,2.295,24.651\
 H,0,36.457,2.846,24.092\H,0,37.211,1.296,23.402\H,0,34.524,-0.423,24.0
 79\H,0,33.051,0.626,24.4\H,0,32.121,-0.83,25.443\H,0,33.411,-0.881,26.
 758\H,0,33.328,-2.035,25.509\H,0,30.392,1.843,27.9\H,0,30.418,3.535,28
 .044\H,0,29.795,2.546,29.443\H,0,32.226,1.778,33.781\H,0,31.188,4.659,
 36.558\H,0,32.333,5.527,35.533\H,0,32.971,4.553,36.831\H,0,37.008,3.64
 9,39.239\H,0,38.,3.646,37.85\H,0,39.633,2.21,38.888\H,0,37.196,1.22,42
 .028\H,0,36.486,2.451,40.984\H,0,37.538,2.945,42.33\H,0,39.75,2.168,42
 .598\H,0,40.749,2.245,41.216\H,0,41.084,0.082,40.882\H,0,39.408,-0.334
 ,41.331\H,0,40.211,-0.731,43.512\H,0,41.294,0.678,43.475\H,0,42.406,-1
 .214,41.778\H,0,42.084,-3.233,42.752\H,0,41.23,-2.494,44.124\H,0,43.00
 8,-2.674,44.072\H,0,44.325,-0.887,43.734\H,0,43.186,0.081,44.402\H,0,4
 3.351,0.984,41.612\H,0,44.858,0.405,41.979\H,0,43.936,2.071,44.265\H,0
 ,43.652,2.895,42.66\H,0,46.052,2.475,42.103\H,0,47.525,1.65,43.521\H,0
 ,46.141,1.335,44.775\H,0,47.12,2.718,44.766\H,0,46.643,4.548,43.905\H,
 0,44.815,4.505,43.922\H,0,45.677,4.443,41.246\H,0,46.925,5.537,41.895\
 H,0,43.964,5.97,42.477\H,0,44.484,6.239,40.946\H,0,46.31,7.508,42.972\
 H,0,43.669,8.026,43.467\H,0,44.086,9.425,42.594\H,0,45.112,8.859,44.01
 \H,0,46.88,8.921,41.485\H,0,45.258,9.045,40.555\H,0,46.36,7.657,40.394
 \\Version=ES64L-G16RevA.03\State=1-A\HF=-3007.3652377\RMSD=4.205e-09\P
 G=C01 [X(C55H74Mg1N4O6)]\\@


 FLOATING POINT NUMBERS ARE LIKE SANDPILES:
 EVERY TIME THAT YOU MOVE ONE, YOU LOSE A LITTLE SAND 
 AND YOU PICK UP A LITTLE DIRT.
 Job cpu time:       0 days  6 hours 36 minutes  6.8 seconds.
 Elapsed time:       0 days  0 hours 16 minutes 34.9 seconds.
 File lengths (MBytes):  RWF=   8019 Int=      0 D2E=      0 Chk=    390 Scr=      1
 Normal termination of Gaussian 16 at Thu May  5 11:34:04 2022.
